LAMMPS (24 Dec 2020)
OMP_NUM_THREADS environment is not set. Defaulting to 1 thread. (src/comm.cpp:94)
  using 1 OpenMP thread(s) per MPI task
# Simple rigid body system
# needed variables: startTemp, temp

units		lj
atom_style	full
dimension 	3
boundary	p p f
pair_style	lj/cut/opt 2.5

variable 	gcmcdisplace	equal 0
variable 	sigma		equal 1.0
variable 	epsilon 	equal 1.0


read_restart	restart.dat.3000000
Reading restart file ...
  restart file = 24 Dec 2020, LAMMPS = 24 Dec 2020
WARNING: Restart file used different # of processors: 48 vs. 192 (src/read_restart.cpp:697)
  restoring atom style full from restart
  orthogonal box = (0.0000000 0.0000000 0.0000000) to (80.000000 80.000000 160.00000)
  6 by 4 by 8 MPI processor grid
  restoring pair style lj/cut/opt from restart
  439061 atoms
Finding 1-2 1-3 1-4 neighbors ...
  special bond factors lj:    0        0        0       
  special bond factors coul:  0        0        0       
     0 = max # of 1-2 neighbors
     0 = max # of 1-3 neighbors
     0 = max # of 1-4 neighbors
     1 = max # of special neighbors
  special bonds CPU = 1.404 seconds
  read_restart CPU = 1.691 seconds

mass		1 1.0
mass		2 1.0
mass		3 1.0


group		solvent type 1
439061 atoms in group solvent


neighbor 	0.4 bin

pair_coeff	1 1 1.0 1.0
pair_coeff	2 2 0.0 0.0
pair_coeff	3 3 0.0 0.0
pair_coeff	2 3 0.0 0.0
pair_coeff	1 2*3 0.0 0.0

pair_modify 	shift yes


balance 	1.05 shift z 10 1.05
Balancing ...
Neighbor list info ...
  update every 1 steps, delay 10 steps, check yes
  max neighbors/atom: 2000, page size: 100000
  master list distance cutoff = 2.9
  ghost atom cutoff = 2.9
  binsize = 1.45, bins = 56 56 111
  1 neighbor lists, perpetual/occasional/extra = 1 0 0
  (1) pair lj/cut/opt, perpetual
      attributes: half, newton on
      pair build: half/bin/newton
      stencil: half/bin/3d/newton
      bin: standard
 rebalancing time: 0.021 seconds
  iteration count = 5
  initial/final maximal load/proc = 3162.0000 2575.0000
  initial/final imbalance factor  = 1.3827327 1.1260394
  x cuts: 0.0000000 0.16666667 0.33333333 0.50000000 0.66666667 0.83333333 1.0000000
  y cuts: 0.0000000 0.25000000 0.50000000 0.75000000 1.0000000
  z cuts: 0.0000000 0.097656250 0.18359375 0.27734375 0.37890625 0.47656250 0.57031250 0.67968750 1.0000000


####################### WALLS ###########################


variable       epsilonWall equal 2*${epsilon}
variable       epsilonWall equal 2*1

variable       cutoffTop   equal   0.7147*${sigma}
variable       cutoffTop   equal   0.7147*1

variable       cutoffLow   equal   3*${sigma}
variable       cutoffLow   equal   3*1


fix            topWall all wall/lj93 zhi EDGE                ${epsilonWall} ${sigma} ${cutoffTop} units box
fix            topWall all wall/lj93 zhi EDGE                2 ${sigma} ${cutoffTop} units box
fix            topWall all wall/lj93 zhi EDGE                2 1 ${cutoffTop} units box
fix            topWall all wall/lj93 zhi EDGE                2 1 0.7147 units box

fix            lowWall all wall/lj93 zlo EDGE                ${epsilonWall} ${sigma} ${cutoffLow} units box
fix            lowWall all wall/lj93 zlo EDGE                2 ${sigma} ${cutoffLow} units box
fix            lowWall all wall/lj93 zlo EDGE                2 1 ${cutoffLow} units box
fix            lowWall all wall/lj93 zlo EDGE                2 1 3 units box


###################### COMPUTES ##########################

compute        bin1 solvent chunk/atom bin/1d z upper 1.0



######################	FIXES ############################


fix 		peclet solvent ave/chunk 1000 1 1000 bin1 density/number norm 		 none ave one file density.profile

fix 		 temp solvent ave/chunk 1000 1 1000 bin1 temp norm none ave one file temp.profile

fix 		2 solvent nve

## Thermostat


region		regthermo block EDGE EDGE EDGE EDGE 0 20

group 		thermo dynamic solvent region regthermo every 1000
dynamic group thermo defined

fix 		3 thermo langevin ${startTemp} ${temp} 10 156453
fix 		3 thermo langevin 1.0 ${temp} 10 156453
fix 		3 thermo langevin 1.0 1.0 10 156453


## Evaporation

region		regevap block EDGE EDGE EDGE EDGE 140 158
#fix 		gcmc solvent gcmc 100 100 0 1 780493 ${temp} ${mu} ${gcmcdisplace} region regevap
fix 		evap solvent evaporate ${evap} 1 regevap 4379103
fix 		evap solvent evaporate 75 1 regevap 4379103

#### Load balancing

fix 		bal all balance 1000 1.05 shift z 10 1.05

############### Diagnostics and computes ###################
#compute 	com cube	  rigid/local	1 mol x y z
#compute 	quat cube	  rigid/local	1 mol quatw quati quatj quatk

thermo 		1000
thermo_style 	custom step temp epair etotal press pe ke atoms

dump		1 all custom 100000 dump.lammpstrj id mol type x y z
dump 		2 all image 10000 image.*.png type type
dump 		3 all movie 1000 movie.avi type type
#dump 		com cube local 1000 dump.*.xyz c_com[*]
#dump		quat cube      local 1000 dump.*.quat c_quat[*]


restart 	1000000 restart.dat
timestep 	0.005
timer 		full
New timer settings: style=full  mode=nosync  timeout=off


run		5000000
Per MPI rank memory allocation (min/avg/max) = 9.923 | 9.986 | 10.01 Mbytes
Step Temp E_pair TotEng Press PotEng KinEng Atoms 
 3000000     1.016004   -3.1352716   -1.6112691  0.079025997   -3.1352716    1.5240025   439061 
 3001000    1.0152643   -3.1352249   -1.6122869  0.075184699   -3.1352249     1.522938   439048 
 3002000    1.0152107   -3.1351698    -1.612267  0.077367969   -3.1351698    1.5229028   439035 
 3003000     1.014013   -3.1342992   -1.6131447  0.077390419   -3.1342992    1.5211546   439021 
 3004000    1.0138721   -3.1354326   -1.6144444  0.072128592   -3.1354326    1.5209883   439008 
 3005000    1.0139873   -3.1351102   -1.6139041  0.070743425   -3.1351102    1.5212062   438995 
 3006000    1.0130599   -3.1343065   -1.6144432  0.072906238   -3.1343065    1.5198633   438981 
 3007000    1.0127873   -3.1335849   -1.6140855  0.070710869   -3.1335849    1.5194993   438968 
 3008000    1.0142415   -3.1360713   -1.6143451  0.076592742   -3.1360713    1.5217262   438955 
 3009000    1.0136108   -3.1358616   -1.6150332  0.069410197   -3.1358616    1.5208284   438941 
 3010000    1.0138652   -3.1360786   -1.6148235  0.072334259   -3.1360786    1.5212551   438928 
 3011000    1.0145959   -3.1369508   -1.6145541  0.075007481   -3.1369508    1.5223966   438915 
 3012000    1.0147111   -3.1364338   -1.6138158   0.07875447   -3.1364338     1.522618   438901 
 3013000    1.0145767   -3.1357312   -1.6132697  0.074025678   -3.1357312    1.5224615   438888 
 3014000    1.0153705    -3.136521   -1.6128232  0.077509079    -3.136521    1.5236977   438875 
 3015000    1.0153551   -3.1366297   -1.6129065  0.076003565   -3.1366297    1.5237232   438861 
 3016000    1.0153804   -3.1366593   -1.6128529  0.076089244   -3.1366593    1.5238064   438848 
 3017000    1.0146213   -3.1372227   -1.6145104  0.082626306   -3.1372227    1.5227123   438835 
 3018000    1.0158654   -3.1388762   -1.6142482  0.080247044   -3.1388762     1.524628   438821 
 3019000     1.015214    -3.138019   -1.6143235  0.078369564    -3.138019    1.5236956   438808 
 3020000    1.0164376   -3.1392442   -1.6136671  0.082604108   -3.1392442    1.5255771   438795 
 3021000    1.0169522   -3.1395422   -1.6131439  0.076805891   -3.1395422    1.5263983   438781 
 3022000    1.0158102   -3.1389945   -1.6142653   0.07814637   -3.1389945    1.5247293   438768 
 3023000    1.0142791   -3.1374681   -1.6149919  0.078529996   -3.1374681    1.5224762   438755 
 3024000    1.0143121   -3.1368773    -1.614303  0.077450825   -3.1368773    1.5225744   438741 
 3025000    1.0148788   -3.1374265   -1.6139563  0.072676582   -3.1374265    1.5234703   438728 
 3026000    1.0144471   -3.1378104   -1.6149431  0.071132579   -3.1378104    1.5228673   438715 
 3027000    1.0140142   -3.1368602   -1.6145942  0.079368522   -3.1368602    1.5222659   438701 
 3028000    1.0150444   -3.1381662   -1.6143085  0.074091607   -3.1381662    1.5238577   438688 
 3029000    1.0142687   -3.1388346   -1.6160963  0.075753639   -3.1388346    1.5227383   438675 
 3030000    1.0158859   -3.1397654   -1.6145505  0.078666378   -3.1397654    1.5252149   438661 
 3031000     1.013325   -3.1367536   -1.6153385  0.077809821   -3.1367536    1.5214151   438648 
 3032000    1.0151844    -3.139227   -1.6149749  0.078237294    -3.139227    1.5242521   438635 
 3033000    1.0154792   -3.1387042   -1.6139609  0.073297626   -3.1387042    1.5247433   438621 
 3034000     1.014141    -3.135614   -1.6128348   0.08015544    -3.135614    1.5227792   438608 
 3035000    1.0148551   -3.1370494   -1.6131527  0.072275915   -3.1370494    1.5238966   438595 
 3036000    1.0159106   -3.1396286   -1.6140984  0.074751029   -3.1396286    1.5255302   438581 
 3037000    1.0138408   -3.1355618   -1.6130946  0.072926391   -3.1355618    1.5224672   438568 
 3038000    1.0150726   -3.1381052    -1.613743  0.069589591   -3.1381052    1.5243622   438555 
 3039000    1.0132312   -3.1370745    -1.615429  0.075557389   -3.1370745    1.5216455   438541 
 3040000    1.0123762   -3.1372346    -1.616828  0.074744557   -3.1372346    1.5204066   438528 
 3041000    1.0144249   -3.1390746   -1.6155461  0.068958523   -3.1390746    1.5235286   438515 
 3042000    1.0148324   -3.1388656   -1.6146765  0.071413384   -3.1388656    1.5241891   438501 
 3043000    1.0135015   -3.1376752   -1.6154398  0.076277643   -3.1376752    1.5222354   438488 
 3044000    1.0138552    -3.137945   -1.6151332  0.074679838    -3.137945    1.5228118   438475 
 3045000    1.0148014   -3.1384312   -1.6141495   0.07399893   -3.1384312    1.5242817   438461 
 3046000    1.0145077   -3.1375671   -1.6136814  0.074978019   -3.1375671    1.5238857   438448 
 3047000    1.0130957   -3.1374494   -1.6156396  0.077197642   -3.1374494    1.5218098   438435 
 3048000    1.0134786   -3.1386817   -1.6162481  0.076286529   -3.1386817    1.5224336   438421 
 3049000    1.0145913   -3.1399619   -1.6158116  0.073696473   -3.1399619    1.5241503   438408 
 3050000    1.0147059   -3.1390622   -1.6146946  0.077381947   -3.1390622    1.5243677   438395 
 3051000    1.0138694   -3.1395329   -1.6163733  0.070049132   -3.1395329    1.5231596   438381 
 3052000    1.0144546   -3.1405112   -1.6164272  0.077417478   -3.1405112    1.5240841   438368 
 3053000    1.0131852   -3.1401017   -1.6178796  0.075974678   -3.1401017    1.5222221   438355 
 3054000    1.0135451   -3.1410244    -1.618213  0.075721828   -3.1410244    1.5228114   438341 
 3055000    1.0135526   -3.1398741   -1.6170064  0.079258214   -3.1398741    1.5228678   438328 
 3056000    1.0141183   -3.1390754   -1.6153124   0.07916095   -3.1390754     1.523763   438315 
 3057000    1.0144198   -3.1403616   -1.6160968  0.076760624   -3.1403616    1.5242648   438301 
 3058000     1.015255   -3.1419955   -1.6164305  0.073863545   -3.1419955     1.525565   438288 
 3059000    1.0145381   -3.1391546   -1.6146217  0.080604253   -3.1391546    1.5245329   438275 
 3060000     1.015845   -3.1416573   -1.6151118  0.080505596   -3.1416573    1.5265455   438261 
 3061000    1.0145969   -3.1402807   -1.6155656   0.08296138   -3.1402807    1.5247151   438248 
 3062000    1.0155588   -3.1401282   -1.6139221  0.081854743   -3.1401282     1.526206   438235 
 3063000    1.0150911   -3.1408805   -1.6153287   0.07593893   -3.1408805    1.5255518   438221 
 3064000    1.0135516   -3.1392818   -1.6159985  0.078892208   -3.1392818    1.5232833   438208 
 3065000    1.0149433   -3.1409444   -1.6155242  0.073413008   -3.1409444    1.5254202   438195 
 3066000    1.0146842   -3.1409821   -1.6159026  0.071198711   -3.1409821    1.5250795   438181 
 3067000    1.0126918    -3.138389   -1.6162589  0.075035536    -3.138389    1.5221301   438168 
 3068000    1.0117266   -3.1382046   -1.6174802  0.077472981   -3.1382046    1.5207244   438155 
 3069000    1.0119273   -3.1376585   -1.6165838  0.075050835   -3.1376585    1.5210747   438141 
 3070000    1.0127864   -3.1393429   -1.6169317  0.068032475   -3.1393429    1.5224112   438128 
 3071000    1.0119974   -3.1383495   -1.6170792  0.068913623   -3.1383495    1.5212703   438115 
 3072000    1.0111926   -3.1360883   -1.6159791  0.075961916   -3.1360883    1.5201092   438101 
 3073000    1.0113537   -3.1379704    -1.617574  0.074173752   -3.1379704    1.5203964   438088 
 3074000    1.0121896   -3.1373409   -1.6156427  0.071993272   -3.1373409    1.5216982   438075 
 3075000    1.0120534   -3.1375555   -1.6160134   0.07116165   -3.1375555    1.5215421   438061 
 3076000    1.0131765   -3.1396212   -1.6163454  0.070183441   -3.1396212    1.5232758   438048 
 3077000    1.0122161   -3.1384648   -1.6165878  0.070918507   -3.1384648     1.521877   438035 
 3078000    1.0111613   -3.1379649   -1.6176251  0.068442244   -3.1379649    1.5203398   438021 
 3079000    1.0125558   -3.1395706   -1.6170891  0.076171812   -3.1395706    1.5224815   438008 
 3080000    1.0146296   -3.1422388   -1.6165938  0.075210058   -3.1422388     1.525645   437995 
 3081000    1.0136176   -3.1396835   -1.6155114  0.077775511   -3.1396835     1.524172   437981 
 3082000    1.0147191   -3.1416752   -1.6158015  0.077880055   -3.1416752    1.5258737   437968 
 3083000    1.0145806   -3.1426399   -1.6169292  0.072800279   -3.1426399    1.5257107   437955 
 3084000    1.0147062    -3.142737   -1.6167886  0.075087939    -3.142737    1.5259484   437941 
 3085000    1.0147994   -3.1446234   -1.6184896   0.06951653   -3.1446234    1.5261338   437928 
 3086000    1.0125359   -3.1410798   -1.6183047  0.071495542   -3.1410798    1.5227751   437915 
 3087000    1.0133939   -3.1423492   -1.6182351  0.075868297   -3.1423492    1.5241141   437901 
 3088000    1.0144191   -3.1440705   -1.6183693  0.075623357   -3.1440705    1.5257012   437888 
 3089000    1.0123962   -3.1418414   -1.6191374  0.084543049   -3.1418414     1.522704   437875 
 3090000    1.0135498   -3.1440397   -1.6195519   0.07090724   -3.1440397    1.5244878   437861 
 3091000    1.0121178   -3.1443739   -1.6219948  0.074040464   -3.1443739    1.5223791   437848 
 3092000    1.0109185   -3.1421867   -1.6215664  0.076627423   -3.1421867    1.5206203   437835 
 3093000    1.0123485   -3.1435144   -1.6206944  0.076125668   -3.1435144      1.52282   437821 
 3094000    1.0145717   -3.1449856   -1.6187761  0.078998291   -3.1449856    1.5262096   437808 
 3095000    1.0133919    -3.144527   -1.6200469  0.080328821    -3.144527    1.5244801   437795 
 3096000     1.012066   -3.1427224   -1.6201881  0.079448996   -3.1427224    1.5225343   437781 
 3097000    1.0132739   -3.1450359   -1.6206393  0.077890354   -3.1450359    1.5243966   437768 
 3098000    1.0125225   -3.1452066   -1.6218951  0.072987398   -3.1452066    1.5233115   437755 
 3099000    1.0136324   -3.1476338   -1.6226038  0.072850423   -3.1476338      1.52503   437741 
 3100000    1.0120799   -3.1453224    -1.622583  0.074535174   -3.1453224    1.5227394   437728 
 3101000    1.0113474   -3.1441861   -1.6225034  0.071255774   -3.1441861    1.5216826   437715 
 3102000    1.0120818   -3.1444081   -1.6215718   0.07359897   -3.1444081    1.5228363   437701 
 3103000    1.0120963   -3.1444755   -1.6215721  0.070369748   -3.1444755    1.5229034   437688 
 3104000    1.0108923   -3.1425284   -1.6213915  0.075562917   -3.1425284    1.5211369   437675 
 3105000     1.011502   -3.1426305   -1.6205275  0.074924903   -3.1426305     1.522103   437661 
 3106000    1.0094601   -3.1414097   -1.6223342  0.072482517   -3.1414097    1.5190755   437648 
 3107000    1.0094809   -3.1420579   -1.6229059  0.071386206   -3.1420579    1.5191519   437635 
 3108000    1.0094851     -3.14142   -1.6222132  0.076194135     -3.14142    1.5192068   437621 
 3109000    1.0094937   -3.1415838   -1.6223189  0.071963374   -3.1415838    1.5192649   437608 
 3110000      1.01028     -3.14183   -1.6213365  0.075643224     -3.14183    1.5204934   437595 
 3111000    1.0107446   -3.1417253   -1.6204841  0.071155199   -3.1417253    1.5212412   437581 
 3112000    1.0103109   -3.1414977   -1.6208639  0.075350712   -3.1414977    1.5206338   437568 
 3113000    1.0100176   -3.1414989   -1.6212615  0.076908623   -3.1414989    1.5202374   437555 
 3114000    1.0098095   -3.1404397   -1.6204669  0.073612379   -3.1404397    1.5199728   437541 
 3115000    1.0118659   -3.1420636   -1.6189501  0.082449111   -3.1420636    1.5231135   437528 
 3116000    1.0107137   -3.1411036   -1.6196794  0.074296715   -3.1411036    1.5214242   437515 
 3117000    1.0114499   -3.1431557   -1.6205745  0.070967895   -3.1431557    1.5225812   437501 
 3118000    1.0111872   -3.1428286   -1.6205976  0.069337835   -3.1428286     1.522231   437488 
 3119000    1.0091552   -3.1408097   -1.6215926   0.07429662   -3.1408097    1.5192171   437475 
 3120000    1.0097609   -3.1420905   -1.6219128  0.070539416   -3.1420905    1.5201776   437461 
 3121000    1.0095175   -3.1427259   -1.6228696  0.072171398   -3.1427259    1.5198564   437448 
 3122000    1.0094493   -3.1426207   -1.6228219   0.06908198   -3.1426207    1.5197988   437435 
 3123000    1.0104089   -3.1443623     -1.62307  0.072575416   -3.1443623    1.5212923   437421 
 3124000    1.0087073   -3.1425322   -1.6237568  0.077968603   -3.1425322    1.5187754   437408 
 3125000    1.0098226   -3.1430197   -1.6225197  0.074417255   -3.1430197       1.5205   437395 
 3126000    1.0090154    -3.143621   -1.6242878  0.074874531    -3.143621    1.5193331   437381 
 3127000    1.0099641   -3.1443753   -1.6235684  0.073504357   -3.1443753    1.5208068   437368 
 3128000    1.0091577   -3.1449655   -1.6253277  0.073548723   -3.1449655    1.5196378   437355 
 3129000      1.00915   -3.1446144   -1.6249396  0.074416675   -3.1446144    1.5196749   437341 
 3130000    1.0105694     -3.14625   -1.6243925    0.0706425     -3.14625    1.5218575   437328 
 3131000    1.0115388   -3.1483721   -1.6250095  0.068501895   -3.1483721    1.5233626   437315 
 3132000     1.010313   -3.1467343    -1.625169   0.07266309   -3.1467343    1.5215653   437301 
 3133000    1.0095745   -3.1465789   -1.6260806  0.072372554   -3.1465789    1.5204983   437288 
 3134000    1.0092936    -3.145637   -1.6255166  0.073855947    -3.145637    1.5201204   437275 
 3135000    1.0097785   -3.1468219   -1.6259223   0.07193044   -3.1468219    1.5208995   437261 
 3136000    1.0097498   -3.1471336   -1.6262321  0.077703955   -3.1471336    1.5209014   437248 
 3137000    1.0109278   -3.1501549   -1.6274339  0.070276237   -3.1501549     1.522721   437235 
 3138000    1.0102868   -3.1492093   -1.6274051  0.073806908   -3.1492093    1.5218042   437221 
 3139000    1.0121311   -3.1506113   -1.6259837  0.073089713   -3.1506113    1.5246276   437208 
 3140000     1.011152   -3.1500864   -1.6268883  0.078053652   -3.1500864    1.5231981   437195 
 3141000    1.0108417   -3.1495958   -1.6268163  0.080764037   -3.1495958    1.5227795   437181 
 3142000    1.0114974   -3.1502278   -1.6264153  0.071931392   -3.1502278    1.5238125   437168 
 3143000    1.0110396   -3.1493331    -1.626165  0.082242899   -3.1493331    1.5231681   437155 
 3144000    1.0104134    -3.149605   -1.6273315  0.078528585    -3.149605    1.5222734   437141 
 3145000    1.0106983    -3.150564    -1.627816  0.070648863    -3.150564     1.522748   437128 
 3146000    1.0111609   -3.1521708   -1.6286805  0.073347898   -3.1521708    1.5234903   437115 
 3147000    1.0090509   -3.1499202   -1.6295603  0.077820006   -3.1499202    1.5203599   437101 
 3148000    1.0073095   -3.1487925   -1.6310113  0.075585568   -3.1487925    1.5177812   437088 
 3149000    1.0101018   -3.1514198   -1.6293859  0.074857532   -3.1514198    1.5220339   437075 
 3150000    1.0087424   -3.1493444   -1.6293102   0.07474438   -3.1493444    1.5200342   437061 
 3151000    1.0102661   -3.1515027   -1.6291272  0.075302654   -3.1515027    1.5223754   437048 
 3152000    1.0096255   -3.1503997   -1.6289443  0.074802964   -3.1503997    1.5214554   437035 
 3153000    1.0082841   -3.1487167   -1.6292341  0.073945961   -3.1487167    1.5194826   437021 
 3154000    1.0098849   -3.1494494   -1.6275091  0.073966969   -3.1494494    1.5219403   437008 
 3155000    1.0077805   -3.1477442   -1.6289301  0.077000055   -3.1477442    1.5188141   436995 
 3156000    1.0078433   -3.1470723   -1.6281148  0.072374929   -3.1470723    1.5189574   436981 
 3157000    1.0092962   -3.1490727   -1.6278803  0.071698673   -3.1490727    1.5211924   436968 
 3158000    1.0097971    -3.148931   -1.6269384  0.076754513    -3.148931    1.5219925   436955 
 3159000     1.009464   -3.1485371   -1.6269979  0.073219431   -3.1485371    1.5215392   436941 
 3160000    1.0068502   -3.1450857    -1.627441  0.072269392   -3.1450857    1.5176447   436928 
 3161000     1.008705   -3.1491024   -1.6286167  0.073010035   -3.1491024    1.5204857   436915 
 3162000    1.0063801   -3.1463671   -1.6293373  0.073388672   -3.1463671    1.5170299   436901 
 3163000    1.0083606   -3.1489141   -1.6288536  0.072134033   -3.1489141    1.5200605   436888 
 3164000    1.0089455   -3.1490581   -1.6280707  0.073577718   -3.1490581    1.5209874   436875 
 3165000    1.0092792   -3.1481364    -1.626597  0.071508985   -3.1481364    1.5215393   436861 
 3166000     1.007748   -3.1458898   -1.6266136  0.075651845   -3.1458898    1.5192762   436848 
 3167000     1.010303   -3.1489449   -1.6257715  0.074702957   -3.1489449    1.5231734   436835 
 3168000    1.0102962   -3.1489073   -1.6256954  0.072558825   -3.1489073     1.523212   436821 
 3169000     1.009267   -3.1479194   -1.6262139  0.075242304   -3.1479194    1.5217055   436808 
 3170000     1.010719   -3.1504959   -1.6265557  0.076185596   -3.1504959    1.5239402   436795 
 3171000    1.0107953   -3.1505009   -1.6263969  0.069484316   -3.1505009     1.524104   436781 
 3172000    1.0092444   -3.1493157   -1.6275049  0.074871827   -3.1493157    1.5218108   436768 
 3173000     1.010734   -3.1517375   -1.6276353  0.071456784   -3.1517375    1.5241022   436755 
 3174000    1.0090104   -3.1485078   -1.6269557   0.07503177   -3.1485078    1.5215521   436741 
 3175000    1.0085771   -3.1490789   -1.6281349  0.074359915   -3.1490789     1.520944   436728 
 3176000     1.008531   -3.1498603   -1.6289406  0.070572909   -3.1498603    1.5209197   436715 
 3177000    1.0080158   -3.1483641   -1.6281726  0.073748732   -3.1483641    1.5201915   436701 
 3178000    1.0084423   -3.1497698   -1.6288899  0.070929226   -3.1497698    1.5208799   436688 
 3179000    1.0066759   -3.1488434   -1.6305823  0.076621821   -3.1488434    1.5182611   436675 
 3180000    1.0078203   -3.1498201   -1.6297842  0.072265374   -3.1498201    1.5200359   436661 
 3181000    1.0090621   -3.1521389   -1.6301848  0.069464617   -3.1521389    1.5219541   436648 
 3182000    1.0081834   -3.1500918   -1.6294178  0.072713474   -3.1500918     1.520674   436635 
 3183000    1.0093991     -3.15156   -1.6290036  0.074673429     -3.15156    1.5225565   436621 
 3184000     1.007935   -3.1506757   -1.6302823  0.076411586   -3.1506757    1.5203934   436608 
 3185000    1.0087973   -3.1521135   -1.6303742  0.072883226   -3.1521135    1.5217394   436595 
 3186000     1.008291    -3.151675   -1.6306505   0.07614549    -3.151675    1.5210245   436581 
 3187000    1.0085533   -3.1508219   -1.6293564  0.075863076   -3.1508219    1.5214655   436568 
 3188000     1.008306    -3.151857   -1.6307193  0.072424934    -3.151857    1.5211377   436555 
 3189000    1.0076764   -3.1505241   -1.6302875  0.073445154   -3.1505241    1.5202366   436541 
 3190000    1.0058353   -3.1498831   -1.6323788  0.072778707   -3.1498831    1.5175043   436528 
 3191000    1.0064865   -3.1503153   -1.6317833   0.07598261   -3.1503153     1.518532   436515 
 3192000     1.005782   -3.1514312   -1.6339135  0.068614091   -3.1514312    1.5175177   436501 
 3193000    1.0070586    -3.153367    -1.633878  0.063259601    -3.153367     1.519489   436488 
 3194000    1.0070209   -3.1531711   -1.6336937  0.069655527   -3.1531711    1.5194774   436475 
 3195000     1.007811   -3.1547725   -1.6340541  0.067974532   -3.1547725    1.5207184   436461 
 3196000    1.0057533    -3.151253   -1.6335943   0.07324491    -3.151253    1.5176587   436448 
 3197000    1.0071412   -3.1519514   -1.6321531  0.075111532   -3.1519514    1.5197982   436435 
 3198000    1.0067403   -3.1521284   -1.6328864  0.073437719   -3.1521284    1.5192419   436421 
 3199000    1.0072372   -3.1538672   -1.6338301  0.071878866   -3.1538672    1.5200371   436408 
 3200000    1.0067298   -3.1517074   -1.6323908  0.077187383   -3.1517074    1.5193166   436395 
 3201000    1.0078065   -3.1541969   -1.6332066  0.072761686   -3.1541969    1.5209903   436381 
 3202000    1.0063264   -3.1513552   -1.6325534  0.075251764   -3.1513552    1.5188018   436368 
 3203000     1.006902    -3.152176   -1.6324602   0.07195851    -3.152176    1.5197158   436355 
 3204000    1.0079798   -3.1537559   -1.6323646  0.071882771   -3.1537559    1.5213913   436341 
 3205000    1.0074675   -3.1542569   -1.6335934   0.07365446   -3.1542569    1.5206634   436328 
 3206000     1.007875   -3.1543708   -1.6330471  0.072265673   -3.1543708    1.5213238   436315 
 3207000    1.0068523   -3.1528682   -1.6330393  0.074605302   -3.1528682    1.5198289   436301 
 3208000    1.0068937   -3.1531335   -1.6331968  0.070422657   -3.1531335    1.5199367   436288 
 3209000    1.0078055   -3.1559319   -1.6345736  0.068481774   -3.1559319    1.5213583   436275 
 3210000    1.0065078   -3.1529505   -1.6335024  0.075376276   -3.1529505    1.5194481   436261 
 3211000    1.0061231   -3.1537224   -1.6348098   0.07639373   -3.1537224    1.5189126   436248 
 3212000     1.004861   -3.1521671   -1.6351145  0.070894543   -3.1521671    1.5170525   436235 
 3213000    1.0068473   -3.1545766   -1.6344765  0.072763393   -3.1545766    1.5201001   436221 
 3214000    1.0065122   -3.1531537   -1.6335144  0.071904065   -3.1531537    1.5196394   436208 
 3215000    1.0066005   -3.1534277   -1.6336097    0.0708209   -3.1534277     1.519818   436195 
 3216000    1.0052385   -3.1515371   -1.6337267  0.070787531   -3.1515371    1.5178104   436181 
 3217000    1.0056655    -3.151396   -1.6328957  0.072216308    -3.151396    1.5185003   436168 
 3218000    1.0058042   -3.1518284   -1.6330735  0.074431196   -3.1518284     1.518755   436155 
 3219000    1.0065838   -3.1523261   -1.6323452  0.074068597   -3.1523261    1.5199809   436141 
 3220000     1.005403   -3.1518661   -1.6336229  0.073154863   -3.1518661    1.5182431   436128 
 3221000    1.0054524   -3.1510959   -1.6327329  0.073952426   -3.1510959    1.5183631   436115 
 3222000    1.0056713   -3.1513049   -1.6325626  0.073723824   -3.1513049    1.5187423   436101 
 3223000    1.0069584   -3.1539166   -1.6331852  0.072694836   -3.1539166    1.5207314   436088 
 3224000    1.0055678   -3.1518332   -1.6331566  0.071710159   -3.1518332    1.5186767   436075 
 3225000    1.0058503   -3.1533502   -1.6341982  0.072929468   -3.1533502     1.519152   436061 
 3226000    1.0062061    -3.153829   -1.6340942  0.070228157    -3.153829    1.5197348   436048 
 3227000    1.0071066   -3.1561445   -1.6350043  0.071593735   -3.1561445    1.5211402   436035 
 3228000    1.0061617   -3.1534361   -1.6336743  0.072566466   -3.1534361    1.5197618   436021 
 3229000    1.0068294   -3.1542414   -1.6334258  0.068347143   -3.1542414    1.5208156   436008 
 3230000    1.0058111   -3.1527395   -1.6334168  0.076103008   -3.1527395    1.5193228   435995 
 3231000    1.0062403   -3.1529301   -1.6329102  0.070850875   -3.1529301    1.5200198   435981 
 3232000    1.0066774    -3.153491   -1.6327655  0.069237592    -3.153491    1.5207256   435968 
 3233000    1.0060791   -3.1529457   -1.6330787  0.069912611   -3.1529457     1.519867   435955 
 3234000    1.0044284   -3.1509058   -1.6334837   0.07061406   -3.1509058    1.5174221   435941 
 3235000    1.0063801   -3.1542818    -1.633866  0.075405136   -3.1542818    1.5204159   435928 
 3236000    1.0070644   -3.1556072   -1.6341121  0.073698011   -3.1556072    1.5214951   435915 
 3237000     1.007634   -3.1565028   -1.6340982  0.070810627   -3.1565028    1.5224046   435901 
 3238000    1.0065943   -3.1546029   -1.6337238   0.07048018   -3.1546029    1.5208791   435888 
 3239000    1.0061147   -3.1558354   -1.6356356  0.068107621   -3.1558354    1.5201997   435875 
 3240000    1.0047716    -3.153364   -1.6351448  0.068701783    -3.153364    1.5182191   435861 
 3241000    1.0041127    -3.152413   -1.6351441  0.072502853    -3.152413    1.5172689   435848 
 3242000    1.0037419   -3.1526391   -1.6358853  0.072215133   -3.1526391    1.5167537   435835 
 3243000     1.005267   -3.1538325   -1.6347253  0.073238978   -3.1538325    1.5191072   435821 
 3244000    1.0050675   -3.1544821   -1.6356311  0.066517593   -3.1544821     1.518851   435808 
 3245000    1.0044657   -3.1528956   -1.6349088  0.074449454   -3.1528956    1.5179868   435795 
 3246000    1.0041641   -3.1531753   -1.6355955  0.073926667   -3.1531753    1.5175798   435781 
 3247000    1.0049869   -3.1540363   -1.6351678  0.069564263   -3.1540363    1.5188686   435768 
 3248000     1.004826   -3.1558389   -1.6371682  0.071767412   -3.1558389    1.5186707   435755 
 3249000    1.0045742   -3.1543817   -1.6360427  0.073308419   -3.1543817     1.518339   435741 
 3250000    1.0061435    -3.156746   -1.6359898  0.069049709    -3.156746    1.5207561   435728 
 3251000    1.0044901   -3.1539447   -1.6356423  0.069893741   -3.1539447    1.5183024   435715 
 3252000    1.0054382   -3.1558395   -1.6360551  0.069153972   -3.1558395    1.5197844   435701 
 3253000    1.0048223   -3.1555694   -1.6366707  0.071557699   -3.1555694    1.5188987   435688 
 3254000    1.0047102   -3.1551779   -1.6364034  0.076088778   -3.1551779    1.5187745   435675 
 3255000    1.0048428   -3.1554023   -1.6363785  0.071750839   -3.1554023    1.5190238   435661 
 3256000    1.0055547   -3.1552616   -1.6351162  0.077096852   -3.1552616    1.5201453   435648 
 3257000    1.0065415   -3.1572624   -1.6355799   0.07124907   -3.1572624    1.5216825   435635 
 3258000    1.0057367   -3.1569721   -1.6364573  0.076518895   -3.1569721    1.5205148   435621 
 3259000    1.0046119   -3.1546052   -1.6357456  0.076172994   -3.1546052    1.5188596   435608 
 3260000    1.0044991   -3.1547198   -1.6359855  0.076867996   -3.1547198    1.5187343   435595 
 3261000    1.0044269   -3.1560277   -1.6373537  0.072953796   -3.1560277     1.518674   435581 
 3262000    1.0043541   -3.1562002    -1.637591  0.071279725   -3.1562002    1.5186092   435568 
 3263000    1.0043173   -3.1576486   -1.6390497  0.074181347   -3.1576486    1.5185989   435555 
 3264000    1.0051345   -3.1584042   -1.6385209  0.074292265   -3.1584042    1.5198833   435541 
 3265000    1.0051487   -3.1577471   -1.6377969  0.075297334   -3.1577471    1.5199502   435528 
 3266000    1.0033545   -3.1567502   -1.6394679  0.073908733   -3.1567502    1.5172823   435515 
 3267000    1.0040812   -3.1582705   -1.6398404  0.073608145   -3.1582705    1.5184301   435501 
 3268000    1.0041997   -3.1578566   -1.6392019  0.072178847   -3.1578566    1.5186547   435488 
 3269000    1.0046574   -3.1593514   -1.6399592  0.074229876   -3.1593514    1.5193922   435475 
 3270000    1.0048846   -3.1583832   -1.6385986  0.073763524   -3.1583832    1.5197846   435461 
 3271000    1.0031915   -3.1583003    -1.641031  0.065080332   -3.1583003    1.5172694   435448 
 3272000    1.0032261    -3.158189    -1.640822  0.072344548    -3.158189    1.5173669   435435 
 3273000     1.004047   -3.1579525   -1.6392952  0.069783474   -3.1579525    1.5186573   435421 
 3274000    1.0041244   -3.1583378   -1.6395181  0.071581873   -3.1583378    1.5188197   435408 
 3275000    1.0038633   -3.1589795   -1.6405093  0.069813882   -3.1589795    1.5184702   435395 
 3276000    1.0028025   -3.1569497   -1.6400354  0.075442041   -3.1569497    1.5169144   435381 
 3277000     1.004456   -3.1603559    -1.640895  0.072680975   -3.1603559    1.5194609   435368 
 3278000    1.0058934   -3.1599764   -1.6382956  0.075318212   -3.1599764    1.5216808   435355 
 3279000    1.0034931    -3.157473   -1.6393744  0.073631596    -3.157473    1.5180985   435341 
 3280000    1.0039165   -3.1590612   -1.6402769  0.075219207   -3.1590612    1.5187844   435328 
 3281000    1.0044663   -3.1597939   -1.6401324  0.070868526   -3.1597939    1.5196615   435315 
 3282000     1.003742   -3.1566917   -1.6380771  0.075710995   -3.1566917    1.5186146   435301 
 3283000    1.0055683   -3.1591509   -1.6377277  0.073839918   -3.1591509    1.5214231   435288 
 3284000    1.0034592   -3.1570701   -1.6387927  0.077663329   -3.1570701    1.5182774   435275 
 3285000    1.0039096   -3.1588217   -1.6398141  0.074713716   -3.1588217    1.5190077   435261 
 3286000    1.0032472   -3.1571957   -1.6391449  0.076588705   -3.1571957    1.5180508   435248 
 3287000    1.0042611   -3.1584828   -1.6388524  0.077131444   -3.1584828    1.5196303   435235 
 3288000    1.0037497   -3.1588513   -1.6399459  0.068825357   -3.1588513    1.5189054   435221 
 3289000    1.0025263   -3.1574444    -1.640345  0.071083182   -3.1574444    1.5170994   435208 
 3290000    1.0044957   -3.1592869   -1.6391619  0.074525197   -3.1592869     1.520125   435195 
 3291000    1.0016556   -3.1557014   -1.6398256  0.071602302   -3.1557014    1.5158759   435181 
 3292000    1.0021132   -3.1576622   -1.6410486  0.071491503   -3.1576622    1.5166136   435168 
 3293000    1.0030218   -3.1578991   -1.6398649  0.071196673   -3.1578991    1.5180342   435155 
 3294000     1.002214   -3.1553536   -1.6384932  0.069002292   -3.1553536    1.5168604   435141 
 3295000    1.0017396   -3.1560051   -1.6398175  0.071571832   -3.1560051    1.5161876   435128 
 3296000    1.0020922   -3.1562068   -1.6394401  0.073701408   -3.1562068    1.5167667   435115 
 3297000    1.0024189   -3.1565252   -1.6392152  0.065888786   -3.1565252    1.5173099   435101 
 3298000     1.003026   -3.1579989   -1.6397247  0.070938907   -3.1579989    1.5182742   435088 
 3299000    1.0028134   -3.1573752   -1.6393775  0.074440295   -3.1573752    1.5179978   435075 
 3300000    1.0028924   -3.1578563   -1.6396902  0.069992125   -3.1578563    1.5181662   435061 
 3301000     1.003529   -3.1591846   -1.6400093  0.065984123   -3.1591846    1.5191753   435048 
 3302000    1.0029224   -3.1569765   -1.6386741  0.066211613   -3.1569765    1.5183023   435035 
 3303000    1.0026272   -3.1568152   -1.6389109  0.064391249   -3.1568152    1.5179043   435021 
 3304000    1.0025222   -3.1556152   -1.6378246  0.071455127   -3.1556152    1.5177906   435008 
 3305000    1.0016572   -3.1545079   -1.6379815  0.071247683   -3.1545079    1.5165264   434995 
 3306000     1.003945   -3.1575528   -1.6375138  0.071796211   -3.1575528    1.5200391   434981 
 3307000    1.0043776    -3.158804   -1.6380645  0.069973453    -3.158804    1.5207396   434968 
 3308000    1.0035947   -3.1577428   -1.6381433  0.070028825   -3.1577428    1.5195995   434955 
 3309000    1.0048011   -3.1587316   -1.6372564  0.071890635   -3.1587316    1.5214752   434941 
 3310000    1.0034869   -3.1575409   -1.6380103  0.070399468   -3.1575409    1.5195307   434928 
 3311000    1.0044167   -3.1575641     -1.63658  0.071632836   -3.1575641    1.5209842   434915 
 3312000    1.0033642   -3.1583266   -1.6388874  0.070401215   -3.1583266    1.5194393   434901 
 3313000    1.0018339   -3.1553285   -1.6381613  0.071504871   -3.1553285    1.5171672   434888 
 3314000    1.0006937   -3.1561349   -1.6406491  0.066382412   -3.1561349    1.5154858   434875 
 3315000    1.0004779   -3.1557269   -1.6405192  0.072425806   -3.1557269    1.5152077   434861 
 3316000    1.0001405   -3.1562172   -1.6414752  0.066659893   -3.1562172     1.514742   434848 
 3317000    1.0013903   -3.1578756   -1.6411955  0.069830304   -3.1578756    1.5166801   434835 
 3318000    1.0033182    -3.160444   -1.6407949  0.071765191    -3.160444    1.5196491   434821 
 3319000     1.001293   -3.1575607   -1.6409337  0.069682052   -3.1575607     1.516627   434808 
 3320000    1.0014867     -3.15865   -1.6416842  0.072592221     -3.15865    1.5169658   434795 
 3321000     1.002212    -3.158661   -1.6405478  0.075748097    -3.158661    1.5181133   434781 
 3322000    1.0037398   -3.1607661   -1.6402931  0.075280797   -3.1607661     1.520473   434768 
 3323000    1.0018241   -3.1586754    -1.641059  0.068830527   -3.1586754    1.5176165   434755 
 3324000     1.001895    -3.158782   -1.6410093  0.073683918    -3.158782    1.5177727   434741 
 3325000    1.0028914   -3.1597192   -1.6403917  0.072817965   -3.1597192    1.5193275   434728 
 3326000    1.0017346   -3.1597142   -1.6420937  0.070774368   -3.1597142    1.5176205   434715 
 3327000    1.0017919   -3.1597682   -1.6420121  0.073152347   -3.1597682    1.5177561   434701 
 3328000    1.0008154   -3.1595665   -1.6432444  0.068542278   -3.1595665    1.5163221   434688 
 3329000    1.0003546   -3.1571476   -1.6414783  0.072949599   -3.1571476    1.5156693   434675 
 3330000    1.0010812   -3.1576545   -1.6408355  0.071671044   -3.1576545     1.516819   434661 
 3331000    1.0012375   -3.1588224   -1.6417211  0.072839793   -3.1588224    1.5171013   434648 
 3332000    1.0009371   -3.1572984    -1.640607  0.071717956   -3.1572984    1.5166914   434635 
 3333000     1.001262   -3.1595237   -1.6422911  0.073557877   -3.1595237    1.5172325   434621 
 3334000    1.0004976   -3.1590846    -1.642965   0.06478834   -3.1590846    1.5161196   434608 
 3335000   0.99893111   -3.1579984   -1.6442073  0.069202088   -3.1579984    1.5137911   434595 
 3336000    1.0001459   -3.1591028    -1.643422  0.072747979   -3.1591028    1.5156808   434581 
 3337000    1.0016912   -3.1607076   -1.6426395  0.071572132   -3.1607076    1.5180681   434568 
 3338000    1.0004206   -3.1597936   -1.6436057  0.068468906   -3.1597936    1.5161879   434555 
 3339000   0.99927118   -3.1587235   -1.6442289  0.068436627   -3.1587235    1.5144946   434541 
 3340000   0.99965825   -3.1592831   -1.6441565  0.066718244   -3.1592831    1.5151266   434528 
 3341000    1.0009715   -3.1612527   -1.6440902  0.071084326   -3.1612527    1.5171624   434515 
 3342000   0.99923079   -3.1601348    -1.645562   0.07274918   -3.1601348    1.5145728   434501 
 3343000     1.000667   -3.1618856   -1.6450904  0.071413836   -3.1618856    1.5167952   434488 
 3344000    1.0002788   -3.1619627   -1.6457107  0.072109186   -3.1619627     1.516252   434475 
 3345000    1.0018029    -3.163494   -1.6448828  0.069742647    -3.163494    1.5186112   434461 
 3346000    1.0018226   -3.1651253   -1.6464388  0.069949568   -3.1651253    1.5186866   434448 
 3347000    1.0017085   -3.1635078   -1.6449488  0.072074617   -3.1635078    1.5185591   434435 
 3348000    1.0021292   -3.1647476   -1.6455018  0.074252043   -3.1647476    1.5192458   434421 
 3349000    1.0012243   -3.1641176   -1.6461983  0.072090567   -3.1641176    1.5179194   434408 
 3350000    1.0017066   -3.1665754   -1.6478794   0.06810082   -3.1665754     1.518696   434395 
 3351000    1.0015464   -3.1671688   -1.6486667  0.069530719   -3.1671688    1.5185021   434381 
 3352000    1.0014409   -3.1644409   -1.6460534  0.072995441   -3.1644409    1.5183875   434368 
 3353000    1.0010375    -3.164272   -1.6464507  0.075407025    -3.164272    1.5178213   434355 
 3354000    1.0021636   -3.1663839   -1.6468062  0.070952068   -3.1663839    1.5195777   434341 
 3355000    1.0005398   -3.1647431   -1.6475821  0.075936132   -3.1647431     1.517161   434328 
 3356000    1.0003993   -3.1650042   -1.6480109  0.075002848   -3.1650042    1.5169933   434315 
 3357000    1.0009659   -3.1653728   -1.6474713  0.075440411   -3.1653728    1.5179015   434301 
 3358000    1.0009592   -3.1660055   -1.6480687  0.073628788   -3.1660055    1.5179368   434288 
 3359000    1.0020703   -3.1672943   -1.6476271  0.073664563   -3.1672943    1.5196672   434275 
 3360000    1.0021854   -3.1668615   -1.6469708  0.072005691   -3.1668615    1.5198907   434261 
 3361000    1.0012695   -3.1654859   -1.6469387  0.079102996   -3.1654859    1.5185472   434248 
 3362000    1.0013437   -3.1662016   -1.6474964  0.079041028   -3.1662016    1.5187052   434235 
 3363000   0.99977076   -3.1649268   -1.6485584  0.076097046   -3.1649268    1.5163684   434221 
 3364000     1.001361   -3.1674182   -1.6485924  0.071040213   -3.1674182    1.5188259   434208 
 3365000   0.99970305   -3.1636089   -1.6472524  0.075352617   -3.1636089    1.5163565   434195 
 3366000   0.99997098   -3.1645207   -1.6477089   0.07200906   -3.1645207    1.5168119   434181 
 3367000    1.0005222   -3.1662717   -1.6485783  0.075704936   -3.1662717    1.5176935   434168 
 3368000     1.000426   -3.1653323   -1.6477395  0.070635138   -3.1653323    1.5175929   434155 
 3369000   0.99970846   -3.1653105   -1.6487571   0.07106223   -3.1653105    1.5165534   434141 
 3370000   0.99966484   -3.1640283   -1.6474957  0.071139196   -3.1640283    1.5165326   434128 
 3371000    0.9978586   -3.1630409   -1.6492031  0.068546585   -3.1630409    1.5138378   434115 
 3372000   0.99985549   -3.1641925   -1.6472763  0.068373234   -3.1641925    1.5169162   434101 
 3373000   0.99934662   -3.1635642   -1.6473747   0.06703828   -3.1635642    1.5161896   434088 
 3374000   0.99930917   -3.1621413   -1.6459631  0.071890787   -3.1621413    1.5161781   434075 
 3375000   0.99797731   -3.1621904   -1.6479841  0.073075889   -3.1621904    1.5142063   434061 
 3376000    1.0002186   -3.1653021   -1.6476497  0.072928896   -3.1653021    1.5176524   434048 
 3377000   0.99883689   -3.1628666   -1.6472654  0.067613725   -3.1628666    1.5156012   434035 
 3378000   0.99802908   -3.1613486   -1.6469243  0.071722366   -3.1613486    1.5144244   434021 
 3379000   0.99968817   -3.1641201   -1.6471328  0.067585719   -3.1641201    1.5169873   434008 
 3380000   0.99939505    -3.162892   -1.6463041  0.072825847    -3.162892    1.5165879   433995 
 3381000   0.99822237   -3.1628148   -1.6479575  0.069955448   -3.1628148    1.5148573   433981 
 3382000   0.99788135   -3.1618336   -1.6474484  0.073221427   -3.1618336    1.5143851   433968 
 3383000   0.99995856   -3.1639981   -1.6464151  0.070975607   -3.1639981    1.5175829   433955 
 3384000    1.0002477   -3.1648439   -1.6467732  0.069243046   -3.1648439    1.5180708   433941 
 3385000   0.99861245   -3.1642996   -1.6486653  0.073219973   -3.1642996    1.5156343   433928 
 3386000   0.99943478   -3.1653086   -1.6483807  0.069475337   -3.1653086    1.5169279   433915 
 3387000   0.99904515   -3.1633495   -1.6469641  0.072340442   -3.1633495    1.5163854   433901 
 3388000    1.0018411   -3.1673117    -1.646637  0.071609715   -3.1673117    1.5206747   433888 
 3389000    1.0011582   -3.1668825   -1.6471987   0.07113635   -3.1668825    1.5196838   433875 
 3390000    1.0011104   -3.1673318   -1.6476715  0.071077908   -3.1673318    1.5196602   433861 
 3391000    1.0010573   -3.1667326   -1.6471076  0.071115064   -3.1667326    1.5196251   433848 
 3392000   0.99983807   -3.1648948    -1.647075  0.077224727   -3.1648948    1.5178198   433835 
 3393000     1.000075    -3.165618   -1.6473896  0.073785449    -3.165618    1.5182284   433821 
 3394000    1.0003943   -3.1661219   -1.6473633  0.073193501   -3.1661219    1.5187587   433808 
 3395000    1.0004338   -3.1663385   -1.6474743  0.068505284   -3.1663385    1.5188642   433795 
 3396000    1.0002175    -3.166805   -1.6482201  0.071981966    -3.166805    1.5185848   433781 
 3397000   0.99901048   -3.1670615   -1.6502638  0.070144449   -3.1670615    1.5167977   433768 
 3398000   0.99900219   -3.1666151   -1.6497845   0.07153617   -3.1666151    1.5168306   433755 
 3399000   0.99880619   -3.1668832   -1.6503013  0.070500629   -3.1668832    1.5165819   433741 
 3400000   0.99887511   -3.1676747   -1.6509426  0.071250322   -3.1676747    1.5167321   433728 
 3401000   0.99698984   -3.1655285   -1.6516137  0.077312954   -3.1655285    1.5139148   433715 
 3402000   0.99769764   -3.1662695   -1.6512311   0.06945393   -3.1662695    1.5150385   433701 
 3403000    0.9973375   -3.1653488   -1.6508118  0.067338934   -3.1653488     1.514537   433688 
 3404000   0.99880653   -3.1675318   -1.6507185  0.071820614   -3.1675318    1.5168133   433675 
 3405000   0.99770747   -3.1667881   -1.6515949  0.069812526   -3.1667881    1.5151931   433661 
 3406000   0.99861744   -3.1670291   -1.6504085  0.063690637   -3.1670291    1.5166205   433648 
 3407000   0.99831269   -3.1667606   -1.6505575  0.067958836   -3.1667606    1.5162032   433635 
 3408000   0.99843074   -3.1663053   -1.6498739  0.068065556   -3.1663053    1.5164314   433621 
 3409000    1.0007312   -3.1683521   -1.6483811   0.07094993   -3.1683521     1.519971   433608 
 3410000   0.99984215   -3.1675581    -1.648892  0.065378601   -3.1675581    1.5186661   433595 
 3411000   0.99955298   -3.1671616   -1.6488856   0.07620148   -3.1671616    1.5182759   433581 
 3412000    0.9983773   -3.1659772   -1.6494416   0.07491875   -3.1659772    1.5165356   433568 
 3413000   0.99938456   -3.1668174   -1.6487063  0.072465155   -3.1668174    1.5181111   433555 
 3414000   0.99967232   -3.1687607   -1.6501633  0.074524321   -3.1687607    1.5185973   433541 
 3415000    1.0006884    -3.170227   -1.6500406  0.071476861    -3.170227    1.5201865   433528 
 3416000    1.0002235   -3.1686734   -1.6491477  0.073357203   -3.1686734    1.5195256   433515 
 3417000     1.000634   -3.1686629   -1.6484645  0.072602828   -3.1686629    1.5201984   433501 
 3418000   0.99872221   -3.1647491   -1.6474096  0.073262607   -3.1647491    1.5173395   433488 
 3419000   0.99926432   -3.1679659   -1.6497573  0.074878529   -3.1679659    1.5182086   433475 
 3420000   0.99888934    -3.167491   -1.6498031  0.074043552    -3.167491    1.5176879   433461 
 3421000   0.99986588   -3.1691195   -1.6499023  0.069515546   -3.1691195    1.5192172   433448 
 3422000   0.99805121   -3.1673872   -1.6508817  0.072717656   -3.1673872    1.5165055   433435 
 3423000   0.99841113   -3.1689857   -1.6518844  0.066671253   -3.1689857    1.5171014   433421 
 3424000   0.99873895   -3.1687912   -1.6511462  0.066143836   -3.1687912     1.517645   433408 
 3425000   0.99822592   -3.1688312   -1.6519203  0.070513865   -3.1688312    1.5169109   433395 
 3426000   0.99851319   -3.1697523   -1.6523558  0.065768362   -3.1697523    1.5173965   433381 
 3427000   0.99727562   -3.1676073    -1.652046  0.069987091   -3.1676073    1.5155612   433368 
 3428000   0.99762599   -3.1664991   -1.6503599  0.072176609   -3.1664991    1.5161392   433355 
 3429000    0.9975259   -3.1674844   -1.6514484   0.06612593   -3.1674844    1.5160361   433341 
 3430000   0.99820387   -3.1679183   -1.6508063  0.067450255   -3.1679183     1.517112   433328 
 3431000   0.99711254   -3.1674852   -1.6519865  0.067046532   -3.1674852    1.5154988   433315 
 3432000   0.99832199   -3.1684896   -1.6511036  0.065235746   -3.1684896     1.517386   433301 
 3433000   0.99704582   -3.1662411   -1.6507493  0.070582988   -3.1662411    1.5154918   433288 
 3434000   0.99753731   -3.1663003   -1.6500159  0.074102409   -3.1663003    1.5162843   433275 
 3435000     0.998022   -3.1667791    -1.649709  0.068149807   -3.1667791    1.5170701   433261 
 3436000   0.99606819   -3.1652968   -1.6511512  0.068061587   -3.1652968    1.5141456   433248 
 3437000   0.99528259   -3.1655508    -1.652554  0.072518897   -3.1655508    1.5129968   433235 
 3438000    0.9968025   -3.1688053    -1.653449  0.070834588   -3.1688053    1.5153563   433221 
 3439000   0.99752976   -3.1688814    -1.652374  0.068308607   -3.1688814    1.5165074   433208 
 3440000   0.99733274   -3.1687887   -1.6525353   0.06972954   -3.1687887    1.5162533   433195 
 3441000   0.99609967     -3.16785   -1.6534224   0.06896865     -3.16785    1.5144276   433181 
 3442000   0.99629524   -3.1667037   -1.6519332  0.074567385   -3.1667037    1.5147704   433168 
 3443000   0.99685932   -3.1684988   -1.6528253  0.072681462   -3.1684988    1.5156736   433155 
 3444000   0.99751424   -3.1694249   -1.6527065  0.069765628   -3.1694249    1.5167184   433141 
 3445000   0.99709939   -3.1700906   -1.6539576  0.067718461   -3.1700906    1.5161331   433128 
 3446000   0.99602791   -3.1691444    -1.654595  0.075392235   -3.1691444    1.5145493   433115 
 3447000   0.99674163   -3.1687012   -1.6530176  0.070682763   -3.1687012    1.5156836   433101 
 3448000   0.99636771   -3.1685715   -1.6534111  0.073063516   -3.1685715    1.5151604   433088 
 3449000   0.99646033   -3.1692666   -1.6539198  0.072479858   -3.1692666    1.5153468   433075 
 3450000   0.99704389   -3.1708273   -1.6545441  0.072150959   -3.1708273    1.5162832   433061 
 3451000   0.99702681   -3.1705786   -1.6542758  0.066226018   -3.1705786    1.5163028   433048 
 3452000   0.99714255   -3.1694521   -1.6529278  0.077638181   -3.1694521    1.5165243   433035 
 3453000   0.99823677   -3.1708914   -1.6526538  0.078329317   -3.1708914    1.5182376   433021 
 3454000    0.9981463   -3.1723028   -1.6541572  0.072726128   -3.1723028    1.5181456   433008 
 3455000   0.99757944   -3.1705707   -1.6532417  0.074899017   -3.1705707    1.5173289   432995 
 3456000   0.99596368   -3.1690609   -1.6541406  0.072492882   -3.1690609    1.5149203   432981 
 3457000   0.99634463   -3.1703906   -1.6548453   0.07072128   -3.1703906    1.5155453   432968 
 3458000    0.9963883    -3.170281   -1.6546238  0.075134484    -3.170281    1.5156572   432955 
 3459000   0.99720099   -3.1718885    -1.654946  0.071139546   -3.1718885    1.5169425   432941 
 3460000   0.99457261   -3.1685633   -1.6555737  0.074408606   -3.1685633    1.5129896   432928 
 3461000   0.99447011   -3.1693262   -1.6564471  0.070368261   -3.1693262    1.5128791   432915 
 3462000   0.99554125   -3.1709893   -1.6564317  0.064096953   -3.1709893    1.5145576   432901 
 3463000   0.99510371   -3.1706391   -1.6567017  0.070321325   -3.1706391    1.5139374   432888 
 3464000   0.99541306   -3.1705608   -1.6561072  0.068779533   -3.1705608    1.5144536   432875 
 3465000   0.99643423   -3.1714138   -1.6553576  0.065506598   -3.1714138    1.5160562   432861 
 3466000   0.99633355   -3.1705798   -1.6546313  0.071065215   -3.1705798    1.5159486   432848 
 3467000   0.99515962   -3.1703898   -1.6561819  0.069402975   -3.1703898    1.5142079   432835 
 3468000   0.99572378   -3.1707924   -1.6556771  0.072241701   -3.1707924    1.5151153   432821 
 3469000   0.99662096    -3.170661    -1.654135  0.069117549    -3.170661     1.516526   432808 
 3470000   0.99702072   -3.1724137   -1.6552338  0.076962998   -3.1724137    1.5171799   432795 
 3471000   0.99675563   -3.1728052   -1.6559796  0.068811334   -3.1728052    1.5168256   432781 
 3472000   0.99573723   -3.1716066   -1.6562853   0.07328859   -3.1716066    1.5153213   432768 
 3473000   0.99587944   -3.1704953    -1.654912  0.067447545   -3.1704953    1.5155833   432755 
 3474000   0.99737664   -3.1726673   -1.6547564  0.067363485   -3.1726673    1.5179109   432741 
 3475000   0.99561463   -3.1690901   -1.6538153   0.07042209   -3.1690901    1.5152748   432728 
 3476000   0.99551886   -3.1693479   -1.6541733  0.072905175   -3.1693479    1.5151746   432715 
 3477000   0.99551364   -3.1712289   -1.6560132  0.071672225   -3.1712289    1.5152156   432701 
 3478000   0.99746751   -3.1729461    -1.654711  0.073233244   -3.1729461    1.5182351   432688 
 3479000   0.99574626   -3.1712291   -1.6555683  0.072738791   -3.1712291    1.5156608   432675 
 3480000   0.99506968   -3.1700432   -1.6553633  0.072210988   -3.1700432    1.5146799   432661 
 3481000   0.99512662   -3.1688444   -1.6540323  0.074510617   -3.1688444    1.5148121   432648 
 3482000     0.996512   -3.1703553   -1.6533887  0.071633265   -3.1703553    1.5169666   432635 
 3483000   0.99662559   -3.1710511   -1.6538625  0.073077181   -3.1710511    1.5171886   432621 
 3484000   0.99489646   -3.1708003   -1.6561985  0.069176696   -3.1708003    1.5146018   432608 
 3485000   0.99417483   -3.1700519   -1.6565032  0.068927952   -3.1700519    1.5135487   432595 
 3486000   0.99427484   -3.1709791   -1.6572292  0.066451484   -3.1709791    1.5137499   432581 
 3487000    0.9938205    -3.170623   -1.6575193  0.068052465    -3.170623    1.5131037   432568 
 3488000    0.9930641   -3.1690746    -1.657077  0.066963232   -3.1690746    1.5119975   432555 
 3489000   0.99349725   -3.1701217   -1.6574157  0.066726994   -3.1701217     1.512706   432541 
 3490000   0.99404573   -3.1701281   -1.6565415  0.069829286   -3.1701281    1.5135866   432528 
 3491000   0.99225598   -3.1671816   -1.6562748  0.067269417   -3.1671816    1.5109068   432515 
 3492000   0.99318544   -3.1688238   -1.6564528  0.072143929   -3.1688238    1.5123711   432501 
 3493000   0.99557819   -3.1722612    -1.656201  0.070796037   -3.1722612    1.5160602   432488 
 3494000   0.99389694   -3.1709852   -1.6574397   0.06758048   -3.1709852    1.5135455   432475 
 3495000   0.99361486   -3.1706063   -1.6574414  0.071744593   -3.1706063    1.5131649   432461 
 3496000   0.99461765   -3.1712234   -1.6564858  0.072542797   -3.1712234    1.5147376   432448 
 3497000   0.99405835    -3.170343   -1.6564117  0.068832105    -3.170343    1.5139313   432435 
 3498000   0.99445758   -3.1715898   -1.6570014  0.065512995   -3.1715898    1.5145884   432421 
 3499000   0.99591723   -3.1727594   -1.6559023   0.07119881   -3.1727594    1.5168571   432408 
 3500000   0.99534463    -3.172081   -1.6560505  0.070573593    -3.172081    1.5160305   432395 
 3501000   0.99350381   -3.1713459   -1.6580702  0.068359785   -3.1713459    1.5132757   432381 
 3502000    0.9953275   -3.1729593   -1.6568602  0.068779382   -3.1729593    1.5160991   432368 
 3503000   0.99426783   -3.1725369   -1.6580064  0.073494037   -3.1725369    1.5145305   432355 
 3504000   0.99484497   -3.1739824   -1.6585237  0.069009121   -3.1739824    1.5154587   432341 
 3505000   0.99550799   -3.1751022   -1.6585879  0.065228522   -3.1751022    1.5165143   432328 
 3506000    0.9944779   -3.1727234   -1.6577327  0.071082489   -3.1727234    1.5149907   432315 
 3507000   0.99449703   -3.1731801   -1.6581112  0.071533541   -3.1731801    1.5150689   432301 
 3508000    0.9940602   -3.1730059    -1.658557   0.07003587   -3.1730059    1.5144489   432288 
 3509000   0.99405868   -3.1742249   -1.6597327  0.067131405   -3.1742249    1.5144922   432275 
 3510000    0.9940883   -3.1749917   -1.6604053   0.07242911   -3.1749917    1.5145864   432261 
 3511000   0.99363178     -3.17487   -1.6609336  0.069583432     -3.17487    1.5139363   432248 
 3512000   0.99403923   -3.1758563   -1.6612536  0.067696052   -3.1758563    1.5146027   432235 
 3513000   0.99391295   -3.1752273   -1.6607679  0.068407083   -3.1752273    1.5144593   432221 
 3514000   0.99296811   -3.1736062    -1.660541  0.073680385   -3.1736062    1.5130652   432208 
 3515000   0.99303218   -3.1742378   -1.6610295  0.072943835   -3.1742378    1.5132083   432195 
 3516000   0.99262234   -3.1739589   -1.6613261  0.070306926   -3.1739589    1.5126328   432181 
 3517000   0.99327887   -3.1758566   -1.6621778  0.072006543   -3.1758566    1.5136788   432168 
 3518000   0.99392683   -3.1769044   -1.6621926  0.066266772   -3.1769044    1.5147118   432155 
 3519000   0.99352141   -3.1771357   -1.6629927  0.067883325   -3.1771357     1.514143   432141 
 3520000   0.99387057   -3.1760488   -1.6613281  0.069487286   -3.1760488    1.5147207   432128 
 3521000    0.9936094    -3.175459   -1.6610908  0.065449137    -3.175459    1.5143682   432115 
 3522000   0.99366795   -3.1755124   -1.6610059  0.069694369   -3.1755124    1.5145065   432101 
 3523000   0.99389364   -3.1749198   -1.6600238  0.072225326   -3.1749198    1.5148961   432088 
 3524000   0.99383473   -3.1754695   -1.6606177  0.073870537   -3.1754695    1.5148519   432075 
 3525000   0.99374818   -3.1752444   -1.6604754  0.072999106   -3.1752444     1.514769   432061 
 3526000   0.99417834   -3.1752148   -1.6597445  0.075645886   -3.1752148    1.5154703   432048 
 3527000    0.9947498   -3.1748088   -1.6584218  0.072496834   -3.1748088     1.516387   432035 
 3528000   0.99346458   -3.1732505   -1.6587735  0.074855405   -3.1732505    1.5144769   432021 
 3529000   0.99373442   -3.1739758    -1.659042  0.069228354   -3.1739758    1.5149339   432008 
 3530000   0.99392951   -3.1747176   -1.6594407  0.066055206   -3.1747176    1.5152769   431995 
 3531000   0.99312225   -3.1719563   -1.6578611  0.070078174   -3.1719563    1.5140953   431981 
 3532000   0.99369544   -3.1735706   -1.6585559  0.073473542   -3.1735706    1.5150147   431968 
 3533000   0.99282723    -3.173297   -1.6595604  0.063503128    -3.173297    1.5137366   431955 
 3534000   0.99273696    -3.173474    -1.659826  0.067002355    -3.173474     1.513648   431941 
 3535000    0.9926173   -3.1732572   -1.6597461  0.070453513   -3.1732572    1.5135111   431928 
 3536000   0.99297868   -3.1733968   -1.6592891  0.068538025   -3.1733968    1.5141077   431915 
 3537000   0.99209365   -3.1729629   -1.6601557  0.068449899   -3.1729629    1.5128072   431901 
 3538000   0.99282057   -3.1735876   -1.6596263  0.072200522   -3.1735876    1.5139613   431888 
 3539000   0.99355786   -3.1735118   -1.6583806  0.063999234   -3.1735118    1.5151312   431875 
 3540000   0.99354775    -3.173769   -1.6586041  0.066155841    -3.173769    1.5151649   431861 
 3541000   0.99228828   -3.1725913   -1.6593016  0.070899316   -3.1725913    1.5132897   431848 
 3542000   0.99388117   -3.1755886    -1.659824  0.067374617   -3.1755886    1.5157646   431835 
 3543000    0.9934595   -3.1750395   -1.6598689   0.06734567   -3.1750395    1.5151706   431821 
 3544000   0.99099228   -3.1713736   -1.6599204  0.070653647   -3.1713736    1.5114532   431808 
 3545000   0.99323365   -3.1729596   -1.6580422  0.062330345   -3.1729596    1.5149174   431795 
 3546000   0.99171074   -3.1714963   -1.6588527  0.070857804   -3.1714963    1.5126436   431781 
 3547000    0.9926858   -3.1738435   -1.6596671  0.069741204   -3.1738435    1.5141765   431768 
 3548000    0.9942316   -3.1757766   -1.6591966  0.073045101   -3.1757766      1.51658   431755 
 3549000   0.99189941    -3.173408   -1.6603364  0.074953953    -3.173408    1.5130716   431741 
 3550000   0.99160843   -3.1739822   -1.6613089  0.066423565   -3.1739822    1.5126733   431728 
 3551000   0.99068528   -3.1736944   -1.6623839  0.074453134   -3.1736944    1.5113105   431715 
 3552000    0.9911775   -3.1753116   -1.6632012  0.073750941   -3.1753116    1.5121104   431701 
 3553000   0.99100789   -3.1762713    -1.664374  0.069406173   -3.1762713    1.5118972   431688 
 3554000   0.99195789   -3.1780205   -1.6646284  0.067272961   -3.1780205    1.5133921   431675 
 3555000    0.9913689   -3.1750231   -1.6624806  0.070038797   -3.1750231    1.5125426   431661 
 3556000   0.99083028   -3.1759718   -1.6642054  0.070103969   -3.1759718    1.5117663   431648 
 3557000   0.99076132   -3.1757123   -1.6640057  0.070535111   -3.1757123    1.5117066   431635 
 3558000    0.9921482   -3.1772043   -1.6633325  0.071647261   -3.1772043    1.5138719   431621 
 3559000   0.99367823   -3.1782817   -1.6620296  0.075154463   -3.1782817    1.5162521   431608 
 3560000   0.99278836   -3.1785561   -1.6636162  0.065466631   -3.1785561    1.5149399   431595 
 3561000   0.99342095   -3.1791132   -1.6631588  0.072550216   -3.1791132    1.5159544   431581 
 3562000   0.99281397   -3.1784346   -1.6633609  0.070572492   -3.1784346    1.5150738   431568 
 3563000   0.99258802   -3.1775289   -1.6627544  0.068836739   -3.1775289    1.5147746   431555 
 3564000   0.99400736   -3.1783575   -1.6613677  0.068250252   -3.1783575    1.5169898   431541 
 3565000   0.99502745   -3.1792382   -1.6606458  0.067207079   -3.1792382    1.5185924   431528 
 3566000   0.99236505   -3.1766699   -1.6620952  0.067580507   -3.1766699    1.5145747   431515 
 3567000   0.99315532   -3.1791274   -1.6632974  0.070360415   -3.1791274      1.51583   431501 
 3568000   0.99139446   -3.1781516   -1.6649636  0.067338658   -3.1781516     1.513188   431488 
 3569000   0.99203628   -3.1785839   -1.6643706  0.070418404   -3.1785839    1.5142133   431475 
 3570000   0.99098622   -3.1784897   -1.6658301  0.068238017   -3.1784897    1.5126596   431461 
 3571000   0.99129797   -3.1795408   -1.6663598  0.066543309   -3.1795408     1.513181   431448 
 3572000   0.99008004   -3.1778618   -1.6664943   0.06995071   -3.1778618    1.5113674   431435 
 3573000   0.99249492   -3.1803463   -1.6652433  0.064786477   -3.1803463    1.5151029   431421 
 3574000   0.98970909   -3.1760097    -1.665114  0.071070121   -3.1760097    1.5108957   431408 
 3575000   0.99046513   -3.1759834   -1.6638879  0.069243084   -3.1759834    1.5120955   431395 
 3576000   0.99082904   -3.1759183   -1.6632182  0.069085656   -3.1759183    1.5127001   431381 
 3577000   0.99048959   -3.1763773   -1.6641499  0.066561172   -3.1763773    1.5122275   431368 
 3578000   0.99035168   -3.1769762   -1.6649137  0.061110252   -3.1769762    1.5120625   431355 
 3579000   0.99242198   -3.1777967   -1.6625241  0.068200936   -3.1777967    1.5152726   431341 
 3580000   0.99231315   -3.1783135   -1.6631614  0.067793979   -3.1783135    1.5151521   431328 
 3581000   0.99216187   -3.1782753   -1.6633085  0.071292639   -3.1782753    1.5149668   431315 
 3582000   0.99082219   -3.1772691   -1.6642988   0.06877013   -3.1772691    1.5129703   431301 
 3583000    0.9899694   -3.1760723   -1.6643586  0.069004016   -3.1760723    1.5117136   431288 
 3584000   0.99064094   -3.1775108   -1.6647261  0.070048791   -3.1775108    1.5127847   431275 
 3585000   0.99143213   -3.1783831    -1.664341  0.073128794   -3.1783831     1.514042   431261 
 3586000   0.99161739    -3.179235   -1.6648644  0.068823063    -3.179235    1.5143706   431248 
 3587000   0.99148374   -3.1798669   -1.6656548   0.06805598   -3.1798669    1.5142122   431235 
 3588000   0.99049093   -3.1786493   -1.6659043  0.067616544   -3.1786493     1.512745   431221 
 3589000   0.98908191   -3.1770826    -1.666444  0.074422885   -3.1770826    1.5106386   431208 
 3590000   0.99013504   -3.1800353   -1.6677427  0.068101175   -3.1800353    1.5122927   431195 
 3591000    0.9920295   -3.1805107   -1.6652753  0.066004645   -3.1805107    1.5152354   431181 
 3592000    0.9908905   -3.1787896   -1.6652483  0.066332509   -3.1787896    1.5135413   431168 
 3593000   0.99193149   -3.1806931   -1.6655161  0.069739184   -3.1806931     1.515177   431155 
 3594000    0.9897116    -3.179114   -1.6672788  0.070630421    -3.179114    1.5118353   431141 
 3595000   0.99113557   -3.1797874   -1.6657313  0.072926939   -3.1797874    1.5140561   431128 
 3596000   0.98993114   -3.1775913   -1.6653295  0.071779621   -3.1775913    1.5122618   431115 
 3597000   0.99246529   -3.1815925   -1.6654102  0.071052782   -3.1815925    1.5161823   431101 
 3598000   0.99130666   -3.1811092   -1.6666512  0.069566827   -3.1811092     1.514458   431088 
 3599000   0.98966969   -3.1781075   -1.6661049  0.065823922   -3.1781075    1.5120027   431075 
 3600000   0.99073262   -3.1791193   -1.6654435  0.068152058   -3.1791193    1.5136758   431061 
 3601000   0.98966428   -3.1784437   -1.6663545  0.067240896   -3.1784437    1.5120891   431048 
 3602000   0.99187048     -3.18122   -1.6657144  0.067427155     -3.18122    1.5155057   431035 
 3603000   0.98937689   -3.1769481   -1.6652034  0.066412072   -3.1769481    1.5117447   431021 
 3604000   0.99127932   -3.1798225   -1.6651252  0.066827012   -3.1798225    1.5146973   431008 
 3605000   0.99050405   -3.1797677   -1.6662094  0.072164629   -3.1797677    1.5135583   430995 
 3606000   0.99021713   -3.1798939   -1.6667249  0.072242876   -3.1798939     1.513169   430981 
 3607000    0.9896697   -3.1789328   -1.6665547  0.067160579   -3.1789328    1.5123781   430968 
 3608000    0.9912595   -3.1827709   -1.6679176  0.068151988   -3.1827709    1.5148533   430955 
 3609000   0.99026818   -3.1802127   -1.6668252  0.068755298   -3.1802127    1.5133875   430941 
 3610000   0.99099791   -3.1811506   -1.6666022  0.066045908   -3.1811506    1.5145484   430928 
 3611000   0.98913659   -3.1793148   -1.6675654   0.07192576   -3.1793148    1.5117493   430915 
 3612000   0.99074882   -3.1808408   -1.6665782  0.065523825   -3.1808408    1.5142626   430901 
 3613000   0.99121555   -3.1808987   -1.6658771  0.074180987   -3.1808987    1.5150217   430888 
 3614000   0.99159172   -3.1817192   -1.6660768  0.073101827   -3.1817192    1.5156423   430875 
 3615000   0.98948004   -3.1796104   -1.6671466  0.072788548   -3.1796104    1.5124638   430861 
 3616000   0.99067356   -3.1819461   -1.6676122  0.068617274   -3.1819461    1.5143338   430848 
 3617000   0.99034086   -3.1825905   -1.6687195    0.0626451   -3.1825905    1.5138709   430835 
 3618000   0.98922039    -3.180843   -1.6686357  0.069595522    -3.180843    1.5122073   430821 
 3619000   0.98912321   -3.1810784   -1.6689741  0.067627181   -3.1810784    1.5121044   430808 
 3620000   0.98804185   -3.1810016   -1.6705048  0.066855673   -3.1810016    1.5104968   430795 
 3621000   0.98768451   -3.1795302   -1.6695306  0.071432594   -3.1795302    1.5099996   430781 
 3622000   0.98940457   -3.1820328   -1.6693579  0.065580953   -3.1820328    1.5126749   430768 
 3623000   0.98715768   -3.1782628   -1.6689775   0.07099998   -3.1782628    1.5092853   430755 
 3624000   0.98889587   -3.1812866   -1.6692946   0.06700277   -3.1812866     1.511992   430741 
 3625000   0.98924148   -3.1817353   -1.6691693  0.069454578   -3.1817353     1.512566   430728 
 3626000   0.98921051   -3.1802888   -1.6677245  0.068317433   -3.1802888    1.5125643   430715 
 3627000   0.98826817   -3.1788246    -1.667652  0.072040028   -3.1788246    1.5111726   430701 
 3628000   0.98971473   -3.1816972    -1.668267  0.067990559   -3.1816972    1.5134302   430688 
 3629000   0.98712841   -3.1778382   -1.6683173  0.068904071   -3.1778382    1.5095209   430675 
 3630000   0.98837521    -3.179161   -1.6676844  0.068087675    -3.179161    1.5114766   430661 
 3631000   0.98834971   -3.1798877   -1.6684045  0.066795624   -3.1798877    1.5114832   430648 
 3632000   0.98813333   -3.1803198   -1.6691219  0.076293001   -3.1803198    1.5111979   430635 
 3633000   0.98914776   -3.1828183   -1.6700198  0.068076092   -3.1828183    1.5127985   430621 
 3634000   0.98979863   -3.1826241   -1.6687845  0.066729127   -3.1826241    1.5138397   430608 
 3635000   0.98854054   -3.1808335   -1.6688724  0.065058429   -3.1808335    1.5119612   430595 
 3636000   0.98698784    -3.179313   -1.6696776  0.070310817    -3.179313    1.5096354   430581 
 3637000   0.98570614   -3.1787989   -1.6710784  0.061483543   -3.1787989    1.5077205   430568 
 3638000   0.98729198    -3.181797   -1.6716052  0.063492737    -3.181797    1.5101918   430555 
 3639000   0.98825189   -3.1833388   -1.6716296   0.06374707   -3.1833388    1.5117092   430541 
 3640000   0.98784706   -3.1822559   -1.6711203   0.06747562   -3.1822559    1.5111356   430528 
 3641000   0.98751565   -3.1820642   -1.6713899  0.067353676   -3.1820642    1.5106743   430515 
 3642000   0.98718002   -3.1840668   -1.6738568    0.0622131   -3.1840668    1.5102099   430501 
 3643000   0.98632963   -3.1813476    -1.672393  0.071240238   -3.1813476    1.5089546   430488 
 3644000   0.98864875   -3.1830576   -1.6705094  0.069777782   -3.1830576    1.5125482   430475 
 3645000   0.98835313   -3.1822958   -1.6701507  0.070097454   -3.1822958    1.5121451   430461 
 3646000   0.98770953   -3.1834337   -1.6722277  0.072390958   -3.1834337     1.511206   430448 
 3647000   0.98967887   -3.1851229    -1.670858  0.066708414   -3.1851229    1.5142649   430435 
 3648000   0.98744071   -3.1828147   -1.6719252  0.070821531   -3.1828147    1.5108895   430421 
 3649000   0.98877931   -3.1851333   -1.6721498  0.068054267   -3.1851333    1.5129834   430408 
 3650000   0.98704504   -3.1832102   -1.6728348   0.06798522   -3.1832102    1.5103753   430395 
 3651000   0.98719787   -3.1865102   -1.6758519  0.064974928   -3.1865102    1.5106583   430381 
 3652000   0.98660285   -3.1846293   -1.6748359  0.067477577   -3.1846293    1.5097934   430368 
 3653000   0.98865276   -3.1875733   -1.6745972  0.063439332   -3.1875733    1.5129761   430355 
 3654000   0.98669251   -3.1837642   -1.6737389  0.072928813   -3.1837642    1.5100254   430341 
 3655000   0.98722849    -3.184072   -1.6731807  0.071415251    -3.184072    1.5108913   430328 
 3656000   0.98802627   -3.1863618   -1.6742039  0.066660739   -3.1863618    1.5121579   430315 
 3657000   0.98881782    -3.187547   -1.6741284  0.068501797    -3.187547    1.5134186   430301 
 3658000   0.98821844    -3.187547   -1.6750001  0.069756044    -3.187547    1.5125469   430288 
 3659000   0.98823464   -3.1866034    -1.673986  0.076349509   -3.1866034    1.5126174   430275 
 3660000   0.98656383    -3.183594   -1.6734848  0.071394388    -3.183594    1.5101092   430261 
 3661000    0.9894058    -3.187282   -1.6727769  0.066562293    -3.187282     1.514505   430248 
 3662000   0.98828337   -3.1856659   -1.6728333  0.070063892   -3.1856659    1.5128326   430235 
 3663000   0.98941385   -3.1844661   -1.6698537  0.073403738   -3.1844661    1.5146124   430221 
 3664000   0.98887715   -3.1852212   -1.6713846  0.075218464   -3.1852212    1.5138366   430208 
 3665000   0.98956691   -3.1854238   -1.6704855  0.072221793   -3.1854238    1.5149383   430195 
 3666000   0.98990981   -3.1859349   -1.6704224  0.072124013   -3.1859349    1.5155125   430181 
 3667000   0.98936704   -3.1863737   -1.6716463  0.064671168   -3.1863737    1.5147274   430168 
 3668000   0.98744801   -3.1826475   -1.6708125  0.075913006   -3.1826475     1.511835   430155 
 3669000   0.98911122   -3.1844597    -1.670029  0.070035816   -3.1844597    1.5144308   430141 
 3670000   0.98784688    -3.182946   -1.6704054  0.069961466    -3.182946    1.5125406   430128 
 3671000   0.98827674    -3.184858   -1.6716134  0.061380173    -3.184858    1.5132445   430115 
 3672000   0.98675895   -3.1817295   -1.6707598  0.068871956   -3.1817295    1.5109697   430101 
 3673000   0.98603676   -3.1812086   -1.6712991  0.062762637   -3.1812086    1.5099095   430088 
 3674000   0.98531978   -3.1812926   -1.6724354  0.062320237   -3.1812926    1.5088572   430075 
 3675000    0.9860307    -3.182235     -1.67224  0.064824118    -3.182235     1.509995   430061 
 3676000    0.9866869   -3.1821137   -1.6710681  0.065772488   -3.1821137    1.5110456   430048 
 3677000   0.98612171   -3.1825816   -1.6723559  0.066277534   -3.1825816    1.5102257   430035 
 3678000   0.98532189     -3.18077   -1.6717201  0.067743206     -3.18077    1.5090499   430021 
 3679000   0.98549278   -3.1808052    -1.671448  0.067111689   -3.1808052    1.5093573   430008 
 3680000   0.98505986   -3.1806064   -1.6718666  0.070315944   -3.1806064    1.5087398   429995 
 3681000   0.98545432   -3.1807851   -1.6713919   0.06276823   -3.1807851    1.5093931   429981 
 3682000   0.98846509    -3.184531   -1.6704806   0.06781385    -3.184531    1.5140504   429968 
 3683000   0.98824639   -3.1822448   -1.6684836  0.074246889   -3.1822448    1.5137612   429955 
 3684000   0.98849104   -3.1828477   -1.6686625  0.064959883   -3.1828477    1.5141852   429941 
 3685000    0.9870394   -3.1831597   -1.6711524  0.074184369   -3.1831597    1.5120073   429928 
 3686000   0.98827504   -3.1840216   -1.6700757  0.066023002   -3.1840216    1.5139459   429915 
 3687000   0.98721792   -3.1831934   -1.6708176  0.067578662   -3.1831934    1.5123758   429901 
 3688000   0.98644967   -3.1828796   -1.6716351  0.069011363   -3.1828796    1.5112445   429888 
 3689000   0.98703265   -3.1856422   -1.6734588  0.068851712   -3.1856422    1.5121834   429875 
 3690000   0.98857369   -3.1868563   -1.6722626  0.070824822   -3.1868563    1.5145937   429861 
 3691000   0.98840135   -3.1867961   -1.6724207  0.065169587   -3.1867961    1.5143754   429848 
 3692000   0.98588961   -3.1842937   -1.6737209  0.070232188   -3.1842937    1.5105728   429835 
 3693000   0.98754106   -3.1865673   -1.6734149   0.07055166   -3.1865673    1.5131524   429821 
 3694000    0.9873802   -3.1859538   -1.6730021  0.068171815   -3.1859538    1.5129517   429808 
 3695000   0.98756944   -3.1868419   -1.6735545  0.070571802   -3.1868419    1.5132874   429795 
 3696000   0.98770662   -3.1877953   -1.6742483   0.07239573   -3.1877953    1.5135469   429781 
 3697000   0.98855243   -3.1901338   -1.6752449  0.068643158   -3.1901338    1.5148888   429768 
 3698000   0.98871523   -3.1899695   -1.6747854  0.068260091   -3.1899695    1.5151841   429755 
 3699000   0.98801168   -3.1888798   -1.6747245  0.075410337   -3.1888798    1.5141553   429741 
 3700000   0.98623555   -3.1868535   -1.6753744  0.068290389   -3.1868535    1.5114791   429728 
 3701000   0.98779865   -3.1876569   -1.6737365  0.069128756   -3.1876569    1.5139204   429715 
 3702000   0.98811802   -3.1882355   -1.6737763   0.07263686   -3.1882355    1.5144592   429701 
 3703000   0.98806852   -3.1869232    -1.672494  0.070805563   -3.1869232    1.5144292   429688 
 3704000   0.98701616   -3.1858693   -1.6730073  0.073632363   -3.1858693     1.512862   429675 
 3705000   0.98733109   -3.1862479   -1.6728539   0.07030752   -3.1862479     1.513394   429661 
 3706000   0.98598124   -3.1845944   -1.6732237  0.074895249   -3.1845944    1.5113707   429648 
 3707000   0.98800881   -3.1873844     -1.67286  0.073159154   -3.1873844    1.5145245   429635 
 3708000   0.98528897   -3.1838135   -1.6734091   0.06922359   -3.1838135    1.5104044   429621 
 3709000   0.98606729   -3.1848416   -1.6731983  0.070485062   -3.1848416    1.5116433   429608 
 3710000   0.98415382   -3.1830736    -1.674318  0.068670835   -3.1830736    1.5087556   429595 
 3711000   0.98498596   -3.1838651   -1.6737845  0.063594326   -3.1838651    1.5100805   429581 
 3712000   0.98602986   -3.1854196    -1.673693   0.06524431   -3.1854196    1.5117267   429568 
 3713000   0.98474953   -3.1825785    -1.672769  0.068574551   -3.1825785    1.5098094   429555 
 3714000    0.9853965   -3.1837349   -1.6728843   0.06994689   -3.1837349    1.5108506   429541 
 3715000   0.98498312   -3.1841603   -1.6738978  0.061879066   -3.1841603    1.5102625   429528 
 3716000   0.98397051   -3.1826989   -1.6739434  0.063892764   -3.1826989    1.5087555   429515 
 3717000   0.98418003   -3.1826014   -1.6734754  0.065940514   -3.1826014     1.509126   429501 
 3718000   0.98416362    -3.182415   -1.6732685  0.064887854    -3.182415    1.5091465   429488 
 3719000   0.98461203    -3.181905   -1.6720252  0.072987289    -3.181905    1.5098798   429475 
 3720000     0.984256    -3.182509    -1.673126  0.065019039    -3.182509    1.5093831   429461 
 3721000   0.98523713   -3.1836826   -1.6727492  0.065261954   -3.1836826    1.5109334   429448 
 3722000   0.98518522    -3.183693   -1.6727935  0.061492061    -3.183693    1.5108995   429435 
 3723000   0.98628731   -3.1850707   -1.6724317  0.064309877   -3.1850707     1.512639   429421 
 3724000   0.98598426    -3.184241    -1.672021  0.066304961    -3.184241      1.51222   429408 
 3725000   0.98609765   -3.1847114   -1.6722716  0.069552385   -3.1847114    1.5124397   429395 
 3726000   0.98562039   -3.1846637   -1.6729067  0.071700799   -3.1846637     1.511757   429381 
 3727000    0.9847312   -3.1839461   -1.6735073  0.067261195   -3.1839461    1.5104389   429368 
 3728000   0.98661279   -3.1861065   -1.6727358  0.071368825   -3.1861065    1.5133708   429355 
 3729000   0.98665852   -3.1872195   -1.6737292    0.0687803   -3.1872195    1.5134903   429341 
 3730000   0.98726885   -3.1869301   -1.6724577  0.072749513   -3.1869301    1.5144724   429328 
 3731000   0.98592588   -3.1846902   -1.6722322  0.071166512   -3.1846902     1.512458   429315 
 3732000   0.98489792    -3.183572   -1.6726416  0.069312152    -3.183572    1.5109304   429301 
 3733000   0.98727356   -3.1886986   -1.6740778  0.068682931   -3.1886986    1.5146207   429288 
 3734000   0.98780208    -3.188726   -1.6732486  0.071765259    -3.188726    1.5154774   429275 
 3735000   0.98597055   -3.1870656   -1.6743487  0.067392662   -3.1870656    1.5127168   429261 
 3736000   0.98717733   -3.1888308   -1.6742166  0.074343459   -3.1888308    1.5146142   429248 
 3737000   0.98696404    -3.189085   -1.6747522  0.066979045    -3.189085    1.5143328   429235 
 3738000     0.985919   -3.1864449   -1.6736662  0.068069967   -3.1864449    1.5127787   429221 
 3739000   0.98492227   -3.1854177   -1.6741225  0.067522247   -3.1854177    1.5112951   429208 
 3740000   0.98519854   -3.1850015   -1.6732366  0.069812398   -3.1850015    1.5117648   429195 
 3741000   0.98648823    -3.187281   -1.6734878  0.069800172    -3.187281    1.5137932   429181 
 3742000   0.98442418   -3.1845442   -1.6738726  0.075057082   -3.1845442    1.5106716   429168 
 3743000   0.98445489   -3.1843927   -1.6736282  0.070010408   -3.1843927    1.5107645   429155 
 3744000   0.98501476   -3.1845609   -1.6728878  0.071695345   -3.1845609     1.511673   429141 
 3745000   0.98520197   -3.1837003   -1.6716942  0.068737873   -3.1837003    1.5120061   429128 
 3746000   0.98714228   -3.1867256   -1.6716957  0.068256774   -3.1867256    1.5150298   429115 
 3747000   0.98636515   -3.1856377   -1.6717512  0.067845438   -3.1856377    1.5138865   429101 
 3748000   0.98601005   -3.1857994    -1.672412  0.069230638   -3.1857994    1.5133874   429088 
 3749000   0.98541889   -3.1853182   -1.6727923  0.069851328   -3.1853182    1.5125258   429075 
 3750000   0.98616515   -3.1863664   -1.6726458  0.072166449   -3.1863664    1.5137207   429061 
 3751000    0.9855028   -3.1840527   -1.6713029  0.067527418   -3.1840527    1.5127498   429048 
 3752000   0.98471613   -3.1836627   -1.6720746  0.072062356   -3.1836627    1.5115881   429035 
 3753000   0.98458575   -3.1826455   -1.6712083   0.06792227   -3.1826455    1.5114373   429021 
 3754000   0.98492963    -3.183938   -1.6719271  0.067815627    -3.183938     1.512011   429008 
 3755000   0.98571719   -3.1846448    -1.671379  0.068561626   -3.1846448    1.5132659   428995 
 3756000   0.98230499   -3.1810844   -1.6730078  0.068625817   -3.1810844    1.5080767   428981 
 3757000   0.98454533   -3.1835496   -1.6719876  0.064257689   -3.1835496     1.511562   428968 
 3758000   0.98498048   -3.1847914   -1.6725155    0.0646546   -3.1847914    1.5122759   428955 
 3759000   0.98409144   -3.1835829   -1.6726227  0.064858802   -3.1835829    1.5109602   428941 
 3760000   0.98396684   -3.1822613   -1.6714466  0.066187012   -3.1822613    1.5108147   428928 
 3761000   0.98697774   -3.1856499   -1.6701662  0.064739116   -3.1856499    1.5154836   428915 
 3762000   0.98498653    -3.183446   -1.6709705  0.066424631    -3.183446    1.5124755   428901 
 3763000   0.98499976   -3.1833056   -1.6707639  0.071909033   -3.1833056    1.5125417   428888 
 3764000   0.98498506   -3.1830865   -1.6705215  0.065386913   -3.1830865     1.512565   428875 
 3765000   0.98527239   -3.1825052   -1.6694496  0.075165713   -3.1825052    1.5130556   428861 
 3766000   0.98500559   -3.1823001   -1.6696083  0.071062755   -3.1823001    1.5126918   428848 
 3767000   0.98481586   -3.1820803    -1.669634  0.073139643   -3.1820803    1.5124462   428835 
 3768000   0.98547303   -3.1837742   -1.6702693  0.067162897   -3.1837742    1.5135049   428821 
 3769000   0.98649424   -3.1850997   -1.6699805  0.067009128   -3.1850997    1.5151192   428808 
 3770000   0.98370446   -3.1808119   -1.6699316  0.070085488   -3.1808119    1.5108803   428795 
[...]
 7812000   0.84574328   -3.2193178   -1.7335974  0.054879116   -3.2193178    1.4857204   374901 
 7813000   0.84456745   -3.2191935   -1.7354873  0.057161525   -3.2191935    1.4837063   374888 
 7814000   0.84699636   -3.2248249      -1.7368  0.053637162   -3.2248249    1.4880249   374875 
 7815000   0.84721648   -3.2241339   -1.7356667  0.055585717   -3.2241339    1.4884672   374861 
 7816000   0.84663982   -3.2236019   -1.7360963  0.060718173   -3.2236019    1.4875056   374848 
 7817000   0.84741806   -3.2244677    -1.735543  0.057495741   -3.2244677    1.4889246   374835 
 7818000   0.84638651   -3.2248296   -1.7376619   0.06015258   -3.2248296    1.4871677   374821 
 7819000   0.84500823   -3.2223097   -1.7375122   0.05676927   -3.2223097    1.4847975   374808 
 7820000    0.8458013    -3.222989   -1.7367465  0.061310785    -3.222989    1.4862426   374795 
 7821000   0.84525587    -3.223758   -1.7384184  0.056636213    -3.223758    1.4853396   374781 
 7822000   0.84699487   -3.2266566   -1.7382095  0.055517948   -3.2266566    1.4884471   374768 
 7823000   0.84482104   -3.2223141   -1.7376356  0.057774262   -3.2223141    1.4846785   374755 
 7824000   0.84519819   -3.2247878    -1.739391  0.051084815   -3.2247878    1.4853968   374741 
 7825000   0.84293051   -3.2200931   -1.7386303  0.055856803   -3.2200931    1.4814628   374728 
 7826000   0.84318401    -3.219882   -1.7379222  0.056122752    -3.219882    1.4819598   374715 
 7827000   0.84467199   -3.2214924   -1.7368619  0.050806078   -3.2214924    1.4846305   374701 
 7828000   0.84326208   -3.2207173   -1.7385135  0.053662573   -3.2207173    1.4822038   374688 
 7829000   0.84337982   -3.2198006   -1.7373384  0.052635751   -3.2198006    1.4824622   374675 
 7830000   0.84496979   -3.2196298   -1.7343173   0.05914452   -3.2196298    1.4853125   374661 
 7831000   0.84423134   -3.2192275   -1.7351617  0.054293796   -3.2192275    1.4840659   374648 
 7832000   0.84412682   -3.2179443   -1.7340107  0.056391033   -3.2179443    1.4839336   374635 
 7833000   0.84413266   -3.2179491   -1.7339497  0.054570251   -3.2179491    1.4839994   374621 
 7834000   0.84395253   -3.2169346   -1.7332004  0.057229832   -3.2169346    1.4837342   374608 
 7835000   0.84514606   -3.2172804   -1.7313964  0.053713166   -3.2172804    1.4858841   374595 
 7836000   0.84266394   -3.2139135    -1.732338   0.05320602   -3.2139135    1.4815755   374581 
 7837000   0.84320967   -3.2162906   -1.7337041   0.05514455   -3.2162906    1.4825865   374568 
 7838000   0.84285635   -3.2160868   -1.7340701  0.051969387   -3.2160868    1.4820167   374555 
 7839000   0.84329826   -3.2171621   -1.7343129  0.047772791   -3.2171621    1.4828491   374541 
 7840000   0.84371628   -3.2171676   -1.7335319  0.054922351   -3.2171676    1.4836357   374528 
 7841000   0.84363627   -3.2158262   -1.7322797  0.053643514   -3.2158262    1.4835465   374515 
 7842000   0.84439795   -3.2153389   -1.7303975  0.051191724   -3.2153389    1.4849414   374501 
 7843000   0.84340333   -3.2144843   -1.7312405   0.05714832   -3.2144843    1.4832438   374488 
 7844000   0.84565401   -3.2169332   -1.7296797  0.053078688   -3.2169332    1.4872536   374475 
 7845000   0.84540292   -3.2164339   -1.7295663  0.052873032   -3.2164339    1.4868675   374461 
 7846000   0.84356529   -3.2137804   -1.7300933  0.056050758   -3.2137804    1.4836871   374448 
 7847000   0.84397612   -3.2150872    -1.730626  0.053590167   -3.2150872    1.4844612   374435 
 7848000   0.84206707   -3.2130377   -1.7318789  0.051951759   -3.2130377    1.4811588   374421 
 7849000   0.84328508   -3.2154168   -1.7320641  0.052282042   -3.2154168    1.4833527   374408 
 7850000   0.84423165   -3.2160516   -1.7309823  0.054804993   -3.2160516    1.4850693   374395 
 7851000   0.84245516   -3.2138665   -1.7318668  0.055054408   -3.2138665    1.4819997   374381 
 7852000   0.84323874   -3.2153378   -1.7319082  0.058504884   -3.2153378    1.4834297   374368 
 7853000   0.84358187   -3.2153494   -1.7312645  0.055506438   -3.2153494    1.4840848   374355 
 7854000   0.84380943   -3.2147339   -1.7301931  0.057738515   -3.2147339    1.4845407   374341 
 7855000   0.84423103   -3.2137517   -1.7284177  0.058406534   -3.2137517     1.485334   374328 
 7856000   0.84350055   -3.2127115   -1.7286111  0.060313686   -3.2127115    1.4841004   374315 
 7857000   0.84491111   -3.2161834   -1.7295456  0.054375705   -3.2161834    1.4866378   374301 
 7858000   0.84475411   -3.2148733   -1.7284601  0.048483733   -3.2148733    1.4864132   374288 
 7859000   0.84350786   -3.2133536   -1.7290817  0.057311874   -3.2133536    1.4842718   374275 
 7860000   0.84421614   -3.2159683   -1.7303945  0.050909705   -3.2159683    1.4855737   374261 
 7861000   0.84193771   -3.2134451   -1.7318293  0.060176294   -3.2134451    1.4816158   374248 
 7862000   0.84455404   -3.2173472   -1.7310756  0.050092942   -3.2173472    1.4862716   374235 
 7863000    0.8428899    -3.215477   -1.7320785  0.055326038    -3.215477    1.4833985   374221 
 7864000    0.8420592    -3.214153    -1.732165  0.057774921    -3.214153     1.481988   374208 
 7865000   0.84349447   -3.2167688   -1.7322032  0.053360128   -3.2167688    1.4845656   374195 
 7866000   0.84352319   -3.2182789   -1.7336072  0.050731656   -3.2182789    1.4846717   374181 
 7867000    0.8425035   -3.2162028   -1.7332744  0.055131278   -3.2162028    1.4829285   374168 
 7868000   0.84261683   -3.2161181   -1.7329386  0.053922454   -3.2161181    1.4831795   374155 
 7869000   0.84228729   -3.2169511   -1.7342962  0.050462524   -3.2169511    1.4826549   374141 
 7870000   0.84090249   -3.2128086   -1.7325399  0.052988491   -3.2128086    1.4802687   374128 
 7871000   0.84216893   -3.2150789   -1.7325294  0.057503033   -3.2150789    1.4825496   374115 
 7872000   0.84138942   -3.2140603   -1.7328275  0.062926195   -3.2140603    1.4812328   374101 
 7873000   0.84441513   -3.2184721    -1.731861  0.053131014   -3.2184721    1.4866111   374088 
 7874000   0.84304938   -3.2164473   -1.7321891  0.057566738   -3.2164473    1.4842582   374075 
 7875000   0.84368676   -3.2176844   -1.7322485  0.059404209   -3.2176844     1.485436   374061 
 7876000   0.84450437   -3.2182334   -1.7313063  0.058663751   -3.2182334    1.4869272   374048 
 7877000   0.84530388   -3.2200972   -1.7317106  0.058339168   -3.2200972    1.4883866   374035 
 7878000   0.84462138   -3.2162521   -1.7290115  0.058976609   -3.2162521    1.4872405   374021 
 7879000   0.84439371   -3.2166822   -1.7297909  0.053277952   -3.2166822    1.4868913   374008 
 7880000   0.84469515   -3.2174324   -1.7299586   0.05621858   -3.2174324    1.4874738   373995 
 7881000   0.84202313   -3.2137513   -1.7309273  0.057671017   -3.2137513     1.482824   373981 
 7882000   0.84359068   -3.2164426   -1.7308065  0.050545829   -3.2164426    1.4856362   373968 
 7883000   0.84195783    -3.213222   -1.7304098  0.061060078    -3.213222    1.4828121   373955 
 7884000   0.84336174   -3.2145322    -1.729192  0.056403793   -3.2145322    1.4853402   373941 
 7885000   0.84139556   -3.2112864   -1.7293576  0.060303705   -3.2112864    1.4819289   373928 
 7886000   0.84063859   -3.2114449   -1.7307977  0.052263809   -3.2114449    1.4806471   373915 
 7887000   0.84123427   -3.2116597   -1.7299079  0.053757574   -3.2116597    1.4817518   373901 
 7888000    0.8409259   -3.2130937   -1.7318336  0.055367288   -3.2130937    1.4812601   373888 
 7889000   0.84103784    -3.212044   -1.7305352  0.054788018    -3.212044    1.4815088   373875 
 7890000   0.84173583    -3.214077   -1.7312831  0.052451558    -3.214077    1.4827939   373861 
 7891000   0.84195281   -3.2132594   -1.7300317   0.04999731   -3.2132594    1.4832277   373848 
 7892000   0.84100464   -3.2114966   -1.7298877  0.053338782   -3.2114966    1.4816089   373835 
 7893000   0.84028555    -3.211624   -1.7312266  0.051728829    -3.211624    1.4803975   373821 
 7894000   0.84081522   -3.2117798   -1.7303976  0.049880771   -3.2117798    1.4813821   373808 
 7895000   0.84063614   -3.2105713   -1.7294532  0.051354709   -3.2105713    1.4811181   373795 
 7896000    0.8418625   -3.2131861   -1.7298517  0.054653253   -3.2131861    1.4833344   373781 
 7897000   0.84384633   -3.2161528   -1.7292712   0.05519024   -3.2161528    1.4868816   373768 
 7898000   0.84419006   -3.2155337   -1.7279947  0.056847231   -3.2155337     1.487539   373755 
 7899000   0.84490593   -3.2162142    -1.727358  0.053263357   -3.2162142    1.4888562   373741 
 7900000   0.84316795    -3.212885   -1.7270398   0.06219844    -3.212885    1.4858453   373728 
 7901000   0.84270807   -3.2130543   -1.7279678  0.050086774   -3.2130543    1.4850865   373715 
 7902000   0.84324661   -3.2146073    -1.728516  0.059863374   -3.2146073    1.4860912   373701 
 7903000   0.84308692   -3.2148263   -1.7289648  0.050207233   -3.2148263    1.4858615   373688 
 7904000   0.84242664   -3.2141244   -1.7293749  0.057697158   -3.2141244    1.4847495   373675 
 7905000   0.84249503   -3.2142025   -1.7292769  0.053061861   -3.2142025    1.4849256   373661 
 7906000   0.84266846   -3.2163164   -1.7310334  0.053698896   -3.2163164     1.485283   373648 
 7907000   0.84214566     -3.21489   -1.7304768  0.055851285     -3.21489    1.4844132   373635 
 7908000   0.84224399   -3.2163379   -1.7316958  0.053612822   -3.2163379    1.4846421   373621 
 7909000   0.84244569    -3.214432   -1.7293827  0.056673711    -3.214432    1.4850493   373608 
 7910000   0.84280622   -3.2150461   -1.7293095  0.056477355   -3.2150461    1.4857366   373595 
 7911000   0.84338178   -3.2149896   -1.7281827  0.055457023   -3.2149896    1.4868069   373581 
 7912000   0.84078849   -3.2123672   -1.7300804  0.055182205   -3.2123672    1.4822867   373568 
 7913000   0.84266171   -3.2144398    -1.728799  0.056430444   -3.2144398    1.4856409   373555 
 7914000   0.84266136   -3.2143843   -1.7286883  0.051729284   -3.2143843    1.4856959   373541 
 7915000   0.84381927   -3.2157185   -1.7279293  0.057510643   -3.2157185    1.4877892   373528 
 7916000   0.84178739   -3.2132136   -1.7289553  0.055925691   -3.2132136    1.4842583   373515 
 7917000   0.84116127   -3.2121905   -1.7289805  0.054241147   -3.2121905      1.48321   373501 
 7918000   0.84283061   -3.2136884   -1.7274832  0.052892774   -3.2136884    1.4862052   373488 
 7919000   0.84180251   -3.2121303   -1.7276863  0.056083327   -3.2121303     1.484444   373475 
 7920000   0.84053234   -3.2121722   -1.7299125  0.054289188   -3.2121722    1.4822597   373461 
 7921000    0.8409395   -3.2122822   -1.7292528  0.053249519   -3.2122822    1.4830293   373448 
 7922000   0.83973656   -3.2108503   -1.7298908  0.055347704   -3.2108503    1.4809595   373435 
 7923000   0.83925813   -3.2109909   -1.7308197  0.054403391   -3.2109909    1.4801712   373421 
 7924000   0.84139272   -3.2145184   -1.7305308  0.052143233   -3.2145184    1.4839876   373408 
 7925000   0.84051829   -3.2107279    -1.728231  0.052947324   -3.2107279    1.4824969   373395 
 7926000   0.84109405   -3.2118039   -1.7282358  0.055628724   -3.2118039    1.4835681   373381 
 7927000   0.84268366   -3.2140163   -1.7275926  0.054640843   -3.2140163    1.4864237   373368 
 7928000   0.84004914   -3.2117999   -1.7299718  0.051655873   -3.2117999    1.4818282   373355 
 7929000    0.8402191   -3.2135521   -1.7313686  0.052358585   -3.2135521    1.4821836   373341 
 7930000    0.8410176   -3.2133007   -1.7296569  0.056309719   -3.2133007    1.4836438   373328 
 7931000   0.84189184   -3.2144589   -1.7292211  0.057488523   -3.2144589    1.4852378   373315 
 7932000   0.84050096   -3.2122338   -1.7293942  0.057284719   -3.2122338    1.4828397   373301 
 7933000   0.84016741   -3.2118917   -1.7295889  0.057996243   -3.2118917    1.4823028   373288 
 7934000   0.84063226   -3.2131388   -1.7299642  0.051901135   -3.2131388    1.4831746   373275 
 7935000   0.84085051   -3.2143179   -1.7307025  0.055537678   -3.2143179    1.4836153   373261 
 7936000    0.8420066   -3.2147699    -1.729063  0.058132623   -3.2147699    1.4857069   373248 
 7937000   0.84302173   -3.2165385   -1.7289886   0.05281241   -3.2165385    1.4875499   373235 
 7938000   0.84018951   -3.2121344   -1.7295264  0.053263348   -3.2121344    1.4826079   373221 
 7939000   0.84317908   -3.2181622    -1.730227  0.052717847   -3.2181622    1.4879352   373208 
 7940000   0.84234121    -3.216687   -1.7301787  0.056351332    -3.216687    1.4865084   373195 
 7941000   0.84349775    -3.217735   -1.7291298  0.061531049    -3.217735    1.4886052   373181 
 7942000   0.84270645   -3.2162894   -1.7290289  0.058161662   -3.2162894    1.4872605   373168 
 7943000   0.84356923    -3.216947   -1.7281119  0.059358495    -3.216947    1.4888351   373155 
 7944000   0.84200398    -3.214427   -1.7282987   0.05650121    -3.214427    1.4861283   373141 
 7945000   0.84281227   -3.2176861   -1.7300793   0.05822224   -3.2176861    1.4876067   373128 
 7946000   0.84110068   -3.2158349   -1.7311974  0.058664576   -3.2158349    1.4846374   373115 
 7947000   0.84064042    -3.213734   -1.7298533  0.057825954    -3.213734    1.4838807   373101 
 7948000   0.84081193   -3.2160457   -1.7318105  0.052370573   -3.2160457    1.4842352   373088 
 7949000   0.84049439   -3.2149804   -1.7312541  0.053612431   -3.2149804    1.4837263   373075 
 7950000   0.83994114   -3.2160942   -1.7332889  0.053097872   -3.2160942    1.4828053   373061 
 7951000   0.84046192   -3.2172351   -1.7334587  0.054803832   -3.2172351    1.4837764   373048 
 7952000   0.83946524   -3.2144255    -1.732357  0.054204602   -3.2144255    1.4820685   373035 
 7953000   0.84020843    -3.214845   -1.7314087  0.052602816    -3.214845    1.4834362   373021 
 7954000   0.84118545   -3.2153537   -1.7301407   0.05192257   -3.2153537     1.485213   373008 
 7955000   0.83941751   -3.2119134   -1.7297703  0.054061498   -3.2119134    1.4821431   372995 
 7956000   0.83870815   -3.2124311   -1.7314848  0.057579186   -3.2124311    1.4809462   372981 
 7957000   0.83972367   -3.2125172   -1.7297262  0.057368335   -3.2125172     1.482791   372968 
 7958000    0.8398596   -3.2127875   -1.7297047   0.05506339   -3.2127875    1.4830828   372955 
 7959000   0.84107766   -3.2147644    -1.729475  0.055754142   -3.2147644    1.4852895   372941 
 7960000   0.83989969   -3.2130565   -1.7297956  0.055537994   -3.2130565    1.4832609   372928 
 7961000   0.84129631   -3.2149152    -1.729136  0.052950875   -3.2149152    1.4857792   372915 
 7962000   0.84004788   -3.2134299   -1.7297998  0.057031335   -3.2134299    1.4836301   372901 
 7963000   0.83890826   -3.2112561   -1.7295871  0.054154243   -3.2112561     1.481669   372888 
 7964000   0.83949786   -3.2123306   -1.7295685  0.052053521   -3.2123306     1.482762   372875 
 7965000   0.83775014   -3.2114241   -1.7316934  0.052916247   -3.2114241    1.4797307   372861 
 7966000   0.83952897   -3.2132164   -1.7302921   0.05075074   -3.2132164    1.4829244   372848 
 7967000   0.83988982   -3.2135538   -1.7299403  0.050537552   -3.2135538    1.4836135   372835 
 7968000   0.83982623   -3.2144385   -1.7308816  0.053888286   -3.2144385    1.4835569   372821 
 7969000   0.84068238   -3.2149135   -1.7297925  0.054200011   -3.2149135    1.4851211   372808 
 7970000   0.84026276   -3.2143102   -1.7298787  0.055573161   -3.2143102    1.4844315   372795 
 7971000   0.84016473   -3.2145801    -1.730266  0.053808262   -3.2145801    1.4843141   372781 
 7972000   0.84157005   -3.2156903   -1.7288416  0.055601124   -3.2156903    1.4868487   372768 
 7973000    0.8412283   -3.2153919   -1.7290952  0.058780329   -3.2153919    1.4862968   372755 
 7974000   0.84025106   -3.2147541   -1.7301282  0.057211991   -3.2147541    1.4846259   372741 
 7975000   0.84169378   -3.2176608   -1.7304339  0.050859864   -3.2176608    1.4872269   372728 
 7976000   0.84022799   -3.2178983   -1.7332096   0.05848982   -3.2178983    1.4846887   372715 
 7977000   0.84061857   -3.2188301   -1.7333954  0.053330879   -3.2188301    1.4854347   372701 
 7978000   0.83975473   -3.2164911   -1.7325312  0.058275032   -3.2164911      1.48396   372688 
 7979000   0.83914261   -3.2156918   -1.7327618  0.058589213   -3.2156918      1.48293   372675 
 7980000   0.83945858   -3.2164517   -1.7329076  0.051779651   -3.2164517    1.4835441   372661 
 7981000   0.83940984   -3.2155506   -1.7320409  0.053628168   -3.2155506    1.4835097   372648 
 7982000   0.83950551   -3.2166939   -1.7329633  0.051783763   -3.2166939    1.4837305   372635 
 7983000   0.84036035   -3.2173058   -1.7320086  0.053534765   -3.2173058    1.4852972   372621 
 7984000   0.84186226   -3.2197113   -1.7317077  0.059441494   -3.2197113    1.4880037   372608 
 7985000   0.84137045   -3.2186256   -1.7314394  0.056226374   -3.2186256    1.4871863   372595 
 7986000   0.84035716   -3.2175121   -1.7320611  0.059563819   -3.2175121     1.485451   372581 
 7987000     0.841405   -3.2189825   -1.7316274  0.058667736   -3.2189825    1.4873551   372568 
 7988000   0.84111661   -3.2183214   -1.7314242   0.06243381   -3.2183214    1.4868972   372555 
 7989000   0.84054564    -3.217441   -1.7314973  0.052647896    -3.217441    1.4859437   372541 
 7990000   0.83952279   -3.2162089   -1.7320216  0.056700649   -3.2162089    1.4841873   372528 
 7991000    0.8404074   -3.2171565   -1.7313535  0.051154394   -3.2171565     1.485803   372515 
 7992000   0.83919814    -3.213807   -1.7300862  0.058578004    -3.213807    1.4837209   372501 
 7993000   0.84132462   -3.2170601   -1.7295277  0.052185878   -3.2170601    1.4875324   372488 
 7994000   0.84004744   -3.2152913   -1.7299651  0.055011587   -3.2152913    1.4853261   372475 
 7995000   0.83984518   -3.2152456   -1.7302213  0.051812529   -3.2152456    1.4850243   372461 
 7996000   0.83935647   -3.2134203   -1.7292083  0.054661319   -3.2134203     1.484212   372448 
 7997000    0.8396204   -3.2147929   -1.7300624  0.055804056   -3.2147929    1.4847305   372435 
 7998000   0.83988709   -3.2168063   -1.7315483  0.051446079   -3.2168063    1.4852579   372421 
 7999000   0.83936292   -3.2133922   -1.7290094  0.053130617   -3.2133922    1.4843828   372408 
 8000000   0.83850802   -3.2113975   -1.7284748  0.061069918   -3.2113975    1.4829227   372395 
Loop time of 7058.18 on 192 procs for 5000000 steps with 372395 atoms

Performance: 306027.746 tau/day, 708.398 timesteps/s
99.1% CPU use with 192 MPI tasks x 1 OpenMP threads

MPI task timing breakdown:
Section |  min time  |  avg time  |  max time  |%varavg|  %CPU | %total
-----------------------------------------------------------------------
Pair    | 1300       | 2911.6     | 3201.2     |1082.1 |  99.1 | 41.25
Bond    | 3.1409     | 3.3735     | 3.5354     |   3.7 | 100.0 |  0.05
Neigh   | 879        | 1508.4     | 1709.6     | 573.1 |  99.5 | 21.37
Comm    | 1279.6     | 1972.3     | 4265.4     |1876.0 |  98.9 | 27.94
Output  | 284.97     | 285.88     | 285.9      |   0.4 |  98.8 |  4.05
Modify  | 175.44     | 263.24     | 642.83     | 929.4 |  99.1 |  3.73
Other   |            | 113.4      |            |       |       |  1.61

Nlocal:        1939.56 ave        2238 max        1644 min
Histogram: 2 2 3 14 74 80 12 1 2 2
Nghost:        3084.71 ave        3413 max        2309 min
Histogram: 11 31 5 1 0 0 1 11 65 67
Neighs:        52036.0 ave       61195 max       10713 min
Histogram: 7 7 9 1 0 0 0 2 56 110

Total # of neighbors = 9990906
Ave neighs/atom = 26.828787
Ave special neighs/atom = 0.0000000
Neighbor list builds = 533333
Dangerous builds = 463333

write_restart   restart_write.dat
System init for write_restart ...
write_data	data.write
System init for write_data ...
WARNING: Not all mixed pair coeffs generated from mixing. Use write_data with 'pair ij' option to store all pair coeffs. (src/write_data.cpp:312)

Total wall time: 1:57:41
