LAMMPS (24 Dec 2020)
OMP_NUM_THREADS environment is not set. Defaulting to 1 thread. (src/comm.cpp:94)
  using 1 OpenMP thread(s) per MPI task
#Read the equilibrated lj fluid and add nanocubes

units           lj
atom_style      full
atom_modify     map array first cubes
dimension       3
boundary        p p f
pair_style      lj/cut/opt 2.5

variable        sigma           equal 1.0
variable        epsilon         equal 1.0
read_restart	restart.dat.10000000
Reading restart file ...
  restart file = 24 Dec 2020, LAMMPS = 24 Dec 2020
WARNING: Restart file used different # of processors: 192 vs. 288 (src/read_restart.cpp:697)
  restoring atom style full from restart
  orthogonal box = (0.0000000 0.0000000 0.0000000) to (80.000000 80.000000 160.00000)
  6 by 4 by 12 MPI processor grid
  restoring pair style lj/cut/opt from restart
  443961 atoms
Finding 1-2 1-3 1-4 neighbors ...
  special bond factors lj:    0        0        0       
  special bond factors coul:  0        0        0       
     0 = max # of 1-2 neighbors
     0 = max # of 1-3 neighbors
     0 = max # of 1-4 neighbors
     1 = max # of special neighbors
  special bonds CPU = 2.304 seconds
  read_restart CPU = 2.694 seconds

group		solvent type 1
443961 atoms in group solvent

read_data	data_96_seed2.cubes group cubes add append
Reading data file ...
  orthogonal box = (0.0000000 0.0000000 0.0000000) to (80.000000 80.000000 160.00000)
  6 by 4 by 12 MPI processor grid
  reading atoms ...
  109728 atoms
  reading velocities ...
  109728 velocities
Finding 1-2 1-3 1-4 neighbors ...
  special bond factors lj:    0        0        0       
  special bond factors coul:  0        0        0       
     0 = max # of 1-2 neighbors
     0 = max # of 1-3 neighbors
     0 = max # of 1-4 neighbors
     1 = max # of special neighbors
  special bonds CPU = 0.057 seconds
  read_data CPU = 0.316 seconds

group 		hull  type 2
42816 atoms in group hull
group 		dummy type 3
66912 atoms in group dummy

neighbor      0.4 bin
neigh_modify  exclude molecule/intra cubes


pair_modify   shift yes

pair_coeff    1 1 1.0 1.0 #solvent
pair_coeff    2 2 1.0 1.0 1.12 #np
pair_coeff    3 3 0.0 0.0 0.0 #dummy
pair_coeff    2 3 0.0 0.0 0.0 #np dummy
pair_coeff    1 2 ${sol} 1.0  #np solvent
pair_coeff    1 2 .70 1.0  
pair_coeff    1 3 0.0 0.0 2.5 #dummy solvent

# delete solvent where the cubes are
delete_atoms  overlap 1.0 solvent cubes
System init for delete_atoms ...
Unused restart file peratom fix info:
  fix style: STORE, fix ID: bin1_COMPUTE_STORE
Neighbor list info ...
  update every 1 steps, delay 10 steps, check yes
  max neighbors/atom: 2000, page size: 100000
  master list distance cutoff = 2.9
  ghost atom cutoff = 2.9
  binsize = 1.45, bins = 56 56 111
  2 neighbor lists, perpetual/occasional/extra = 1 1 0
  (1) command delete_atoms, occasional
      attributes: full, newton on
      pair build: full/bin
      stencil: full/bin/3d
      bin: standard
  (2) pair lj/cut/opt, perpetual
      attributes: half, newton on
      pair build: half/bin/newton
      stencil: half/bin/3d/newton
      bin: standard
WARNING: Delete_atoms cutoff > minimum neighbor cutoff (src/delete_atoms.cpp:307)
WARNING: Ignoring 'compress yes' for molecular system (src/delete_atoms.cpp:125)
Deleted 77829 atoms, new total = 475860

pair_coeff    1 1 1.0 1.0 #solvent
pair_coeff    2 2 1.0 1.0 1.12 #np
pair_coeff    3 3 0.0 0.0 0.0 #dummy
pair_coeff    2 3 0.0 0.0 0.0 #np dummy
pair_coeff    1 2 ${sol} 1.0  #np solvent
pair_coeff    1 2 .70 1.0  
pair_coeff    1 3 0.0 0.0 0.0 #dummy solvent


comm_modify   mode multi cutoff/multi 1 2.5 cutoff/multi 2 2.5 cutoff/multi 3 6.95

reset_timestep 	0

balance 	1.05 shift z 10 1.05
Balancing ...
Neighbor list info ...
  update every 1 steps, delay 10 steps, check yes
  max neighbors/atom: 2000, page size: 100000
  master list distance cutoff = 2.9
  ghost atom cutoff = 6.95
  binsize = 1.45, bins = 56 56 111
  1 neighbor lists, perpetual/occasional/extra = 1 0 0
  (1) pair lj/cut/opt, perpetual
      attributes: half, newton on
      pair build: half/bin/newton
      stencil: half/bin/3d/newton
      bin: standard
 rebalancing time: 0.005 seconds
  iteration count = 4
  initial/final maximal load/proc = 2532.0000 2577.0000
  initial/final imbalance factor  = 1.5324171 1.5596520
  x cuts: 0.0000000 0.16666667 0.33333333 0.50000000 0.66666667 0.83333333 1.0000000
  y cuts: 0.0000000 0.25000000 0.50000000 0.75000000 1.0000000
  z cuts: 0.0000000 0.067708333 0.13020833 0.19270833 0.25520833 0.32291667 0.38541667 0.44791667 0.51041667 0.57812500 0.63020833 0.68229167 1.0000000

####################### WALLS ###########################

variable       epsilonWall equal 2*${epsilon}
variable       epsilonWall equal 2*1
variable       repulsive   equal   0.7147*${sigma}
variable       repulsive   equal   0.7147*1
variable       full	   equal   3*${sigma}
variable       full	   equal   3*1
region         lowWall block EDGE EDGE EDGE EDGE EDGE 2

fix            topWall all wall/lj93 zhi EDGE 	       ${epsilonWall} ${sigma} ${repulsive} units box
fix            topWall all wall/lj93 zhi EDGE 	       2 ${sigma} ${repulsive} units box
fix            topWall all wall/lj93 zhi EDGE 	       2 1 ${repulsive} units box
fix            topWall all wall/lj93 zhi EDGE 	       2 1 0.7147 units box
fix            lowSol solvent wall/lj93 zlo EDGE                ${epsilonWall} ${sigma} ${full} units box
fix            lowSol solvent wall/lj93 zlo EDGE                2 ${sigma} ${full} units box
fix            lowSol solvent wall/lj93 zlo EDGE                2 1 ${full} units box
fix            lowSol solvent wall/lj93 zlo EDGE                2 1 3 units box
fix 	       lowCub cubes wall/lj93 zlo EDGE                ${epsilonWall} ${sigma} ${repulsive} units box
fix 	       lowCub cubes wall/lj93 zlo EDGE                2 ${sigma} ${repulsive} units box
fix 	       lowCub cubes wall/lj93 zlo EDGE                2 1 ${repulsive} units box
fix 	       lowCub cubes wall/lj93 zlo EDGE                2 1 0.7147 units box


###################### COMPUTES ##########################

compute        bin1 solvent chunk/atom bin/1d z lower 1.0 units box
compute        bin3 solvent chunk/atom bin/3d x lower 1.0 y lower 1.0 z lower 1.0 units box

compute 	pe solvent 	   pe/atom
compute 	pe2 all 	   pe/atom

######################  FIXES ############################


fix             peclet solvent ave/chunk 10 10 10000 bin1 density/number norm                  none ave one file density.profile

fix              temp solvent ave/chunk 10 10 10000 bin1 temp norm                  none ave one file temp.profile

fix 		 dens solvent ave/chunk 10 10 10000 bin3 density/number norm 		 none ave one file dens3.profile

fix		 temp2 solvent ave/chunk 10 10 1000 bin3 temp norm none ave one file temp3.profile

fix 		pe solvent ave/chunk 1 1 10000 bin3 c_pe norm none ave one file pe3.profile

fix             1 cubes rigid/nve/small molecule
  create bodies CPU = 0.019 seconds
  96 rigid bodies with 109728 atoms
  6.9282032 = max distance from body owner to body atom

fix             2 solvent nve# temp ${temp} ${temp} 10


## Thermostat
region          regthermo block EDGE EDGE EDGE EDGE 0 15
group           thermo dynamic solvent region regthermo every 1000
dynamic group thermo defined
fix             3 thermo langevin ${temp} ${temp} 10 156453
fix             3 thermo langevin 1.0 ${temp} 10 156453
fix             3 thermo langevin 1.0 1.0 10 156453


#### Load balancing

fix             bal all balance 1000 1.05 shift z 10 1.05

############### Diagnostics and computes ###################

compute        	com cubes          rigid/local   1 mol x y z
compute        	quat cubes         rigid/local   1 mol quatw quati quatj quatk

compute 	cc2 cubes 	   chunk/atom 	 molecule
compute 	msd cubes 	   msd/chunk 	 cc2

fix 		msd all ave/time  1 1 10000 c_msd[*] file dump.msd ave one mode vector

dump            1 all custom 500000 dump.lammpstrj id mol type x y z vx vy vz c_pe2
dump		sol  solvent custom 500000 dump.soltrj id x y z vx vy vz c_pe
dump		cubetrj cubes custom 500000 cubes.lammpstrj id mol type x y z vx vy vz
dump            com cubes local 100000 dump.*.xyz c_com[*]
dump	        xyz hull xyz 100000 cubes.xyz
dump            quat cubes      local 100000 dump.*.quat c_quat[*]
dump		order cubes 	local 100000 dump.*.order c_com[*] c_quat[*]
#dump		mol cubes molfile 10000 mol.xyz xyz


dump            2 all image 100000 image.*.png type type zoom 1.5 size 1280 720
dump_modify     2 pad 8
dump		image cubes image 100000 image_cubes.*.png type type zoom 1.5 size 1280 720
dump_modify	image pad 8
dump            3 all movie 5000 movie.avi type type zoom 1.5 size 1280 720
dump		4 cubes movie 5000 movie_cubes.avi type type size 1280 720


thermo          1000
thermo_style    custom step temp epair evdwl etotal press pe ke atoms

restart         1000000 restart.dat
timestep        0.005
timer           full
New timer settings: style=full  mode=nosync  timeout=off

run 		10000000
Per MPI rank memory allocation (min/avg/max) = 78.73 | 84.71 | 88.21 Mbytes
Step Temp E_pair E_vdwl TotEng Press PotEng KinEng Atoms 
       0    1.0098975   -2.4298202   -2.4298202   -1.2636726 -0.059639844   -2.4298202    1.1661477   475860 
    1000    1.0103755   -2.4303856   -2.4303856   -1.2636859  0.064932489   -2.4303856    1.1666996   475860 
    2000    1.0100704   -2.4305431   -2.4305431   -1.2641958  0.059966966   -2.4305431    1.1663473   475860 
    3000     1.010134   -2.4310192   -2.4310192   -1.2645984  0.065532125   -2.4310192    1.1664207   475860 
    4000    1.0099845   -2.4300137   -2.4300137   -1.2637655  0.060392081   -2.4300137    1.1662481   475860 
    5000    1.0118432   -2.4318172   -2.4318172   -1.2634229  0.064520219   -2.4318172    1.1683944   475860 
    6000    1.0099285   -2.4299682   -2.4299682   -1.2637847  0.064622053   -2.4299682    1.1661835   475860 
    7000    1.0081913   -2.4281642   -2.4281642   -1.2639867  0.073651057   -2.4281642    1.1641775   475860 
    8000    1.0106081   -2.4307488   -2.4307488   -1.2637806  0.068759115   -2.4307488    1.1669682   475860 
    9000    1.0110865   -2.4320665   -2.4320665   -1.2645458  0.065631866   -2.4320665    1.1675207   475860 
   10000    1.0079294   -2.4292756   -2.4292756   -1.2654006  0.069851869   -2.4292756     1.163875   475860 
   11000    1.0097711   -2.4316288   -2.4316288   -1.2656271  0.066962853   -2.4316288    1.1660017   475860 
   12000    1.0117662   -2.4337883   -2.4337883   -1.2654828   0.06285544   -2.4337883    1.1683055   475860 
   13000    1.0086235   -2.4319999   -2.4319999   -1.2673234  0.066711811   -2.4319999    1.1646765   475860 
   14000    1.0096432   -2.4328605   -2.4328605   -1.2670065  0.068840659   -2.4328605     1.165854   475860 
   15000    1.0125196   -2.4365235   -2.4365235   -1.2673481  0.061439347   -2.4365235    1.1691754   475860 
   16000    1.0120973    -2.435574    -2.435574   -1.2668862  0.066959441    -2.435574    1.1686878   475860 
   17000    1.0114241    -2.436977    -2.436977   -1.2690666  0.068492144    -2.436977    1.1679104   475860 
   18000    1.0119141   -2.4377893   -2.4377893    -1.269313  0.065264457   -2.4377893    1.1684763   475860 
   19000    1.0102128   -2.4365813   -2.4365813   -1.2700695  0.066660946   -2.4365813    1.1665118   475860 
   20000    1.0106852   -2.4376917   -2.4376917   -1.2706345   0.06991184   -2.4376917    1.1670572   475860 
   21000    1.0101981   -2.4380748   -2.4380748   -1.2715801  0.056834815   -2.4380748    1.1664948   475860 
   22000    1.0090603   -2.4368123   -2.4368123   -1.2716314  0.064397855   -2.4368123    1.1651809   475860 
   23000    1.0085514   -2.4369157   -2.4369157   -1.2723223  0.063231015   -2.4369157    1.1645933   475860 
   24000     1.008866   -2.4380239   -2.4380239   -1.2730673  0.065207131   -2.4380239    1.1649566   475860 
   25000    1.0081437   -2.4382396   -2.4382396   -1.2741171  0.068665529   -2.4382396    1.1641225   475860 
   26000    1.0083722    -2.438937    -2.438937   -1.2745506  0.072668507    -2.438937    1.1643864   475860 
   27000    1.0095416   -2.4403565   -2.4403565   -1.2746198  0.065472728   -2.4403565    1.1657367   475860 
   28000    1.0093264   -2.4403905   -2.4403905   -1.2749023  0.064255628   -2.4403905    1.1654882   475860 
   29000    1.0093071   -2.4413534   -2.4413534   -1.2758875  0.068197154   -2.4413534    1.1654659   475860 
   30000    1.0081847   -2.4404364   -2.4404364   -1.2762666  0.071014734   -2.4404364    1.1641698   475860 
   31000    1.0102662    -2.442683    -2.442683   -1.2761096  0.069456941    -2.442683    1.1665734   475860 
   32000    1.0103458   -2.4426054   -2.4426054   -1.2759402  0.063178666   -2.4426054    1.1666653   475860 
   33000    1.0095253   -2.4414399   -2.4414399    -1.275722  0.066416601   -2.4414399    1.1657179   475860 
   34000    1.0108692   -2.4440213   -2.4440213   -1.2767516   0.06807714   -2.4440213    1.1672697   475860 
   35000    1.0113632   -2.4441275   -2.4441275   -1.2762873   0.07164858   -2.4441275    1.1678402   475860 
   36000    1.0105524   -2.4430088   -2.4430088   -1.2761049  0.064534102   -2.4430088    1.1669039   475860 
   37000     1.010335   -2.4429489   -2.4429489   -1.2762961  0.073048528   -2.4429489    1.1666528   475860 
   38000    1.0103608   -2.4435968   -2.4435968   -1.2769141  0.068164539   -2.4435968    1.1666826   475860 
   39000    1.0110391   -2.4443185   -2.4443185   -1.2768527  0.073324514   -2.4443185    1.1674658   475860 
   40000     1.010698   -2.4436973   -2.4436973   -1.2766254  0.075960813   -2.4436973     1.167072   475860 
   41000    1.0120545    -2.444981    -2.444981   -1.2763426  0.065279931    -2.444981    1.1686384   475860 
   42000    1.0112056   -2.4446502   -2.4446502   -1.2769921  0.069163066   -2.4446502    1.1676581   475860 
   43000    1.0108328   -2.4443164   -2.4443164   -1.2770887  0.067596818   -2.4443164    1.1672277   475860 
   44000    1.0098612   -2.4434969   -2.4434969   -1.2773912  0.070700302   -2.4434969    1.1661057   475860 
   45000    1.0087179    -2.442851    -2.442851   -1.2780654  0.071339135    -2.442851    1.1647856   475860 
   46000    1.0104024     -2.44434     -2.44434   -1.2776094  0.063626988     -2.44434    1.1667306   475860 
   47000    1.0087147   -2.4422409   -2.4422409   -1.2774591  0.075471708   -2.4422409    1.1647819   475860 
   48000     1.009631   -2.4445207   -2.4445207   -1.2786808  0.054048841   -2.4445207    1.1658399   475860 
   49000    1.0080948   -2.4422779   -2.4422779   -1.2782118   0.06560378   -2.4422779    1.1640661   475860 
   50000    1.0083351   -2.4422006   -2.4422006    -1.277857  0.069167381   -2.4422006    1.1643436   475860 
   51000    1.0079706   -2.4419817   -2.4419817   -1.2780591  0.067033796   -2.4419817    1.1639226   475860 
   52000    1.0090321   -2.4431285   -2.4431285   -1.2779802  0.061340582   -2.4431285    1.1651484   475860 
   53000    1.0094614   -2.4430352   -2.4430352   -1.2773911  0.066706771   -2.4430352    1.1656441   475860 
   54000    1.0095949   -2.4431938   -2.4431938   -1.2773955  0.059753502   -2.4431938    1.1657983   475860 
   55000    1.0076494   -2.4416021   -2.4416021   -1.2780504  0.069256579   -2.4416021    1.1635518   475860 
   56000    1.0072812   -2.4412612   -2.4412612   -1.2781346  0.067178201   -2.4412612    1.1631266   475860 
   57000    1.0072873   -2.4418019   -2.4418019   -1.2786683  0.065735011   -2.4418019    1.1631336   475860 
   58000    1.0090499    -2.443328    -2.443328   -1.2781591  0.061816345    -2.443328    1.1651689   475860 
   59000    1.0077529   -2.4415948   -2.4415948   -1.2779235  0.066569817   -2.4415948    1.1636713   475860 
   60000    1.0099211   -2.4443294   -2.4443294   -1.2781545  0.064461286   -2.4443294    1.1661749   475860 
   61000    1.0079919    -2.441287    -2.441287   -1.2773398  0.064336409    -2.441287    1.1639472   475860 
   62000    1.0092703   -2.4422627   -2.4422627   -1.2768393  0.077196911   -2.4422627    1.1654234   475860 
   63000    1.0103604   -2.4434494   -2.4434494   -1.2767673  0.068401866   -2.4434494    1.1666821   475860 
   64000     1.008303   -2.4414932   -2.4414932   -1.2771867  0.060802197   -2.4414932    1.1643065   475860 
   65000    1.0105274   -2.4427912   -2.4427912   -1.2759162  0.068938229   -2.4427912     1.166875   475860 
   66000     1.011277   -2.4432264   -2.4432264   -1.2754858  0.065608782   -2.4432264    1.1677406   475860 
   67000    1.0119882   -2.4442683   -2.4442683   -1.2757065  0.067169393   -2.4442683    1.1685618   475860 
   68000    1.0116609   -2.4431991   -2.4431991   -1.2750153  0.070170483   -2.4431991    1.1681838   475860 
   69000    1.0128164   -2.4451016   -2.4451016   -1.2755835  0.067360094   -2.4451016    1.1695182   475860 
   70000    1.0108694   -2.4426903   -2.4426903   -1.2754204  0.068890539   -2.4426903    1.1672699   475860 
   71000    1.0108419   -2.4423104   -2.4423104   -1.2750723  0.066599103   -2.4423104    1.1672381   475860 
   72000    1.0114444   -2.4453825   -2.4453825   -1.2774486   0.07199952   -2.4453825    1.1679339   475860 
   73000    1.0110869   -2.4460272   -2.4460272   -1.2785062  0.067315799   -2.4460272    1.1675211   475860 
   74000    1.0112718   -2.4465482   -2.4465482   -1.2788136  0.065443757   -2.4465482    1.1677346   475860 
   75000    1.0102174   -2.4455858   -2.4455858   -1.2790687  0.063736833   -2.4455858    1.1665171   475860 
   76000    1.0089056   -2.4430108   -2.4430108   -1.2780085  0.073565915   -2.4430108    1.1650022   475860 
   77000    1.0101707   -2.4457156   -2.4457156   -1.2792524  0.059405142   -2.4457156    1.1664632   475860 
   78000    1.0090994   -2.4454402   -2.4454402   -1.2802142  0.066651758   -2.4454402    1.1652261   475860 
   79000    1.0089935   -2.4458907   -2.4458907   -1.2807869  0.063957372   -2.4458907    1.1651038   475860 
   80000    1.0080815   -2.4448248   -2.4448248   -1.2807741  0.067886852   -2.4448248    1.1640507   475860 
   81000    1.0088122   -2.4449768   -2.4449768   -1.2800824   0.06366725   -2.4449768    1.1648945   475860 
   82000    1.0080141   -2.4448833   -2.4448833   -1.2809103  0.067194454   -2.4448833    1.1639729   475860 
   83000     1.010504   -2.4480934   -2.4480934   -1.2812455   0.07239851   -2.4480934    1.1668479   475860 
   84000    1.0074038   -2.4448867   -2.4448867   -1.2816186  0.072509546   -2.4448867    1.1632681   475860 
   85000    1.0083335   -2.4445095   -2.4445095   -1.2801678  0.070678818   -2.4445095    1.1643417   475860 
   86000    1.0104547   -2.4477478   -2.4477478   -1.2809568  0.062375424   -2.4477478    1.1667911   475860 
   87000     1.011579   -2.4485112   -2.4485112   -1.2804219  0.070148439   -2.4485112    1.1680893   475860 
   88000     1.010307   -2.4485203   -2.4485203   -1.2818998  0.069605692   -2.4485203    1.1666205   475860 
   89000    1.0095831   -2.4474766   -2.4474766    -1.281692  0.060820229   -2.4474766    1.1657846   475860 
   90000    1.0094463   -2.4465532   -2.4465532   -1.2809266  0.075586036   -2.4465532    1.1656266   475860 
   91000    1.0086286   -2.4455414   -2.4455414   -1.2808589  0.066052879   -2.4455414    1.1646824   475860 
   92000    1.0100072    -2.446698    -2.446698   -1.2804237   0.06330172    -2.446698    1.1662743   475860 
   93000    1.0111406   -2.4474181   -2.4474181    -1.279835  0.066338941   -2.4474181    1.1675831   475860 
   94000    1.0102561   -2.4461159   -2.4461159   -1.2795542   0.07058423   -2.4461159    1.1665617   475860 
   95000    1.0104949   -2.4479895   -2.4479895   -1.2811521  0.070682238   -2.4479895    1.1668375   475860 
   96000    1.0101845   -2.4482548   -2.4482548   -1.2817757    0.0727584   -2.4482548     1.166479   475860 
   97000    1.0084399   -2.4461079   -2.4461079   -1.2816434  0.067758617   -2.4461079    1.1644645   475860 
   98000    1.0076332   -2.4449611   -2.4449611   -1.2814281  0.074458329   -2.4449611     1.163533   475860 
   99000    1.0093721   -2.4468299   -2.4468299   -1.2812889  0.062827125   -2.4468299     1.165541   475860 
  100000    1.0101834   -2.4472802   -2.4472802   -1.2808024  0.070060752   -2.4472802    1.1664778   475860 
  101000    1.0079739    -2.445078    -2.445078   -1.2811515  0.071217696    -2.445078    1.1639265   475860 
  102000    1.0107802   -2.4485853   -2.4485853   -1.2814185  0.070200305   -2.4485853    1.1671669   475860 
  103000    1.0087516    -2.446319    -2.446319   -1.2814945  0.068653712    -2.446319    1.1648244   475860 
  104000    1.0096795   -2.4466627   -2.4466627   -1.2807668  0.067651907   -2.4466627    1.1658959   475860 
  105000    1.0091323   -2.4473818   -2.4473818   -1.2821177  0.071639758   -2.4473818     1.165264   475860 
  106000    1.0089401    -2.447582    -2.447582   -1.2825399  0.065079735    -2.447582    1.1650421   475860 
  107000    1.0098619   -2.4477158   -2.4477158   -1.2816093  0.065633765   -2.4477158    1.1661065   475860 
  108000    1.0094736    -2.447635    -2.447635   -1.2819769  0.064726624    -2.447635    1.1656581   475860 
  109000    1.0095736   -2.4470683   -2.4470683   -1.2812947  0.065750804   -2.4470683    1.1657736   475860 
  110000    1.0065246   -2.4445762   -2.4445762   -1.2823233  0.065010431   -2.4445762    1.1622529   475860 
  111000    1.0056981   -2.4446722   -2.4446722   -1.2833736  0.063075536   -2.4446722    1.1612986   475860 
  112000    1.0065012    -2.445748    -2.445748   -1.2835221  0.060601225    -2.445748    1.1622259   475860 
  113000    1.0066286   -2.4463786   -2.4463786   -1.2840056  0.059074845   -2.4463786     1.162373   475860 
  114000    1.0057238   -2.4442076   -2.4442076   -1.2828794  0.068641845   -2.4442076    1.1613282   475860 
  115000    1.0070392   -2.4458618   -2.4458618   -1.2830147  0.069881625   -2.4458618    1.1628471   475860 
  116000    1.0087172   -2.4477554   -2.4477554   -1.2829706  0.069503028   -2.4477554    1.1647848   475860 
  117000    1.0079476   -2.4466261   -2.4466261     -1.28273   0.06736591   -2.4466261     1.163896   475860 
  118000    1.0088063   -2.4468447   -2.4468447   -1.2819572  0.069853107   -2.4468447    1.1648876   475860 
  119000    1.0094999   -2.4484257   -2.4484257   -1.2827373  0.063363809   -2.4484257    1.1656885   475860 
  120000     1.007533    -2.447628    -2.447628   -1.2842107  0.071539797    -2.447628    1.1634173   475860 
  121000    1.0071637   -2.4471121   -2.4471121   -1.2841212  0.069344038   -2.4471121    1.1629909   475860 
  122000    1.0090648   -2.4482316   -2.4482316   -1.2830455  0.071328059   -2.4482316    1.1651861   475860 
  123000     1.008049   -2.4464868   -2.4464868   -1.2824736  0.071743575   -2.4464868    1.1640131   475860 
  124000    1.0095786   -2.4490861   -2.4490861   -1.2833067  0.067673054   -2.4490861    1.1657794   475860 
  125000    1.0092717    -2.448348    -2.448348    -1.282923  0.074005643    -2.448348    1.1654251   475860 
  126000    1.0083206   -2.4481515   -2.4481515   -1.2838247  0.073836705   -2.4481515    1.1643268   475860 
  127000    1.0110667   -2.4514377   -2.4514377   -1.2839399    0.0676306   -2.4514377    1.1674978   475860 
  128000    1.0093107   -2.4487011   -2.4487011    -1.283231  0.060786954   -2.4487011      1.16547   475860 
  129000    1.0099861   -2.4502044   -2.4502044   -1.2839545   0.07361408   -2.4502044    1.1662499   475860 
  130000    1.0079516   -2.4484102   -2.4484102   -1.2845095  0.066908863   -2.4484102    1.1639007   475860 
  131000    1.0083934   -2.4495118   -2.4495118    -1.285101  0.065920916   -2.4495118    1.1644108   475860 
  132000    1.0089814   -2.4492116   -2.4492116   -1.2841218  0.069828622   -2.4492116    1.1650898   475860 
  133000    1.0084162   -2.4488326   -2.4488326   -1.2843955  0.066538462   -2.4488326    1.1644371   475860 
  134000    1.0088391   -2.4506426   -2.4506426   -1.2857171  0.066628699   -2.4506426    1.1649255   475860 
  135000    1.0092702   -2.4505517   -2.4505517   -1.2851284  0.064677311   -2.4505517    1.1654233   475860 
  136000    1.0080621   -2.4487884   -2.4487884   -1.2847602  0.070354085   -2.4487884    1.1640283   475860 
  137000    1.0084567   -2.4496569   -2.4496569    -1.285173  0.065538317   -2.4496569    1.1644839   475860 
  138000    1.0090464   -2.4499132   -2.4499132   -1.2847483  0.064800156   -2.4499132    1.1651649   475860 
  139000    1.0079701   -2.4485072   -2.4485072   -1.2845852  0.065858444   -2.4485072     1.163922   475860 
  140000    1.0106344   -2.4501899   -2.4501899   -1.2831914  0.063369782   -2.4501899    1.1669985   475860 
  141000     1.009531    -2.449789    -2.449789   -1.2840646  0.060784219    -2.449789    1.1657244   475860 
  142000    1.0083322   -2.4487117   -2.4487117   -1.2843715  0.067898583   -2.4487117    1.1643402   475860 
  143000     1.007238   -2.4481537   -2.4481537   -1.2850771  0.061476044   -2.4481537    1.1630766   475860 
  144000    1.0081375   -2.4488655   -2.4488655   -1.2847501  0.069320326   -2.4488655    1.1641154   475860 
  145000    1.0098473   -2.4501624   -2.4501624   -1.2840727  0.072168586   -2.4501624    1.1660897   475860 
  146000    1.0082761   -2.4491456   -2.4491456   -1.2848702   0.06946031   -2.4491456    1.1642754   475860 
  147000    1.0087911   -2.4490484   -2.4490484   -1.2841783  0.069632315   -2.4490484    1.1648701   475860 
  148000    1.0071627   -2.4474507   -2.4474507   -1.2844611   0.07459732   -2.4474507    1.1629897   475860 
  149000    1.0094575   -2.4494348   -2.4494348   -1.2837953  0.066399349   -2.4494348    1.1656396   475860 
  150000    1.0097706   -2.4502699   -2.4502699   -1.2842688  0.062786993   -2.4502699    1.1660011   475860 
  151000    1.0087492   -2.4495915   -2.4495915   -1.2847698  0.064405445   -2.4495915    1.1648217   475860 
  152000    1.0084837   -2.4481926   -2.4481926   -1.2836775   0.07323611   -2.4481926    1.1645151   475860 
  153000    1.0084781   -2.4486758   -2.4486758   -1.2841672  0.069343844   -2.4486758    1.1645086   475860 
  154000    1.0083109    -2.449334    -2.449334   -1.2850185  0.072088415    -2.449334    1.1643155   475860 
  155000    1.0081214    -2.448868    -2.448868   -1.2847712  0.066784619    -2.448868    1.1640967   475860 
  156000    1.0109983   -2.4507144   -2.4507144   -1.2832957  0.067965311   -2.4507144    1.1674187   475860 
  157000    1.0109314   -2.4505916   -2.4505916   -1.2832501  0.072261907   -2.4505916    1.1673415   475860 
  158000     1.009033   -2.4480784   -2.4480784    -1.282929  0.075805621   -2.4480784    1.1651494   475860 
  159000    1.0094327   -2.4490779   -2.4490779    -1.283467  0.063962724   -2.4490779    1.1656109   475860 
  160000    1.0094919   -2.4492012   -2.4492012   -1.2835219  0.066979916   -2.4492012    1.1656793   475860 
  161000    1.0100402   -2.4487485   -2.4487485   -1.2824361  0.071615936   -2.4487485    1.1663125   475860 
  162000    1.0098106   -2.4488459   -2.4488459   -1.2827987  0.071979103   -2.4488459    1.1660473   475860 
  163000    1.0111736   -2.4497179   -2.4497179   -1.2820967  0.067831792   -2.4497179    1.1676212   475860 
  164000    1.0100783   -2.4486421   -2.4486421   -1.2822856  0.066525104   -2.4486421    1.1663564   475860 
  165000    1.0107686   -2.4497126   -2.4497126   -1.2825591  0.073682753   -2.4497126    1.1671536   475860 
  166000    1.0104972    -2.449346    -2.449346   -1.2825059  0.070605539    -2.449346    1.1668401   475860 
  167000    1.0094312   -2.4480413   -2.4480413   -1.2824322  0.068693002   -2.4480413    1.1656092   475860 
  168000    1.0099862   -2.4480948   -2.4480948   -1.2818448  0.067681989   -2.4480948      1.16625   475860 
  169000    1.0100264   -2.4482685   -2.4482685   -1.2819721  0.074681681   -2.4482685    1.1662965   475860 
  170000    1.0098285   -2.4483202   -2.4483202   -1.2822522  0.066831202   -2.4483202     1.166068   475860 
  171000    1.0087974   -2.4471647   -2.4471647   -1.2822873  0.063792097   -2.4471647    1.1648774   475860 
  172000    1.0075803   -2.4464794   -2.4464794   -1.2830074  0.066336093   -2.4464794     1.163472   475860 
  173000    1.0089633   -2.4471819   -2.4471819    -1.282113  0.068089523   -2.4471819     1.165069   475860 
  174000    1.0088599   -2.4477194   -2.4477194   -1.2827698  0.064196735   -2.4477194    1.1649496   475860 
  175000    1.0076784   -2.4458345   -2.4458345   -1.2822493  0.067907461   -2.4458345    1.1635852   475860 
  176000    1.0069374   -2.4438702   -2.4438702   -1.2811406  0.076094694   -2.4438702    1.1627295   475860 
  177000    1.0061858   -2.4440809   -2.4440809   -1.2822192  0.066406692   -2.4440809    1.1618617   475860 
  178000    1.0098438    -2.447027    -2.447027   -1.2809414  0.060249293    -2.447027    1.1660857   475860 
  179000    1.0087369   -2.4443944   -2.4443944   -1.2795869  0.063551636   -2.4443944    1.1648074   475860 
  180000    1.0073002   -2.4427613   -2.4427613   -1.2796128  0.070832238   -2.4427613    1.1631485   475860 
  181000    1.0072659   -2.4440966   -2.4440966   -1.2809877  0.066107251   -2.4440966    1.1631089   475860 
  182000    1.0053911   -2.4431093   -2.4431093   -1.2821653  0.058716177   -2.4431093     1.160944   475860 
  183000      1.00733   -2.4441049   -2.4441049    -1.280922  0.060973771   -2.4441049    1.1631829   475860 
  184000    1.0093544   -2.4460381   -2.4460381   -1.2805176  0.061693346   -2.4460381    1.1655206   475860 
  185000    1.0089449   -2.4467403   -2.4467403   -1.2816926  0.059817805   -2.4467403    1.1650477   475860 
  186000    1.0079994   -2.4457882   -2.4457882   -1.2818323  0.065231894   -2.4457882    1.1639558   475860 
  187000    1.0072975   -2.4459144   -2.4459144    -1.282769  0.066162429   -2.4459144    1.1631453   475860 
  188000    1.0074796   -2.4465402   -2.4465402   -1.2831846  0.063563248   -2.4465402    1.1633556   475860 
  189000    1.0076283   -2.4472665   -2.4472665   -1.2837391  0.065066213   -2.4472665    1.1635274   475860 
  190000     1.006515   -2.4456106   -2.4456106   -1.2833688   0.07334646   -2.4456106    1.1622418   475860 
  191000     1.007717   -2.4460348   -2.4460348    -1.282405  0.070361752   -2.4460348    1.1636298   475860 
  192000    1.0094344   -2.4493642   -2.4493642   -1.2837513  0.063803107   -2.4493642    1.1656129   475860 
  193000    1.0097554   -2.4497647   -2.4497647   -1.2837812  0.065449268   -2.4497647    1.1659836   475860 
  194000     1.008636    -2.448836    -2.448836    -1.284145  0.070721082    -2.448836     1.164691   475860 
  195000    1.0076942   -2.4473658   -2.4473658   -1.2837623  0.066804767   -2.4473658    1.1636035   475860 
  196000    1.0083473    -2.448103    -2.448103   -1.2837454  0.068861146    -2.448103    1.1643576   475860 
  197000    1.0072238    -2.447484    -2.447484   -1.2844237  0.065890914    -2.447484    1.1630603   475860 
  198000    1.0083234   -2.4490537   -2.4490537   -1.2847236   0.06907377   -2.4490537      1.16433   475860 
  199000    1.0082385   -2.4485429   -2.4485429   -1.2843109  0.068359153   -2.4485429     1.164232   475860 
  200000    1.0088496   -2.4480267   -2.4480267   -1.2830891  0.066231866   -2.4480267    1.1649376   475860 
  201000    1.0095665   -2.4490881   -2.4490881   -1.2833227  0.072474329   -2.4490881    1.1657654   475860 
  202000    1.0089709   -2.4490499   -2.4490499   -1.2839722  0.072887374   -2.4490499    1.1650777   475860 
  203000    1.0099439   -2.4509474   -2.4509474   -1.2847462  0.068374098   -2.4509474    1.1662013   475860 
  204000    1.0110878   -2.4507615   -2.4507615   -1.2832394  0.069802708   -2.4507615    1.1675221   475860 
  205000    1.0093544   -2.4497653   -2.4497653   -1.2842448   0.07315413   -2.4497653    1.1655205   475860 
  206000    1.0096018   -2.4497792   -2.4497792    -1.283973  0.070782486   -2.4497792    1.1658062   475860 
  207000    1.0081199   -2.4478692   -2.4478692   -1.2837742  0.072717536   -2.4478692     1.164095   475860 
  208000    1.0095889   -2.4504096   -2.4504096   -1.2846182  0.067740944   -2.4504096    1.1657914   475860 
  209000    1.0091578   -2.4503754   -2.4503754   -1.2850818  0.066616197   -2.4503754    1.1652936   475860 
  210000    1.0071133   -2.4488464   -2.4488464   -1.2859137  0.062506485   -2.4488464    1.1629327   475860 
  211000     1.007989   -2.4484364   -2.4484364   -1.2844926  0.068375022   -2.4484364    1.1639438   475860 
  212000    1.0080164   -2.4484516   -2.4484516    -1.284476  0.066647993   -2.4484516    1.1639755   475860 
  213000    1.0090595   -2.4496815   -2.4496815   -1.2845016  0.069489377   -2.4496815      1.16518   475860 
  214000     1.009364   -2.4494103   -2.4494103   -1.2838786  0.066057902   -2.4494103    1.1655316   475860 
  215000    1.0070745   -2.4484187   -2.4484187   -1.2855308  0.072012701   -2.4484187    1.1628879   475860 
  216000    1.0083183   -2.4501085   -2.4501085   -1.2857843  0.064699897   -2.4501085    1.1643242   475860 
  217000    1.0096159   -2.4507021   -2.4507021   -1.2848797  0.065752623   -2.4507021    1.1658225   475860 
  218000    1.0089023   -2.4505013   -2.4505013   -1.2855028   0.06550601   -2.4505013    1.1649985   475860 
  219000    1.0093868   -2.4504849   -2.4504849    -1.284927  0.069475717   -2.4504849    1.1655579   475860 
  220000    1.0112867   -2.4519406   -2.4519406   -1.2841888  0.068865166   -2.4519406    1.1677517   475860 
  221000     1.009546   -2.4491573   -2.4491573   -1.2834154  0.068146019   -2.4491573    1.1657418   475860 
  222000    1.0073358   -2.4474582   -2.4474582   -1.2842685  0.070693526   -2.4474582    1.1631896   475860 
  223000    1.0087376   -2.4493451   -2.4493451   -1.2845368  0.070683029   -2.4493451    1.1648083   475860 
  224000    1.0096742   -2.4505571   -2.4505571   -1.2846673  0.060458918   -2.4505571    1.1658897   475860 
  225000    1.0117081   -2.4527932   -2.4527932   -1.2845549  0.065745123   -2.4527932    1.1682384   475860 
  226000    1.0103426    -2.450294    -2.450294   -1.2836324  0.065575829    -2.450294    1.1666616   475860 
  227000     1.010204   -2.4515547   -2.4515547   -1.2850531  0.075355458   -2.4515547    1.1665015   475860 
  228000    1.0097718   -2.4512549   -2.4512549   -1.2852524  0.068730185   -2.4512549    1.1660025   475860 
  229000    1.0086906   -2.4500762   -2.4500762   -1.2853222  0.069526314   -2.4500762     1.164754   475860 
  230000    1.0081226   -2.4489737   -2.4489737   -1.2848755  0.064925992   -2.4489737    1.1640981   475860 
  231000    1.0086797   -2.4498339   -2.4498339   -1.2850925  0.068299681   -2.4498339    1.1647414   475860 
  232000    1.0081613   -2.4492529   -2.4492529     -1.28511  0.069319121   -2.4492529    1.1641428   475860 
  233000    1.0077052   -2.4492699   -2.4492699   -1.2856538  0.074712321   -2.4492699    1.1636161   475860 
  234000    1.0083557   -2.4503478   -2.4503478   -1.2859805  0.072723087   -2.4503478    1.1643673   475860 
  235000    1.0087547   -2.4505395   -2.4505395   -1.2857114  0.070681213   -2.4505395    1.1648281   475860 
  236000    1.0105218   -2.4529993   -2.4529993   -1.2861307  0.063713975   -2.4529993    1.1668686   475860 
  237000    1.0103166   -2.4525536   -2.4525536   -1.2859219  0.071402919   -2.4525536    1.1666316   475860 
  238000    1.0091721   -2.4512073   -2.4512073   -1.2858973  0.067103829   -2.4512073    1.1653101   475860 
  239000    1.0090604   -2.4519431   -2.4519431   -1.2867621  0.078384376   -2.4519431     1.165181   475860 
  240000    1.0097748    -2.452331    -2.452331    -1.286325  0.072642027    -2.452331     1.166006   475860 
  241000    1.0089455   -2.4511618   -2.4511618   -1.2861134   0.06722196   -2.4511618    1.1650484   475860 
  242000    1.0102093   -2.4525219   -2.4525219   -1.2860142  0.065707849   -2.4525219    1.1665077   475860 
  243000    1.0094172   -2.4518669   -2.4518669   -1.2862739  0.065101625   -2.4518669     1.165593   475860 
  244000    1.0092442   -2.4516788   -2.4516788   -1.2862855  0.075555972   -2.4516788    1.1653933   475860 
  245000    1.0084218   -2.4514999   -2.4514999   -1.2870563  0.067105502   -2.4514999    1.1644436   475860 
  246000     1.008925    -2.451202    -2.451202   -1.2861773  0.066802045    -2.451202    1.1650247   475860 
  247000    1.0083687    -2.451674    -2.451674   -1.2872917  0.064960127    -2.451674    1.1643823   475860 
  248000    1.0075366   -2.4510954   -2.4510954   -1.2876738  0.067783679   -2.4510954    1.1634215   475860 
  249000    1.0101115    -2.453633    -2.453633   -1.2872383  0.073875132    -2.453633    1.1663947   475860 
  250000     1.008632   -2.4528134   -2.4528134   -1.2881271  0.065553942   -2.4528134    1.1646863   475860 
  251000    1.0067087    -2.451215    -2.451215   -1.2887496  0.066439485    -2.451215    1.1624655   475860 
  252000    1.0087334   -2.4529643   -2.4529643   -1.2881609  0.069533806   -2.4529643    1.1648034   475860 
  253000    1.0088239   -2.4526763   -2.4526763   -1.2877683  0.070867012   -2.4526763     1.164908   475860 
  254000    1.0106585   -2.4549662   -2.4549662   -1.2879398  0.067302186   -2.4549662    1.1670263   475860 
  255000    1.0099443   -2.4538579   -2.4538579   -1.2876562  0.058359887   -2.4538579    1.1662017   475860 
  256000    1.0090632   -2.4519755   -2.4519755   -1.2867912  0.067973664   -2.4519755    1.1651843   475860 
  257000     1.009437   -2.4525623   -2.4525623   -1.2869463  0.070020001   -2.4525623    1.1656159   475860 
  258000    1.0107656   -2.4534255   -2.4534255   -1.2862754  0.075868233   -2.4534255    1.1671501   475860 
  259000    1.0092299   -2.4511187   -2.4511187   -1.2857419   0.07931744   -2.4511187    1.1653768   475860 
  260000    1.0089167   -2.4512452   -2.4512452   -1.2862301  0.072917285   -2.4512452    1.1650151   475860 
  261000    1.0107379   -2.4526884   -2.4526884   -1.2855704  0.070736541   -2.4526884     1.167118   475860 
  262000    1.0089111   -2.4503219   -2.4503219   -1.2853133  0.070514682   -2.4503219    1.1650087   475860 
  263000    1.0093117    -2.451671    -2.451671   -1.2861998  0.074598732    -2.451671    1.1654713   475860 
  264000    1.0088275   -2.4505173   -2.4505173   -1.2856051  0.066239127   -2.4505173    1.1649121   475860 
  265000    1.0092364   -2.4515823   -2.4515823   -1.2861981  0.071158782   -2.4515823    1.1653842   475860 
  266000    1.0075296   -2.4488662   -2.4488662   -1.2854527  0.072765559   -2.4488662    1.1634134   475860 
  267000    1.0080025   -2.4498714   -2.4498714   -1.2859119   0.07258375   -2.4498714    1.1639595   475860 
  268000     1.007254   -2.4487949   -2.4487949   -1.2856998   0.06923159   -2.4487949    1.1630951   475860 
  269000    1.0082294   -2.4506236   -2.4506236   -1.2864021  0.064160593   -2.4506236    1.1642215   475860 
  270000    1.0056473   -2.4474797   -2.4474797   -1.2862398  0.073219893   -2.4474797    1.1612399   475860 
  271000    1.0061276   -2.4483785   -2.4483785   -1.2865841  0.064075489   -2.4483785    1.1617944   475860 
  272000    1.0048945   -2.4468944   -2.4468944   -1.2865239  0.062770006   -2.4468944    1.1603705   475860 
  273000    1.0065458   -2.4485384   -2.4485384    -1.286261  0.069037532   -2.4485384    1.1622774   475860 
  274000    1.0079405   -2.4494413   -2.4494413   -1.2855534  0.061574352   -2.4494413    1.1638878   475860 
  275000    1.0077991   -2.4485137   -2.4485137   -1.2847891  0.062386384   -2.4485137    1.1637246   475860 
  276000    1.0089355   -2.4496181   -2.4496181   -1.2845813  0.067920826   -2.4496181    1.1650369   475860 
  277000    1.0096341   -2.4507835   -2.4507835   -1.2849401  0.065046442   -2.4507835    1.1658435   475860 
  278000    1.0091041   -2.4499621   -2.4499621   -1.2847306  0.066673075   -2.4499621    1.1652315   475860 
  279000    1.0082585   -2.4496415   -2.4496415   -1.2853864  0.077828872   -2.4496415    1.1642551   475860 
  280000    1.0087585   -2.4497211   -2.4497211   -1.2848887  0.066466781   -2.4497211    1.1648325   475860 
  281000    1.0093873   -2.4506228   -2.4506228   -1.2850643   0.07115586   -2.4506228    1.1655585   475860 
  282000    1.0078414    -2.447872    -2.447872   -1.2840985  0.069922657    -2.447872    1.1637735   475860 
  283000    1.0077055   -2.4480903   -2.4480903   -1.2844737  0.064563601   -2.4480903    1.1636166   475860 
  284000    1.0089505   -2.4493475   -2.4493475   -1.2842933  0.066163179   -2.4493475    1.1650542   475860 
  285000    1.0080834   -2.4489194   -2.4489194   -1.2848665  0.065972097   -2.4489194    1.1640529   475860 
  286000    1.0084789   -2.4506889   -2.4506889   -1.2861793  0.071734187   -2.4506889    1.1645096   475860 
  287000     1.008369   -2.4518283   -2.4518283   -1.2874456   0.06447234   -2.4518283    1.1643827   475860 
  288000    1.0108023   -2.4531385   -2.4531385   -1.2859461  0.064577015   -2.4531385    1.1671924   475860 
  289000    1.0097727   -2.4515325   -2.4515325    -1.285529  0.069707882   -2.4515325    1.1660036   475860 
  290000    1.0106445      -2.4516      -2.4516   -1.2845897  0.069489032      -2.4516    1.1670102   475860 
  291000    1.0092197   -2.4501596   -2.4501596   -1.2847947  0.066645058   -2.4501596     1.165365   475860 
  292000    1.0104089   -2.4510281   -2.4510281   -1.2842898  0.072518574   -2.4510281    1.1667382   475860 
  293000    1.0090576   -2.4494851   -2.4494851   -1.2843073  0.066520725   -2.4494851    1.1651778   475860 
  294000    1.0106681   -2.4514733   -2.4514733   -1.2844358  0.067929988   -2.4514733    1.1670375   475860 
  295000    1.0102515   -2.4511373   -2.4511373   -1.2845809  0.061348193   -2.4511373    1.1665564   475860 
  296000    1.0104406   -2.4524906   -2.4524906   -1.2857159  0.068775946   -2.4524906    1.1667747   475860 
  297000    1.0102126   -2.4514978   -2.4514978   -1.2849863  0.060956589   -2.4514978    1.1665115   475860 
  298000    1.0087927   -2.4491659   -2.4491659    -1.284294  0.068672331   -2.4491659     1.164872   475860 
  299000    1.0097555   -2.4510894   -2.4510894   -1.2851056  0.064954353   -2.4510894    1.1659837   475860 
  300000    1.0097109    -2.450688    -2.450688   -1.2847558  0.066909458    -2.450688    1.1659321   475860 
  301000    1.0076034   -2.4485444   -2.4485444   -1.2850458  0.067774723   -2.4485444    1.1634986   475860 
  302000    1.0085938   -2.4490393   -2.4490393   -1.2843971  0.072946744   -2.4490393    1.1646422   475860 
  303000    1.0092169   -2.4515803   -2.4515803   -1.2862184   0.07717714   -2.4515803    1.1653618   475860 
  304000    1.0091991   -2.4496688   -2.4496688   -1.2843277  0.070946695   -2.4496688    1.1653412   475860 
  305000    1.0090326   -2.4498216   -2.4498216   -1.2846727  0.068478379   -2.4498216    1.1651489   475860 
  306000     1.009152   -2.4509118   -2.4509118    -1.285625  0.065649056   -2.4509118    1.1652868   475860 
  307000    1.0067819   -2.4482469   -2.4482469   -1.2856968  0.074445752   -2.4482469      1.16255   475860 
  308000    1.0074367   -2.4475362   -2.4475362     -1.28423  0.067271257   -2.4475362    1.1633061   475860 
  309000    1.0076016   -2.4480739   -2.4480739   -1.2845774  0.068580142   -2.4480739    1.1634965   475860 
  310000    1.0090555   -2.4497309   -2.4497309   -1.2845555  0.063851856   -2.4497309    1.1651753   475860 
  311000    1.0091468   -2.4497384   -2.4497384   -1.2844576   0.06018938   -2.4497384    1.1652808   475860 
  312000    1.0081559   -2.4491609   -2.4491609   -1.2850243  0.067297753   -2.4491609    1.1641366   475860 
  313000    1.0098129   -2.4515214   -2.4515214   -1.2854714  0.073908486   -2.4515214    1.1660499   475860 
  314000    1.0084129     -2.44976     -2.44976   -1.2853266  0.065731606     -2.44976    1.1644334   475860 
  315000    1.0093092   -2.4504807   -2.4504807   -1.2850124  0.076956455   -2.4504807    1.1654683   475860 
  316000    1.0102919   -2.4501676   -2.4501676   -1.2835645   0.06747029   -2.4501676    1.1666031   475860 
  317000     1.009527   -2.4489928   -2.4489928   -1.2832729   0.06960655   -2.4489928    1.1657199   475860 
  318000    1.0086396   -2.4478341   -2.4478341    -1.283139    0.0596835   -2.4478341    1.1646951   475860 
  319000    1.0084321   -2.4489634   -2.4489634   -1.2845078  0.065549344   -2.4489634    1.1644555   475860 
  320000    1.0110715   -2.4519813   -2.4519813    -1.284478  0.065501012   -2.4519813    1.1675033   475860 
  321000    1.0094272   -2.4494569   -2.4494569   -1.2838523  0.064236209   -2.4494569    1.1656046   475860 
  322000    1.0076853   -2.4474716   -2.4474716   -1.2838784  0.067914822   -2.4474716    1.1635932   475860 
  323000    1.0074455   -2.4483327   -2.4483327   -1.2850163  0.071200291   -2.4483327    1.1633163   475860 
  324000    1.0085674   -2.4494501   -2.4494501   -1.2848383  0.067158946   -2.4494501    1.1646118   475860 
  325000    1.0094267   -2.4493772   -2.4493772   -1.2837732   0.06997765   -2.4493772     1.165604   475860 
  326000    1.0089295   -2.4480672   -2.4480672   -1.2830373  0.073098474   -2.4480672    1.1650299   475860 
  327000    1.0083088   -2.4477552   -2.4477552   -1.2834421  0.065086013   -2.4477552    1.1643132   475860 
  328000    1.0086385   -2.4485575   -2.4485575   -1.2838636  0.065180452   -2.4485575    1.1646939   475860 
  329000    1.0090689   -2.4493683   -2.4493683   -1.2841774  0.063593612   -2.4493683    1.1651909   475860 
  330000    1.0075396   -2.4480506   -2.4480506   -1.2846256  0.066700482   -2.4480506     1.163425   475860 
  331000    1.0101995   -2.4512808   -2.4512808   -1.2847844  0.065296392   -2.4512808    1.1664964   475860 
  332000    1.0093068    -2.450141    -2.450141   -1.2846755  0.078668226    -2.450141    1.1654655   475860 
  333000    1.0060804   -2.4479489   -2.4479489    -1.286209  0.068642123   -2.4479489    1.1617399   475860 
  334000    1.0082559   -2.4485375   -2.4485375   -1.2842855  0.067744629   -2.4485375     1.164252   475860 
  335000    1.0096407     -2.45071     -2.45071   -1.2848589    0.0714461     -2.45071    1.1658511   475860 
  336000    1.0065487   -2.4479624   -2.4479624   -1.2856816  0.071140738   -2.4479624    1.1622808   475860 
  337000    1.0080248   -2.4496485   -2.4496485   -1.2856633    0.0666407   -2.4496485    1.1639852   475860 
  338000    1.0081822   -2.4505206   -2.4505206   -1.2863537    0.0577418   -2.4505206    1.1641669   475860 
  339000    1.0078845   -2.4502972   -2.4502972   -1.2864741  0.069705169   -2.4502972    1.1638232   475860 
  340000    1.0086489   -2.4504556   -2.4504556   -1.2857497  0.071047968   -2.4504556    1.1647059   475860 
  341000    1.0090434   -2.4498023   -2.4498023   -1.2846409  0.069471535   -2.4498023    1.1651614   475860 
  342000    1.0096402   -2.4508541   -2.4508541   -1.2850036  0.072811655   -2.4508541    1.1658505   475860 
  343000     1.010434    -2.451691    -2.451691   -1.2849238  0.063490085    -2.451691    1.1667672   475860 
  344000    1.0102188   -2.4505058   -2.4505058   -1.2839872  0.076490943   -2.4505058    1.1665186   475860 
  345000    1.0091618   -2.4497889   -2.4497889   -1.2844907     0.075075   -2.4497889    1.1652982   475860 
  346000    1.0097815   -2.4532039   -2.4532039   -1.2871902  0.065408044   -2.4532039    1.1660137   475860 
  347000    1.0098694   -2.4514394   -2.4514394   -1.2853242  0.064891169   -2.4514394    1.1661152   475860 
  348000    1.0095911    -2.452005    -2.452005   -1.2862111   0.07079706    -2.452005    1.1657939   475860 
  349000    1.0097917   -2.4519464   -2.4519464   -1.2859209  0.070745488   -2.4519464    1.1660254   475860 
  350000    1.0069373   -2.4495061   -2.4495061   -1.2867766  0.070543016   -2.4495061    1.1627295   475860 
  351000    1.0074216   -2.4503432   -2.4503432   -1.2870545  0.072381417   -2.4503432    1.1632887   475860 
  352000    1.0079701   -2.4502155   -2.4502155   -1.2862934  0.067204656   -2.4502155    1.1639221   475860 
  353000    1.0052595   -2.4476069   -2.4476069   -1.2868149  0.067879123   -2.4476069    1.1607921   475860 
  354000    1.0089835   -2.4519302   -2.4519302    -1.286838  0.065240609   -2.4519302    1.1650922   475860 
  355000    1.0083545     -2.45216     -2.45216   -1.2877941  0.071510828     -2.45216    1.1643659   475860 
  356000    1.0088043   -2.4536197   -2.4536197   -1.2887344  0.056617229   -2.4536197    1.1648853   475860 
  357000    1.0082485   -2.4526117   -2.4526117   -1.2883681  0.076843327   -2.4526117    1.1642436   475860 
  358000    1.0096762   -2.4539978   -2.4539978   -1.2881057  0.069929629   -2.4539978    1.1658921   475860 
  359000    1.0090317   -2.4525997   -2.4525997   -1.2874519  0.073633067   -2.4525997    1.1651478   475860 
  360000    1.0088236   -2.4523878   -2.4523878   -1.2874802   0.07098027   -2.4523878    1.1649076   475860 
  361000    1.0098058    -2.453798    -2.453798   -1.2877563  0.068236386    -2.453798    1.1660418   475860 
  362000    1.0094872   -2.4533541   -2.4533541   -1.2876802   0.07536113   -2.4533541    1.1656739   475860 
  363000    1.0093315   -2.4529582   -2.4529582   -1.2874641  0.070371236   -2.4529582    1.1654941   475860 
  364000    1.0092493   -2.4529979   -2.4529979   -1.2875987  0.069934547   -2.4529979    1.1653992   475860 
  365000    1.0096795   -2.4537027   -2.4537027   -1.2878067  0.075669337   -2.4537027     1.165896   475860 
  366000    1.0075455   -2.4509016   -2.4509016   -1.2874698   0.07406079   -2.4509016    1.1634318   475860 
  367000    1.0064937   -2.4510497   -2.4510497   -1.2888326  0.070034888   -2.4510497    1.1622172   475860 
  368000    1.0091869   -2.4535617   -2.4535617   -1.2882346  0.068132238   -2.4535617    1.1653271   475860 
  369000     1.006837   -2.4498723   -2.4498723   -1.2872587  0.074714066   -2.4498723    1.1626136   475860 
  370000    1.0091872   -2.4531906   -2.4531906   -1.2878632  0.067618535   -2.4531906    1.1653275   475860 
  371000    1.0085589   -2.4526356   -2.4526356   -1.2880336  0.071710267   -2.4526356     1.164602   475860 
  372000    1.0081381   -2.4523282   -2.4523282   -1.2882122  0.071902792   -2.4523282     1.164116   475860 
  373000    1.0071276   -2.4509019   -2.4509019   -1.2879527  0.066144167   -2.4509019    1.1629492   475860 
  374000    1.0090447   -2.4526497   -2.4526497   -1.2874868  0.066942086   -2.4526497    1.1651629   475860 
  375000    1.0081372   -2.4517321   -2.4517321    -1.287617   0.06785682   -2.4517321     1.164115   475860 
  376000    1.0079979   -2.4513408   -2.4513408   -1.2873866  0.074801445   -2.4513408    1.1639542   475860 
  377000    1.0080718   -2.4519498   -2.4519498   -1.2879103   0.06940486   -2.4519498    1.1640395   475860 
  378000    1.0076205   -2.4525773   -2.4525773   -1.2890589  0.064421368   -2.4525773    1.1635184   475860 
  379000    1.0080991   -2.4520508   -2.4520508   -1.2879799  0.066042133   -2.4520508     1.164071   475860 
  380000    1.0064427   -2.4507526   -2.4507526   -1.2885942  0.067727688   -2.4507526    1.1621583   475860 
  381000    1.0090833   -2.4533904   -2.4533904   -1.2881829  0.066896256   -2.4533904    1.1652075   475860 
  382000    1.0057816    -2.448615    -2.448615   -1.2872201  0.071394775    -2.448615     1.161395   475860 
  383000    1.0077824   -2.4508044   -2.4508044   -1.2870991  0.066453404   -2.4508044    1.1637053   475860 
  384000    1.0087305   -2.4510564   -2.4510564   -1.2862563  0.073484354   -2.4510564    1.1648001   475860 
  385000    1.0086203   -2.4514145   -2.4514145   -1.2867417  0.071829052   -2.4514145    1.1646728   475860 
  386000    1.0077783   -2.4510905   -2.4510905     -1.28739  0.066500986   -2.4510905    1.1637005   475860 
  387000    1.0075676   -2.4508789   -2.4508789   -1.2874215  0.064596338   -2.4508789    1.1634573   475860 
  388000    1.0078221   -2.4517647   -2.4517647   -1.2880136  0.062955127   -2.4517647    1.1637511   475860 
  389000    1.0086299   -2.4526433   -2.4526433   -1.2879593  0.062896122   -2.4526433     1.164684   475860 
  390000     1.008775   -2.4525255   -2.4525255    -1.287674  0.062754626   -2.4525255    1.1648515   475860 
  391000    1.0085848   -2.4524318   -2.4524318      -1.2878   0.07075071   -2.4524318    1.1646318   475860 
  392000    1.0103236   -2.4549889   -2.4549889   -1.2883492  0.061521856   -2.4549889    1.1666397   475860 
  393000    1.0080219   -2.4519399   -2.4519399   -1.2879581  0.066808324   -2.4519399    1.1639818   475860 
  394000    1.0082134   -2.4517324   -2.4517324   -1.2875294  0.066901666   -2.4517324     1.164203   475860 
  395000    1.0066031   -2.4498328   -2.4498328   -1.2874892   0.06737135   -2.4498328    1.1623436   475860 
  396000    1.0086799   -2.4519412   -2.4519412   -1.2871996  0.072047517   -2.4519412    1.1647416   475860 
  397000    1.0101073   -2.4531605   -2.4531605   -1.2867705  0.065401608   -2.4531605    1.1663899   475860 
  398000    1.0090276   -2.4523298   -2.4523298   -1.2871867  0.072043071   -2.4523298    1.1651431   475860 
  399000    1.0099674   -2.4527341   -2.4527341   -1.2865057  0.068058153   -2.4527341    1.1662284   475860 
  400000    1.0103403   -2.4539425   -2.4539425   -1.2872835  0.067718499   -2.4539425     1.166659   475860 
  401000    1.0092034   -2.4531714   -2.4531714   -1.2878252  0.079774901   -2.4531714    1.1653462   475860 
  402000    1.0089729   -2.4524243   -2.4524243   -1.2873443  0.068062493   -2.4524243      1.16508   475860 
  403000    1.0089247   -2.4531186   -2.4531186   -1.2880942  0.070205755   -2.4531186    1.1650243   475860 
  404000    1.0102389   -2.4540696   -2.4540696   -1.2875278  0.067807605   -2.4540696    1.1665418   475860 
  405000    1.0091504   -2.4522905   -2.4522905   -1.2870056  0.077000902   -2.4522905    1.1652849   475860 
  406000    1.0110058   -2.4538025   -2.4538025    -1.286375  0.071004963   -2.4538025    1.1674275   475860 
  407000    1.0094186   -2.4519278   -2.4519278   -1.2863332  0.071806852   -2.4519278    1.1655947   475860 
  408000     1.009468   -2.4520537   -2.4520537    -1.286402   0.07291693   -2.4520537    1.1656517   475860 
  409000    1.0089823   -2.4522176   -2.4522176   -1.2871267  0.069646425   -2.4522176    1.1650909   475860 
  410000    1.0086134   -2.4511409   -2.4511409    -1.286476  0.068160479   -2.4511409    1.1646649   475860 
  411000    1.0082982   -2.4500379   -2.4500379    -1.285737  0.067487706   -2.4500379    1.1643009   475860 
  412000    1.0077579   -2.4506144   -2.4506144   -1.2869375  0.071943589   -2.4506144     1.163677   475860 
  413000     1.006456   -2.4505149   -2.4505149   -1.2883413  0.068721306   -2.4505149    1.1621737   475860 
  414000    1.0078454   -2.4518168   -2.4518168   -1.2880388  0.069188195   -2.4518168     1.163778   475860 
  415000    1.0078312   -2.4518552   -2.4518552   -1.2880934  0.066387783   -2.4518552    1.1637617   475860 
  416000    1.0072696   -2.4509723   -2.4509723   -1.2878592  0.071849994   -2.4509723    1.1631131   475860 
  417000     1.007804   -2.4501439   -2.4501439   -1.2864137  0.061499544   -2.4501439    1.1637302   475860 
  418000     1.008723   -2.4517135   -2.4517135   -1.2869221  0.073416363   -2.4517135    1.1647914   475860 
  419000    1.0092836   -2.4521923   -2.4521923   -1.2867535  0.064098367   -2.4521923    1.1654388   475860 
  420000      1.00829   -2.4502395   -2.4502395   -1.2859481  0.063216291   -2.4502395    1.1642914   475860 
  421000     1.008681   -2.4508202   -2.4508202   -1.2860773   0.06569634   -2.4508202    1.1647429   475860 
  422000    1.0072671    -2.450399    -2.450399   -1.2872887  0.059619757    -2.450399    1.1631103   475860 
  423000    1.0076498   -2.4514987   -2.4514987   -1.2879464  0.059095665   -2.4514987    1.1635522   475860 
  424000    1.0070076   -2.4509175   -2.4509175   -1.2881068  0.064336221   -2.4509175    1.1628106   475860 
  425000    1.0072008   -2.4501744   -2.4501744   -1.2871406  0.067218202   -2.4501744    1.1630338   475860 
  426000     1.007685   -2.4503025   -2.4503025   -1.2867098  0.067041848   -2.4503025    1.1635928   475860 
  427000    1.0082911   -2.4517041   -2.4517041   -1.2874114  0.067970455   -2.4517041    1.1642927   475860 
  428000    1.0099811   -2.4514527   -2.4514527   -1.2852084  0.070551971   -2.4514527    1.1662442   475860 
  429000    1.0092138   -2.4520446   -2.4520446   -1.2866864  0.063350032   -2.4520446    1.1653582   475860 
  430000    1.0075876   -2.4511563   -2.4511563   -1.2876759  0.070440057   -2.4511563    1.1634804   475860 
  431000    1.0079089   -2.4513016   -2.4513016   -1.2874503   0.06381534   -2.4513016    1.1638514   475860 
  432000    1.0081711   -2.4522944   -2.4522944   -1.2881403  0.065211117   -2.4522944    1.1641541   475860 
  433000    1.0095879   -2.4537326   -2.4537326   -1.2879424  0.069015767   -2.4537326    1.1657902   475860 
  434000    1.0095383    -2.453535    -2.453535   -1.2878022  0.067218331    -2.453535    1.1657329   475860 
  435000    1.0081829    -2.452582    -2.452582   -1.2884142  0.067178241    -2.452582    1.1641678   475860 
  436000     1.008202    -2.452947    -2.452947   -1.2887572  0.068162696    -2.452947    1.1641898   475860 
  437000     1.007829   -2.4519393   -2.4519393   -1.2881802  0.072471262   -2.4519393    1.1637591   475860 
  438000    1.0090109   -2.4523902   -2.4523902   -1.2872664  0.071316421   -2.4523902    1.1651239   475860 
  439000    1.0070377   -2.4519419   -2.4519419   -1.2890964  0.075973515   -2.4519419    1.1628454   475860 
  440000    1.0079462   -2.4537705   -2.4537705   -1.2898761  0.067068101   -2.4537705    1.1638944   475860 
  441000    1.0068288   -2.4526931   -2.4526931    -1.290089   0.06414303   -2.4526931    1.1626041   475860 
  442000     1.005573   -2.4512758   -2.4512758   -1.2901218  0.066958489   -2.4512758     1.161154   475860 
  443000    1.0085682   -2.4544475   -2.4544475   -1.2898348    0.0595607   -2.4544475    1.1646126   475860 
  444000    1.0098194    -2.454858    -2.454858   -1.2888006  0.065270733    -2.454858    1.1660574   475860 
  445000    1.0084904   -2.4529322   -2.4529322   -1.2884094  0.066682015   -2.4529322    1.1645228   475860 
  446000    1.0089459   -2.4533296   -2.4533296   -1.2882807  0.072426188   -2.4533296    1.1650489   475860 
  447000    1.0094689   -2.4530596   -2.4530596   -1.2874069  0.074469224   -2.4530596    1.1656527   475860 
  448000    1.0088601   -2.4540354   -2.4540354   -1.2890856  0.072571752   -2.4540354    1.1649497   475860 
  449000    1.0074466   -2.4526189   -2.4526189   -1.2893014  0.071096363   -2.4526189    1.1633175   475860 
  450000    1.0094315   -2.4559713   -2.4559713   -1.2903618   0.07093188   -2.4559713    1.1656096   475860 
  451000    1.0080577   -2.4546231   -2.4546231   -1.2905999  0.071837424   -2.4546231    1.1640232   475860 
  452000    1.0064964   -2.4533031   -2.4533031   -1.2910828  0.073153097   -2.4533031    1.1622203   475860 
  453000    1.0086084     -2.45401     -2.45401   -1.2893509  0.074716222     -2.45401    1.1646591   475860 
  454000    1.0089546   -2.4550481   -2.4550481   -1.2899893  0.072679138   -2.4550481    1.1650588   475860 
  455000    1.0065011   -2.4521321   -2.4521321   -1.2899063  0.066275952   -2.4521321    1.1622258   475860 
  456000    1.0064419   -2.4520179   -2.4520179   -1.2898605   0.06147755   -2.4520179    1.1621574   475860 
  457000    1.0064901   -2.4521951   -2.4521951    -1.289982  0.068302498   -2.4521951    1.1622131   475860 
  458000    1.0079339   -2.4534175   -2.4534175   -1.2895373  0.070323512   -2.4534175    1.1638803   475860 
  459000    1.0067929   -2.4521501   -2.4521501   -1.2895873  0.071768651   -2.4521501    1.1625627   475860 
  460000    1.0073488   -2.4538302   -2.4538302   -1.2906256  0.064556781   -2.4538302    1.1632047   475860 
  461000    1.0067721   -2.4534158   -2.4534158   -1.2908771  0.064942303   -2.4534158    1.1625387   475860 
  462000    1.0075673   -2.4536799   -2.4536799    -1.290223  0.062333465   -2.4536799     1.163457   475860 
  463000    1.0079952   -2.4532862   -2.4532862   -1.2893351  0.061929375   -2.4532862     1.163951   475860 
  464000     1.007953   -2.4516721   -2.4516721   -1.2877698  0.076973474   -2.4516721    1.1639023   475860 
  465000    1.0086673   -2.4515716   -2.4515716   -1.2868445   0.07253919   -2.4515716    1.1647271   475860 
  466000    1.0078952   -2.4522074   -2.4522074   -1.2883719  0.062517117   -2.4522074    1.1638355   475860 
  467000    1.0089537   -2.4536404   -2.4536404   -1.2885825  0.073303298   -2.4536404    1.1650579   475860 
  468000    1.0079191   -2.4521353   -2.4521353   -1.2882721  0.074773161   -2.4521353    1.1638632   475860 
  469000    1.0080495    -2.452365    -2.452365   -1.2883513  0.066194333    -2.452365    1.1640138   475860 
  470000    1.0080488    -2.453011    -2.453011    -1.288998  0.065506848    -2.453011     1.164013   475860 
  471000    1.0079934   -2.4526798   -2.4526798   -1.2887308  0.064799746   -2.4526798    1.1639489   475860 
  472000    1.0050734   -2.4498854   -2.4498854   -1.2893082  0.069441713   -2.4498854    1.1605772   475860 
  473000    1.0061635   -2.4520099   -2.4520099    -1.290174  0.066415027   -2.4520099    1.1618359   475860 
  474000     1.006288   -2.4522331   -2.4522331   -1.2902533   0.06093181   -2.4522331    1.1619797   475860 
  475000    1.0046991   -2.4511584   -2.4511584   -1.2910135  0.065256152   -2.4511584    1.1601449   475860 
  476000    1.0050336   -2.4511156   -2.4511156   -1.2905844  0.066416986   -2.4511156    1.1605312   475860 
  477000    1.0056791   -2.4513105   -2.4513105   -1.2900339  0.071676102   -2.4513105    1.1612766   475860 
  478000    1.0070115   -2.4538008   -2.4538008   -1.2909856  0.059673409   -2.4538008    1.1628152   475860 
  479000    1.0046606   -2.4504712   -2.4504712   -1.2903707  0.071022576   -2.4504712    1.1601006   475860 
  480000    1.0088742   -2.4548615   -2.4548615   -1.2898955  0.061057435   -2.4548615    1.1649661   475860 
  481000       1.0077    -2.451902    -2.451902   -1.2882918  0.069673464    -2.451902    1.1636102   475860 
  482000    1.0068792   -2.4505067   -2.4505067   -1.2878443  0.067752936   -2.4505067    1.1626624   475860 
  483000    1.0083067   -2.4521209   -2.4521209   -1.2878102  0.064898252   -2.4521209    1.1643107   475860 
  484000    1.0085746   -2.4528061   -2.4528061   -1.2881861  0.065183955   -2.4528061    1.1646201   475860 
  485000    1.0070825   -2.4525911   -2.4525911   -1.2896939  0.070956644   -2.4525911    1.1628972   475860 
  486000     1.007362   -2.4529741   -2.4529741   -1.2897543  0.072528601   -2.4529741    1.1632198   475860 
  487000    1.0082728   -2.4536308   -2.4536308   -1.2893593  0.068607357   -2.4536308    1.1642715   475860 
  488000    1.0075089    -2.451923    -2.451923   -1.2885335  0.064778141    -2.451923    1.1633895   475860 
  489000    1.0087121   -2.4543311   -2.4543311   -1.2895522  0.069883236   -2.4543311    1.1647789   475860 
  490000     1.007417   -2.4534522   -2.4534522   -1.2901689  0.071674147   -2.4534522    1.1632834   475860 
  491000    1.0066276   -2.4535631   -2.4535631   -1.2911913  0.066723446   -2.4535631    1.1623718   475860 
  492000    1.0065549   -2.4522752   -2.4522752   -1.2899873  0.073751236   -2.4522752    1.1622879   475860 
  493000    1.0085663   -2.4548736   -2.4548736   -1.2902631  0.069776741   -2.4548736    1.1646105   475860 
  494000    1.0077976    -2.453815    -2.453815   -1.2900922  0.064643745    -2.453815    1.1637228   475860 
  495000    1.0092836   -2.4554861   -2.4554861   -1.2900473  0.071441164   -2.4554861    1.1654388   475860 
  496000    1.0089371   -2.4561834   -2.4561834   -1.2911448  0.067661407   -2.4561834    1.1650386   475860 
  497000    1.0079792   -2.4545794   -2.4545794   -1.2906468  0.067437071   -2.4545794    1.1639326   475860 
  498000    1.0089758   -2.4557385   -2.4557385   -1.2906551  0.064364169   -2.4557385    1.1650834   475860 
  499000    1.0077119    -2.454598    -2.454598   -1.2909741  0.071915987    -2.454598    1.1636239   475860 
  500000    1.0071899   -2.4555453   -2.4555453   -1.2925241  0.072880057   -2.4555453    1.1630212   475860 
  501000    1.0076572   -2.4550637   -2.4550637    -1.291503  0.062856798   -2.4550637    1.1635607   475860 
  502000    1.0074853   -2.4548609   -2.4548609   -1.2914986  0.070172275   -2.4548609    1.1633622   475860 
  503000     1.007683   -2.4550341   -2.4550341   -1.2914436   0.06723429   -2.4550341    1.1635905   475860 
  504000    1.0075664   -2.4543829   -2.4543829   -1.2909271  0.058507661   -2.4543829    1.1634559   475860 
  505000    1.0064934   -2.4533784   -2.4533784   -1.2911615  0.070225534   -2.4533784    1.1622169   475860 
  506000    1.0067538   -2.4539573   -2.4539573   -1.2914397  0.070116997   -2.4539573    1.1625176   475860 
  507000    1.0082298   -2.4543802   -2.4543802   -1.2901583  0.065657434   -2.4543802    1.1642219   475860 
  508000    1.0075647   -2.4524238   -2.4524238   -1.2889698  0.074585435   -2.4524238    1.1634539   475860 
  509000    1.0095271   -2.4542177   -2.4542177   -1.2884977  0.070419721   -2.4542177    1.1657199   475860 
  510000    1.0094474   -2.4559297   -2.4559297   -1.2903018  0.058072259   -2.4559297    1.1656279   475860 
  511000    1.0098502   -2.4553924   -2.4553924   -1.2892994  0.066138929   -2.4553924    1.1660931   475860 
  512000    1.0083543   -2.4541353   -2.4541353   -1.2897696  0.064072528   -2.4541353    1.1643657   475860 
  513000     1.009627   -2.4553965   -2.4553965   -1.2895612  0.068490535   -2.4553965    1.1658353   475860 
  514000    1.0081494   -2.4536541   -2.4536541   -1.2895251  0.067772273   -2.4536541    1.1641291   475860 
  515000    1.0087816     -2.45486     -2.45486   -1.2900009  0.065003447     -2.45486    1.1648591   475860 
  516000    1.0074915   -2.4537946   -2.4537946   -1.2904252  0.065454902   -2.4537946    1.1633694   475860 
  517000    1.0074868   -2.4540827   -2.4540827   -1.2907188  0.064532887   -2.4540827    1.1633639   475860 
  518000    1.0073913   -2.4533434   -2.4533434   -1.2900897  0.072124894   -2.4533434    1.1632537   475860 
  519000    1.0064804   -2.4523097   -2.4523097   -1.2901079  0.066943718   -2.4523097    1.1622018   475860 
  520000    1.0084678   -2.4546475   -2.4546475   -1.2901507  0.066370291   -2.4546475    1.1644967   475860 
  521000    1.0082567   -2.4532755   -2.4532755   -1.2890225  0.065151799   -2.4532755     1.164253   475860 
  522000    1.0078964   -2.4539772   -2.4539772   -1.2901402  0.068759108   -2.4539772     1.163837   475860 
  523000    1.0072884   -2.4515189   -2.4515189    -1.288384  0.072800813   -2.4515189    1.1631349   475860 
  524000    1.0074488   -2.4519326   -2.4519326   -1.2886126   0.06607397   -2.4519326      1.16332   475860 
  525000    1.0061465   -2.4519744   -2.4519744   -1.2901581  0.076327212   -2.4519744    1.1618163   475860 
  526000    1.0071858    -2.453084    -2.453084   -1.2900676   0.06773935    -2.453084    1.1630164   475860 
  527000    1.0072255   -2.4532414   -2.4532414   -1.2901792  0.064736014   -2.4532414    1.1630622   475860 
  528000    1.0070767   -2.4537082   -2.4537082   -1.2908178  0.063687727   -2.4537082    1.1628904   475860 
  529000    1.0055888   -2.4531663   -2.4531663   -1.2919941  0.059978332   -2.4531663    1.1611723   475860 
  530000    1.0038193   -2.4505233   -2.4505233   -1.2913943  0.069060412   -2.4505233     1.159129   475860 
  531000    1.0060164   -2.4524087   -2.4524087   -1.2907427  0.070119675   -2.4524087    1.1616661   475860 
  532000    1.0055205   -2.4520981   -2.4520981   -1.2910047  0.062689755   -2.4520981    1.1610935   475860 
  533000    1.0063869   -2.4533936   -2.4533936   -1.2912997  0.072192445   -2.4533936    1.1620939   475860 
  534000    1.0086458     -2.45487     -2.45487   -1.2901677  0.076077811     -2.45487    1.1647022   475860 
  535000    1.0085148   -2.4551458   -2.4551458   -1.2905948  0.068048666   -2.4551458    1.1645511   475860 
  536000    1.0076352   -2.4539527   -2.4539527   -1.2904173    0.0719618   -2.4539527    1.1635354   475860 
  537000    1.0080492   -2.4538914   -2.4538914    -1.289878  0.072389149   -2.4538914    1.1640134   475860 
  538000    1.0099008   -2.4551737   -2.4551737   -1.2890223  0.060337723   -2.4551737    1.1661514   475860 
  539000    1.0090896   -2.4545259   -2.4545259   -1.2893112  0.058001716   -2.4545259    1.1652147   475860 
  540000    1.0091948   -2.4534146   -2.4534146   -1.2880784  0.073669428   -2.4534146    1.1653363   475860 
  541000    1.0093982   -2.4547968   -2.4547968   -1.2892257  0.075024689   -2.4547968    1.1655711   475860 
  542000    1.0098661   -2.4551823   -2.4551823   -1.2890708  0.068241764   -2.4551823    1.1661115   475860 
  543000     1.010466   -2.4564752   -2.4564752    -1.289671  0.061332996   -2.4564752    1.1668042   475860 
  544000    1.0089431   -2.4544923   -2.4544923   -1.2894466  0.073091535   -2.4544923    1.1650456   475860 
  545000    1.0100324   -2.4559125   -2.4559125   -1.2896091  0.069227631   -2.4559125    1.1663034   475860 
  546000      1.00831   -2.4551131   -2.4551131   -1.2907985  0.067356163   -2.4551131    1.1643145   475860 
  547000    1.0071279   -2.4534188   -2.4534188   -1.2904692  0.069918684   -2.4534188    1.1629496   475860 
  548000    1.0082085   -2.4550821   -2.4550821   -1.2908847  0.074186083   -2.4550821    1.1641974   475860 
  549000    1.0073412   -2.4547553   -2.4547553   -1.2915595  0.068605528   -2.4547553    1.1631958   475860 
  550000    1.0079796   -2.4554189   -2.4554189   -1.2914859  0.064181995   -2.4554189     1.163933   475860 
  551000    1.0070863   -2.4544528   -2.4544528   -1.2915512  0.068183036   -2.4544528    1.1629016   475860 
  552000    1.0083606   -2.4551738   -2.4551738   -1.2908008   0.07507913   -2.4551738     1.164373   475860 
  553000    1.0069824   -2.4536922   -2.4536922   -1.2909106  0.071817052   -2.4536922    1.1627816   475860 
  554000    1.0074348   -2.4551644   -2.4551644   -1.2918605  0.068118937   -2.4551644    1.1633039   475860 
  555000    1.0062375    -2.453873    -2.453873   -1.2919516  0.060499086    -2.453873    1.1619214   475860 
  556000    1.0057955   -2.4530176   -2.4530176   -1.2916066  0.074033946   -2.4530176     1.161411   475860 
  557000    1.0067864   -2.4546962   -2.4546962    -1.292141  0.071862087   -2.4546962    1.1625552   475860 
  558000    1.0070182   -2.4558795   -2.4558795   -1.2930566  0.073505977   -2.4558795    1.1628229   475860 
  559000    1.0064725   -2.4550202   -2.4550202   -1.2928275  0.071769889   -2.4550202    1.1621927   475860 
  560000    1.0059062   -2.4540904   -2.4540904   -1.2925516  0.074670455   -2.4540904    1.1615388   475860 
  561000    1.0059807   -2.4542246   -2.4542246   -1.2925997    0.0691782   -2.4542246    1.1616249   475860 
  562000    1.0059922   -2.4546155   -2.4546155   -1.2929774  0.071622126   -2.4546155    1.1616382   475860 
  563000    1.0077176   -2.4575688   -2.4575688   -1.2939383  0.067663208   -2.4575688    1.1636305   475860 
  564000    1.0048488   -2.4541437   -2.4541437   -1.2938258  0.068027684   -2.4541437    1.1603179   475860 
  565000    1.0070132   -2.4560017   -2.4560017   -1.2931846    0.0571237   -2.4560017    1.1628171   475860 
  566000    1.0069077   -2.4557255   -2.4557255   -1.2930302   0.05836918   -2.4557255    1.1626953   475860 
  567000    1.0066438   -2.4553464   -2.4553464   -1.2929559  0.065853394   -2.4553464    1.1623905   475860 
  568000    1.0059173   -2.4550386   -2.4550386    -1.293487    0.0640202   -2.4550386    1.1615516   475860 
  569000    1.0069562   -2.4560121   -2.4560121   -1.2932608  0.067313215   -2.4560121    1.1627513   475860 
  570000    1.0080973   -2.4564546   -2.4564546   -1.2923857  0.073309923   -2.4564546     1.164069   475860 
  571000    1.0071529    -2.456531    -2.456531   -1.2935525  0.063354672    -2.456531    1.1629784   475860 
  572000    1.0064635   -2.4565879   -2.4565879   -1.2944056  0.065654739   -2.4565879    1.1621823   475860 
  573000    1.0067268   -2.4568801   -2.4568801   -1.2943938  0.064125462   -2.4568801    1.1624864   475860 
  574000    1.0061247   -2.4559327   -2.4559327   -1.2941416  0.072550443   -2.4559327    1.1617911   475860 
  575000    1.0067063   -2.4569295   -2.4569295   -1.2944668  0.066546362   -2.4569295    1.1624627   475860 
  576000    1.0063721   -2.4556338   -2.4556338    -1.293557  0.067508817   -2.4556338    1.1620768   475860 
  577000     1.009704    -2.459774    -2.459774   -1.2938497  0.071264541    -2.459774    1.1659243   475860 
  578000    1.0077072    -2.458705    -2.458705   -1.2950865  0.068884544    -2.458705    1.1636185   475860 
  579000    1.0048701   -2.4546879   -2.4546879   -1.2943454  0.071150909   -2.4546879    1.1603425   475860 
  580000    1.0065839    -2.458145    -2.458145   -1.2958236  0.070638981    -2.458145    1.1623214   475860 
  581000    1.0056951   -2.4555942   -2.4555942   -1.2942992    0.0737262   -2.4555942     1.161295   475860 
  582000    1.0069812    -2.457034    -2.457034   -1.2942538  0.066877265    -2.457034    1.1627802   475860 
  583000     1.006167   -2.4565755   -2.4565755   -1.2947355  0.070892241   -2.4565755      1.16184   475860 
  584000    1.0056878   -2.4555866   -2.4555866   -1.2942999  0.076443008   -2.4555866    1.1612866   475860 
  585000    1.0065673   -2.4549169   -2.4549169   -1.2926147  0.073523149   -2.4549169    1.1623022   475860 
  586000    1.0076194   -2.4571871   -2.4571871     -1.29367   0.06801847   -2.4571871     1.163517   475860 
  587000    1.0069899   -2.4553444   -2.4553444   -1.2925542  0.062550053   -2.4553444    1.1627902   475860 
  588000    1.0070476   -2.4558661   -2.4558661   -1.2930093  0.068415491   -2.4558661    1.1628568   475860 
  589000    1.0066614   -2.4547746   -2.4547746   -1.2923637  0.063135675   -2.4547746    1.1624109   475860 
  590000    1.0069075    -2.454565    -2.454565     -1.29187  0.078411142    -2.454565     1.162695   475860 
  591000    1.0073724   -2.4546276   -2.4546276   -1.2913958  0.073758915   -2.4546276    1.1632319   475860 
  592000    1.0083832   -2.4569101   -2.4569101   -1.2925111  0.064789966   -2.4569101     1.164399   475860 
  593000     1.008432   -2.4561556   -2.4561556   -1.2917002   0.06938374   -2.4561556    1.1644554   475860 
  594000    1.0088835   -2.4581424   -2.4581424   -1.2931656  0.069288268   -2.4581424    1.1649768   475860 
  595000    1.0074937   -2.4557768   -2.4557768   -1.2924049  0.064638422   -2.4557768    1.1633719   475860 
  596000    1.0072701   -2.4561718   -2.4561718    -1.293058  0.068646025   -2.4561718    1.1631138   475860 
  597000    1.0068245   -2.4554811   -2.4554811   -1.2928819  0.071041087   -2.4554811    1.1625992   475860 
  598000    1.0055578   -2.4544317   -2.4544317   -1.2932952  0.069874697   -2.4544317    1.1611365   475860 
  599000    1.0080793   -2.4568969   -2.4568969   -1.2928488  0.063212218   -2.4568969    1.1640481   475860 
  600000    1.0064656   -2.4548471   -2.4548471   -1.2926623  0.063406913   -2.4548471    1.1621848   475860 
  601000    1.0067115   -2.4547081   -2.4547081   -1.2922394  0.065649814   -2.4547081    1.1624687   475860 
  602000    1.0074494    -2.455123    -2.455123   -1.2918022  0.073171974    -2.455123    1.1633208   475860 
  603000     1.005312   -2.4533117   -2.4533117   -1.2924591  0.070925607   -2.4533117    1.1608527   475860 
  604000     1.006346    -2.454434    -2.454434   -1.2923873  0.069659087    -2.454434    1.1620467   475860 
  605000    1.0070151   -2.4539761   -2.4539761   -1.2911568  0.062201592   -2.4539761    1.1628193   475860 
  606000    1.0064297   -2.4528834   -2.4528834     -1.29074   0.07446101   -2.4528834    1.1621433   475860 
  607000    1.0079276   -2.4553178   -2.4553178   -1.2914448  0.070601592   -2.4553178     1.163873   475860 
  608000    1.0061467   -2.4547939   -2.4547939   -1.2929775  0.070624624   -2.4547939    1.1618165   475860 
  609000    1.0075759   -2.4551173   -2.4551173   -1.2916504  0.064800115   -2.4551173    1.1634669   475860 
  610000    1.0080484   -2.4573312   -2.4573312   -1.2933187    0.0700671   -2.4573312    1.1640125   475860 
  611000    1.0089348   -2.4576856   -2.4576856   -1.2926496  0.062870497   -2.4576856     1.165036   475860 
  612000    1.0079598   -2.4574587   -2.4574587   -1.2935486  0.070147687   -2.4574587    1.1639101   475860 
  613000    1.0055522   -2.4548851   -2.4548851    -1.293755  0.067922859   -2.4548851    1.1611301   475860 
  614000    1.0062118   -2.4554708   -2.4554708   -1.2935791  0.066419255   -2.4554708    1.1618917   475860 
  615000    1.0061034   -2.4550564   -2.4550564   -1.2932899  0.073938068   -2.4550564    1.1617666   475860 
  616000    1.0074859   -2.4572336   -2.4572336   -1.2938707  0.064900138   -2.4572336    1.1633629   475860 
  617000    1.0056004   -2.4555321   -2.4555321   -1.2943465  0.073319513   -2.4555321    1.1611857   475860 
  618000      1.00661   -2.4573531   -2.4573531   -1.2950016  0.072053877   -2.4573531    1.1623515   475860 
  619000    1.0075529   -2.4572272   -2.4572272   -1.2937869  0.066118866   -2.4572272    1.1634403   475860 
  620000    1.0070679   -2.4561733   -2.4561733    -1.293293    0.0759414   -2.4561733    1.1628803   475860 
  621000     1.007325   -2.4570774   -2.4570774   -1.2939003  0.070372497   -2.4570774    1.1631772   475860 
  622000    1.0077959   -2.4571594   -2.4571594   -1.2934385  0.081923545   -2.4571594     1.163721   475860 
  623000    1.0091656   -2.4580458   -2.4580458   -1.2927433  0.072804061   -2.4580458    1.1653025   475860 
  624000    1.0091146   -2.4581509   -2.4581509   -1.2929073  0.071335982   -2.4581509    1.1652437   475860 
  625000    1.0079511   -2.4564311   -2.4564311    -1.292531  0.065665675   -2.4564311    1.1639001   475860 
  626000    1.0098894   -2.4589453   -2.4589453    -1.292807  0.063251655   -2.4589453    1.1661383   475860 
  627000    1.0097969   -2.4583027   -2.4583027   -1.2922712  0.073165938   -2.4583027    1.1660315   475860 
  628000    1.0098016   -2.4583528   -2.4583528   -1.2923159  0.076945259   -2.4583528    1.1660369   475860 
  629000    1.0087307   -2.4561816   -2.4561816   -1.2913813  0.074271775   -2.4561816    1.1648003   475860 
  630000    1.0062561   -2.4542641   -2.4542641   -1.2923212  0.067163568   -2.4542641    1.1619429   475860 
  631000    1.0068138   -2.4559827   -2.4559827   -1.2933958  0.063159153   -2.4559827    1.1625869   475860 
  632000     1.007008   -2.4561271   -2.4561271   -1.2933161  0.064232491   -2.4561271    1.1628111   475860 
  633000    1.0065819   -2.4554104   -2.4554104   -1.2930913  0.064559509   -2.4554104    1.1623191   475860 
  634000    1.0075891   -2.4573707   -2.4573707   -1.2938885  0.067339526   -2.4573707    1.1634821   475860 
  635000    1.0067158   -2.4557137   -2.4557137   -1.2932401  0.074086127   -2.4557137    1.1624736   475860 
  636000    1.0061813   -2.4560802   -2.4560802   -1.2942237  0.065969294   -2.4560802    1.1618565   475860 
  637000    1.0055556   -2.4555203   -2.4555203   -1.2943864  0.066198308   -2.4555203    1.1611339   475860 
  638000    1.0048844   -2.4547361   -2.4547361   -1.2943771  0.058106272   -2.4547361     1.160359   475860 
  639000    1.0042056   -2.4543322   -2.4543322    -1.294757  0.070921128   -2.4543322    1.1595751   475860 
  640000     1.004309   -2.4545139   -2.4545139   -1.2948194  0.068693878   -2.4545139    1.1596945   475860 
  641000    1.0052246   -2.4554135   -2.4554135   -1.2946617  0.056141031   -2.4554135    1.1607518   475860 
  642000    1.0071432    -2.456999    -2.456999   -1.2940318  0.062898579    -2.456999    1.1629672   475860 
[...]
 9832000    1.0043674   -2.4769767   -2.4769767   -1.3172148   0.07089056   -2.4769767    1.1597619   475860 
 9833000    1.0054254   -2.4771364   -2.4771364   -1.3161528  0.061562436   -2.4771364    1.1609836   475860 
 9834000    1.0044832   -2.4765021   -2.4765021   -1.3166064  0.069584822   -2.4765021    1.1598956   475860 
 9835000    1.0048199   -2.4767599   -2.4767599   -1.3164755  0.065352007   -2.4767599    1.1602844   475860 
 9836000    1.0037234   -2.4759249   -2.4759249   -1.3169066  0.073644858   -2.4759249    1.1590184   475860 
 9837000    1.0042907   -2.4755544   -2.4755544    -1.315881  0.070606404   -2.4755544    1.1596733   475860 
 9838000    1.0041189   -2.4752391   -2.4752391   -1.3157641  0.066866999   -2.4752391     1.159475   475860 
 9839000    1.0037241   -2.4742601   -2.4742601   -1.3152409  0.076992426   -2.4742601    1.1590192   475860 
 9840000     1.004487   -2.4752393   -2.4752393   -1.3153393  0.071821397   -2.4752393       1.1599   475860 
 9841000     1.003202   -2.4743546   -2.4743546   -1.3159383  0.063159854   -2.4743546    1.1584163   475860 
 9842000    1.0029054   -2.4724714   -2.4724714   -1.3143976  0.064667688   -2.4724714    1.1580737   475860 
 9843000     1.003764   -2.4744628   -2.4744628   -1.3153976  0.064082315   -2.4744628    1.1590652   475860 
 9844000    1.0036394   -2.4741503   -2.4741503    -1.315229  0.066385475   -2.4741503    1.1589213   475860 
 9845000    1.0062828   -2.4758392   -2.4758392   -1.3138655  0.059598289   -2.4758392    1.1619737   475860 
 9846000    1.0056303   -2.4755542   -2.4755542   -1.3143339  0.064267513   -2.4755542    1.1612203   475860 
 9847000    1.0050814   -2.4737293   -2.4737293   -1.3131429  0.068385162   -2.4737293    1.1605865   475860 
 9848000    1.0043126   -2.4723609   -2.4723609   -1.3126622  0.069064218   -2.4723609    1.1596987   475860 
 9849000    1.0040326   -2.4708939   -2.4708939   -1.3115186  0.075773932   -2.4708939    1.1593754   475860 
 9850000    1.0051001   -2.4718488   -2.4718488   -1.3112408  0.067945515   -2.4718488     1.160608   475860 
 9851000    1.0054192   -2.4714465   -2.4714465   -1.3104701  0.066105057   -2.4714465    1.1609764   475860 
 9852000    1.0049313   -2.4713601   -2.4713601    -1.310947  0.070136327   -2.4713601    1.1604131   475860 
 9853000    1.0042552   -2.4714114   -2.4714114    -1.311779  0.073661184   -2.4714114    1.1596324   475860 
 9854000    1.0037828   -2.4714351   -2.4714351   -1.3123482  0.064193384   -2.4714351    1.1590869   475860 
 9855000     1.003151   -2.4698452   -2.4698452   -1.3114878  0.061356961   -2.4698452    1.1583573   475860 
 9856000    1.0039397   -2.4708143   -2.4708143   -1.3115462  0.069772857   -2.4708143    1.1592681   475860 
 9857000      1.00393   -2.4702382   -2.4702382   -1.3109813  0.070018053   -2.4702382    1.1592569   475860 
 9858000    1.0038165   -2.4701086   -2.4701086   -1.3109828  0.070137638   -2.4701086    1.1591258   475860 
 9859000    1.0048655   -2.4716166   -2.4716166   -1.3112795   0.06743801   -2.4716166    1.1603371   475860 
 9860000    1.0040425    -2.469745    -2.469745   -1.3103583  0.062077429    -2.469745    1.1593867   475860 
 9861000    1.0052331   -2.4711345   -2.4711345   -1.3103729  0.063387458   -2.4711345    1.1607616   475860 
 9862000     1.005074   -2.4704094   -2.4704094   -1.3098315  0.063756809   -2.4704094    1.1605779   475860 
 9863000    1.0057539   -2.4712387   -2.4712387   -1.3098757  0.073923233   -2.4712387     1.161363   475860 
 9864000    1.0062771    -2.471862    -2.471862   -1.3098949  0.072084351    -2.471862    1.1619671   475860 
 9865000    1.0068847   -2.4728127   -2.4728127    -1.310144   0.05985076   -2.4728127    1.1626687   475860 
 9866000    1.0055114   -2.4711621   -2.4711621   -1.3100792  0.064052496   -2.4711621    1.1610829   475860 
 9867000    1.0043511   -2.4702362   -2.4702362   -1.3104931  0.066109267   -2.4702362    1.1597431   475860 
 9868000    1.0059266   -2.4713917   -2.4713917   -1.3098294  0.062929416   -2.4713917    1.1615623   475860 
 9869000    1.0057984   -2.4717497   -2.4717497   -1.3103353  0.066283464   -2.4717497    1.1614144   475860 
 9870000    1.0044242   -2.4713835   -2.4713835    -1.311556  0.061127012   -2.4713835    1.1598275   475860 
 9871000    1.0034979   -2.4699484   -2.4699484   -1.3111905  0.067623176   -2.4699484    1.1587579   475860 
 9872000    1.0044807    -2.472075    -2.472075   -1.3121823  0.068022153    -2.472075    1.1598927   475860 
 9873000    1.0039055   -2.4714969   -2.4714969   -1.3122683  0.071717957   -2.4714969    1.1592286   475860 
 9874000    1.0052965   -2.4729598   -2.4729598   -1.3121251  0.061344759   -2.4729598    1.1608348   475860 
 9875000    1.0043219   -2.4708267   -2.4708267   -1.3111173  0.066380345   -2.4708267    1.1597094   475860 
 9876000     1.004057    -2.470941    -2.470941   -1.3115375  0.078479612    -2.470941    1.1594035   475860 
 9877000    1.0063101   -2.4731113   -2.4731113   -1.3111061  0.069285363   -2.4731113    1.1620052   475860 
 9878000    1.0049668   -2.4716737   -2.4716737   -1.3112197   0.07129394   -2.4716737     1.160454   475860 
 9879000    1.0050046   -2.4725877   -2.4725877     -1.31209  0.066832075   -2.4725877    1.1604977   475860 
 9880000    1.0049034   -2.4726358   -2.4726358   -1.3122549  0.069451838   -2.4726358    1.1603809   475860 
 9881000    1.0059362   -2.4734256   -2.4734256   -1.3118521  0.068564256   -2.4734256    1.1615735   475860 
 9882000    1.0055467   -2.4725354   -2.4725354   -1.3114117  0.066303913   -2.4725354    1.1611236   475860 
 9883000    1.0050974   -2.4724458   -2.4724458   -1.3118409  0.069603325   -2.4724458    1.1606049   475860 
 9884000    1.0055436   -2.4734831   -2.4734831    -1.312363  0.070863127   -2.4734831    1.1611202   475860 
 9885000    1.0061488   -2.4737871   -2.4737871   -1.3119682  0.065689277   -2.4737871    1.1618189   475860 
 9886000    1.0051063   -2.4737334   -2.4737334   -1.3131182  0.069006061   -2.4737334    1.1606151   475860 
 9887000    1.0046562   -2.4725126   -2.4725126   -1.3124171  0.069207387   -2.4725126    1.1600954   475860 
 9888000    1.0044179   -2.4720625   -2.4720625   -1.3122422  0.068996842   -2.4720625    1.1598203   475860 
 9889000    1.0032526   -2.4714758   -2.4714758   -1.3130011  0.069705311   -2.4714758    1.1584747   475860 
 9890000    1.0039356   -2.4727212   -2.4727212   -1.3134579  0.074032209   -2.4727212    1.1592633   475860 
 9891000    1.0041303   -2.4718449   -2.4718449   -1.3123568  0.069882755   -2.4718449    1.1594882   475860 
 9892000    1.0047373   -2.4715038   -2.4715038   -1.3113147  0.064905086   -2.4715038    1.1601891   475860 
 9893000    1.0043124   -2.4712127   -2.4712127   -1.3115143  0.062600194   -2.4712127    1.1596984   475860 
 9894000    1.0057785   -2.4718274   -2.4718274    -1.310436  0.068218305   -2.4718274    1.1613913   475860 
 9895000    1.0052609   -2.4715325   -2.4715325   -1.3107388  0.070516977   -2.4715325    1.1607936   475860 
 9896000    1.0047818   -2.4725548   -2.4725548   -1.3123144  0.072985034   -2.4725548    1.1602404   475860 
 9897000    1.0056095   -2.4735419   -2.4735419   -1.3123456  0.063165343   -2.4735419    1.1611963   475860 
 9898000    1.0042102   -2.4720454   -2.4720454    -1.312465  0.066067348   -2.4720454    1.1595804   475860 
 9899000    1.0060952   -2.4735764   -2.4735764   -1.3118194  0.070989497   -2.4735764     1.161757   475860 
 9900000    1.0048794   -2.4716352   -2.4716352   -1.3112821  0.070180747   -2.4716352    1.1603531   475860 
 9901000     1.004401   -2.4715189   -2.4715189   -1.3117181  0.077503018   -2.4715189    1.1598007   475860 
 9902000    1.0042637    -2.470247    -2.470247   -1.3106048  0.078129255    -2.470247    1.1596422   475860 
 9903000    1.0068623   -2.4721033   -2.4721033   -1.3094605  0.063854636   -2.4721033    1.1626428   475860 
 9904000    1.0054998   -2.4713643   -2.4713643   -1.3102948  0.065510694   -2.4713643    1.1610696   475860 
 9905000    1.0067547   -2.4719121   -2.4719121   -1.3093935  0.072359492   -2.4719121    1.1625186   475860 
 9906000    1.0054184   -2.4712689   -2.4712689   -1.3102933  0.068608601   -2.4712689    1.1609756   475860 
 9907000    1.0058115   -2.4727725   -2.4727725   -1.3113431  0.066299697   -2.4727725    1.1614295   475860 
 9908000    1.0049605   -2.4714822   -2.4714822   -1.3110354  0.068491113   -2.4714822    1.1604469   475860 
 9909000    1.0064178   -2.4723142   -2.4723142   -1.3101846  0.070163559   -2.4723142    1.1621296   475860 
 9910000    1.0064853   -2.4713366   -2.4713366   -1.3091291  0.067399794   -2.4713366    1.1622076   475860 
 9911000    1.0051674   -2.4703544   -2.4703544   -1.3096687  0.068415783   -2.4703544    1.1606857   475860 
 9912000     1.005088   -2.4698333   -2.4698333   -1.3092392  0.062185291   -2.4698333    1.1605941   475860 
 9913000    1.0037988   -2.4679008   -2.4679008   -1.3087954  0.071777739   -2.4679008    1.1591054   475860 
 9914000    1.0052024   -2.4693454   -2.4693454   -1.3086193   0.06148547   -2.4693454    1.1607262   475860 
 9915000    1.0050114   -2.4696104   -2.4696104   -1.3091048  0.066519005   -2.4696104    1.1605055   475860 
 9916000    1.0059168   -2.4717277   -2.4717277   -1.3101766  0.059274362   -2.4717277    1.1615511   475860 
 9917000    1.0058508   -2.4708838   -2.4708838    -1.309409   0.07040334   -2.4708838    1.1614748   475860 
 9918000    1.0043233   -2.4684993   -2.4684993   -1.3087883   0.06874978   -2.4684993     1.159711   475860 
 9919000    1.0063499   -2.4710605   -2.4710605   -1.3090093  0.062159138   -2.4710605    1.1620512   475860 
 9920000    1.0048122     -2.46977     -2.46977   -1.3094944  0.067345824     -2.46977    1.1602756   475860 
 9921000     1.005243   -2.4702432   -2.4702432   -1.3094701  0.071179616   -2.4702432    1.1607731   475860 
 9922000    1.0052455   -2.4704118   -2.4704118   -1.3096358  0.073035792   -2.4704118    1.1607759   475860 
 9923000    1.0043808   -2.4678317   -2.4678317   -1.3080542  0.071092976   -2.4678317    1.1597775   475860 
 9924000    1.0036455   -2.4683773   -2.4683773   -1.3094489  0.073649365   -2.4683773    1.1589284   475860 
 9925000    1.0049123   -2.4697862   -2.4697862   -1.3093951  0.067162346   -2.4697862    1.1603911   475860 
 9926000    1.0059461    -2.471109    -2.471109   -1.3095241   0.06909311    -2.471109    1.1615849   475860 
 9927000    1.0055999   -2.4699426   -2.4699426   -1.3087576  0.064933576   -2.4699426    1.1611851   475860 
 9928000    1.0048928   -2.4702742   -2.4702742   -1.3099056  0.072908983   -2.4702742    1.1603687   475860 
 9929000    1.0045396    -2.469588    -2.469588   -1.3096272  0.060216436    -2.469588    1.1599608   475860 
 9930000    1.0049516   -2.4704072   -2.4704072   -1.3099706  0.070771426   -2.4704072    1.1604366   475860 
 9931000    1.0074378   -2.4723627   -2.4723627   -1.3090553   0.07480332   -2.4723627    1.1633074   475860 
 9932000    1.0055488   -2.4707991   -2.4707991    -1.309673  0.070703189   -2.4707991    1.1611261   475860 
 9933000    1.0059604   -2.4712649   -2.4712649   -1.3096635  0.068395425   -2.4712649    1.1616014   475860 
 9934000    1.0051125   -2.4711781   -2.4711781   -1.3105558  0.074183064   -2.4711781    1.1606223   475860 
 9935000    1.0066456   -2.4723485   -2.4723485   -1.3099558  0.070812172   -2.4723485    1.1623927   475860 
 9936000    1.0045644   -2.4706077   -2.4706077   -1.3106183  0.062058776   -2.4706077    1.1599894   475860 
 9937000    1.0032484   -2.4693807   -2.4693807   -1.3109109  0.057843441   -2.4693807    1.1584698   475860 
 9938000    1.0060761   -2.4715095   -2.4715095   -1.3097744  0.071905968   -2.4715095     1.161735   475860 
 9939000    1.0068793   -2.4730865   -2.4730865    -1.310424  0.073731075   -2.4730865    1.1626625   475860 
 9940000    1.0051562   -2.4721515   -2.4721515   -1.3114787  0.071190126   -2.4721515    1.1606728   475860 
 9941000    1.0042833   -2.4712554   -2.4712554   -1.3115906  0.069424204   -2.4712554    1.1596648   475860 
 9942000    1.0049644   -2.4708786   -2.4708786   -1.3104273  0.064629048   -2.4708786    1.1604514   475860 
 9943000    1.0027839   -2.4683827   -2.4683827   -1.3104493  0.067101985   -2.4683827    1.1579334   475860 
 9944000     1.005176   -2.4714722   -2.4714722   -1.3107765  0.063276914   -2.4714722    1.1606957   475860 
 9945000    1.0041256   -2.4698166   -2.4698166   -1.3103339  0.073490575   -2.4698166    1.1594827   475860 
 9946000    1.0043954   -2.4710324   -2.4710324   -1.3112381  0.068525841   -2.4710324    1.1597943   475860 
 9947000     1.005425   -2.4703817   -2.4703817   -1.3093985  0.067834918   -2.4703817    1.1609832   475860 
 9948000     1.005195   -2.4708838   -2.4708838   -1.3101662  0.066457783   -2.4708838    1.1607176   475860 
 9949000    1.0063936   -2.4711452   -2.4711452   -1.3090436   0.06666841   -2.4711452    1.1621016   475860 
 9950000    1.0048322   -2.4696314   -2.4696314   -1.3093327  0.067806311   -2.4696314    1.1602987   475860 
 9951000    1.0061704   -2.4706874   -2.4706874   -1.3088434  0.069475652   -2.4706874    1.1618439   475860 
 9952000    1.0051703   -2.4711777   -2.4711777   -1.3104887  0.073051245   -2.4711777     1.160689   475860 
 9953000    1.0052762    -2.471206    -2.471206   -1.3103947  0.062912306    -2.471206    1.1608113   475860 
 9954000    1.0058592   -2.4713028   -2.4713028   -1.3098183  0.063147914   -2.4713028    1.1614845   475860 
 9955000    1.0041106   -2.4697176   -2.4697176   -1.3102522  0.065829037   -2.4697176    1.1594654   475860 
 9956000    1.0049034    -2.470089    -2.470089   -1.3097081   0.06635838    -2.470089    1.1603809   475860 
 9957000    1.0053396   -2.4707588   -2.4707588   -1.3098742   0.07151373   -2.4707588    1.1608845   475860 
 9958000    1.0057288   -2.4712005   -2.4712005   -1.3098665  0.065665049   -2.4712005     1.161334   475860 
 9959000    1.0054069   -2.4704727   -2.4704727   -1.3095104  0.066100005   -2.4704727    1.1609622   475860 
 9960000    1.0062468   -2.4704748   -2.4704748   -1.3085427  0.065750427   -2.4704748    1.1619321   475860 
 9961000    1.0071025   -2.4704248   -2.4704248   -1.3075046  0.068597675   -2.4704248    1.1629202   475860 
 9962000    1.0076491   -2.4715915   -2.4715915   -1.3080401    0.0721482   -2.4715915    1.1635514   475860 
 9963000    1.0071628   -2.4700343   -2.4700343   -1.3070444  0.071771591   -2.4700343    1.1629899   475860 
 9964000    1.0055228   -2.4699202   -2.4699202   -1.3088241  0.068227188   -2.4699202    1.1610961   475860 
 9965000    1.0047702   -2.4690445   -2.4690445   -1.3088174  0.069103678   -2.4690445     1.160227   475860 
 9966000    1.0049192   -2.4696772   -2.4696772   -1.3092781  0.075599708   -2.4696772    1.1603992   475860 
 9967000    1.0060961   -2.4703733   -2.4703733   -1.3086152  0.068725614   -2.4703733    1.1617581   475860 
 9968000    1.0059704   -2.4696549   -2.4696549    -1.308042  0.066629877   -2.4696549     1.161613   475860 
 9969000    1.0044701   -2.4680943   -2.4680943   -1.3082139  0.062618262   -2.4680943    1.1598805   475860 
 9970000    1.0043228   -2.4683549   -2.4683549   -1.3086446  0.065393154   -2.4683549    1.1597104   475860 
 9971000    1.0038818   -2.4683393   -2.4683393   -1.3091381  0.076822931   -2.4683393    1.1592012   475860 
 9972000    1.0040543    -2.469791    -2.469791   -1.3103906  0.060722389    -2.469791    1.1594004   475860 
 9973000    1.0040373   -2.4677994   -2.4677994   -1.3084187  0.073271428   -2.4677994    1.1593808   475860 
 9974000    1.0051744   -2.4692034   -2.4692034   -1.3085096   0.07208225   -2.4692034    1.1606938   475860 
 9975000    1.0050848   -2.4695852   -2.4695852   -1.3089948   0.06669747   -2.4695852    1.1605904   475860 
 9976000    1.0040614    -2.468769    -2.468769   -1.3093604  0.064095797    -2.468769    1.1594086   475860 
 9977000    1.0046215   -2.4692294   -2.4692294    -1.309174  0.064795841   -2.4692294    1.1600554   475860 
 9978000    1.0070165   -2.4723295   -2.4723295   -1.3095086  0.061772803   -2.4723295    1.1628209   475860 
 9979000     1.005518   -2.4708248   -2.4708248   -1.3097343  0.065654419   -2.4708248    1.1610905   475860 
 9980000    1.0060823   -2.4704408   -2.4704408   -1.3086986  0.069231761   -2.4704408    1.1617422   475860 
 9981000    1.0046207   -2.4699357   -2.4699357   -1.3098813  0.072742444   -2.4699357    1.1600544   475860 
 9982000    1.0056727   -2.4699514   -2.4699514   -1.3086822  0.072742241   -2.4699514    1.1612692   475860 
 9983000    1.0049264   -2.4698285   -2.4698285   -1.3094211  0.064162623   -2.4698285    1.1604074   475860 
 9984000     1.004973   -2.4697657   -2.4697657   -1.3093044  0.066401751   -2.4697657    1.1604612   475860 
 9985000    1.0053923   -2.4699388   -2.4699388   -1.3089935  0.062875326   -2.4699388    1.1609454   475860 
 9986000    1.0056986   -2.4694104   -2.4694104   -1.3081113  0.065707626   -2.4694104    1.1612991   475860 
 9987000    1.0062933   -2.4717257   -2.4717257   -1.3097398  0.067942385   -2.4717257    1.1619858   475860 
 9988000    1.0071958   -2.4713885   -2.4713885   -1.3083605   0.07063176   -2.4713885    1.1630279   475860 
 9989000    1.0084198   -2.4731825   -2.4731825   -1.3087412  0.063418922   -2.4731825    1.1644413   475860 
 9990000    1.0059506   -2.4702484   -2.4702484   -1.3086583  0.062925593   -2.4702484    1.1615901   475860 
 9991000    1.0055093    -2.470207    -2.470207   -1.3091265  0.075835918    -2.470207    1.1610805   475860 
 9992000    1.0075048   -2.4730019   -2.4730019   -1.3096172  0.066573728   -2.4730019    1.1633847   475860 
 9993000    1.0064481   -2.4721539   -2.4721539   -1.3099894  0.071335597   -2.4721539    1.1621645   475860 
 9994000    1.0062185   -2.4713458   -2.4713458   -1.3094464   0.06918958   -2.4713458    1.1618994   475860 
 9995000     1.005349   -2.4702118   -2.4702118   -1.3093163   0.06173429   -2.4702118    1.1608955   475860 
 9996000    1.0034339   -2.4703512   -2.4703512   -1.3116672   0.07053721   -2.4703512     1.158684   475860 
 9997000    1.0040976   -2.4691237   -2.4691237   -1.3096733  0.067822962   -2.4691237    1.1594504   475860 
 9998000    1.0049593   -2.4704689   -2.4704689   -1.3100235  0.062260269   -2.4704689    1.1604454   475860 
 9999000    1.0055729   -2.4708865   -2.4708865   -1.3097325  0.064243676   -2.4708865     1.161154   475860 
10000000    1.0041192   -2.4704756   -2.4704756   -1.3110002  0.067658676   -2.4704756    1.1594754   475860 
Loop time of 41764.1 on 288 procs for 10000000 steps with 475860 atoms

Performance: 103438.015 tau/day, 239.440 timesteps/s
93.7% CPU use with 288 MPI tasks x 1 OpenMP threads

MPI task timing breakdown:
Section |  min time  |  avg time  |  max time  |%varavg|  %CPU | %total
-----------------------------------------------------------------------
Pair    | 1421.6     | 3663.1     | 4987.3     |1270.0 |  95.9 |  8.77
Bond    | 6.485      | 6.7528     | 7.1565     |   4.4 | 100.0 |  0.02
Neigh   | 1393.7     | 3066.6     | 3783.2     | 897.7 |  99.0 |  7.34
Comm    | 3287.6     | 5270.2     | 8707.9     |1471.5 |  94.1 | 12.62
Output  | 509.7      | 14031      | 14117      | 674.0 |  90.7 | 33.60
Modify  | 14955      | 15553      | 29596      | 716.4 |  94.9 | 37.24
Other   |            | 173.1      |            |       |       |  0.41

Nlocal:        1652.29 ave        2109 max        1371 min
Histogram: 10 50 59 58 41 16 21 22 8 3
Nghost:        4282.14 ave        7436 max        2037 min
Histogram: 32 16 24 45 70 54 32 9 4 2
Neighs:        35238.0 ave       51637 max        9206 min
Histogram: 14 6 6 13 36 41 57 64 32 19

Total # of neighbors = 10148539
Ave neighs/atom = 21.326733
Ave special neighs/atom = 0.0000000
Neighbor list builds = 1000000
Dangerous builds = 990000

Total wall time: 11:36:13
