LAMMPS (24 Dec 2020)
OMP_NUM_THREADS environment is not set. Defaulting to 1 thread. (src/comm.cpp:94)
  using 1 OpenMP thread(s) per MPI task
#Read the equilibrated lj fluid and add nanocubes

units           lj
atom_style      full
#atom_modify     map array first cubes
dimension       3
boundary        p p f
pair_style      lj/cut/opt 2.5

variable        sigma           equal 1.0
variable        epsilon         equal 1.0
read_restart	restart.dat.4000000
Reading restart file ...
  restart file = 24 Dec 2020, LAMMPS = 24 Dec 2020
  restoring atom style full from restart
  orthogonal box = (0.0000000 0.0000000 0.0000000) to (80.000000 80.000000 160.00000)
  6 by 4 by 12 MPI processor grid
  restoring pair style lj/cut/opt from restart
  547498 atoms
Finding 1-2 1-3 1-4 neighbors ...
  special bond factors lj:    0        0        0       
  special bond factors coul:  0        0        0       
     0 = max # of 1-2 neighbors
     0 = max # of 1-3 neighbors
     0 = max # of 1-4 neighbors
     1 = max # of special neighbors
  special bonds CPU = 2.333 seconds
  read_restart CPU = 2.884 seconds

group		solvent type 1
462314 atoms in group solvent
group 		hull  type 2
38528 atoms in group hull
group 		dummy type 3
46656 atoms in group dummy

neighbor      0.4 bin
neigh_modify  exclude molecule/intra cubes


pair_modify   shift yes

pair_coeff    1 1 1.0 1.0 #solvent
pair_coeff    2 2 1.0 1.0 1.12 #np
pair_coeff    3 3 0.0 0.0 0.0 #dummy
pair_coeff    2 3 0.0 0.0 0.0 #np dummy
pair_coeff    1 2 1.0 1.0 #np solvent
pair_coeff    1 3 0.0 0.0 0.0 #dummy solvent


comm_modify   mode multi cutoff/multi 1 2.5 cutoff/multi 2 2.5 cutoff/multi 3 8.67



balance 	1.05 shift z 10 1.05
Balancing ...
Unused restart file global fix info:
  fix style: STORE, fix ID: msd_COMPUTE_STORE
Unused restart file peratom fix info:
  fix style: STORE, fix ID: bin1_COMPUTE_STORE
Neighbor list info ...
  update every 1 steps, delay 10 steps, check yes
  max neighbors/atom: 2000, page size: 100000
  master list distance cutoff = 2.9
  ghost atom cutoff = 8.67
  binsize = 1.45, bins = 56 56 111
  1 neighbor lists, perpetual/occasional/extra = 1 0 0
  (1) pair lj/cut/opt, perpetual
      attributes: half, newton on
      pair build: half/bin/newton
      stencil: half/bin/3d/newton
      bin: standard
 rebalancing time: 0.051 seconds
  iteration count = 4
  initial/final maximal load/proc = 3174.0000 2806.0000
  initial/final imbalance factor  = 1.6696171 1.4760383
  x cuts: 0.0000000 0.16666667 0.33333333 0.50000000 0.66666667 0.83333333 1.0000000
  y cuts: 0.0000000 0.25000000 0.50000000 0.75000000 1.0000000
  z cuts: 0.0000000 0.078125000 0.15104167 0.21354167 0.28645833 0.34895833 0.40625000 0.48958333 0.55208333 0.63541667 0.69791667 0.78125000 1.0000000

####################### WALLS ###########################

variable       epsilonWall equal 2*${epsilon}
variable       epsilonWall equal 2*1
variable       repulsive   equal   0.7147*${sigma}
variable       repulsive   equal   0.7147*1
variable       full	   equal   3*${sigma}
variable       full	   equal   3*1
region         lowWall block EDGE EDGE EDGE EDGE EDGE 2

fix            topWall all wall/lj93 zhi EDGE 	       ${epsilonWall} ${sigma} ${repulsive} units box
fix            topWall all wall/lj93 zhi EDGE 	       2 ${sigma} ${repulsive} units box
fix            topWall all wall/lj93 zhi EDGE 	       2 1 ${repulsive} units box
fix            topWall all wall/lj93 zhi EDGE 	       2 1 0.7147 units box
fix            lowSol solvent wall/lj93 zlo EDGE                ${epsilonWall} ${sigma} ${full} units box
fix            lowSol solvent wall/lj93 zlo EDGE                2 ${sigma} ${full} units box
fix            lowSol solvent wall/lj93 zlo EDGE                2 1 ${full} units box
fix            lowSol solvent wall/lj93 zlo EDGE                2 1 3 units box
fix 	       lowCub cubes wall/lj93 zlo EDGE                ${epsilonWall} ${sigma} ${repulsive} units box
fix 	       lowCub cubes wall/lj93 zlo EDGE                2 ${sigma} ${repulsive} units box
fix 	       lowCub cubes wall/lj93 zlo EDGE                2 1 ${repulsive} units box
fix 	       lowCub cubes wall/lj93 zlo EDGE                2 1 0.7147 units box


###################### COMPUTES ##########################

compute        bin1 solvent chunk/atom bin/1d z lower 1.0 units box


######################  FIXES ############################


fix             peclet solvent ave/chunk 10 10 10000 bin1 density/number norm                  none ave one file density.profile

fix              temp solvent ave/chunk 10 10 10000 bin1 temp norm                  none ave one file temp.profile

fix             1 cubes rigid/nve/small molecule
  create bodies CPU = 0.002 seconds
  64 rigid bodies with 85184 atoms
  8.6602540 = max distance from body owner to body atom

fix             2 solvent nve


## Thermostat
region          regthermo block EDGE EDGE EDGE EDGE 0 20
group           thermo dynamic solvent region regthermo every 1000
dynamic group thermo defined
fix             3 thermo langevin ${temp} ${temp} 10 156453
fix             3 thermo langevin 1.0 ${temp} 10 156453
fix             3 thermo langevin 1.0 1.0 10 156453

## Evaporation
region		regevap block EDGE EDGE EDGE EDGE 140 EDGE units box
fix		4 solvent evaporate ${evap} 1 regevap 156415
fix		4 solvent evaporate 35 1 regevap 156415


#### Load balancing

fix             bal all balance 1000 1.05 shift z 10 1.05

############### Diagnostics and computes ###################

compute        	com cubes          rigid/local   1 mol x y z
compute        	quat cubes         rigid/local   1 mol quatw quati quatj quatk

compute 	cc2 cubes 	   chunk/atom 	 molecule
compute 	msd cubes 	   msd/chunk 	 cc2

fix 		msd all ave/time  1 1 10000 c_msd[*] file dump.msd ave one mode vector

dump            1 all custom 500000 dump.lammpstrj id mol type x y z
dump		cubetrj hull custom 500000 cubes.lammpstrj id mol type x y z
dump            com cubes local 10000 dump.*.xyz c_com[*]
dump	        xyz hull xyz 100000 cubes.xyz
dump            quat cubes      local 10000 dump.*.quat c_quat[*]
#dump		mol cubes molfile 10000 mol.xyz xyz


dump            2 all image 10000 image.*.png type type zoom 1.6
dump_modify     2 pad 8
dump		image cubes image 10000 image_cubes.*.png type type zoom 1.6
dump_modify	image pad 8
dump            3 all movie 5000 movie.avi type type zoom 1.6
dump		4 cubes movie 5000 movie_cubes.avi type type zoom 1.6


thermo          1000
thermo_style    custom step temp epair evdwl etotal press pe ke atoms

restart         1000000 restart.dat
timestep        0.005
timer           full
New timer settings: style=full  mode=nosync  timeout=off

run 		20000000
Per MPI rank memory allocation (min/avg/max) = 14.66 | 18.82 | 23.88 Mbytes
Step Temp E_pair E_vdwl TotEng Press PotEng KinEng Atoms 
 4000000     1.002735   -2.9709352   -2.9709352   -1.7005038  0.037745176   -2.9709352    1.2704314   547498 
 4001000    1.0011903   -2.9694763   -2.9694763   -1.7009348  0.066594523   -2.9694763    1.2685415   547469 
 4002000    1.0024048    -2.971127    -2.971127   -1.7009818  0.063513181    -2.971127    1.2701452   547441 
 4003000    1.0030625   -2.9715647   -2.9715647   -1.7005187  0.068512773   -2.9715647    1.2710461   547412 
 4004000    1.0017099    -2.969948    -2.969948   -1.7005487   0.07089567    -2.969948    1.2693993   547383 
 4005000    1.0030275   -2.9716048   -2.9716048   -1.7004708  0.062943761   -2.9716048     1.271134   547355 
 4006000    1.0025203   -2.9719478   -2.9719478   -1.7013892  0.067265476   -2.9719478    1.2705586   547326 
 4007000    1.0016777   -2.9705808   -2.9705808   -1.7010252  0.069163878   -2.9705808    1.2695556   547298 
 4008000    1.0034491   -2.9719587   -2.9719587   -1.7000906  0.072069265   -2.9719587    1.2718681   547269 
 4009000    1.0027588   -2.9703606   -2.9703606   -1.6993023  0.066988292   -2.9703606    1.2710582   547241 
 4010000    1.0024137    -2.971186    -2.971186   -1.7004979  0.065843215    -2.971186    1.2706881   547212 
 4011000    1.0008279   -2.9698552   -2.9698552     -1.70111  0.066830032   -2.9698552    1.2687452   547183 
 4012000    1.0009777   -2.9704509   -2.9704509   -1.7014509  0.060363474   -2.9704509        1.269   547155 
 4013000    1.0027253   -2.9724422   -2.9724422   -1.7011593  0.053587996   -2.9724422    1.2712829   547126 
 4014000    1.0005942   -2.9701876   -2.9701876   -1.7015417  0.070864721   -2.9701876    1.2686459   547098 
 4015000   0.99992595   -2.9694256   -2.9694256   -1.7015597  0.061087603   -2.9694256    1.2678659   547069 
 4016000    1.0000167   -2.9709537   -2.9709537   -1.7029077  0.062925952   -2.9709537    1.2680459   547041 
 4017000    1.0005164   -2.9712177   -2.9712177    -1.702471  0.055756555   -2.9712177    1.2687467   547012 
 4018000     1.000939   -2.9715189   -2.9715189    -1.702169  0.062770947   -2.9715189      1.26935   546983 
 4019000    1.0016205   -2.9735335   -2.9735335   -1.7032543  0.063439375   -2.9735335    1.2702792   546955 
 4020000    1.0008409   -2.9722129   -2.9722129    -1.702855  0.060423929   -2.9722129    1.2693579   546926 
 4021000     1.002108   -2.9727031   -2.9727031   -1.7016732  0.058909539   -2.9727031    1.2710299   546898 
 4022000   0.99952874   -2.9700708   -2.9700708    -1.702245  0.067995176   -2.9700708    1.2678258   546869 
 4023000    1.0016532   -2.9720408   -2.9720408   -1.7014553  0.073371386   -2.9720408    1.2705855   546841 
 4024000    1.0009774   -2.9712852   -2.9712852   -1.7014895  0.065980103   -2.9712852    1.2697957   546812 
 4025000    1.0011696   -2.9710483   -2.9710483   -1.7009415  0.059911232   -2.9710483    1.2701068   546783 
 4026000    1.0016945   -2.9715977   -2.9715977   -1.7007599  0.068706944   -2.9715977    1.2708377   546755 
 4027000     1.000332   -2.9699434   -2.9699434   -1.7007669  0.066366449   -2.9699434    1.2691765   546726 
 4028000     1.001262    -2.971154    -2.971154   -1.7007325  0.074839608    -2.971154    1.2704215   546698 
 4029000    1.0009046   -2.9702006   -2.9702006   -1.7001652   0.06658692   -2.9702006    1.2700354   546669 
 4030000    1.0016012   -2.9714046   -2.9714046   -1.7004202  0.060978966   -2.9714046    1.2709844   546641 
 4031000    1.0013487   -2.9720789   -2.9720789   -1.7013475  0.067237432   -2.9720789    1.2707314   546612 
 4032000    1.0010391   -2.9708607   -2.9708607   -1.7004548  0.063422837   -2.9708607    1.2704059   546583 
 4033000    1.0004438   -2.9701508   -2.9701508   -1.7004353  0.065768033   -2.9701508    1.2697154   546555 
 4034000   0.99942113   -2.9700328   -2.9700328   -1.7015479  0.056664995   -2.9700328    1.2684849   546526 
 4035000   0.99932926   -2.9700063   -2.9700063   -1.7015731     0.053724   -2.9700063    1.2684333   546498 
 4036000    1.0001616   -2.9705825   -2.9705825   -1.7010253  0.061739249   -2.9705825    1.2695571   546469 
 4037000   0.99993263   -2.9695471   -2.9695471   -1.7002156   0.06987042   -2.9695471    1.2693315   546441 
 4038000   0.99998286   -2.9694677   -2.9694677   -1.7000051  0.066262268   -2.9694677    1.2694626   546412 
 4039000    1.0011059   -2.9710283   -2.9710283   -1.7000726  0.074578426   -2.9710283    1.2709558   546383 
 4040000   0.99929643    -2.969174    -2.969174   -1.7004505  0.070511162    -2.969174    1.2687236   546355 
 4041000   0.99841937    -2.968807    -2.968807   -1.7011296  0.068331817    -2.968807    1.2676773   546326 
 4042000   0.99848368    -2.968699    -2.968699   -1.7008751  0.068645327    -2.968699    1.2678239   546298 
 4043000   0.99864731   -2.9681971   -2.9681971   -1.7000981  0.070089724   -2.9681971     1.268099   546269 
 4044000   0.99943138   -2.9685748   -2.9685748   -1.6994151  0.057933274   -2.9685748    1.2691597   546241 
 4045000   0.99942572   -2.9686465   -2.9686465   -1.6994266   0.06981585   -2.9686465    1.2692199   546212 
 4046000   0.99957189   -2.9687032   -2.9687032   -1.6992302  0.062213023   -2.9687032    1.2694729   546183 
 4047000   0.99992653   -2.9701826   -2.9701826   -1.7001942  0.059935175   -2.9701826    1.2699884   546155 
 4048000   0.99937341    -2.969588    -2.969588   -1.7002347  0.065852555    -2.969588    1.2693533   546126 
 4049000    0.9990123   -2.9681741   -2.9681741   -1.6992143  0.070165213   -2.9681741    1.2689597   546098 
 4050000   0.99976391   -2.9685153   -2.9685153   -1.6985334  0.065495908   -2.9685153    1.2699819   546069 
 4051000   0.99920057   -2.9686911   -2.9686911   -1.6993597  0.063003799   -2.9686911    1.2693314   546041 
 4052000   0.99790958   -2.9674377   -2.9674377    -1.699679  0.072977185   -2.9674377    1.2677587   546012 
 4053000   0.99844953   -2.9682231   -2.9682231   -1.6997111  0.075557577   -2.9682231     1.268512   545983 
 4054000   0.99770403   -2.9677622   -2.9677622   -1.7001323   0.06568334   -2.9677622    1.2676299   545955 
 4055000   0.99812335   -2.9692369   -2.9692369   -1.7010069  0.063431943   -2.9692369      1.26823   545926 
 4056000   0.99663422   -2.9677505   -2.9677505   -1.7013477  0.055212636   -2.9677505    1.2664029   545898 
 4057000   0.99662595   -2.9685635   -2.9685635   -1.7021039  0.061251785   -2.9685635    1.2664596   545869 
 4058000   0.99740076   -2.9701651   -2.9701651   -1.7026559  0.057746814   -2.9701651    1.2675092   545841 
 4059000   0.99664534   -2.9681692   -2.9681692   -1.7015526  0.056395305   -2.9681692    1.2666165   545812 
 4060000   0.99616993   -2.9682355   -2.9682355   -1.7021559  0.059342849   -2.9682355    1.2660796   545783 
 4061000   0.99607299   -2.9686553   -2.9686553   -1.7026339  0.067406512   -2.9686553    1.2660214   545755 
 4062000   0.99556217    -2.967299    -2.967299   -1.7018597  0.076463962    -2.967299    1.2654393   545726 
 4063000   0.99664235   -2.9692472   -2.9692472   -1.7023698   0.05250441   -2.9692472    1.2668773   545698 
 4064000   0.99785304   -2.9693577   -2.9693577    -1.700874  0.067495779   -2.9693577    1.2684837   545669 
 4065000   0.99703529   -2.9698952   -2.9698952    -1.702386  0.062870345   -2.9698952    1.2675092   545641 
 4066000   0.99672394   -2.9696373   -2.9696373   -1.7024565  0.057615342   -2.9696373    1.2671807   545612 
 4067000    0.9981568   -2.9708363   -2.9708363   -1.7017664  0.062617239   -2.9708363    1.2690699   545583 
 4068000   0.99680449   -2.9711131   -2.9711131   -1.7036976  0.072353348   -2.9711131    1.2674156   545555 
 4069000   0.99688707   -2.9722582   -2.9722582   -1.7046703  0.066346514   -2.9722582    1.2675879   545526 
 4070000   0.99765755    -2.972539    -2.972539   -1.7039063  0.065836244    -2.972539    1.2686328   545498 
 4071000   0.99805594   -2.9736157   -2.9736157   -1.7044088  0.070238251   -2.9736157    1.2692068   545469 
 4072000    0.9987262   -2.9743563   -2.9743563    -1.704232  0.062190788   -2.9743563    1.2701244   545441 
 4073000   0.99638525   -2.9720877   -2.9720877   -1.7048731  0.077132139   -2.9720877    1.2672147   545412 
 4074000   0.99536924   -2.9715705   -2.9715705   -1.7055807   0.06894636   -2.9715705    1.2659898   545383 
 4075000    0.9963615   -2.9742729   -2.9742729    -1.706956  0.062635187   -2.9742729    1.2673169   545355 
 4076000   0.99653149   -2.9748587   -2.9748587   -1.7072581  0.057475892   -2.9748587    1.2676005   545326 
 4077000   0.99561738   -2.9741999   -2.9741999    -1.707697  0.066236571   -2.9741999    1.2665028   545298 
 4078000   0.99599649   -2.9747066   -2.9747066   -1.7076541  0.065839717   -2.9747066    1.2670524   545269 
 4079000    0.9966071   -2.9757394   -2.9757394   -1.7078451  0.062324829   -2.9757394    1.2678943   545241 
 4080000     0.995924   -2.9742764   -2.9742764   -1.7071837  0.059699924   -2.9742764    1.2670927   545212 
 4081000   0.99689935   -2.9756146   -2.9756146   -1.7072135  0.066466661   -2.9756146    1.2684011   545183 
 4082000   0.99638194   -2.9746157   -2.9746157   -1.7068079  0.069160023   -2.9746157    1.2678079   545155 
 4083000   0.99727323   -2.9760661   -2.9760661   -1.7070567  0.060417326   -2.9760661    1.2690095   545126 
 4084000   0.99712725    -2.975879    -2.975879   -1.7069901  0.063017982    -2.975879    1.2688889   545098 
 4085000   0.99620876   -2.9749263   -2.9749263   -1.7071388  0.064005864   -2.9749263    1.2677875   545069 
 4086000   0.99542697   -2.9738851   -2.9738851   -1.7070275  0.059479351   -2.9738851    1.2668577   545041 
 4087000   0.99549727   -2.9739153   -2.9739153   -1.7069007  0.069191503   -2.9739153    1.2670145   545012 
 4088000   0.99567793   -2.9730773   -2.9730773   -1.7057654  0.066779138   -2.9730773    1.2673119   544983 
 4089000   0.99574765   -2.9736059   -2.9736059   -1.7061402  0.074161069   -2.9736059    1.2674658   544955 
 4090000   0.99444833   -2.9705066   -2.9705066   -1.7046273  0.069489226   -2.9705066    1.2658793   544926 
 4091000   0.99531954   -2.9728948   -2.9728948   -1.7058414  0.059857024   -2.9728948    1.2670534   544898 
 4092000   0.99556539    -2.974031    -2.974031   -1.7065972    0.0620729    -2.974031    1.2674338   544869 
 4093000   0.99483576   -2.9722979   -2.9722979   -1.7057279  0.054967116   -2.9722979      1.26657   544841 
 4094000   0.99601924    -2.974125    -2.974125   -1.7059808  0.063500708    -2.974125    1.2681442   544812 
 4095000   0.99449203   -2.9718424   -2.9718424   -1.7055753  0.066490563   -2.9718424    1.2662672   544783 
 4096000   0.99337952   -2.9711615   -2.9711615   -1.7062458  0.065844795   -2.9711615    1.2649157   544755 
 4097000    0.9929005   -2.9710945   -2.9710945   -1.7067215   0.06546274   -2.9710945     1.264373   544726 
 4098000   0.99408685   -2.9724068   -2.9724068    -1.706458  0.061009019   -2.9724068    1.2659488   544698 
 4099000    0.9937943   -2.9726933   -2.9726933   -1.7070497  0.059779097   -2.9726933    1.2656436   544669 
 4100000   0.99342869   -2.9724385   -2.9724385   -1.7071955  0.056566312   -2.9724385     1.265243   544641 
 4101000   0.99297453   -2.9727386   -2.9727386   -1.7080066   0.05301433   -2.9727386     1.264732   544612 
 4102000    0.9939486   -2.9727345   -2.9727345   -1.7066945  0.054591945   -2.9727345      1.26604   544583 
 4103000   0.99202389   -2.9706473   -2.9706473   -1.7069939  0.055850586   -2.9706473    1.2636534   544555 
 4104000   0.99315888   -2.9710689   -2.9710689   -1.7059024  0.056605902   -2.9710689    1.2651665   544526 
 4105000   0.99489839   -2.9722056   -2.9722056    -1.704758   0.06586133   -2.9722056    1.2674477   544498 
 4106000   0.99481286   -2.9723282   -2.9723282    -1.704922  0.068723104   -2.9723282    1.2674062   544469 
 4107000   0.99515182   -2.9722144   -2.9722144   -1.7043111   0.05356453   -2.9722144    1.2679032   544441 
 4108000   0.99473768   -2.9721986   -2.9721986   -1.7047555  0.061361658   -2.9721986    1.2674431   544412 
 4109000   0.99358462   -2.9715036   -2.9715036   -1.7054623  0.060857777   -2.9715036    1.2660414   544383 
 4110000   0.99384266   -2.9732293   -2.9732293    -1.706794  0.050415415   -2.9732293    1.2664353   544355 
 4111000   0.99399449   -2.9742387   -2.9742387   -1.7075424  0.064461131   -2.9742387    1.2666963   544326 
 4112000   0.99456199   -2.9745224   -2.9745224   -1.7070377  0.064948855   -2.9745224    1.2674846   544298 
 4113000   0.99509698   -2.9758165   -2.9758165   -1.7075825  0.062420588   -2.9758165     1.268234   544269 
 4114000   0.99379166   -2.9739855   -2.9739855     -1.70735  0.054404845   -2.9739855    1.2666356   544241 
 4115000   0.99384749   -2.9743902   -2.9743902    -1.707616  0.063876658   -2.9743902    1.2667742   544212 
 4116000   0.99284862   -2.9736972   -2.9736972   -1.7081287  0.063681626   -2.9736972    1.2655685   544183 
 4117000   0.99254516   -2.9731575   -2.9731575   -1.7079107  0.064502181   -2.9731575    1.2652468   544155 
 4118000   0.99341078   -2.9744735   -2.9744735   -1.7080557  0.059753537   -2.9744735    1.2664177   544126 
 4119000   0.99303132   -2.9760701   -2.9760701   -1.7100709  0.057680083   -2.9760701    1.2659991   544098 
 4120000   0.99125969     -2.97426     -2.97426   -1.7104522  0.052279937     -2.97426    1.2638079   544069 
 4121000   0.99084571   -2.9732338   -2.9732338   -1.7098887  0.054692432   -2.9732338    1.2633451   544041 
 4122000   0.99146749   -2.9741689   -2.9741689   -1.7099637  0.055459554   -2.9741689    1.2642052   544012 
 4123000   0.98947508   -2.9725819   -2.9725819   -1.7108499  0.058271988   -2.9725819     1.261732   543983 
 4124000   0.99134032   -2.9745581   -2.9745581   -1.7103826  0.052799195   -2.9745581    1.2641756   543955 
 4125000   0.99215411   -2.9756065   -2.9756065   -1.7103257  0.057667926   -2.9756065    1.2652808   543926 
 4126000   0.99261368   -2.9767291   -2.9767291   -1.7107971  0.067414948   -2.9767291     1.265932   543898 
 4127000   0.99177659   -2.9760167   -2.9760167   -1.7110848  0.059576228   -2.9760167    1.2649319   543869 
 4128000   0.99169511   -2.9765652   -2.9765652   -1.7116721  0.064413521   -2.9765652    1.2648931   543841 
 4129000   0.99158153   -2.9769423   -2.9769423   -1.7121267  0.062843563   -2.9769423    1.2648157   543812 
 4130000   0.99151828   -2.9758444   -2.9758444    -1.711042  0.066374383   -2.9758444    1.2648024   543783 
 4131000   0.99166634   -2.9764179   -2.9764179   -1.7113615  0.055742964   -2.9764179    1.2650564   543755 
 4132000   0.99233806   -2.9779236   -2.9779236   -1.7119427  0.060317004   -2.9779236    1.2659809   543726 
 4133000   0.99289154   -2.9773806   -2.9773806   -1.7106284  0.079135689   -2.9773806    1.2667522   543698 
 4134000   0.99151698   -2.9780451   -2.9780451   -1.7129792  0.063982888   -2.9780451     1.265066   543669 
 4135000   0.99198752   -2.9782328   -2.9782328   -1.7125013  0.071525849   -2.9782328    1.2657315   543641 
 4136000   0.99198812   -2.9786936   -2.9786936   -1.7128938  0.060650037   -2.9786936    1.2657998   543612 
 4137000     0.991555   -2.9779869   -2.9779869   -1.7126723  0.061544341   -2.9779869    1.2653146   543583 
 4138000   0.99032924   -2.9778379   -2.9778379   -1.7140223  0.063956094   -2.9778379    1.2638156   543555 
 4139000   0.99012802   -2.9783861   -2.9783861   -1.7147599  0.059923496   -2.9783861    1.2636262   543526 
 4140000   0.99139851   -2.9783054   -2.9783054   -1.7129926  0.059200975   -2.9783054    1.2653128   543498 
 4141000   0.99128778   -2.9777123   -2.9777123   -1.7124733  0.066903356   -2.9777123     1.265239   543469 
 4142000   0.99024008   -2.9777498   -2.9777498    -1.713783  0.065585283   -2.9777498    1.2639669   543441 
 4143000   0.99108082   -2.9786264   -2.9786264   -1.7135189  0.055732142   -2.9786264    1.2651075   543412 
 4144000   0.99147251   -2.9786292   -2.9786292   -1.7129541  0.058178417   -2.9786292    1.2656751   543383 
 4145000   0.98938426   -2.9766391   -2.9766391   -1.7135648   0.05379306   -2.9766391    1.2630744   543355 
 4146000   0.99046797   -2.9768351   -2.9768351   -1.7123097  0.060427754   -2.9768351    1.2645253   543326 
 4147000   0.99105999   -2.9776554   -2.9776554    -1.712309  0.065642363   -2.9776554    1.2653464   543298 
 4148000   0.99203275   -2.9785071   -2.9785071   -1.7118511  0.057365614   -2.9785071     1.266656   543269 
 4149000   0.99087846    -2.977131    -2.977131   -1.7118836  0.048296084    -2.977131    1.2652474   543241 
 4150000   0.99117507   -2.9761184   -2.9761184   -1.7104247  0.063480014   -2.9761184    1.2656937   543212 
 4151000   0.98980399    -2.975562    -2.975562   -1.7115517  0.059010031    -2.975562    1.2640103   543183 
 4152000   0.99038422    -2.975487    -2.975487   -1.7106705  0.063648513    -2.975487    1.2648165   543155 
 4153000    0.9904883   -2.9755209   -2.9755209   -1.7105039  0.062020064   -2.9755209     1.265017   543126 
 4154000   0.98840169    -2.973489    -2.973489   -1.7110719  0.065667721    -2.973489    1.2624171   543098 
 4155000   0.98842827   -2.9733763   -2.9733763   -1.7108579  0.064155988   -2.9733763    1.2625185   543069 
 4156000   0.98944163   -2.9746165   -2.9746165   -1.7107385   0.05981147   -2.9746165     1.263878   543041 
 4157000   0.98978986   -2.9735887   -2.9735887   -1.7091984   0.06247019   -2.9735887    1.2643903   543012 
 4158000    0.9877998   -2.9717057   -2.9717057   -1.7097901  0.060680838   -2.9717057    1.2619156   542983 
 4159000   0.98905123   -2.9734577   -2.9734577   -1.7098782   0.06321267   -2.9734577    1.2635794   542955 
 4160000   0.98899532   -2.9741486   -2.9741486   -1.7105731  0.052039072   -2.9741486    1.2635755   542926 
 4161000   0.98927857   -2.9743018   -2.9743018   -1.7102993  0.054941514   -2.9743018    1.2640025   542898 
 4162000   0.99000174   -2.9742144   -2.9742144   -1.7092203  0.069714234   -2.9742144    1.2649941   542869 
 4163000   0.98962324   -2.9748555   -2.9748555   -1.7102798  0.061063249   -2.9748555    1.2645757   542841 
 4164000   0.99115171    -2.976234    -2.976234   -1.7096375  0.057567014    -2.976234    1.2665965   542812 
 4165000    0.9902498   -2.9761634   -2.9761634   -1.7106518  0.055743444   -2.9761634    1.2655116   542783 
 4166000   0.98839584   -2.9734243   -2.9734243   -1.7102169  0.065323995   -2.9734243    1.2632074   542755 
 4167000   0.98917064   -2.9747936   -2.9747936   -1.7105284  0.062860312   -2.9747936    1.2642652   542726 
 4168000   0.99007529   -2.9755182   -2.9755182   -1.7100315  0.061116878   -2.9755182    1.2654867   542698 
 4169000   0.98985642   -2.9759212   -2.9759212   -1.7106466  0.070497876   -2.9759212    1.2652746   542669 
 4170000   0.99043204    -2.977378    -2.977378   -1.7113023   0.05465648    -2.977378    1.2660757   542641 
 4171000   0.98745325   -2.9734715   -2.9734715   -1.7111362   0.06083783   -2.9734715    1.2623353   542612 
 4172000   0.98765255   -2.9744599   -2.9744599   -1.7118023  0.067952423   -2.9744599    1.2626576   542583 
 4173000   0.98729115   -2.9741541   -2.9741541   -1.7118934   0.06297476   -2.9741541    1.2622607   542555 
 4174000   0.98693765    -2.972235    -2.972235   -1.7103588  0.065901321    -2.972235    1.2618762   542526 
 4175000   0.98673473   -2.9740521   -2.9740521   -1.7123702  0.066758364   -2.9740521    1.2616819   542498 
 4176000   0.98836305   -2.9765884   -2.9765884   -1.7127569  0.069717056   -2.9765884    1.2638315   542469 
 4177000   0.98833298   -2.9757961   -2.9757961   -1.7119379  0.053435644   -2.9757961    1.2638583   542441 
 4178000   0.98729992   -2.9757418   -2.9757418   -1.7131371   0.06113159   -2.9757418    1.2626047   542412 
 4179000   0.98896025   -2.9776708   -2.9776708   -1.7128752  0.061732079   -2.9776708    1.2647956   542383 
 4180000   0.98905603   -2.9778509   -2.9778509   -1.7128674  0.063995022   -2.9778509    1.2649834   542355 
 4181000   0.98821239   -2.9779941   -2.9779941   -1.7140221  0.056647706   -2.9779941     1.263972   542326 
 4182000   0.98962895   -2.9797521   -2.9797521   -1.7139029  0.063542325   -2.9797521    1.2658492   542298 
 4183000   0.98807366   -2.9782046   -2.9782046   -1.7142772  0.052602752   -2.9782046    1.2639274   542269 
 4184000   0.98818426   -2.9781709   -2.9781709   -1.7140368  0.056209848   -2.9781709    1.2641342   542241 
 4185000    0.9860991   -2.9764178   -2.9764178   -1.7148836  0.061460277   -2.9764178    1.2615342   542212 
 4186000   0.98720498   -2.9775746   -2.9775746   -1.7145581  0.062551016   -2.9775746    1.2630165   542183 
 4187000   0.98624728   -2.9768795   -2.9768795   -1.7150231   0.06345299   -2.9768795    1.2618564   542155 
 4188000   0.98551198   -2.9770074   -2.9770074   -1.7160244   0.05433087   -2.9770074    1.2609831   542126 
 4189000   0.98619703   -2.9777181   -2.9777181   -1.7157933  0.055943182   -2.9777181    1.2619248   542098 
 4190000   0.98625816   -2.9769805   -2.9769805     -1.71491  0.063516607   -2.9769805    1.2620705   542069 
 4191000   0.98668418   -2.9775911   -2.9775911   -1.7149102  0.063530747   -2.9775911    1.2626809   542041 
 4192000   0.98609461   -2.9766174   -2.9766174   -1.7146235  0.061447205   -2.9766174    1.2619939   542012 
 4193000   0.98673539   -2.9774998   -2.9774998   -1.7146183  0.055172637   -2.9774998    1.2628816   541983 
 4194000   0.98697653    -2.978041    -2.978041   -1.7147855  0.066593505    -2.978041    1.2632555   541955 
 4195000   0.98740468    -2.977396    -2.977396   -1.7135249   0.06209868    -2.977396    1.2638711   541926 
 4196000   0.98665998   -2.9777803   -2.9777803   -1.7147971  0.057317124   -2.9777803    1.2629831   541898 
 4197000   0.98676493   -2.9775572   -2.9775572   -1.7143721   0.06018117   -2.9775572    1.2631851   541869 
 4198000   0.98582684   -2.9751333   -2.9751333   -1.7130839  0.054987053   -2.9751333    1.2620494   541841 
 4199000   0.98737515   -2.9768237   -2.9768237   -1.7127245  0.067735164   -2.9768237    1.2640992   541812 
 4200000   0.98543926    -2.975433    -2.975433   -1.7137447   0.05714113    -2.975433    1.2616883   541783 
 4201000   0.98527126   -2.9758101   -2.9758101   -1.7142717  0.054130959   -2.9758101    1.2615384   541755 
 4202000   0.98548122   -2.9758508   -2.9758508    -1.713976  0.054102928   -2.9758508    1.2618748   541726 
 4203000   0.98456414   -2.9748038   -2.9748038   -1.7140382  0.061173154   -2.9748038    1.2607657   541698 
 4204000   0.98638334   -2.9767222   -2.9767222   -1.7135594   0.06639513   -2.9767222    1.2631628   541669 
 4205000   0.98698586   -2.9783094   -2.9783094   -1.7143096  0.058710113   -2.9783094    1.2639998   541641 
 4206000   0.98628486   -2.9768336   -2.9768336    -1.713664  0.064166651   -2.9768336    1.2631696   541612 
 4207000   0.98644816   -2.9768309   -2.9768309   -1.7133845  0.058982591   -2.9768309    1.2634464   541583 
 4208000   0.98536589    -2.975617    -2.975617   -1.7134915  0.064678632    -2.975617    1.2621255   541555 
 4209000   0.98596398   -2.9762977   -2.9762977   -1.7133385  0.058426467   -2.9762977    1.2629592   541526 
 4210000   0.98633335   -2.9767665   -2.9767665   -1.7132688  0.060791797   -2.9767665    1.2634977   541498 
 4211000   0.98503739   -2.9753999   -2.9753999   -1.7134948  0.065672408   -2.9753999    1.2619051   541469 
 4212000   0.98386125   -2.9739581   -2.9739581   -1.7134945  0.063173626   -2.9739581    1.2604636   541441 
 4213000    0.9836017   -2.9738113   -2.9738113   -1.7136127  0.055729969   -2.9738113    1.2601986   541412 
 4214000   0.98397003    -2.973839    -2.973839   -1.7131009  0.060543813    -2.973839     1.260738   541383 
 4215000   0.98518524   -2.9766374   -2.9766374   -1.7142771  0.051165713   -2.9766374    1.2623603   541355 
 4216000   0.98483085    -2.976114    -2.976114   -1.7141402  0.053613998    -2.976114    1.2619738   541326 
 4217000   0.98607406   -2.9771863   -2.9771863   -1.7135541  0.058529945   -2.9771863    1.2636323   541298 
 4218000   0.98450284      -2.9751      -2.9751   -1.7134137  0.061529485      -2.9751    1.2616864   541269 
 4219000   0.98581917   -2.9759872   -2.9759872   -1.7125485  0.068213861   -2.9759872    1.2634387   541241 
 4220000   0.98602745   -2.9764504   -2.9764504   -1.7126771   0.05451161   -2.9764504    1.2637733   541212 
 4221000   0.98672992   -2.9777814   -2.9777814     -1.71304  0.060490772   -2.9777814    1.2647414   541183 
 4222000   0.98607628   -2.9776088   -2.9776088   -1.7136398   0.06316217   -2.9776088     1.263969   541155 
 4223000   0.98586733   -2.9769223   -2.9769223   -1.7131534  0.052926799   -2.9769223    1.2637689   541126 
 4224000   0.98526403   -2.9778705   -2.9778705   -1.7148096  0.048994826   -2.9778705    1.2630609   541098 
 4225000   0.98587271   -2.9785423   -2.9785423   -1.7146333  0.055149479   -2.9785423    1.2639089   541069 
 4226000   0.98455613   -2.9777464   -2.9777464     -1.71546  0.048069361   -2.9777464    1.2622864   541041 
 4227000   0.98265949   -2.9762997   -2.9762997   -1.7163774  0.044473892   -2.9762997    1.2599222   541012 
 4228000   0.98314564   -2.9761443   -2.9761443   -1.7155312   0.05201632   -2.9761443    1.2606131   540983 
 4229000   0.98222309   -2.9765711   -2.9765711   -1.7170757  0.059407873   -2.9765711    1.2594954   540955 
 4230000   0.98259284   -2.9762035   -2.9762035   -1.7161664  0.059742927   -2.9762035    1.2600371   540926 
 4231000   0.98033046   -2.9739747   -2.9739747   -1.7167737  0.061616838   -2.9739747     1.257201   540898 
 4232000   0.98243776   -2.9760274   -2.9760274   -1.7160564  0.060290004   -2.9760274     1.259971   540869 
 4233000   0.98355906   -2.9782834   -2.9782834    -1.716809  0.056377565   -2.9782834    1.2614744   540841 
 4234000   0.98312449    -2.977586    -2.977586   -1.7166013  0.046075342    -2.977586    1.2609846   540812 
 4235000    0.9836432   -2.9767452   -2.9767452   -1.7150276  0.057570872   -2.9767452    1.2617176   540783 
 4236000   0.98389831   -2.9776198   -2.9776198   -1.7155097  0.058065524   -2.9776198    1.2621102   540755 
 4237000   0.98344118   -2.9769838   -2.9769838   -1.7153924  0.057055763   -2.9769838    1.2615914   540726 
 4238000   0.98485401   -2.9791527   -2.9791527   -1.7156834  0.063460695   -2.9791527    1.2634693   540698 
 4239000   0.98470036    -2.978976    -2.978976   -1.7156361  0.062763087    -2.978976    1.2633399   540669 
 4240000   0.98415145   -2.9774156   -2.9774156   -1.7147146  0.064866042   -2.9774156    1.2627011   540641 
 4241000   0.98489912   -2.9783564   -2.9783564   -1.7146282   0.05486234   -2.9783564    1.2637281   540612 
 4242000   0.98372745   -2.9772195   -2.9772195   -1.7149271  0.054718651   -2.9772195    1.2622925   540583 
 4243000   0.98484911   -2.9771225   -2.9771225   -1.7133252  0.060970248   -2.9771225    1.2637972   540555 
 4244000    0.9846466   -2.9776301   -2.9776301   -1.7140249  0.059923028   -2.9776301    1.2636051   540526 
 4245000   0.98459497    -2.978044    -2.978044   -1.7144396  0.059853425    -2.978044    1.2636044   540498 
 4246000     0.983542   -2.9784564   -2.9784564   -1.7161357  0.062206143   -2.9784564    1.2623207   540469 
 4247000   0.98366332   -2.9783685   -2.9783685   -1.7158266  0.060226671   -2.9783685    1.2625418   540441 
 4248000   0.98374913   -2.9794944   -2.9794944   -1.7167747    0.0592008   -2.9794944    1.2627197   540412 
 4249000   0.98308935   -2.9778059   -2.9778059   -1.7158654  0.055920233   -2.9778059    1.2619406   540383 
 4250000     0.982177   -2.9766489   -2.9766489   -1.7158141  0.059957271   -2.9766489    1.2608348   540355 
 4251000     0.981479   -2.9762537   -2.9762537   -1.7162474  0.059435835   -2.9762537    1.2600064   540326 
 4252000   0.98077076   -2.9751738   -2.9751738   -1.7160114  0.057775156   -2.9751738    1.2591624   540298 
 4253000   0.98193552   -2.9780017   -2.9780017   -1.7172762  0.072456844   -2.9780017    1.2607254   540269 
 4254000   0.98116357   -2.9774302   -2.9774302   -1.7176306  0.065939793   -2.9774302    1.2597996   540241 
 4255000   0.98028867   -2.9758093   -2.9758093   -1.7170655  0.051289655   -2.9758093    1.2587438   540212 
 4256000   0.98092087   -2.9757829   -2.9757829   -1.7161597  0.056015052   -2.9757829    1.2596232   540183 
 4257000   0.97984322    -2.973998    -2.973998   -1.7156934  0.066883874    -2.973998    1.2583046   540155 
 4258000   0.98221285   -2.9768006   -2.9768006   -1.7153853  0.066728157   -2.9768006    1.2614154   540126 
 4259000   0.98181641   -2.9764686   -2.9764686    -1.715497  0.056112738   -2.9764686    1.2609716   540098 
 4260000   0.98161745   -2.9768671   -2.9768671   -1.7160833  0.057301858   -2.9768671    1.2607838   540069 
 4261000   0.98242981   -2.9774362   -2.9774362   -1.7155436  0.066377293   -2.9774362    1.2618926   540041 
 4262000   0.98274878   -2.9772583   -2.9772583   -1.7148882  0.060970509   -2.9772583    1.2623701   540012 
 4263000   0.98288212   -2.9774634   -2.9774634   -1.7148542   0.05059202   -2.9774634    1.2626092   539983 
 4264000   0.97998092    -2.975113    -2.975113   -1.7161654  0.059231218    -2.975113    1.2589476   539955 
 4265000   0.98219722   -2.9776568   -2.9776568   -1.7157942  0.065536045   -2.9776568    1.2618625   539926 
 4266000   0.98100426   -2.9758442   -2.9758442    -1.715449  0.062445396   -2.9758442    1.2603953   539898 
 4267000   0.98104937   -2.9760101   -2.9760101   -1.7154892  0.055509087   -2.9760101    1.2605209   539869 
 4268000   0.98080485   -2.9765192   -2.9765192   -1.7162471  0.055855672   -2.9765192    1.2602721   539841 
 4269000   0.98122827   -2.9769374   -2.9769374   -1.7160535  0.056314378   -2.9769374    1.2608839   539812 
 4270000   0.98166559   -2.9776012   -2.9776012   -1.7160876  0.058412686   -2.9776012    1.2615137   539783 
 4271000   0.97933928   -2.9760122   -2.9760122   -1.7174227  0.055024692   -2.9760122    1.2585895   539755 
 4272000    0.9793681   -2.9757939   -2.9757939   -1.7170998  0.059220548   -2.9757939    1.2586941   539726 
 4273000   0.97975065   -2.9761488   -2.9761488   -1.7168977  0.064517367   -2.9761488    1.2592511   539698 
 4274000   0.98004798   -2.9769735   -2.9769735   -1.7172725   0.06290867   -2.9769735    1.2597009   539669 
 4275000   0.97956686   -2.9761306   -2.9761306   -1.7169828  0.068448234   -2.9761306    1.2591479   539641 
 4276000   0.97948734    -2.977258    -2.977258   -1.7181447  0.060368965    -2.977258    1.2591133   539612 
 4277000   0.97965168     -2.97785     -2.97785   -1.7184577   0.06741576     -2.97785    1.2593923   539583 
 4278000   0.97989489   -2.9797233   -2.9797233    -1.719953  0.047509525   -2.9797233    1.2597703   539555 
 4279000   0.97902864   -2.9777382   -2.9777382   -1.7190139  0.057423477   -2.9777382    1.2587243   539526 
 4280000   0.98062031   -2.9799197   -2.9799197   -1.7190836  0.053200134   -2.9799197    1.2608361   539498 
 4281000   0.98015217   -2.9782332   -2.9782332   -1.7179312  0.055106455   -2.9782332    1.2603019   539469 
 4282000   0.98066028   -2.9780092   -2.9780092   -1.7169884   0.06663414   -2.9780092    1.2610207   539441 
 4283000   0.98057497   -2.9789048   -2.9789048    -1.717926  0.064671065   -2.9789048    1.2609788   539412 
 4284000   0.97955902   -2.9789262   -2.9789262   -1.7191861  0.057649761   -2.9789262    1.2597401   539383 
 4285000    0.9808572   -2.9791742   -2.9791742   -1.7176992  0.063196864   -2.9791742     1.261475   539355 
 4286000   0.97937794   -2.9787415   -2.9787415   -1.7191012  0.068933981   -2.9787415    1.2596403   539326 
 4287000   0.97982114   -2.9800277   -2.9800277    -1.719752  0.056216575   -2.9800277    1.2602758   539298 
 4288000   0.97980657   -2.9801485   -2.9801485   -1.7198237  0.066888856   -2.9801485    1.2603248   539269 
 4289000   0.97790637   -2.9786771   -2.9786771   -1.7207312   0.06308381   -2.9786771    1.2579459   539241 
 4290000   0.97907621   -2.9799253   -2.9799253   -1.7204068   0.06096653   -2.9799253    1.2595185   539212 
 4291000   0.97819528   -2.9800478   -2.9800478    -1.721595  0.055505255   -2.9800478    1.2584529   539183 
 4292000   0.97849611   -2.9801588   -2.9801588   -1.7212536  0.054028323   -2.9801588    1.2589053   539155 
 4293000    0.9776676   -2.9807595   -2.9807595   -1.7228525  0.062876735   -2.9807595     1.257907   539126 
 4294000   0.97724073   -2.9785965   -2.9785965   -1.7211734  0.058374349   -2.9785965    1.2574231   539098 
 4295000   0.97818187   -2.9808309   -2.9808309   -1.7221292  0.055629451   -2.9808309    1.2587018   539069 
 4296000   0.97643586   -2.9787894   -2.9787894   -1.7222691  0.067957477   -2.9787894    1.2565203   539041 
 4297000   0.97579298   -2.9782026   -2.9782026    -1.722442  0.062915937   -2.9782026    1.2557606   539012 
 4298000   0.97703462   -2.9806731   -2.9806731    -1.723247  0.048233196   -2.9806731    1.2574261   538983 
 4299000   0.97763079   -2.9798467   -2.9798467    -1.721588  0.050445563   -2.9798467    1.2582587   538955 
 4300000    0.9772628    -2.980691    -2.980691   -1.7228382  0.057101331    -2.980691    1.2578528   538926 
 4301000   0.97742249   -2.9790737   -2.9790737     -1.72095  0.054478741   -2.9790737    1.2581237   538898 
 4302000   0.98058389   -2.9836745   -2.9836745   -1.7214135  0.054001196   -2.9836745    1.2622609   538869 
 4303000   0.97800123   -2.9797154   -2.9797154   -1.7207135  0.057427281   -2.9797154    1.2590018   538841 
 4304000   0.98019167   -2.9820737   -2.9820737   -1.7201842  0.056258529   -2.9820737    1.2618895   538812 
 4305000   0.97786598   -2.9796238   -2.9796238   -1.7206606  0.060084528   -2.9796238    1.2589632   538783 
 4306000    0.9778703   -2.9812043   -2.9812043   -1.7221701  0.057725001   -2.9812043    1.2590342   538755 
 4307000   0.97739886   -2.9806727   -2.9806727   -1.7221778  0.058144637   -2.9806727     1.258495   538726 
 4308000   0.97747992   -2.9812154   -2.9812154   -1.7225506  0.057764754   -2.9812154    1.2586648   538698 
 4309000   0.97783697   -2.9802888   -2.9802888   -1.7210965  0.059151474   -2.9802888    1.2591923   538669 
 4310000   0.97936124   -2.9821479   -2.9821479   -1.7209271  0.060121246   -2.9821479    1.2612207   538641 
 4311000   0.97637869   -2.9789597   -2.9789597   -1.7215122  0.061861204   -2.9789597    1.2574475   538612 
 4312000   0.97645939   -2.9787536   -2.9787536   -1.7211344    0.0607451   -2.9787536    1.2576191   538583 
 4313000   0.97816312   -2.9803995   -2.9803995   -1.7205206  0.060571345   -2.9803995    1.2598789   538555 
 4314000   0.97637923   -2.9795665   -2.9795665   -1.7219175  0.060430284   -2.9795665     1.257649   538526 
 4315000   0.97847137   -2.9818364   -2.9818364   -1.7214271  0.057183132   -2.9818364    1.2604094   538498 
 4316000   0.97752125   -2.9798147   -2.9798147   -1.7205614  0.068647874   -2.9798147    1.2592533   538469 
 4317000   0.97614312    -2.978628    -2.978628   -1.7210846  0.046131908    -2.978628    1.2575434   538441 
 4318000   0.97692947   -2.9812351   -2.9812351   -1.7226109  0.054005172   -2.9812351    1.2586242   538412 
 4319000   0.97640701   -2.9806781   -2.9806781   -1.7226592  0.050855027   -2.9806781    1.2580188   538383 
 4320000    0.9758935   -2.9794752   -2.9794752   -1.7220526  0.060440538   -2.9794752    1.2574226   538355 
 4321000   0.97784088   -2.9817942   -2.9817942   -1.7217945    0.0607018   -2.9817942    1.2599996   538326 
 4322000   0.97557934   -2.9800051   -2.9800051   -1.7228542  0.069704923   -2.9800051    1.2571509   538298 
 4323000   0.97555632   -2.9795621   -2.9795621   -1.7223731  0.063923844   -2.9795621     1.257189   538269 
 4324000   0.97749832   -2.9824696   -2.9824696   -1.7227124  0.052444629   -2.9824696    1.2597572   538241 
 4325000   0.97630797    -2.980913    -2.980913   -1.7226221  0.056607071    -2.980913    1.2582909   538212 
 4326000   0.97426254   -2.9784922   -2.9784922   -1.7227699  0.056437951   -2.9784922    1.2557223   538183 
 4327000    0.9734405   -2.9788488   -2.9788488   -1.7241207    0.0546003   -2.9788488    1.2547281   538155 
 4328000   0.97403205   -2.9792352   -2.9792352    -1.723677  0.054954752   -2.9792352    1.2555582   538126 
 4329000   0.97504756   -2.9796948   -2.9796948   -1.7227621  0.050196012   -2.9796948    1.2569327   538098 
 4330000   0.97654273   -2.9808713   -2.9808713   -1.7219433   0.05943326   -2.9808713    1.2589279   538069 
 4331000   0.97434678   -2.9788219   -2.9788219   -1.7226595     0.058973   -2.9788219    1.2561624   538041 
 4332000   0.97527349   -2.9806199   -2.9806199   -1.7231951  0.061676369   -2.9806199    1.2574249   538012 
 4333000   0.97344923   -2.9801893   -2.9801893   -1.7250488  0.055621137   -2.9801893    1.2551405   537983 
 4334000    0.9746638   -2.9808818   -2.9808818   -1.7241099  0.060198705   -2.9808818     1.256772   537955 
 4335000   0.97589697   -2.9812232   -2.9812232   -1.7227933  0.063483281   -2.9812232    1.2584299   537926 
 4336000   0.97450208   -2.9808149   -2.9808149   -1.7241183  0.055345537   -2.9808149    1.2566966   537898 
 4337000   0.97573868   -2.9823465   -2.9823465   -1.7239874  0.054262896   -2.9823465    1.2583591   537869 
 4338000   0.97494659   -2.9810308   -2.9810308   -1.7236277  0.060068785   -2.9810308     1.257403   537841 
 4339000   0.97392187   -2.9807302   -2.9807302   -1.7245811  0.059238663   -2.9807302    1.2561492   537812 
 4340000   0.97613322   -2.9826036   -2.9826036   -1.7235344  0.051303687   -2.9826036    1.2590692   537783 
 4341000   0.97505247   -2.9808236   -2.9808236   -1.7230829  0.060301576   -2.9808236    1.2577407   537755 
 4342000   0.97366036   -2.9792998   -2.9792998   -1.7232871  0.064712169   -2.9792998    1.2560127   537726 
 4343000    0.9753311   -2.9820805   -2.9820805    -1.723847     0.056134   -2.9820805    1.2582335   537698 
 4344000   0.97375475   -2.9796565   -2.9796565   -1.7233888  0.059366811   -2.9796565    1.2562677   537669 
 4345000   0.97398601   -2.9807704   -2.9807704   -1.7241389   0.05154952   -2.9807704    1.2566315   537641 
 4346000   0.97433804   -2.9806761   -2.9806761   -1.7235227  0.061067082   -2.9806761    1.2571535   537612 
 4347000   0.97445451   -2.9823496   -2.9823496    -1.724978  0.062654287   -2.9823496    1.2573716   537583 
 4348000   0.97543341   -2.9833323   -2.9833323   -1.7246321  0.060160743   -2.9833323    1.2587002   537555 
 4349000   0.97454203   -2.9814158   -2.9814158   -1.7237979  0.068453903   -2.9814158    1.2576178   537526 
 4350000    0.9759778    -2.982688    -2.982688   -1.7231517  0.058494054    -2.982688    1.2595363   537498 
 4351000   0.97454148   -2.9815071   -2.9815071   -1.7237566  0.069020881   -2.9815071    1.2577505   537469 
 4352000   0.97478877   -2.9820606   -2.9820606   -1.7239254  0.069445545   -2.9820606    1.2581352   537441 
 4353000   0.97521656   -2.9828448   -2.9828448   -1.7240895  0.051981247   -2.9828448    1.2587553   537412 
 4354000   0.97417012   -2.9822585   -2.9822585   -1.7247861  0.054117309   -2.9822585    1.2574724   537383 
 4355000   0.97388569   -2.9821801   -2.9821801   -1.7250093  0.058367563   -2.9821801    1.2571708   537355 
 4356000   0.97458395   -2.9833467   -2.9833467   -1.7252067  0.056863912   -2.9833467    1.2581401   537326 
 4357000   0.97344212    -2.981651    -2.981651   -1.7249195  0.051976973    -2.981651    1.2567315   537298 
 4358000   0.97321785   -2.9812453   -2.9812453   -1.7247355  0.053047056   -2.9812453    1.2565098   537269 
 4359000   0.97215753   -2.9793302   -2.9793302    -1.724124  0.054860272   -2.9793302    1.2552062   537241 
 4360000   0.97480449    -2.983584    -2.983584   -1.7248922  0.047561458    -2.983584    1.2586918   537212 
 4361000   0.97258342   -2.9811352   -2.9811352   -1.7252435  0.061416619   -2.9811352    1.2558917   537183 
 4362000   0.97440969    -2.983534    -2.983534   -1.7252185  0.058487501    -2.983534    1.2583155   537155 
 4363000   0.97333741   -2.9809294   -2.9809294   -1.7239307  0.051884359   -2.9809294    1.2569987   537126 
 4364000   0.97411921   -2.9828546   -2.9828546   -1.7247807  0.051126084   -2.9828546    1.2580739   537098 
 4365000   0.97348296   -2.9812231   -2.9812231    -1.723903  0.065897049   -2.9812231    1.2573201   537069 
 4366000   0.97256317   -2.9802549   -2.9802549   -1.7240573  0.053934574   -2.9802549    1.2561976   537041 
 4367000   0.97412302   -2.9820952   -2.9820952   -1.7238149  0.050152257   -2.9820952    1.2582803   537012 
 4368000   0.97259766   -2.9812488   -2.9812488   -1.7248709  0.056355471   -2.9812488    1.2563779   536983 
 4369000   0.97331708   -2.9804656   -2.9804656   -1.7230928  0.054104287   -2.9804656    1.2573727   536955 
 4370000   0.97258287   -2.9803614   -2.9803614   -1.7238692  0.057486381   -2.9803614    1.2564921   536926 
 4371000   0.97215584    -2.979203    -2.979203    -1.723197  0.061179142    -2.979203    1.2560059   536898 
 4372000   0.97190428   -2.9792868   -2.9792868    -1.723538   0.06075563   -2.9792868    1.2557488   536869 
 4373000   0.97178435   -2.9815412   -2.9815412   -1.7258819  0.052552744   -2.9815412    1.2556593   536841 
 4374000   0.97160571   -2.9810121   -2.9810121   -1.7255158  0.053415112   -2.9810121    1.2554963   536812 
 4375000   0.97043794   -2.9793843   -2.9793843   -1.7253292  0.056759276   -2.9793843    1.2540551   536783 
 4376000   0.96921874   -2.9786783   -2.9786783   -1.7261335  0.058674809   -2.9786783    1.2525449   536755 
 4377000   0.97098505   -2.9805601   -2.9805601   -1.7256648  0.056659357   -2.9805601    1.2548953   536726 
 4378000   0.97092481   -2.9795246   -2.9795246   -1.7246416  0.057226158   -2.9795246    1.2548829   536698 
 4379000   0.97135401    -2.981017    -2.981017   -1.7255115  0.057230452    -2.981017    1.2555055   536669 
 4380000   0.97088782   -2.9798943   -2.9798943   -1.7249259  0.063588005   -2.9798943    1.2549684   536641 
 4381000   0.97180236   -2.9799895   -2.9799895   -1.7237711  0.059223101   -2.9799895    1.2562184   536612 
 4382000   0.97220728    -2.980767    -2.980767   -1.7239572  0.054421841    -2.980767    1.2568098   536583 
 4383000   0.97286258    -2.982126    -2.982126   -1.7244034  0.050806713    -2.982126    1.2577225   536555 
 4384000   0.97227675   -2.9806686   -2.9806686   -1.7236355  0.062686102   -2.9806686    1.2570331   536526 
 4385000   0.97374549   -2.9812838   -2.9812838   -1.7222861  0.056827856   -2.9812838    1.2589977   536498 
 4386000   0.97069467    -2.977957    -2.977957   -1.7228359  0.064634082    -2.977957     1.255121   536469 
 4387000   0.97191826   -2.9808646   -2.9808646   -1.7240959  0.055378859   -2.9808646    1.2567687   536441 
 4388000   0.97056856   -2.9804477   -2.9804477   -1.7253564  0.060589214   -2.9804477    1.2550913   536412 
 4389000    0.9699537   -2.9811705   -2.9811705   -1.7268064  0.051797598   -2.9811705     1.254364   536383 
 4390000   0.97148629   -2.9828171   -2.9828171   -1.7264055  0.050462385   -2.9828171    1.2564116   536355 
 4391000   0.97126158    -2.982074    -2.982074   -1.7258851  0.062364792    -2.982074    1.2561889   536326 
 4392000   0.97051453   -2.9817863   -2.9817863   -1.7264981  0.047461576   -2.9817863    1.2552882   536298 
 4393000   0.97121979   -2.9819454   -2.9819454    -1.725677  0.054109111   -2.9819454    1.2562684   536269 
 4394000    0.9713893   -2.9821949   -2.9821949   -1.7256416  0.050979684   -2.9821949    1.2565532   536241 
 4395000    0.9709627   -2.9815133   -2.9815133    -1.725444  0.051451579   -2.9815133    1.2560693   536212 
 4396000    0.9711503    -2.981924    -2.981924   -1.7255441  0.051195699    -2.981924      1.25638   536183 
 4397000   0.97015819   -2.9805474   -2.9805474   -1.7253854  0.054466665   -2.9805474     1.255162   536155 
 4398000   0.97111616   -2.9815778   -2.9815778   -1.7251084  0.048009531   -2.9815778    1.2564694   536126 
 4399000   0.96996414   -2.9811573   -2.9811573   -1.7261129  0.058582488   -2.9811573    1.2550444   536098 
 4400000   0.97012091   -2.9804633   -2.9804633   -1.7251482  0.062577441   -2.9804633    1.2553151   536069 
 4401000   0.97163625   -2.9815347   -2.9815347   -1.7241931   0.04948802   -2.9815347    1.2573416   536041 
 4402000   0.97069372    -2.981585    -2.981585   -1.7253951  0.053071428    -2.981585    1.2561899   536012 
 4403000   0.97105255   -2.9824119   -2.9824119   -1.7256896  0.061895914   -2.9824119    1.2567223   535983 
 4404000   0.96995109   -2.9810676   -2.9810676   -1.7257052  0.047955467   -2.9810676    1.2553624   535955 
 4405000   0.96890998   -2.9809322   -2.9809322   -1.7268494  0.058320412   -2.9809322    1.2540827   535926 
 4406000     0.968491   -2.9797128   -2.9797128   -1.7261068  0.054717147   -2.9797128    1.2536059   535898 
 4407000   0.96845834    -2.980682    -2.980682   -1.7270505  0.041950418    -2.980682    1.2536315   535869 
 4408000   0.96866297   -2.9810981   -2.9810981   -1.7271362  0.056283623   -2.9810981    1.2539619   535841 
 4409000   0.96840164   -2.9800506   -2.9800506   -1.7263592  0.054301988   -2.9800506    1.2536915   535812 
 4410000   0.96824558   -2.9790984   -2.9790984   -1.7255411  0.059849341   -2.9790984    1.2535573   535783 
 4411000   0.96864067   -2.9802602   -2.9802602   -1.7261258  0.056662522   -2.9802602    1.2541343   535755 
 4412000   0.96907104   -2.9797166   -2.9797166   -1.7249571  0.063797811   -2.9797166    1.2547595   535726 
 4413000    0.9683466   -2.9802674   -2.9802674   -1.7263804  0.061615268   -2.9802674     1.253887   535698 
 4414000   0.96984811   -2.9819203   -2.9819203   -1.7260211   0.05494467   -2.9819203    1.2558993   535669 
 4415000   0.96898127   -2.9803728   -2.9803728   -1.7255305  0.058951043   -2.9803728    1.2548423   535641 
 4416000   0.96862779   -2.9794251   -2.9794251   -1.7249726  0.057659209   -2.9794251    1.2544525   535612 
 4417000   0.97127009   -2.9839155   -2.9839155   -1.7259729  0.052546768   -2.9839155    1.2579426   535583 
 4418000   0.96830003   -2.9806793   -2.9806793   -1.7265178  0.046957343   -2.9806793    1.2541615   535555 
 4419000   0.96881416   -2.9816727   -2.9816727   -1.7267774  0.054160085   -2.9816727    1.2548953   535526 
 4420000   0.96918388   -2.9818297   -2.9818297   -1.7263898  0.050046906   -2.9818297    1.2554399   535498 
 4421000   0.96823978   -2.9809938   -2.9809938   -1.7267089  0.053099996   -2.9809938    1.2542849   535469 
 4422000   0.96780867   -2.9803964   -2.9803964   -1.7266045  0.052597862   -2.9803964    1.2537919   535441 
 4423000    0.9687844   -2.9821477   -2.9821477   -1.7270238  0.061756583   -2.9821477     1.255124   535412 
 4424000   0.96833177   -2.9825334   -2.9825334   -1.7279279  0.055224415   -2.9825334    1.2546055   535383 
 4425000   0.96753482   -2.9822458   -2.9822458   -1.7286073  0.051168942   -2.9822458    1.2536385   535355 
 4426000   0.96892575   -2.9828406   -2.9828406   -1.7273319  0.054310112   -2.9828406    1.2555088   535326 
 4427000   0.96854167   -2.9835701   -2.9835701   -1.7284934  0.061834264   -2.9835701    1.2550767   535298 
 4428000   0.96751951   -2.9824738   -2.9824738   -1.7286537  0.054205754   -2.9824738    1.2538201   535269 
 4429000   0.96918557   -2.9840031   -2.9840031   -1.7279582  0.053285727   -2.9840031    1.2560449   535241 
 4430000   0.96850976    -2.982875    -2.982875    -1.727638  0.049635734    -2.982875     1.255237   535212 
 4431000   0.96870664    -2.983487    -2.983487   -1.7279267  0.049953647    -2.983487    1.2555602   535183 
 4432000   0.96853822    -2.984219    -2.984219   -1.7288114  0.050633662    -2.984219    1.2554076   535155 
 4433000   0.96581693   -2.9803003   -2.9803003   -1.7283521  0.061063018   -2.9803003    1.2519482   535126 
 4434000    0.9664084   -2.9823656   -2.9823656   -1.7295852  0.056026613   -2.9823656    1.2527804   535098 
 4435000   0.96828312   -2.9851426   -2.9851426   -1.7298639  0.050923057   -2.9851426    1.2552787   535069 
 4436000   0.96710449   -2.9841422   -2.9841422   -1.7303259  0.048787949   -2.9841422    1.2538163   535041 
 4437000   0.96751061   -2.9847624   -2.9847624   -1.7303516  0.059444846   -2.9847624    1.2544109   535012 
 4438000   0.96707249   -2.9842123   -2.9842123   -1.7303015  0.053409867   -2.9842123    1.2539108   534983 
 4439000   0.96656372   -2.9834889   -2.9834889   -1.7301722  0.065421913   -2.9834889    1.2533167   534955 
 4440000   0.96667461   -2.9840504   -2.9840504   -1.7305219  0.057151756   -2.9840504    1.2535285   534926 
 4441000   0.96648277   -2.9849814   -2.9849814   -1.7316361  0.058449176   -2.9849814    1.2533453   534898 
 4442000   0.96676631   -2.9852192   -2.9852192   -1.7314382  0.048556147   -2.9852192     1.253781   534869 
 4443000   0.96719276   -2.9857385   -2.9857385   -1.7313389  0.049853675   -2.9857385    1.2543997   534841 
 4444000   0.96828379   -2.9864495   -2.9864495   -1.7305667  0.056277456   -2.9864495    1.2558828   534812 
 4445000   0.96676245   -2.9852371   -2.9852371   -1.7312595  0.055469589   -2.9852371    1.2539776   534783 
 4446000   0.96669825   -2.9853291   -2.9853291   -1.7313691  0.048934644   -2.9853291      1.25396   534755 
 4447000   0.96759309   -2.9846068   -2.9846068    -1.729418  0.066860266   -2.9846068    1.2551888   534726 
 4448000   0.96700858   -2.9845978   -2.9845978   -1.7301016  0.058372319   -2.9845978    1.2544962   534698 
 4449000   0.96845599   -2.9851418   -2.9851418   -1.7286998  0.061167641   -2.9851418    1.2564421   534669 
 4450000   0.96676426   -2.9836461   -2.9836461   -1.7293331  0.050741315   -2.9836461     1.254313   534641 
 4451000   0.96835004   -2.9863547   -2.9863547   -1.7299161  0.046570206   -2.9863547    1.2564386   534612 
 4452000   0.96751154   -2.9854993   -2.9854993   -1.7300806  0.055126319   -2.9854993    1.2554187   534583 
 4453000    0.9664609   -2.9850287   -2.9850287   -1.7309076  0.046606423   -2.9850287    1.2541211   534555 
 4454000   0.96673836   -2.9850771   -2.9850771   -1.7305279  0.055515353   -2.9850771    1.2545492   534526 
 4455000   0.96547873   -2.9826026   -2.9826026   -1.7296224  0.053284332   -2.9826026    1.2529802   534498 
 4456000   0.96484517   -2.9827299   -2.9827299   -1.7305039  0.062607879   -2.9827299    1.2522259   534469 
 4457000   0.96710904   -2.9858291   -2.9858291   -1.7305992  0.052863467   -2.9858291    1.2552299   534441 
 4458000   0.96629413   -2.9852975   -2.9852975   -1.7310572  0.050834502   -2.9852975    1.2542402   534412 
 4459000    0.9650785   -2.9841682   -2.9841682   -1.7314378  0.054201235   -2.9841682    1.2527303   534383 
 4460000   0.96505734   -2.9842433   -2.9842433   -1.7314748  0.056806112   -2.9842433    1.2527685   534355 
 4461000   0.96455996   -2.9834692   -2.9834692   -1.7312784  0.058505256   -2.9834692    1.2521908   534326 
 4462000   0.96325234    -2.981152    -2.981152   -1.7305933  0.052811106    -2.981152    1.2505588   534298 
 4463000   0.96409558   -2.9820159   -2.9820159   -1.7302944  0.055716354   -2.9820159    1.2517215   534269 
 4464000   0.96451081   -2.9828216   -2.9828216   -1.7304954  0.050785232   -2.9828216    1.2523262   534241 
 4465000   0.96411525   -2.9824402   -2.9824402   -1.7305596  0.058758351   -2.9824402    1.2518806   534212 
 4466000    0.9643782   -2.9825395   -2.9825395   -1.7302495  0.050824037   -2.9825395      1.25229   534183 
 4467000    0.9642655   -2.9818655   -2.9818655   -1.7296562   0.05336423   -2.9818655    1.2522093   534155 
 4468000   0.96418046   -2.9819854   -2.9819854   -1.7298185  0.053835608   -2.9819854    1.2521668   534126 
 4469000   0.96610687   -2.9840785   -2.9840785   -1.7293441  0.053121839   -2.9840785    1.2547344   534098 
 4470000   0.96537303   -2.9821501   -2.9821501   -1.7283007  0.058217665   -2.9821501    1.2538494   534069 
 4471000   0.96391395   -2.9812056   -2.9812056   -1.7291856  0.049829143   -2.9812056      1.25202   534041 
 4472000   0.96469261   -2.9822528   -2.9822528   -1.7291534  0.052437082   -2.9822528    1.2530994   534012 
 4473000   0.96534904   -2.9844948   -2.9844948   -1.7304746  0.056596059   -2.9844948    1.2540202   533983 
 4474000   0.96528743   -2.9841641   -2.9841641   -1.7301582  0.046983828   -2.9841641    1.2540059   533955 
 4475000   0.96440477   -2.9832863   -2.9832863   -1.7303591  0.053776232   -2.9832863    1.2529273   533926 
 4476000   0.96416771    -2.983125    -2.983125     -1.73044  0.056234664    -2.983125     1.252685   533898 
 4477000   0.96448017   -2.9836076   -2.9836076   -1.7304485  0.050676864   -2.9836076     1.253159   533869 
 4478000   0.96338013   -2.9833828   -2.9833828   -1.7315874  0.062653963   -2.9833828    1.2517954   533841 
 4479000    0.9632052   -2.9835954   -2.9835954   -1.7319593  0.055390779   -2.9835954    1.2516361   533812 
 4480000   0.96434052   -2.9848267   -2.9848267   -1.7316472  0.053104884   -2.9848267    1.2531795   533783 
 4481000   0.96402852   -2.9841714   -2.9841714   -1.7313316  0.051118825   -2.9841714    1.2528397   533755 
 4482000   0.96359291   -2.9834499   -2.9834499   -1.7311083  0.058049354   -2.9834499    1.2523417   533726 
 4483000   0.96437288   -2.9845472   -2.9845472   -1.7311261  0.054238814   -2.9845472    1.2534211   533698 
 4484000   0.96310599   -2.9828631   -2.9828631   -1.7310205  0.060398769   -2.9828631    1.2518425   533669 
 4485000   0.96422608   -2.9851933   -2.9851933   -1.7318291  0.055523871   -2.9851933    1.2533642   533641 
 4486000   0.96302756   -2.9838841   -2.9838841   -1.7320098  0.048824597   -2.9838841    1.2518743   533612 
 4487000   0.96321825   -2.9846914   -2.9846914   -1.7325012  0.055473338   -2.9846914    1.2521902   533583 
 4488000   0.96311068   -2.9845271   -2.9845271    -1.732411  0.053607158   -2.9845271    1.2521161   533555 
 4489000   0.96339112   -2.9840053   -2.9840053   -1.7314565  0.071453629   -2.9840053    1.2525488   533526 
 4490000   0.96337733   -2.9847097   -2.9847097   -1.7321131  0.053895473   -2.9847097    1.2525966   533498 
 4491000   0.96235927   -2.9847212   -2.9847212   -1.7333803  0.059932213   -2.9847212    1.2513409   533469 
 4492000   0.96188034   -2.9830449   -2.9830449   -1.7322611  0.063771938   -2.9830449    1.2507838   533441 
 4493000   0.96337178   -2.9858675   -2.9858675   -1.7330762   0.05798648   -2.9858675    1.2527913   533412 
 4494000   0.96273634   -2.9856197   -2.9856197   -1.7335867  0.052724029   -2.9856197     1.252033   533383 
 4495000   0.96305844   -2.9863033   -2.9863033   -1.7337856  0.050882281   -2.9863033    1.2525177   533355 
 4496000   0.96269823   -2.9862814   -2.9862814   -1.7341641  0.058629933   -2.9862814    1.2521173   533326 
 4497000   0.96116566   -2.9850165   -2.9850165   -1.7348269  0.055428033   -2.9850165    1.2501896   533298 
 4498000   0.96156203   -2.9853693   -2.9853693   -1.7345962  0.051417475   -2.9853693    1.2507732   533269 
 4499000   0.96163094   -2.9854372   -2.9854372   -1.7345087  0.057069349   -2.9854372    1.2509285   533241 
 4500000    0.9617544   -2.9871141   -2.9871141    -1.735957  0.056119039   -2.9871141    1.2511571   533212 
 4501000   0.96133564   -2.9861881   -2.9861881   -1.7355077  0.049372034   -2.9861881    1.2506804   533183 
 4502000   0.96142388   -2.9868404   -2.9868404   -1.7359795  0.061511021   -2.9868404    1.2508609   533155 
 4503000   0.96150321    -2.986443    -2.986443   -1.7354108  0.056280043    -2.986443    1.2510321   533126 
 4504000   0.96327189   -2.9894038   -2.9894038   -1.7360046  0.047920537   -2.9894038    1.2533992   533098 
 4505000   0.96301723   -2.9889231   -2.9889231    -1.735787  0.054381265   -2.9889231     1.253136   533069 
 4506000   0.96236267   -2.9870376   -2.9870376   -1.7346875  0.061476819   -2.9870376    1.2523501   533041 
 4507000   0.96281594   -2.9891756   -2.9891756   -1.7361675  0.066471524   -2.9891756    1.2530081   533012 
 4508000   0.96273172   -2.9893237   -2.9893237    -1.736357     0.058587   -2.9893237    1.2529667   532983 
 4509000   0.96214274   -2.9888845   -2.9888845   -1.7366186     0.058022   -2.9888845    1.2522659   532955 
 4510000   0.96242503   -2.9884784   -2.9884784   -1.7357769  0.050663644   -2.9884784    1.2527015   532926 
 4511000   0.96301913   -2.9885412   -2.9885412   -1.7350006  0.056009059   -2.9885412    1.2535406   532898 
 4512000   0.95981761    -2.986539    -2.986539   -1.7370978  0.066200846    -2.986539    1.2494413   532869 
 4513000   0.96182658   -2.9897654   -2.9897654   -1.7376432  0.057477253   -2.9897654    1.2521222   532841 
 4514000   0.96017242   -2.9878798   -2.9878798   -1.7378429  0.053506286   -2.9878798    1.2500369   532812 
 4515000   0.96041117   -2.9890526   -2.9890526   -1.7386369    0.0506157   -2.9890526    1.2504158   532783 
 4516000   0.96085496   -2.9904707   -2.9904707   -1.7394114   0.05406067   -2.9904707    1.2510593   532755 
 4517000   0.96026001   -2.9887008   -2.9887008   -1.7383481  0.042214308   -2.9887008    1.2503527   532726 
 4518000   0.96059232   -2.9898421   -2.9898421    -1.738991  0.064731075   -2.9898421    1.2508512   532698 
 4519000   0.96093126   -2.9888826   -2.9888826    -1.737522  0.060767214   -2.9888826    1.2513606   532669 
 4520000   0.96095554   -2.9891782   -2.9891782   -1.7377202  0.057760389   -2.9891782     1.251458   532641 
 4521000   0.96074166   -2.9890715   -2.9890715   -1.7378239   0.05096321   -2.9890715    1.2512476   532612 
 4522000   0.95993963   -2.9889548   -2.9889548   -1.7386836  0.050753689   -2.9889548    1.2502712   532583 
 4523000   0.96030782   -2.9895169   -2.9895169   -1.7387004  0.056216367   -2.9895169    1.2508165   532555 
 4524000   0.96097627     -2.98972     -2.98972   -1.7379647  0.054042677     -2.98972    1.2517553   532526 
 4525000   0.96045843   -2.9896854   -2.9896854   -1.7385388  0.046889431   -2.9896854    1.2511465   532498 
 4526000   0.96092565   -2.9896667   -2.9896667   -1.7378434  0.046404984   -2.9896667    1.2518234   532469 
 4527000   0.95959174   -2.9873859   -2.9873859   -1.7372345  0.060324882   -2.9873859    1.2501514   532441 
 4528000    0.9596178   -2.9886778   -2.9886778   -1.7384244  0.056614729   -2.9886778    1.2502534   532412 
 4529000   0.95844664   -2.9872718   -2.9872718   -1.7384762  0.051096183   -2.9872718    1.2487956   532383 
 4530000   0.95914776   -2.9879066   -2.9879066   -1.7381318  0.048549398   -2.9879066    1.2497748   532355 
 4531000    0.9574856   -2.9868989   -2.9868989    -1.739222  0.057649145   -2.9868989     1.247677   532326 
 4532000   0.95855628   -2.9873061   -2.9873061   -1.7381682  0.052216374   -2.9873061    1.2491379   532298 
 4533000     0.960015   -2.9884606   -2.9884606   -1.7373537  0.048860984   -2.9884606    1.2511069   532269 
 4534000    0.9590229   -2.9876229   -2.9876229   -1.7377431  0.048081206   -2.9876229    1.2498798   532241 
 4535000   0.95932514   -2.9884261   -2.9884261   -1.7380843  0.053587105   -2.9884261    1.2503418   532212 
 4536000   0.95846495   -2.9876353   -2.9876353   -1.7383466  0.054755789   -2.9876353    1.2492887   532183 
 4537000   0.95831779   -2.9882685   -2.9882685   -1.7391058  0.053981397   -2.9882685    1.2491627   532155 
 4538000   0.95771163   -2.9877399   -2.9877399   -1.7392993  0.050721116   -2.9877399    1.2484406   532126 
 4539000   0.95715744   -2.9871185   -2.9871185   -1.7393347  0.051895131   -2.9871185    1.2477838   532098 
 4540000   0.95725642   -2.9869579   -2.9869579    -1.738977  0.067172841   -2.9869579    1.2479809   532069 
 4541000   0.95755532   -2.9870203   -2.9870203   -1.7385841  0.061714499   -2.9870203    1.2484362   532041 
 4542000   0.95872437   -2.9871681   -2.9871681   -1.7371396  0.047779409   -2.9871681    1.2500285   532012 
 4543000   0.95834013   -2.9886301   -2.9886301   -1.7390345  0.047091938   -2.9886301    1.2495957   531983 
 4544000   0.95647721   -2.9868491   -2.9868491   -1.7396169  0.049863419   -2.9868491    1.2472322   531955 
 4545000   0.95686962   -2.9881576   -2.9881576   -1.7403456  0.058422525   -2.9881576    1.2478119   531926 
 4546000   0.95709647   -2.9880813   -2.9880813   -1.7399078  0.048365437   -2.9880813    1.2481735   531898 
 4547000   0.95633716   -2.9868923   -2.9868923   -1.7396411  0.049950869   -2.9868923    1.2472512   531869 
 4548000    0.9568487    -2.987441    -2.987441   -1.7394569  0.056153302    -2.987441    1.2479841   531841 
 4549000    0.9585336   -2.9900695   -2.9900695   -1.7398197  0.047495468   -2.9900695    1.2502498   531812 
 4550000    0.9583368   -2.9897456   -2.9897456   -1.7396843  0.045074655   -2.9897456    1.2500613   531783 
 4551000   0.95697959   -2.9891026   -2.9891026    -1.740746   0.05037389   -2.9891026    1.2483567   531755 
 4552000   0.95782242   -2.9907873   -2.9907873    -1.741263  0.053751627   -2.9907873    1.2495243   531726 
 4553000   0.95827825   -2.9899633   -2.9899633   -1.7397785  0.049683363   -2.9899633    1.2501847   531698 
 4554000   0.95895692   -2.9906635   -2.9906635   -1.7395251  0.054065728   -2.9906635    1.2511384   531669 
 4555000    0.9582726   -2.9903011   -2.9903011   -1.7399897  0.057064688   -2.9903011    1.2503114   531641 
 4556000   0.95868701   -2.9903294   -2.9903294   -1.7394091  0.052847149   -2.9903294    1.2509204   531612 
 4557000   0.95902443   -2.9912399   -2.9912399    -1.739811  0.048839225   -2.9912399    1.2514289   531583 
 4558000   0.96001925   -2.9922995   -2.9922995   -1.7395065  0.053206505   -2.9922995     1.252793   531555 
 4559000   0.95714191   -2.9906699   -2.9906699   -1.7415636  0.057527367   -2.9906699    1.2491063   531526 
 4560000    0.9570729   -2.9896188   -2.9896188   -1.7405367  0.052433365   -2.9896188    1.2490821   531498 
 4561000    0.9579448   -2.9912341   -2.9912341   -1.7409459  0.048655677   -2.9912341    1.2502882   531469 
 4562000   0.95878669   -2.9909103   -2.9909103   -1.7394573  0.053549136   -2.9909103     1.251453   531441 
 4563000   0.95777206   -2.9905838   -2.9905838   -1.7403869  0.050628326   -2.9905838    1.2501968   531412 
 4564000    0.9573212   -2.9903983   -2.9903983   -1.7407218  0.048835707   -2.9903983    1.2496765   531383 
 4565000   0.95663408   -2.9901671   -2.9901671   -1.7413218  0.058281677   -2.9901671    1.2488454   531355 
 4566000   0.95825896   -2.9919426   -2.9919426   -1.7409077  0.048676228   -2.9919426    1.2510349   531326 
 4567000   0.95558819   -2.9897963   -2.9897963   -1.7421824  0.058399163   -2.9897963    1.2476138   531298 
 4568000   0.95651237   -2.9894359   -2.9894359   -1.7405473  0.060513629   -2.9894359    1.2488886   531269 
 4569000   0.95640716   -2.9902419   -2.9902419   -1.7414249  0.054929905   -2.9902419    1.2488171   531241 
 4570000   0.95631801   -2.9896961   -2.9896961   -1.7409273    0.0546501   -2.9896961    1.2487688   531212 
 4571000   0.95540457   -2.9884151   -2.9884151    -1.740771   0.05768082   -2.9884151    1.2476442   531183 
 4572000   0.95655683   -2.9891828   -2.9891828   -1.7399681  0.056981088   -2.9891828    1.2492147   531155 
 4573000   0.95877905   -2.9908399   -2.9908399   -1.7386548  0.051591872   -2.9908399    1.2521852   531126 
 4574000   0.95747215   -2.9897577   -2.9897577   -1.7392134  0.052859435   -2.9897577    1.2505443   531098 
 4575000    0.9569445   -2.9902936   -2.9902936   -1.7403702  0.058346034   -2.9902936    1.2499234   531069 
 4576000   0.95639007   -2.9892483   -2.9892483   -1.7399832  0.055920594   -2.9892483    1.2492651   531041 
 4577000   0.95687831   -2.9891721   -2.9891721    -1.739201  0.058082553   -2.9891721    1.2499711   531012 
 4578000    0.9564614   -2.9887524   -2.9887524   -1.7392577  0.054364019   -2.9887524    1.2494947   530983 
 4579000   0.95582865   -2.9877588   -2.9877588   -1.7390248  0.056067778   -2.9877588     1.248734   530955 
 4580000   0.95541517   -2.9880718   -2.9880718   -1.7398098  0.050012583   -2.9880718    1.2482619   530926 
 4581000   0.95544416   -2.9883298   -2.9883298   -1.7399642  0.060470695   -2.9883298    1.2483657   530898 
 4582000   0.95618291   -2.9888629   -2.9888629   -1.7394638  0.056747755   -2.9888629    1.2493991   530869 
 4583000    0.9559149   -2.9879551   -2.9879551   -1.7388403  0.050594949   -2.9879551    1.2491148   530841 
 4584000   0.95632443   -2.9879765   -2.9879765   -1.7382583  0.059261443   -2.9879765    1.2497182   530812 
 4585000   0.95670849   -2.9883367   -2.9883367   -1.7380482  0.053637793   -2.9883367    1.2502884   530783 
 4586000   0.95582358   -2.9878378   -2.9878378   -1.7386399  0.047936051   -2.9878378    1.2491979   530755 
 4587000   0.95456756   -2.9867073   -2.9867073   -1.7390828  0.051563225   -2.9867073    1.2476245   530726 
 4588000   0.95345575   -2.9867987   -2.9867987   -1.7405616  0.051550956   -2.9867987    1.2462371   530698 
 4589000   0.95333672   -2.9867307   -2.9867307    -1.740581  0.046680968   -2.9867307    1.2461496   530669 
 4590000   0.95267707   -2.9863272   -2.9863272   -1.7409741  0.047425232   -2.9863272    1.2453531   530641 
 4591000   0.95384735   -2.9872023   -2.9872023   -1.7402513  0.045091637   -2.9872023     1.246951   530612 
 4592000   0.95125596   -2.9842604   -2.9842604   -1.7406291  0.052140676   -2.9842604    1.2436313   530583 
 4593000   0.95169681   -2.9856942   -2.9856942   -1.7414209  0.044664205   -2.9856942    1.2442733   530555 
 4594000   0.95211573   -2.9859068   -2.9859068   -1.7410177  0.050593522   -2.9859068    1.2448891   530526 
 4595000   0.95312753   -2.9878698   -2.9878698    -1.741592  0.048456516   -2.9878698    1.2462778   530498 
 4596000   0.95284767   -2.9882435   -2.9882435   -1.7422635  0.048143121   -2.9882435      1.24598   530469 
 4597000   0.95256243   -2.9879838   -2.9879838    -1.742311  0.046270617   -2.9879838    1.2456727   530441 
 4598000   0.95268619   -2.9877633   -2.9877633   -1.7418606  0.051286679   -2.9877633    1.2459027   530412 
 4599000    0.9534181   -2.9899458   -2.9899458   -1.7430178  0.055087657   -2.9899458     1.246928   530383 
 4600000   0.95365743   -2.9899633   -2.9899633   -1.7426564  0.045402095   -2.9899633    1.2473069   530355 
 4601000      0.95372   -2.9904937   -2.9904937   -1.7430368   0.05166295   -2.9904937    1.2474569   530326 
 4602000   0.95356591   -2.9913018   -2.9913018   -1.7439805  0.044833214   -2.9913018    1.2473212   530298 
 4603000   0.95358063   -2.9913636   -2.9913636   -1.7439549  0.056161684   -2.9913636    1.2474087   530269 
 4604000   0.95333925   -2.9906116   -2.9906116   -1.7434528  0.054920116   -2.9906116    1.2471588   530241 
 4605000   0.95483302   -2.9933295   -2.9933295   -1.7441482  0.057310736   -2.9933295    1.2491813   530212 
 4606000   0.95370651   -2.9922511   -2.9922511   -1.7444754  0.054151273   -2.9922511    1.2477758   530183 
 4607000   0.95225393   -2.9914853   -2.9914853   -1.7455443  0.057793091   -2.9914853    1.2459411   530155 
 4608000    0.9537833   -2.9941766   -2.9941766   -1.7461663  0.054907303   -2.9941766    1.2480104   530126 
 4609000   0.95240568   -2.9932409   -2.9932409   -1.7469673  0.052223928   -2.9932409    1.2462736   530098 
 4610000   0.95213403   -2.9926092   -2.9926092   -1.7466229  0.048351482   -2.9926092    1.2459863   530069 
 4611000   0.95300151   -2.9931122   -2.9931122   -1.7459248  0.051052109   -2.9931122    1.2471874   530041 
 4612000   0.95228398   -2.9936211   -2.9936211   -1.7473045  0.040134852   -2.9936211    1.2463166   530012 
 4613000   0.95369898    -2.995864    -2.995864   -1.7476272  0.051331862    -2.995864    1.2482368   529983 
 4614000     0.952363   -2.9940921   -2.9940921   -1.7475381  0.049786255   -2.9940921     1.246554   529955 
 4615000   0.95404886     -2.99632     -2.99632    -1.747491  0.056539522     -2.99632     1.248829   529926 
 4616000   0.95468569   -2.9975032   -2.9975032   -1.7477746  0.057987789   -2.9975032    1.2497286   529898 
 4617000   0.95529988   -2.9984155   -2.9984155   -1.7478144   0.05797368   -2.9984155    1.2506011   529869 
 4618000   0.95585886   -2.9989915   -2.9989915   -1.7475925  0.050469823   -2.9989915     1.251399   529841 
 4619000   0.95508645   -2.9979739   -2.9979739   -1.7475177  0.058550049   -2.9979739    1.2504562   529812 
 4620000   0.95452998   -2.9974612   -2.9974612   -1.7476652  0.062673372   -2.9974612    1.2497961   529783 
 4621000   0.95158872   -2.9945448   -2.9945448    -1.748534  0.060365294   -2.9945448    1.2460108   529755 
 4622000   0.95381429   -2.9979509   -2.9979509   -1.7489576  0.050760241   -2.9979509    1.2489934   529726 
 4623000   0.95162822   -2.9948243   -2.9948243   -1.7486276   0.04504392   -2.9948243    1.2461966   529698 
 4624000   0.95141579   -2.9963772   -2.9963772   -1.7503905  0.055812937   -2.9963772    1.2459867   529669 
 4625000   0.95062284   -2.9949914   -2.9949914   -1.7499774  0.055615185   -2.9949914     1.245014   529641 
 4626000   0.95197651    -2.996062    -2.996062   -1.7492069  0.050149128    -2.996062    1.2468552   529612 
 4627000   0.95221145   -2.9961749   -2.9961749   -1.7489438  0.050360885   -2.9961749    1.2472312   529583 
 4628000   0.95120935   -2.9951337   -2.9951337   -1.7491493  0.053354539   -2.9951337    1.2459845   529555 
 4629000   0.95242268   -2.9965291   -2.9965291    -1.748887  0.059008949   -2.9965291    1.2476421   529526 
 4630000   0.95126372   -2.9953019   -2.9953019    -1.749112  0.052589972   -2.9953019    1.2461898   529498 
 4631000   0.95267565   -2.9958176   -2.9958176   -1.7477098  0.058436433   -2.9958176    1.2481079   529469 
 4632000   0.95250207   -2.9973535   -2.9973535   -1.7494071  0.048835112   -2.9973535    1.2479464   529441 
 4633000   0.95259248   -2.9965489   -2.9965489   -1.7484156  0.051708764   -2.9965489    1.2481333   529412 
 4634000    0.9520888   -2.9953435   -2.9953435   -1.7478018  0.057305443   -2.9953435    1.2475417   529383 
 4635000   0.95287999   -2.9972271   -2.9972271   -1.7485827  0.052687462   -2.9972271    1.2486444   529355 
 4636000   0.95206673   -2.9966109   -2.9966109   -1.7489638  0.049745329   -2.9966109    1.2476471   529326 
 4637000   0.95146361    -2.996137    -2.996137   -1.7492143  0.048890992    -2.996137    1.2469227   529298 
 4638000   0.94999175   -2.9942271   -2.9942271   -1.7491651  0.055104927   -2.9942271     1.245062   529269 
 4639000   0.95027512   -2.9945271   -2.9945271   -1.7490279  0.047403314   -2.9945271    1.2454992   529241 
 4640000   0.95143354   -2.9955739   -2.9955739    -1.748488  0.052431263   -2.9955739    1.2470859   529212 
 4641000    0.9499834   -2.9942934   -2.9942934     -1.74904  0.049293116   -2.9942934    1.2452534   529183 
 4642000    0.9502323    -2.993584    -2.993584   -1.7479384  0.051982784    -2.993584    1.2456455   529155 
 4643000   0.95002726   -2.9930307   -2.9930307   -1.7475857  0.046330399   -2.9930307     1.245445   529126 
 4644000   0.94905898   -2.9921277   -2.9921277   -1.7478862  0.054066955   -2.9921277    1.2442415   529098 
 4645000   0.94964874   -2.9928104   -2.9928104   -1.7477275  0.052689016   -2.9928104    1.2450829   529069 
 4646000   0.94997261   -2.9941343   -2.9941343   -1.7485609  0.055068697   -2.9941343    1.2455734   529041 
 4647000   0.95214676   -2.9957161   -2.9957161   -1.7472235  0.054197104   -2.9957161    1.2484926   529012 
 4648000   0.94947417   -2.9931442   -2.9931442   -1.7480877  0.049417864   -2.9931442    1.2450564   528983 
 4649000   0.94947425   -2.9926586   -2.9926586   -1.7475361  0.048238318   -2.9926586    1.2451224   528955 
 4650000   0.94961237   -2.9924669   -2.9924669    -1.747095  0.046126779   -2.9924669    1.2453718   528926 
 4651000   0.94994883   -2.9915492   -2.9915492   -1.7456702  0.062132299   -2.9915492     1.245879   528898 
 4652000   0.94981222   -2.9935793   -2.9935793   -1.7478111  0.052226261   -2.9935793    1.2457682   528869 
 4653000   0.94980777   -2.9920963   -2.9920963    -1.746268  0.058066539   -2.9920963    1.2458283   528841 
 4654000   0.94861455   -2.9927852   -2.9927852   -1.7484537  0.048765212   -2.9927852    1.2443314   528812 
 4655000   0.94920876   -2.9938015   -2.9938015   -1.7486224  0.052488868   -2.9938015    1.2451792   528783 
 4656000   0.94970819   -2.9936107   -2.9936107   -1.7477105  0.048705934   -2.9936107    1.2459003   528755 
 4657000    0.9488551   -2.9925559   -2.9925559   -1.7477065  0.051989652   -2.9925559    1.2448494   528726 
 4658000   0.94811241   -2.9914512   -2.9914512   -1.7475102  0.048558299   -2.9914512    1.2439409   528698 
 4659000    0.9500085   -2.9918488   -2.9918488   -1.7453518  0.061987274   -2.9918488     1.246497   528669 
 4660000     0.949202   -2.9919947   -2.9919947   -1.7464899   0.05299631   -2.9919947    1.2455048   528641 
 4661000   0.94863201   -2.9919053   -2.9919053   -1.7470801  0.052663472   -2.9919053    1.2448251   528612 
 4662000   0.94854347   -2.9918035   -2.9918035   -1.7470262  0.050209273   -2.9918035    1.2447772   528583 
 4663000   0.94957046   -2.9938102   -2.9938102   -1.7476192  0.045079185   -2.9938102     1.246191   528555 
[...]
23833000 0.0017877013  -0.11427775  -0.11427775 -0.099910076 -0.0016102386  -0.11427775  0.014367674    86309 
23834000  0.001759762  -0.11409147  -0.11409147 -0.099948346 0.0013855021  -0.11409147  0.014143127    86309 
23835000 0.0017922838  -0.11431016  -0.11431016 -0.099905656 -0.00033092873  -0.11431016  0.014404503    86309 
23836000 0.0018136376  -0.11453503  -0.11453503 -0.099958907 0.0015597075  -0.11453503  0.014576123    86309 
23837000 0.0017383949  -0.11391985  -0.11391985 -0.099948453 0.0010560681  -0.11391985  0.013971401    86309 
23838000 0.0017717038  -0.11418482  -0.11418482 -0.099945713 -0.00012792679  -0.11418482  0.014239103    86309 
23839000 0.0017459142  -0.11395992  -0.11395992 -0.099928083 -0.0010405313  -0.11395992  0.014031833    86309 
23840000 0.0017446049  -0.11392436  -0.11392436 -0.099903053 0.00083458643  -0.11392436   0.01402131    86309 
23841000 0.0017825198  -0.11425921  -0.11425921 -0.099933177 -4.6041819e-05  -0.11425921   0.01432603    86309 
23842000  0.001805462  -0.11446242  -0.11446242    -0.099952 -0.0014559388  -0.11446242  0.014510415    86309 
23843000 0.0018133052  -0.11457497  -0.11457497  -0.10000135 0.00075389799  -0.11457497   0.01457362    86308 
23844000 0.0017428227  -0.11399415  -0.11399415 -0.099987003 0.00040619994  -0.11399415  0.014007149    86308 
23845000 0.0017684442  -0.11420075  -0.11420075 -0.099987677 0.00047558016  -0.11420075   0.01421307    86308 
23846000 0.0017879485  -0.11441468  -0.11441468  -0.10004485 -9.8026918e-05  -0.11441468  0.014369827    86308 
23847000 0.0018048248  -0.11453199  -0.11453199  -0.10002653 -0.00033233064  -0.11453199  0.014505463    86308 
23848000 0.0017244612  -0.11386265  -0.11386265  -0.10000307 0.00040269809  -0.11386265  0.013859576    86308 
23849000 0.0017239785  -0.11388729  -0.11388729  -0.10003159 -0.00091217783  -0.11388729  0.013855697    86308 
23850000 0.0017360211   -0.1139515   -0.1139515  -0.09999902 0.00062587649   -0.1139515  0.013952484    86308 
23851000 0.0017160573  -0.11382144  -0.11382144   -0.1000294 0.00054670744  -0.11382144  0.013792034    86308 
23852000 0.0017596676  -0.11417097  -0.11417097  -0.10002843 0.00071693706  -0.11417097  0.014142532    86308 
23853000 0.0017742904  -0.11430166  -0.11430166   -0.1000416 0.0012497674  -0.11430166  0.014260057    86308 
23854000   0.00175112  -0.11413312  -0.11413312  -0.10005928 -0.00048215147  -0.11413312  0.014073835    86308 
23855000 0.0017889257   -0.1143893   -0.1143893  -0.10001162 0.00094334583   -0.1143893  0.014377681    86308 
23856000  0.001769654  -0.11423795  -0.11423795  -0.10001516 0.0016801923  -0.11423795  0.014222793    86308 
23857000 0.0017465379   -0.1140363   -0.1140363 -0.099999287 0.00075253589   -0.1140363  0.014037008    86308 
23858000  0.001776243  -0.11427821  -0.11427821  -0.10000246 -0.00050166384  -0.11427821  0.014275749    86308 
23859000 0.0017369557  -0.11397046  -0.11397046  -0.10001047 0.00018107233  -0.11397046  0.013959996    86308 
23860000 0.0018272973  -0.11467902  -0.11467902 -0.099992941 -0.0018736529  -0.11467902  0.014686075    86308 
23861000 0.0017902524  -0.11433206  -0.11433206 -0.099943719 0.00081504232  -0.11433206  0.014388344    86308 
23862000 0.0017964998  -0.11432508  -0.11432508 -0.099886529 -0.00067643159  -0.11432508  0.014438555    86308 
23863000 0.0017504757  -0.11399334  -0.11399334 -0.099924683 -0.0012651652  -0.11399334  0.014068656    86308 
23864000 0.0017446004  -0.11394564  -0.11394564 -0.099924208 -0.0008830775  -0.11394564  0.014021437    86308 
23865000 0.0017111882  -0.11369433  -0.11369433 -0.099941427 3.4971583e-05  -0.11369433  0.013752901    86308 
23866000 0.0017562481  -0.11409773  -0.11409773 -0.099982679 -0.0011280355  -0.11409773   0.01411505    86308 
23867000 0.0017675655  -0.11416174  -0.11416174 -0.099955727 0.0013337406  -0.11416174  0.014206008    86308 
23868000 0.0017218409  -0.11373291  -0.11373291 -0.099894394 0.0016493623  -0.11373291  0.013838517    86308 
23869000 0.0017233185  -0.11379823  -0.11379823 -0.099947837 0.00097292928  -0.11379823  0.013850392    86308 
23870000 0.0017272299  -0.11383448  -0.11383448 -0.099952654 -0.00033368313  -0.11383448  0.013881829    86308 
23871000 0.0018206972  -0.11461736  -0.11461736 -0.099984327 -0.00088379552  -0.11461736   0.01463303    86308 
23872000 0.0017294659  -0.11388618  -0.11388618 -0.099986382 0.0007666812  -0.11388618    0.0138998    86308 
23873000 0.0017663164  -0.11418282  -0.11418282  -0.09998685 -0.00077490481  -0.11418282  0.014195969    86308 
23874000 0.0017646744  -0.11416671  -0.11416671 -0.099983938 1.1356671e-05  -0.11416671  0.014182772    86308 
23875000 0.0017990077  -0.11443703  -0.11443703  -0.09997832 -0.00074001133  -0.11443703   0.01445871    86308 
23876000  0.001826237  -0.11465399  -0.11465399 -0.099976432 0.00045851253  -0.11465399  0.014677554    86308 
23877000 0.0018423886  -0.11478432  -0.11478432 -0.099976956 -0.00050896253  -0.11478432  0.014807365    86308 
23878000 0.0017614407  -0.11412356  -0.11412356 -0.099966777 0.00030264963  -0.11412356  0.014156783    86308 
23879000 0.0017730657  -0.11422777  -0.11422777 -0.099977556 0.00066844865  -0.11422777  0.014250214    86308 
23880000 0.0017913541  -0.11436641  -0.11436641  -0.09996921 -0.0011677587  -0.11436641  0.014397198    86308 
23881000 0.0017936946  -0.11436816  -0.11436816 -0.099952149 -0.0021697728  -0.11436816  0.014416008    86308 
23882000  0.001768877  -0.11413868  -0.11413868  -0.09992213 -0.00069313966  -0.11413868  0.014216549    86308 
23883000  0.001757003  -0.11406712  -0.11406712 -0.099946005 -0.0010144642  -0.11406712  0.014121117    86308 
23884000 0.0018260699  -0.11463513  -0.11463513 -0.099958921 -0.00010589198  -0.11463513  0.014676211    86308 
23885000 0.0018107702  -0.11452824  -0.11452824 -0.099974996 0.0021820777  -0.11452824  0.014553246    86308 
23886000 0.0017811098  -0.11428721  -0.11428721  -0.09997235 -0.00043357901  -0.11428721  0.014314864    86308 
23887000 0.0017593194  -0.11410493  -0.11410493 -0.099965196 -0.00011642201  -0.11410493  0.014139733    86308 
23888000 0.0017705727  -0.11421588  -0.11421588 -0.099985706 0.00010603539  -0.11421588  0.014230177    86308 
23889000  0.001784538  -0.11430068  -0.11430068 -0.099958263 -0.001625868  -0.11430068  0.014342417    86308 
23890000 0.0018189142  -0.11461323  -0.11461323 -0.099994534 3.3389646e-05  -0.11461323    0.0146187    86308 
23891000 0.0017950039  -0.11440405  -0.11440405 -0.099977514 0.00053194236  -0.11440405  0.014426532    86308 
23892000  0.001768118   -0.1141983   -0.1141983  -0.09998785 1.2805122e-05   -0.1141983  0.014210448    86308 
23893000 0.0017999189  -0.11449484  -0.11449484  -0.10002864 -0.001396973  -0.11449484  0.014466202    86307 
23894000 0.0017348283  -0.11395503  -0.11395503  -0.10001197 0.00024624102  -0.11395503  0.013943059    86307 
23895000 0.0017800534  -0.11428672  -0.11428672 -0.099980183 -0.00052135698  -0.11428672  0.014306539    86307 
23896000 0.0017583917  -0.11407369  -0.11407369 -0.099941248 0.00082953095  -0.11407369  0.014132441    86307 
23897000 0.0017974178  -0.11446068  -0.11446068  -0.10001458 0.0004070474  -0.11446068    0.0144461    86307 
23898000 0.0018004931  -0.11447937  -0.11447937  -0.10000855 0.0015644785  -0.11447937  0.014470816    86307 
23899000 0.0017584953  -0.11413392  -0.11413392  -0.10000065 -0.00010901765  -0.11413392  0.014133274    86307 
23900000 0.0017920241  -0.11440582  -0.11440582  -0.10000307 0.00049315107  -0.11440582  0.014402749    86307 
23901000 0.0017877742  -0.11437431  -0.11437431  -0.10000572 -0.0014772763  -0.11437431  0.014368593    86307 
23902000 0.0017436838  -0.11401797  -0.11401797  -0.10000374 -0.00075498739  -0.11401797  0.014014232    86307 
23903000 0.0017525716  -0.11408577  -0.11408577  -0.10000011 -0.00025298201  -0.11408577  0.014085665    86307 
23904000 0.0018497449  -0.11483812  -0.11483812 -0.099971456 -0.00079281013  -0.11483812   0.01486666    86307 
23905000 0.0018356707  -0.11472859  -0.11472859 -0.099975049 -0.0011922394  -0.11472859  0.014753543    86307 
23906000 0.0017859749  -0.11432811  -0.11432811 -0.099973978 -7.457405e-05  -0.11432811  0.014354131    86307 
23907000 0.0017514827  -0.11405162  -0.11405162  -0.09997471 2.6991807e-05  -0.11405162  0.014076913    86307 
23908000 0.0017561088  -0.11408839  -0.11408839 -0.099974294 -0.00087887486  -0.11408839  0.014114094    86307 
23909000 0.0017741169  -0.11423284  -0.11423284 -0.099974015 -0.0011390079  -0.11423284  0.014258827    86307 
23910000 0.0017707693  -0.11422217  -0.11422217 -0.099990083 5.0693449e-05  -0.11422217  0.014232087    86306 
23911000 0.0017094691  -0.11372893  -0.11372893 -0.099989526 -0.00048020134  -0.11372893  0.013739403    86306 
23912000  0.001781073  -0.11430512  -0.11430512 -0.099990222 -1.531633e-05  -0.11430512    0.0143149    86306 
23913000 0.0017793911  -0.11429189  -0.11429189 -0.099990507 0.0012353251  -0.11429189  0.014301382    86306 
23914000  0.001743943  -0.11401312  -0.11401312 -0.099996641 0.0014537198  -0.11401312  0.014016478    86306 
23915000 0.0017522008  -0.11406823  -0.11406823  -0.09998538 -0.00016940397  -0.11406823  0.014082847    86306 
23916000 0.0017834478  -0.11432331  -0.11432331 -0.099989325 0.0010272394  -0.11432331  0.014333987    86306 
23917000 0.0017996396  -0.11445134  -0.11445134 -0.099987216 -0.00064863583  -0.11445134  0.014464124    86306 
23918000 0.0017771114  -0.11428227  -0.11428227 -0.099999209 -0.00076077304  -0.11428227   0.01428306    86306 
23919000 0.0017596156  -0.11413753  -0.11413753 -0.099995091 -0.0015742736  -0.11413753  0.014142442    86306 
23920000 0.0016803314  -0.11353962  -0.11353962  -0.10003441 -0.00040837354  -0.11353962  0.013505216    86306 
23921000  0.001704736  -0.11374135  -0.11374135  -0.10003999 -0.0023447645  -0.11374135  0.013701362    86306 
23922000 0.0017600059  -0.11417017  -0.11417017  -0.10002459 -0.000237203  -0.11417017  0.014145579    86306 
23923000 0.0017657879  -0.11421644  -0.11421644  -0.10002439 0.00075353581  -0.11421644   0.01419205    86306 
23924000 0.0017675748  -0.11415084  -0.11415084 -0.099944433 0.0018668408  -0.11415084  0.014206412    86306 
23925000 0.0017032386  -0.11364951  -0.11364951 -0.099960187 0.00022215681  -0.11364951  0.013689327    86306 
23926000 0.0017862931  -0.11435183  -0.11435183 -0.099994971 9.9795196e-05  -0.11435183  0.014356855    86306 
23927000  0.001758537  -0.11412777  -0.11412777 -0.099994001 0.00026851666  -0.11412777  0.014133773    86306 
23928000 0.0017709823  -0.11424094  -0.11424094  -0.10000714 -0.0010765256  -0.11424094  0.014233799    86306 
23929000 0.0018143731  -0.11457305  -0.11457305 -0.099990513 -0.00058777906  -0.11457305  0.014582541    86306 
23930000 0.0017762099  -0.11426755  -0.11426755  -0.09999174 0.00061633698  -0.11426755  0.014275815    86306 
23931000 0.0017424395  -0.11403072  -0.11403072  -0.10002633 0.00094898085  -0.11403072  0.014004394    86306 
23932000 0.0018037953  -0.11452565  -0.11452565  -0.10002812 0.00031643327  -0.11452565  0.014497525    86306 
23933000 0.0017488694  -0.11406914  -0.11406914  -0.10001307 -0.00015302921  -0.11406914  0.014056072    86306 
23934000  0.001762325  -0.11415173  -0.11415173 -0.099987515 0.00099253748  -0.11415173  0.014164218    86306 
23935000 0.0017540908  -0.11407553  -0.11407553 -0.099977494 0.0012115639  -0.11407553  0.014098038    86306 
23936000  0.001809685  -0.11451972  -0.11451972 -0.099974861 -0.0012524663  -0.11451972  0.014544861    86306 
23937000 0.0017396696  -0.11397627  -0.11397627 -0.099993973 0.00057943163  -0.11397627  0.013982293    86305 
23938000 0.0017866001  -0.11436099  -0.11436099   -0.1000015 -0.00056242741  -0.11436099  0.014359489    86305 
23939000  0.001698988  -0.11368899  -0.11368899  -0.10003367 -0.0011937003  -0.11368899  0.013655322    86305 
23940000 0.0017372421  -0.11400848  -0.11400848  -0.10004569 -0.00078862799  -0.11400848  0.013962783    86305 
23941000 0.0017218523  -0.11388361  -0.11388361  -0.10004452 0.00050976463  -0.11388361   0.01383909    86305 
23942000 0.0017765781  -0.11434309  -0.11434309  -0.10006415 0.00088793528  -0.11434309  0.014278939    86305 
23943000 0.0017440506  -0.11410155  -0.11410155  -0.10008405 -0.00030984773  -0.11410155  0.014017505    86305 
23944000 0.0017815183  -0.11444546  -0.11444546  -0.10012682 -0.00039711777  -0.11444546  0.014318645    86305 
23945000 0.0017590011  -0.11422321  -0.11422321  -0.10008555 -6.7820119e-05  -0.11422321  0.014137667    86305 
23946000 0.0017217305  -0.11387057  -0.11387057  -0.10003246 -0.0004129573  -0.11387057  0.013838111    86305 
23947000 0.0018094682  -0.11459198  -0.11459198  -0.10004869 -5.7141723e-05  -0.11459198  0.014543287    86305 
23948000 0.0017740874   -0.1143267   -0.1143267  -0.10006778  0.001124529   -0.1143267  0.014258921    86305 
23949000 0.0017433005  -0.11402931  -0.11402931  -0.10001783 0.00040922533  -0.11402931  0.014011476    86305 
23950000 0.0017740685  -0.11430345  -0.11430345  -0.10004468 0.0018295863  -0.11430345  0.014258768    86305 
23951000 0.0017413396  -0.11401862  -0.11401862  -0.10002291 0.0012904283  -0.11401862  0.013995716    86305 
23952000 0.0017775353  -0.11431981  -0.11431981  -0.10003318 0.0012133406  -0.11431981  0.014286632    86305 
23953000 0.0017855616  -0.11431933  -0.11431933 -0.099968022 0.00076852829  -0.11431933  0.014351309    86304 
23954000 0.0017828449  -0.11430139  -0.11430139 -0.099971918 -0.00015701751  -0.11430139  0.014329473    86304 
23955000 0.0017042585   -0.1136559   -0.1136559 -0.099958058 -0.00046867016   -0.1136559  0.013697841    86304 
23956000 0.0018245944  -0.11463443  -0.11463443 -0.099969402 -0.0014479857  -0.11463443  0.014665032    86304 
23957000 0.0017621284  -0.11412672  -0.11412672 -0.099963752 -0.00010568334  -0.11412672  0.014162966    86304 
23958000 0.0017911535  -0.11438347  -0.11438347 -0.099987212 -0.00054476962  -0.11438347  0.014396253    86304 
23959000 0.0017681508  -0.11421147  -0.11421147 -0.099999937 -7.4627921e-06  -0.11421147  0.014211535    86303 
23960000 0.0017633997  -0.11418494  -0.11418494  -0.10001159 0.00011110996  -0.11418494  0.014173348    86303 
23961000 0.0017154997  -0.11375494  -0.11375494  -0.09996659 0.0011249952  -0.11375494  0.013788351    86303 
23962000 0.0017447819  -0.11403348  -0.11403348  -0.10000977 -0.00071883418  -0.11403348  0.014023708    86303 
23963000 0.0017732074  -0.11425968  -0.11425968   -0.1000075 0.0005610014  -0.11425968  0.014252178    86303 
23964000 0.0018245661   -0.1146552   -0.1146552 -0.099990225 0.00042060891   -0.1146552  0.014664974    86303 
23965000 0.0017027022  -0.11367374  -0.11367374 -0.099988248 -0.00014246561  -0.11367374  0.013685491    86303 
23966000 0.0017898117  -0.11438153  -0.11438153 -0.099995899 -0.00076323651  -0.11438153  0.014385635    86303 
23967000 0.0017662068  -0.11418585  -0.11418585 -0.099989939 -0.00062572286  -0.11418585   0.01419591    86303 
23968000  0.001764185  -0.11418606  -0.11418606   -0.1000064 0.00083510004  -0.11418606  0.014179661    86303 
23969000 0.0017500047  -0.11404336  -0.11404336 -0.099977671 -0.00026289241  -0.11404336  0.014065685    86303 
23970000 0.0018110706  -0.11456324  -0.11456324  -0.10000673 -0.00063849064  -0.11456324  0.014556504    86303 
23971000 0.0017626692   -0.1141763   -0.1141763  -0.10000883 -0.00084515672   -0.1141763  0.014167477    86303 
23972000 0.0017572541  -0.11412854  -0.11412854  -0.10000459 0.00055207803  -0.11412854  0.014123953    86303 
23973000 0.0017469147  -0.11404332  -0.11404332  -0.10000247 -0.0008005928  -0.11404332   0.01404085    86303 
23974000 0.0017728561  -0.11425481  -0.11425481  -0.10000546 -0.00097013889  -0.11425481  0.014249354    86303 
23975000 0.0017763281  -0.11426515  -0.11426515 -0.099987895 0.00075881156  -0.11426515   0.01427726    86303 
23976000  0.001793514  -0.11444097  -0.11444097  -0.10002557 -0.00013552167  -0.11444097  0.014415393    86303 
23977000 0.0017833825  -0.11438518  -0.11438518  -0.10005122 0.00043822062  -0.11438518  0.014333961    86303 
23978000  0.001736098  -0.11399806  -0.11399806  -0.10004415 -0.0010603397  -0.11399806   0.01395391    86303 
23979000 0.0017649397  -0.11422249  -0.11422249  -0.10003677 -0.00050400998  -0.11422249  0.014185726    86303 
23980000  0.001756099  -0.11413088  -0.11413088  -0.10001621 -0.0013624475  -0.11413088  0.014114669    86303 
23981000  0.001698691  -0.11369281  -0.11369281  -0.10003956 -0.00080041718  -0.11369281  0.013653251    86303 
23982000 0.0017562539  -0.11413184  -0.11413184  -0.10001593 0.0017546411  -0.11413184  0.014115914    86303 
23983000 0.0017688158  -0.11424154  -0.11424154  -0.10002466 0.00054403075  -0.11424154   0.01421688    86303 
23984000 0.0016841606  -0.11358317  -0.11358317  -0.10004655 0.00028529002  -0.11358317   0.01353662    86302 
23985000 0.0017163803  -0.11384898  -0.11384898  -0.10005339 0.00075490683  -0.11384898  0.013795589    86302 
23986000 0.0017763906  -0.11430411  -0.11430411  -0.10002618 -0.00014550677  -0.11430411  0.014277929    86302 
23987000  0.001663983  -0.11341972  -0.11341972  -0.10004528 0.00026806981  -0.11341972   0.01337444    86302 
23988000 0.0016915934  -0.11363193  -0.11363193  -0.10003557 -0.00016084841  -0.11363193  0.013596362    86302 
23989000 0.0017215065  -0.11391148  -0.11391148  -0.10007469 -0.00034921169  -0.11391148  0.013836792    86302 
23990000 0.0017235026  -0.11392552  -0.11392552  -0.10007269 0.00093409715  -0.11392552  0.013852835    86302 
23991000  0.001697509  -0.11367124  -0.11367124  -0.10002733 -0.00093673638  -0.11367124  0.013643909    86302 
23992000 0.0017584807  -0.11411812  -0.11411812 -0.099984141 0.00057863134  -0.11411812  0.014133976    86302 
23993000 0.0018159637  -0.11455627  -0.11455627 -0.099960267 -0.00028014841  -0.11455627  0.014596001    86302 
23994000 0.0016879836  -0.11356612  -0.11356612 -0.099998777 0.00038333587  -0.11356612  0.013567348    86302 
23995000 0.0016744796  -0.11347833  -0.11347833  -0.10001952 0.00016190592  -0.11347833  0.013458808    86302 
23996000 0.0017619433  -0.11419333  -0.11419333  -0.10003153 -3.5692465e-05  -0.11419333  0.014161807    86302 
23997000 0.0018343511  -0.11476357  -0.11476357  -0.10001977 -0.00043611859  -0.11476357  0.014743792    86302 
23998000 0.0017242506  -0.11387399  -0.11387399  -0.10001514 -0.00056281816  -0.11387399  0.013858847    86302 
23999000 0.0017627187  -0.11420428  -0.11420428  -0.10003625 3.6597762e-05  -0.11420428  0.014168039    86302 
24000000 0.0017089151  -0.11377236  -0.11377236  -0.10003677 0.0014763641  -0.11377236  0.013735587    86302 
Loop time of 31209.3 on 288 procs for 20000000 steps with 86302 atoms

Performance: 276840.455 tau/day, 640.834 timesteps/s
95.9% CPU use with 288 MPI tasks x 1 OpenMP threads

MPI task timing breakdown:
Section |  min time  |  avg time  |  max time  |%varavg|  %CPU | %total
-----------------------------------------------------------------------
Pair    | 1572.5     | 3924.9     | 4961.5     |1140.0 |  97.1 | 12.58
Bond    | 12.773     | 13.511     | 14.132     |   6.7 | 100.0 |  0.04
Neigh   | 1639.5     | 4027.9     | 5654.5     |1272.2 |  98.9 | 12.91
Comm    | 9829.6     | 13184      | 16789      |1062.2 |  95.4 | 42.24
Output  | 1011.9     | 1015.8     | 1025.5     |  11.7 |  93.7 |  3.25
Modify  | 6525.6     | 8603.2     | 11980      |1216.4 |  95.5 | 27.57
Other   |            | 440        |            |       |       |  1.41

Nlocal:        299.660 ave        1581 max           0 min
Histogram: 140 45 35 19 14 12 9 7 5 2
Nghost:        2521.00 ave        7540 max           0 min
Histogram: 35 59 62 44 24 23 13 9 11 8
Neighs:        203.333 ave        3835 max           0 min
Histogram: 243 15 12 7 5 4 1 0 0 1

Total # of neighbors = 58560
Ave neighs/atom = 0.67854743
Ave special neighs/atom = 0.0000000
Neighbor list builds = 2211153
Dangerous builds = 1408270

Total wall time: 8:40:14
