LAMMPS (24 Dec 2020)
OMP_NUM_THREADS environment is not set. Defaulting to 1 thread. (src/comm.cpp:94)
  using 1 OpenMP thread(s) per MPI task
#Read the equilibrated lj fluid and add nanocubes

units           lj
atom_style      full
atom_modify     map array first cubes
dimension       3
boundary        p p f
pair_style      lj/cut/opt 2.0

variable        sigma           equal 1.0
variable        epsilon         equal 1.0
read_restart	restart.dat.5000000
Reading restart file ...
  restart file = 24 Dec 2020, LAMMPS = 24 Dec 2020
WARNING: Restart file used different # of processors: 192 vs. 288 (src/read_restart.cpp:697)
  restoring atom style full from restart
  orthogonal box = (0.0000000 0.0000000 0.0000000) to (80.000000 80.000000 160.00000)
  6 by 4 by 12 MPI processor grid
  restoring pair style lj/smooth/linear from restart
  439061 atoms
Finding 1-2 1-3 1-4 neighbors ...
  special bond factors lj:    0        0        0       
  special bond factors coul:  0        0        0       
     0 = max # of 1-2 neighbors
     0 = max # of 1-3 neighbors
     0 = max # of 1-4 neighbors
     1 = max # of special neighbors
  special bonds CPU = 2.485 seconds
  read_restart CPU = 2.908 seconds

group		solvent type 1
439061 atoms in group solvent

read_data	data_96.cubes group cubes add append
Reading data file ...
  orthogonal box = (0.0000000 0.0000000 0.0000000) to (80.000000 80.000000 160.00000)
  6 by 4 by 12 MPI processor grid
WARNING: Pair style in data file differs from currently defined pair style (src/read_data.cpp:588)
  reading atoms ...
  109728 atoms
  reading velocities ...
  109728 velocities
Finding 1-2 1-3 1-4 neighbors ...
  special bond factors lj:    0        0        0       
  special bond factors coul:  0        0        0       
     0 = max # of 1-2 neighbors
     0 = max # of 1-3 neighbors
     0 = max # of 1-4 neighbors
     1 = max # of special neighbors
  special bonds CPU = 0.055 seconds
  read_data CPU = 0.316 seconds

group 		hull  type 2
42816 atoms in group hull
group 		dummy type 3
66912 atoms in group dummy

neighbor      0.4 bin
neigh_modify  exclude molecule/intra cubes


pair_modify   shift yes

pair_coeff    1 1 1.0 1.0 #solvent
pair_coeff    2 2 1.0 1.0 1.12 #np
pair_coeff    3 3 0.0 0.0 0.0 #dummy
pair_coeff    2 3 0.0 0.0 0.0 #np dummy
pair_coeff    1 2 ${eps} ${sig} ${nscut} #np solvent
pair_coeff    1 2 2.0 ${sig} ${nscut} 
pair_coeff    1 2 2.0 1.0 ${nscut} 
pair_coeff    1 2 2.0 1.0 4.0 
pair_coeff    1 3 0.0 0.0 2.5 #dummy solvent

# delete solvent where the cubes are
delete_atoms  overlap 2.0 solvent cubes
System init for delete_atoms ...
Neighbor list info ...
  update every 1 steps, delay 10 steps, check yes
  max neighbors/atom: 2000, page size: 100000
  master list distance cutoff = 4.4
  ghost atom cutoff = 4.4
  binsize = 2.2, bins = 37 37 73
  2 neighbor lists, perpetual/occasional/extra = 1 1 0
  (1) command delete_atoms, occasional
      attributes: full, newton on
      pair build: full/bin
      stencil: full/bin/3d
      bin: standard
  (2) pair lj/smooth/linear, perpetual
      attributes: half, newton on
      pair build: half/bin/newton
      stencil: half/bin/3d/newton
      bin: standard
WARNING: Delete_atoms cutoff > minimum neighbor cutoff (src/delete_atoms.cpp:307)
WARNING: Ignoring 'compress yes' for molecular system (src/delete_atoms.cpp:125)
Deleted 127776 atoms, new total = 421013



pair_coeff    1 1 1.0 1.0 #solvent
pair_coeff    2 2 1.0 1.0 1.12 #np
pair_coeff    3 3 0.0 0.0 0.0 #dummy
pair_coeff    2 3 0.0 0.0 0.0 #np dummy
pair_coeff    1 2 ${eps} ${sig} ${nscut} #np solvent
pair_coeff    1 2 2.0 ${sig} ${nscut} 
pair_coeff    1 2 2.0 1.0 ${nscut} 
pair_coeff    1 2 2.0 1.0 4.0 
pair_coeff    1 3 0.0 0.0 0.0 #dummy solvent


comm_modify   mode multi cutoff/multi 1 2.0 cutoff/multi 2 2.0 cutoff/multi 3 6.95

reset_timestep 	0

balance 	1.05 shift z 10 1.05
Balancing ...
Neighbor list info ...
  update every 1 steps, delay 10 steps, check yes
  max neighbors/atom: 2000, page size: 100000
  master list distance cutoff = 4.4
  ghost atom cutoff = 6.95
  binsize = 2.2, bins = 37 37 73
  1 neighbor lists, perpetual/occasional/extra = 1 0 0
  (1) pair lj/smooth/linear, perpetual
      attributes: half, newton on
      pair build: half/bin/newton
      stencil: half/bin/3d/newton
      bin: standard
 rebalancing time: 0.007 seconds
  iteration count = 4
  initial/final maximal load/proc = 2236.0000 2123.0000
  initial/final imbalance factor  = 1.5295680 1.4522687
  x cuts: 0.0000000 0.16666667 0.33333333 0.50000000 0.66666667 0.83333333 1.0000000
  y cuts: 0.0000000 0.25000000 0.50000000 0.75000000 1.0000000
  z cuts: 0.0000000 0.057291667 0.11979167 0.17187500 0.23958333 0.30208333 0.34375000 0.41145833 0.46354167 0.51562500 0.59895833 0.64583333 1.0000000

####################### WALLS ###########################

variable       epsilonWall equal 2*${epsilon}
variable       epsilonWall equal 2*1
variable       repulsive   equal   0.7147*${sigma}
variable       repulsive   equal   0.7147*1
variable       full	   equal   3*${sigma}
variable       full	   equal   3*1
region         lowWall block EDGE EDGE EDGE EDGE EDGE 2

fix            topWall all wall/lj93 zhi EDGE 	       ${epsilonWall} ${sigma} ${repulsive} units box
fix            topWall all wall/lj93 zhi EDGE 	       2 ${sigma} ${repulsive} units box
fix            topWall all wall/lj93 zhi EDGE 	       2 1 ${repulsive} units box
fix            topWall all wall/lj93 zhi EDGE 	       2 1 0.7147 units box
fix            lowSol solvent wall/lj93 zlo EDGE                ${epsilonWall} ${sigma} ${full} units box
fix            lowSol solvent wall/lj93 zlo EDGE                2 ${sigma} ${full} units box
fix            lowSol solvent wall/lj93 zlo EDGE                2 1 ${full} units box
fix            lowSol solvent wall/lj93 zlo EDGE                2 1 3 units box
fix 	       lowCub cubes wall/lj93 zlo EDGE                ${epsilonWall} ${sigma} ${repulsive} units box
fix 	       lowCub cubes wall/lj93 zlo EDGE                2 ${sigma} ${repulsive} units box
fix 	       lowCub cubes wall/lj93 zlo EDGE                2 1 ${repulsive} units box
fix 	       lowCub cubes wall/lj93 zlo EDGE                2 1 0.7147 units box


###################### COMPUTES ##########################

compute        bin1 solvent chunk/atom bin/1d z lower 1.0 units box


######################  FIXES ############################


fix             peclet solvent ave/chunk 10 10 10000 bin1 density/number norm                  none ave one file density.profile

fix              temp solvent ave/chunk 10 10 10000 bin1 temp norm                  none ave one file temp.profile

fix             1 cubes rigid/nve/small molecule
  create bodies CPU = 0.038 seconds
  96 rigid bodies with 109728 atoms
  6.9282032 = max distance from body owner to body atom

fix             2 solvent nve# temp ${temp} ${temp} 10


## Thermostat
region          regthermo block EDGE EDGE EDGE EDGE 0 15
group           thermo dynamic solvent region regthermo every 1000
dynamic group thermo defined
fix             3 thermo langevin ${temp} ${temp} 10 156453
fix             3 thermo langevin 0.6 ${temp} 10 156453
fix             3 thermo langevin 0.6 0.6 10 156453


#### Load balancing

fix             bal all balance 1000 1.05 shift z 10 1.05

############### Diagnostics and computes ###################

compute        	com cubes          rigid/local   1 mol x y z
compute        	quat cubes         rigid/local   1 mol quatw quati quatj quatk

compute 	cc2 cubes 	   chunk/atom 	 molecule
compute 	msd cubes 	   msd/chunk 	 cc2

fix 		msd all ave/time  1 1 10000 c_msd[*] file dump.msd ave one mode vector

dump            1 all custom 500000 dump.lammpstrj id mol type x y z
dump		cubetrj hull custom 500000 cubes.lammpstrj id mol type x y z
dump            com cubes local 10000 dump.*.xyz c_com[*]
dump	        xyz hull xyz 100000 cubes.xyz
dump            quat cubes      local 10000 dump.*.quat c_quat[*]
#dump		mol cubes molfile 10000 mol.xyz xyz


dump            2 all image 10000 image.*.png type type zoom 1.5 size 1280 720
dump_modify     2 pad 8
dump		image cubes image 10000 image_cubes.*.png type type zoom 1.5 size 1280 720
dump_modify	image pad 8
dump            3 all movie 5000 movie.avi type type zoom 1.5 size 1280 720
dump		4 cubes movie 5000 movie_cubes.avi type type size 1280 720


thermo          1000
thermo_style    custom step temp epair evdwl etotal press pe ke atoms

restart         1000000 restart.dat
timestep        0.005
timer           full
New timer settings: style=full  mode=nosync  timeout=off

run 		5000000
Per MPI rank memory allocation (min/avg/max) = 14.08 | 20.23 | 22.96 Mbytes
Step Temp E_pair E_vdwl TotEng Press PotEng KinEng Atoms 
       0   0.61274527   -1.6171571   -1.6171571  -0.93717053 -0.0035717805   -1.6171571   0.67998653   421013 
    1000   0.78952806   -1.8213246   -1.8213246  -0.94515556  0.096425097   -1.8213246   0.87616906   421013 
    2000   0.85817256   -1.9145413   -1.9145413  -0.96219488   0.14994266   -1.9145413   0.95234645   421013 
    3000   0.88470011   -1.9626094   -1.9626094  -0.98082428   0.18011443   -1.9626094   0.98178507   421013 
    4000   0.88987272   -1.9877486   -1.9877486   -1.0002233   0.19626385   -1.9877486   0.98752531   421013 
    5000   0.88920812   -2.0053795   -2.0053795   -1.0185917   0.18842181   -2.0053795   0.98678777   421013 
    6000   0.88470932   -2.0185281   -2.0185281   -1.0367328   0.18319637   -2.0185281   0.98179529   421013 
    7000   0.87440368   -2.0257371   -2.0257371   -1.0553784   0.16650954   -2.0257371   0.97035873   421013 
    8000   0.87037543   -2.0380465   -2.0380465    -1.072158   0.17605389   -2.0380465   0.96588843   421013 
    9000   0.86238703   -2.0460551   -2.0460551   -1.0890317   0.18028184   -2.0460551    0.9570234   421013 
   10000   0.85527827   -2.0518711   -2.0518711   -1.1027365   0.18316485   -2.0518711   0.94913454   421013 
   11000     0.849958   -2.0572732   -2.0572732   -1.1140427   0.15613917   -2.0572732   0.94323044   421013 
   12000   0.84357472   -2.0589324   -2.0589324   -1.1227858   0.15535622   -2.0589324   0.93614668   421013 
   13000   0.83792259   -2.0599552   -2.0599552   -1.1300809   0.14490559   -2.0599552   0.92987429   421013 
   14000   0.83450498   -2.0623265   -2.0623265   -1.1362449   0.13381925   -2.0623265   0.92608164   421013 
   15000   0.83260304   -2.0656291   -2.0656291   -1.1416581   0.14846973   -2.0656291   0.92397099   421013 
   16000   0.83191675   -2.0690462   -2.0690462   -1.1458368   0.13106431   -2.0690462   0.92320938   421013 
   17000   0.83144976   -2.0723364   -2.0723364   -1.1496453   0.13567816   -2.0723364   0.92269115   421013 
   18000   0.82944376   -2.0738639   -2.0738639   -1.1533989   0.13587546   -2.0738639   0.92046502   421013 
   19000   0.82750458   -2.0739007   -2.0739007   -1.1555877    0.1370396   -2.0739007   0.91831303   421013 
   20000   0.82755199    -2.076757    -2.076757   -1.1583913   0.13759414    -2.076757   0.91836564   421013 
   21000   0.82845255   -2.0796775   -2.0796775   -1.1603124   0.13656119   -2.0796775   0.91936503   421013 
   22000   0.82688917   -2.0804671   -2.0804671    -1.162837   0.14127833   -2.0804671   0.91763009   421013 
   23000   0.82801472   -2.0838382   -2.0838382    -1.164959   0.13422137   -2.0838382   0.91887916   421013 
   24000   0.82843955   -2.0851893   -2.0851893   -1.1658387   0.15161244   -2.0851893    0.9193506   421013 
   25000    0.8279149   -2.0877004   -2.0877004    -1.168932   0.13837597   -2.0877004   0.91876838   421013 
   26000   0.82538508   -2.0862464   -2.0862464   -1.1702855   0.13257202   -2.0862464   0.91596094   421013 
   27000   0.82541224    -2.087583    -2.087583   -1.1715919   0.13666954    -2.087583   0.91599108   421013 
   28000   0.82395401   -2.0875936   -2.0875936   -1.1732208   0.14651025   -2.0875936   0.91437283   421013 
   29000   0.82371293   -2.0880889   -2.0880889   -1.1739836   0.13242811   -2.0880889   0.91410529   421013 
   30000   0.82265316   -2.0881279   -2.0881279   -1.1751987   0.13284547   -2.0881279   0.91292923   421013 
   31000   0.82400011   -2.0905012   -2.0905012   -1.1760772   0.14986786   -2.0905012   0.91442399   421013 
   32000   0.82173117    -2.089198    -2.089198   -1.1772919   0.12996884    -2.089198   0.91190607   421013 
   33000   0.82063189   -2.0892761   -2.0892761     -1.17859    0.1308811   -2.0892761   0.91068615   421013 
   34000   0.81838818   -2.0873948   -2.0873948   -1.1791985   0.13186066   -2.0873948   0.90819623   421013 
   35000    0.8169175   -2.0874881   -2.0874881    -1.180924   0.14444343   -2.0874881   0.90656415   421013 
   36000   0.81741952   -2.0897623   -2.0897623    -1.182641   0.14796212   -2.0897623   0.90712126   421013 
   37000   0.81637376    -2.089977    -2.089977   -1.1840162   0.13099132    -2.089977   0.90596074   421013 
   38000   0.81349787   -2.0886748   -2.0886748   -1.1859056   0.13221082   -2.0886748   0.90276926   421013 
   39000   0.81442211   -2.0919303   -2.0919303   -1.1881354    0.1197121   -2.0919303   0.90379492   421013 
   40000   0.81170712   -2.0914534   -2.0914534   -1.1906714   0.13249234   -2.0914534     0.900782   421013 
   41000   0.81215801   -2.0948649   -2.0948649   -1.1935825   0.13465662   -2.0948649   0.90128236   421013 
   42000   0.81189702    -2.097694    -2.097694   -1.1967013   0.13355072    -2.097694   0.90099274   421013 
   43000   0.81115154     -2.10029     -2.10029   -1.2001245   0.13197649     -2.10029   0.90016545   421013 
   44000   0.80950373   -2.1026324   -2.1026324   -1.2042956   0.13895085   -2.1026324   0.89833681   421013 
   45000   0.80841148   -2.1052195   -2.1052195   -1.2080948   0.14784536   -2.1052195   0.89712469   421013 
   46000   0.80806241   -2.1090071   -2.1090071   -1.2122698   0.13629347   -2.1090071   0.89673732   421013 
   47000   0.80710916   -2.1114695   -2.1114695     -1.21579   0.14798543   -2.1114695   0.89567947   421013 
   48000   0.80584441   -2.1139278   -2.1139278   -1.2196519    0.1468838   -2.1139278   0.89427592   421013 
   49000   0.80707271    -2.118094    -2.118094    -1.222455   0.14292261    -2.118094   0.89563902   421013 
   50000   0.80605347    -2.121066    -2.121066   -1.2265581   0.15260939    -2.121066   0.89450793   421013 
   51000   0.80544764   -2.1244892   -2.1244892   -1.2306535   0.15591074   -2.1244892   0.89383561   421013 
   52000   0.80387622   -2.1267049   -2.1267049   -1.2346131   0.14780991   -2.1267049   0.89209175   421013 
   53000   0.80087026   -2.1272991   -2.1272991   -1.2385432   0.14961114   -2.1272991   0.88875592   421013 
   54000   0.80099185   -2.1304392   -2.1304392   -1.2415483   0.14491368   -2.1304392   0.88889086   421013 
   55000   0.79975215   -2.1307623   -2.1307623   -1.2432472   0.13618615   -2.1307623   0.88751511   421013 
   56000   0.79941379   -2.1347132   -2.1347132   -1.2475736   0.13981089   -2.1347132   0.88713962   421013 
   57000   0.79757711   -2.1357753   -2.1357753   -1.2506739   0.15856294   -2.1357753   0.88510139   421013 
   58000    0.7975508   -2.1383471   -2.1383471   -1.2532749   0.14831393   -2.1383471    0.8850722   421013 
   59000   0.79638538   -2.1398326   -2.1398326   -1.2560537   0.13024389   -2.1398326   0.88377888   421013 
   60000   0.79308168   -2.1384782   -2.1384782   -1.2583655   0.14468275   -2.1384782   0.88011265   421013 
   61000   0.79314702   -2.1412167   -2.1412167   -1.2610316   0.13523981   -2.1412167   0.88018515   421013 
   62000   0.79327656   -2.1444677   -2.1444677   -1.2641388   0.14220369   -2.1444677    0.8803289   421013 
   63000   0.79091739   -2.1435575   -2.1435575   -1.2658466   0.13544172   -2.1435575   0.87771085   421013 
   64000   0.78823649   -2.1426905   -2.1426905   -1.2679548   0.13721154   -2.1426905   0.87473576   421013 
   65000   0.78935347    -2.145418    -2.145418   -1.2694427   0.13689968    -2.145418    0.8759753   421013 
   66000    0.7904632   -2.1486786   -2.1486786   -1.2714718   0.12923602   -2.1486786   0.87720682   421013 
   67000   0.78690834    -2.146133    -2.146133   -1.2728712    0.1249735    -2.146133   0.87326186   421013 
   68000   0.78479169   -2.1453659   -2.1453659    -1.274453   0.12598794   -2.1453659   0.87091293   421013 
   69000   0.78347824   -2.1456392   -2.1456392   -1.2761839   0.12845223   -2.1456392   0.86945534   421013 
   70000   0.78265235   -2.1458376   -2.1458376   -1.2772988   0.12610483   -2.1458376   0.86853882   421013 
   71000   0.78202817   -2.1469842   -2.1469842   -1.2791381   0.11763637   -2.1469842   0.86784615   421013 
   72000   0.78184091   -2.1479816   -2.1479816   -1.2803433   0.12856866   -2.1479816   0.86763834   421013 
   73000   0.78035016   -2.1483971   -2.1483971   -1.2824131   0.12429153   -2.1483971   0.86598399   421013 
   74000   0.77980048   -2.1492611   -2.1492611   -1.2838871    0.1292167   -2.1492611     0.865374   421013 
   75000   0.78000635   -2.1518421   -2.1518421   -1.2862396   0.12604733   -2.1518421   0.86560246   421013 
   76000   0.77944781   -2.1528135   -2.1528135   -1.2878309   0.12898829   -2.1528135   0.86498262   421013 
   77000   0.77813781   -2.1532792   -2.1532792   -1.2897503    0.1283126   -2.1532792   0.86352887   421013 
   78000   0.77791493   -2.1541267   -2.1541267   -1.2908451   0.11549834   -2.1541267   0.86328153   421013 
   79000   0.77826583   -2.1555438   -2.1555438   -1.2918729   0.12196173   -2.1555438   0.86367094   421013 
   80000   0.77753741   -2.1551013   -2.1551013   -1.2922388   0.11803796   -2.1551013   0.86286258   421013 
   81000   0.77782068   -2.1568743   -2.1568743   -1.2936973   0.11937657   -2.1568743   0.86317694   421013 
   82000   0.77664873   -2.1562417   -2.1562417   -1.2943654   0.11990932   -2.1562417   0.86187638   421013 
   83000   0.77521496   -2.1555665   -2.1555665   -1.2952812   0.12180634   -2.1555665   0.86028527   421013 
   84000   0.77626671   -2.1575502   -2.1575502   -1.2960978   0.11304136   -2.1575502   0.86145243   421013 
   85000   0.77667362   -2.1593605   -2.1593605   -1.2974565   0.12033875   -2.1593605     0.861904   421013 
   86000   0.77466297   -2.1580756   -2.1580756   -1.2984029   0.11971331   -2.1580756    0.8596727   421013 
   87000    0.7750936   -2.1609661   -2.1609661   -1.3008155   0.12105005   -2.1609661   0.86015059   421013 
   88000   0.77541308   -2.1625654   -2.1625654   -1.3020603   0.11821668   -2.1625654   0.86050513   421013 
   89000    0.7745803   -2.1629556   -2.1629556   -1.3033747   0.12847901   -2.1629556   0.85958096   421013 
   90000   0.77346109   -2.1627639   -2.1627639   -1.3044249    0.1082725   -2.1627639   0.85833893   421013 
   91000    0.7747036    -2.164167    -2.164167   -1.3044492   0.11679443    -2.164167    0.8597178   421013 
   92000   0.77431396   -2.1649244   -2.1649244    -1.305639   0.11814158   -2.1649244    0.8592854   421013 
   93000    0.7742983   -2.1663031   -2.1663031   -1.3070351   0.11965488   -2.1663031   0.85926802   421013 
   94000   0.77160071   -2.1654555   -2.1654555   -1.3091811   0.13100316   -2.1654555    0.8562744   421013 
   95000   0.77275077   -2.1680658   -2.1680658   -1.3105151   0.12933615   -2.1680658   0.85755067   421013 
   96000   0.77320432   -2.1706496   -2.1706496   -1.3125956   0.11832255   -2.1706496   0.85805398   421013 
   97000   0.77261229   -2.1715685   -2.1715685   -1.3141715    0.1127062   -2.1715685   0.85739699   421013 
   98000   0.77319126   -2.1734654   -2.1734654   -1.3154259   0.11355346   -2.1734654   0.85803949   421013 
   99000   0.77083277   -2.1725071   -2.1725071   -1.3170849   0.11785716   -2.1725071   0.85542219   421013 
  100000   0.77073128   -2.1732029   -2.1732029   -1.3178933   0.13047312   -2.1732029   0.85530956   421013 
  101000   0.77180553   -2.1760974   -2.1760974   -1.3195957   0.10744078   -2.1760974    0.8565017   421013 
  102000   0.77054243   -2.1759724   -2.1759724   -1.3208724   0.12439359   -2.1759724   0.85509998   421013 
  103000    0.7714622    -2.178948    -2.178948   -1.3228274   0.11444633    -2.178948   0.85612069   421013 
  104000   0.77057262   -2.1784386   -2.1784386   -1.3233051   0.12788626   -2.1784386   0.85513349   421013 
  105000    0.7715156   -2.1804314   -2.1804314   -1.3242514   0.12380547   -2.1804314   0.85617995   421013 
  106000   0.77080768   -2.1812028   -2.1812028   -1.3258085   0.12482447   -2.1812028   0.85539434   421013 
  107000   0.77150913   -2.1843749   -2.1843749   -1.3282022   0.11901885   -2.1843749   0.85617277   421013 
  108000   0.76959892   -2.1838733   -2.1838733   -1.3298204   0.12642522   -2.1838733   0.85405294   421013 
  109000    0.7674708   -2.1839478   -2.1839478   -1.3322565   0.12645954   -2.1839478   0.85169129   421013 
  110000   0.76895821   -2.1855764   -2.1855764   -1.3322344   0.11952612   -2.1855764   0.85334192   421013 
  111000   0.76793209   -2.1866582   -2.1866582    -1.334455   0.12980322   -2.1866582   0.85220319   421013 
  112000   0.76602791   -2.1866817   -2.1866817   -1.3365917   0.11865841   -2.1866817   0.85009006   421013 
  113000   0.76548605   -2.1876595   -2.1876595   -1.3381708   0.12318776   -2.1876595   0.84948873   421013 
  114000   0.76622459   -2.1906208   -2.1906208   -1.3403124   0.13125023   -2.1906208   0.85030831   421013 
  115000   0.76511297   -2.1911261   -2.1911261   -1.3420514   0.11349956   -2.1911261   0.84907471   421013 
  116000   0.76501654   -2.1925169   -2.1925169   -1.3435492   0.11985843   -2.1925169   0.84896769   421013 
  117000   0.76330596   -2.1926458   -2.1926458   -1.3455764   0.11060432   -2.1926458    0.8470694   421013 
  118000   0.76369421   -2.1942658   -2.1942658   -1.3467655   0.10268104   -2.1942658   0.84750026   421013 
  119000   0.76453963   -2.1971376   -2.1971376   -1.3486992   0.12645118   -2.1971376   0.84843845   421013 
  120000   0.76223179   -2.1955162   -2.1955162   -1.3496389   0.11971521   -2.1955162   0.84587736   421013 
  121000    0.7617931   -2.1970063   -2.1970063   -1.3516157   0.11551406   -2.1970063   0.84539053   421013 
  122000   0.76264893   -2.1983941   -2.1983941   -1.3520538   0.12335435   -2.1983941   0.84634027   421013 
  123000   0.75995908   -2.1969035   -2.1969035   -1.3535482   0.11306831   -2.1969035   0.84335524   421013 
  124000   0.75931526   -2.1971994   -2.1971994   -1.3545586   0.11029406   -2.1971994   0.84264077   421013 
  125000    0.7573352   -2.1957761   -2.1957761   -1.3553327   0.11948271   -2.1957761   0.84044343   421013 
  126000   0.75902369   -2.1991881   -2.1991881   -1.3568709   0.11253821   -2.1991881   0.84231721   421013 
  127000   0.75758233   -2.1988097   -2.1988097    -1.358092   0.11268548   -2.1988097   0.84071767   421013 
  128000   0.75702656   -2.1995606   -2.1995606   -1.3594597   0.11380377   -2.1995606   0.84010092   421013 
  129000   0.75824333   -2.2012742   -2.2012742    -1.359823   0.12532304   -2.2012742   0.84145121   421013 
  130000   0.75683229   -2.2007574   -2.2007574   -1.3608721   0.11280127   -2.2007574   0.83988532   421013 
  131000   0.75650577   -2.2009295   -2.2009295   -1.3614066   0.11918085   -2.2009295   0.83952297   421013 
  132000   0.75603628   -2.2023148   -2.2023148   -1.3633128   0.12165883   -2.2023148   0.83900197   421013 
  133000    0.7548889   -2.2020647   -2.2020647    -1.364336   0.12306835   -2.2020647   0.83772867   421013 
  134000   0.75549884   -2.2041575   -2.2041575    -1.365752    0.1137082   -2.2041575   0.83840555   421013 
  135000   0.75672848   -2.2063912   -2.2063912   -1.3666211   0.11337407   -2.2063912   0.83977012   421013 
  136000   0.75505969   -2.2056847   -2.2056847   -1.3677665   0.11005014   -2.2056847   0.83791821   421013 
  137000   0.75529463   -2.2069072   -2.2069072   -1.3687282   0.11263081   -2.2069072   0.83817893   421013 
  138000   0.75436151   -2.2071255   -2.2071255   -1.3699821   0.10899705   -2.2071255   0.83714341   421013 
  139000   0.75484556    -2.208545    -2.208545   -1.3708645   0.11225471    -2.208545   0.83768058   421013 
  140000   0.75522459   -2.2103233   -2.2103233   -1.3722221   0.11767074   -2.2103233   0.83810121   421013 
  141000   0.75441642   -2.2099598   -2.2099598   -1.3727555   0.11159911   -2.2099598   0.83720435   421013 
  142000   0.75238267   -2.2089435   -2.2089435   -1.3739961    0.1132695   -2.2089435   0.83494742   421013 
  143000   0.75276334   -2.2092914   -2.2092914   -1.3739215    0.1165336   -2.2092914   0.83536986   421013 
  144000   0.75252688   -2.2098553   -2.2098553   -1.3747478    0.1062481   -2.2098553   0.83510745   421013 
  145000   0.75302772   -2.2107434   -2.2107434   -1.3750801   0.10168565   -2.2107434   0.83566325   421013 
  146000   0.75224914   -2.2109634   -2.2109634   -1.3761641   0.10919867   -2.2109634   0.83479923   421013 
  147000   0.75353161   -2.2138548   -2.2138548   -1.3776323   0.10291797   -2.2138548   0.83622244   421013 
  148000   0.75185886   -2.2127804   -2.2127804   -1.3784143   0.11513201   -2.2127804   0.83436613   421013 
  149000   0.75149159   -2.2133493   -2.2133493   -1.3793907   0.11595821   -2.2133493   0.83395855   421013 
  150000   0.75221005   -2.2145412   -2.2145412   -1.3797853   0.11142987   -2.2145412   0.83475586   421013 
  151000   0.75079128   -2.2143072   -2.2143072   -1.3811258   0.10601819   -2.2143072   0.83318139   421013 
  152000   0.75067932   -2.2160208   -2.2160208   -1.3829636    0.1154256   -2.2160208   0.83305715   421013 
  153000   0.74997266   -2.2166135   -2.2166135   -1.3843406   0.11148199   -2.2166135   0.83227294   421013 
  154000   0.75074124   -2.2193458   -2.2193458   -1.3862199   0.11014642   -2.2193458   0.83312586   421013 
  155000   0.75056983   -2.2202266   -2.2202266    -1.387291   0.11102867   -2.2202266   0.83293564   421013 
  156000   0.75091304   -2.2214105   -2.2214105    -1.388094   0.11451736   -2.2214105   0.83331652   421013 
  157000   0.74961495   -2.2206963   -2.2206963   -1.3888203   0.11982511   -2.2206963   0.83187597   421013 
  158000   0.74975606   -2.2220914   -2.2220914   -1.3900589   0.10180031   -2.2220914   0.83203256   421013 
  159000   0.75005676    -2.223572    -2.223572   -1.3912057   0.10756409    -2.223572   0.83236627   421013 
  160000   0.75067459   -2.2246926   -2.2246926   -1.3916407  0.099361065   -2.2246926    0.8330519   421013 
  161000   0.74931597   -2.2258064   -2.2258064   -1.3942622    0.1123048   -2.2258064   0.83154418   421013 
  162000   0.74939349   -2.2258237   -2.2258237   -1.3941935   0.11524374   -2.2258237   0.83163021   421013 
  163000   0.74631993   -2.2247781   -2.2247781   -1.3965587    0.1245781   -2.2247781   0.82821936   421013 
  164000   0.74904904   -2.2287548   -2.2287548   -1.3975068   0.10579345   -2.2287548   0.83124796   421013 
  165000   0.74872953   -2.2298324   -2.2298324    -1.398939  0.098847897   -2.2298324   0.83089339   421013 
  166000   0.74884379   -2.2306783   -2.2306783   -1.3996581   0.10413442   -2.2306783   0.83102019   421013 
  167000   0.74701086   -2.2294682   -2.2294682   -1.4004821   0.11825514   -2.2294682   0.82898612   421013 
  168000   0.74621978   -2.2296217   -2.2296217   -1.4015135   0.12299274   -2.2296217   0.82810823   421013 
  169000   0.74477929   -2.2286753   -2.2286753   -1.4021656   0.11922099   -2.2286753   0.82650966   421013 
  170000   0.74524719   -2.2302402   -2.2302402   -1.4032113   0.11686905   -2.2302402    0.8270289   421013 
  171000   0.74486975   -2.2308347   -2.2308347   -1.4042247  0.094929426   -2.2308347   0.82661005   421013 
  172000   0.74486661   -2.2316736   -2.2316736    -1.405067   0.10740328   -2.2316736   0.82660656   421013 
  173000   0.74506738   -2.2334291   -2.2334291   -1.4065998   0.10375583   -2.2334291   0.82682936   421013 
  174000   0.74461426   -2.2339978   -2.2339978   -1.4076713   0.10753799   -2.2339978   0.82632652   421013 
  175000   0.74501897   -2.2353555   -2.2353555   -1.4085799   0.12521358   -2.2353555   0.82677564   421013 
  176000    0.7442798   -2.2356636   -2.2356636   -1.4097082   0.11230776   -2.2356636   0.82595536   421013 
  177000   0.74432662   -2.2374863   -2.2374863    -1.411479    0.1000738   -2.2374863   0.82600732   421013 
  178000   0.74281099   -2.2369407   -2.2369407   -1.4126154   0.10820045   -2.2369407   0.82432536   421013 
  179000   0.74266068   -2.2381612   -2.2381612   -1.4140026   0.10499415   -2.2381612   0.82415856   421013 
  180000   0.74320934   -2.2390266   -2.2390266   -1.4142591   0.10835318   -2.2390266   0.82476742   421013 
  181000   0.74201168   -2.2389624   -2.2389624   -1.4155241   0.10830543   -2.2389624   0.82343834   421013 
  182000   0.74212986   -2.2398068   -2.2398068   -1.4162373    0.1086337   -2.2398068   0.82356948   421013 
  183000   0.74154678    -2.240677    -2.240677   -1.4177546   0.10342242    -2.240677   0.82292243   421013 
  184000   0.74194053    -2.241921    -2.241921   -1.4185616   0.11018412    -2.241921   0.82335938   421013 
  185000   0.74248376   -2.2421585   -2.2421585   -1.4181962   0.10016947   -2.2421585   0.82396222   421013 
  186000   0.74188982   -2.2421849   -2.2421849   -1.4188818   0.10016155   -2.2421849    0.8233031   421013 
  187000   0.74119397   -2.2424703   -2.2424703   -1.4199394   0.11158326   -2.2424703    0.8225309   421013 
  188000   0.74128524   -2.2440291   -2.2440291   -1.4213969    0.1041827   -2.2440291   0.82263218   421013 
  189000   0.73996026   -2.2426056   -2.2426056   -1.4214438   0.10688681   -2.2426056    0.8211618   421013 
  190000   0.73932849   -2.2420711   -2.2420711   -1.4216104    0.1039823   -2.2420711    0.8204607   421013 
  191000   0.74006218   -2.2435268   -2.2435268   -1.4222519   0.10226684   -2.2435268   0.82127491   421013 
  192000   0.73947785   -2.2436622   -2.2436622   -1.4230358   0.11968434   -2.2436622   0.82062645   421013 
  193000   0.73998194    -2.244092    -2.244092   -1.4229062   0.10481935    -2.244092   0.82118586   421013 
  194000   0.73967709   -2.2450798   -2.2450798   -1.4242322    0.1054042   -2.2450798   0.82084756   421013 
  195000   0.73878337   -2.2457841   -2.2457841   -1.4259283  0.099429264   -2.2457841   0.81985576   421013 
  196000   0.73896862   -2.2460738   -2.2460738   -1.4260125   0.10929631   -2.2460738   0.82006134   421013 
  197000   0.73859549   -2.2470668   -2.2470668   -1.4274195   0.10617637   -2.2470668   0.81964726   421013 
  198000   0.73802908   -2.2473486   -2.2473486   -1.4283299  0.098309108   -2.2473486    0.8190187   421013 
  199000   0.73775253   -2.2465308   -2.2465308    -1.427819   0.12285313   -2.2465308    0.8187118   421013 
  200000   0.73815959   -2.2481633   -2.2481633   -1.4289998   0.10401417   -2.2481633   0.81916353   421013 
  201000   0.73875129   -2.2499684   -2.2499684   -1.4301482   0.11476411   -2.2499684   0.81982016   421013 
  202000   0.73738153   -2.2493151   -2.2493151   -1.4310151    0.1127674   -2.2493151   0.81830009   421013 
  203000   0.73853177   -2.2514921   -2.2514921   -1.4319156   0.10370918   -2.2514921   0.81957655   421013 
  204000   0.73808416   -2.2523453   -2.2523453   -1.4332655   0.10527716   -2.2523453   0.81907983   421013 
  205000   0.73600307   -2.2512992   -2.2512992   -1.4345288   0.11536027   -2.2512992   0.81677036   421013 
  206000   0.73755853   -2.2538828   -2.2538828   -1.4353863   0.10089913   -2.2538828   0.81849651   421013 
  207000   0.73770681   -2.2554276   -2.2554276   -1.4367665   0.10196731   -2.2554276   0.81866106   421013 
  208000   0.73692782   -2.2556755   -2.2556755    -1.437879   0.11572297   -2.2556755   0.81779659   421013 
  209000   0.73594643   -2.2560464   -2.2560464   -1.4393389  0.098090736   -2.2560464   0.81670751   421013 
  210000   0.73492769   -2.2557184   -2.2557184   -1.4401414   0.10070191   -2.2557184   0.81557697   421013 
  211000     0.734343   -2.2570648   -2.2570648   -1.4421366   0.10472319   -2.2570648   0.81492811   421013 
  212000    0.7344617   -2.2577099   -2.2577099   -1.4426501  0.096813629   -2.2577099   0.81505984   421013 
  213000   0.73461631   -2.2590216   -2.2590216   -1.4437902  0.097674697   -2.2590216   0.81523142   421013 
  214000   0.73457592    -2.259886    -2.259886   -1.4446994   0.10571834    -2.259886    0.8151866   421013 
  215000   0.73411903   -2.2602498   -2.2602498   -1.4455703   0.08738644   -2.2602498   0.81467956   421013 
  216000   0.73446155    -2.261426    -2.261426   -1.4463663  0.098884524    -2.261426   0.81505967   421013 
  217000    0.7337538   -2.2611431   -2.2611431   -1.4468689   0.10287492   -2.2611431   0.81427425   421013 
  218000   0.73384463   -2.2624377   -2.2624377   -1.4480626   0.10560356   -2.2624377   0.81437505   421013 
  219000   0.73364325   -2.2634512   -2.2634512   -1.4492997  0.099881627   -2.2634512   0.81415157   421013 
  220000    0.7319525   -2.2624213   -2.2624213    -1.450146   0.10545299   -2.2624213   0.81227529   421013 
  221000   0.73332367   -2.2647249   -2.2647249    -1.450928   0.10158868   -2.2647249   0.81379693   421013 
  222000   0.73214808   -2.2635407   -2.2635407   -1.4510484  0.093480239   -2.2635407   0.81249233   421013 
  223000   0.73291078   -2.2663302   -2.2663302   -1.4529915  0.095836415   -2.2663302   0.81333873   421013 
  224000   0.73294687   -2.2676062   -2.2676062   -1.4542275   0.10194963   -2.2676062   0.81337878   421013 
  225000    0.7323311   -2.2672362   -2.2672362   -1.4545408  0.095518055   -2.2672362   0.81269544   421013 
  226000   0.73291959   -2.2680713   -2.2680713   -1.4547228   0.10003368   -2.2680713    0.8133485   421013 
  227000   0.73252795   -2.2680324   -2.2680324   -1.4551185    0.1082356   -2.2680324   0.81291388   421013 
  228000     0.732879   -2.2686131   -2.2686131   -1.4553096   0.11738714   -2.2686131   0.81330346   421013 
  229000   0.73158806   -2.2672922   -2.2672922   -1.4554213   0.09719289   -2.2672922   0.81187085   421013 
  230000   0.73122857   -2.2678312   -2.2678312   -1.4563592  0.096821489   -2.2678312   0.81147191   421013 
  231000   0.73091158   -2.2681228   -2.2681228   -1.4570027   0.10551717   -2.2681228   0.81112014   421013 
  232000   0.73088343   -2.2693662   -2.2693662   -1.4582773   0.10443475   -2.2693662    0.8110889   421013 
  233000   0.73118962    -2.270607    -2.270607   -1.4591783   0.10405642    -2.270607    0.8114287   421013 
  234000   0.73061887    -2.270792    -2.270792   -1.4599967   0.10300222    -2.270792    0.8107953   421013 
  235000    0.7298791    -2.271281    -2.271281   -1.4613066  0.098921952    -2.271281   0.80997435   421013 
  236000   0.73003205   -2.2717166   -2.2717166   -1.4615725  0.098754066   -2.2717166   0.81014409   421013 
  237000   0.72833215   -2.2709326   -2.2709326   -1.4626749  0.091596842   -2.2709326   0.80825765   421013 
  238000   0.72792022   -2.2717803   -2.2717803   -1.4639798  0.091863512   -2.2717803   0.80780051   421013 
  239000   0.73059694   -2.2751563   -2.2751563   -1.4643853   0.10340453   -2.2751563   0.81077097   421013 
  240000   0.72921419   -2.2751111   -2.2751111   -1.4658747  0.093312608   -2.2751111   0.80923648   421013 
  241000   0.72893181   -2.2747838   -2.2747838   -1.4658607   0.10776867   -2.2747838   0.80892311   421013 
  242000    0.7280237   -2.2754794   -2.2754794   -1.4675641  0.094621069   -2.2754794   0.80791534   421013 
  243000   0.72952587   -2.2774959   -2.2774959   -1.4679135  0.099573714   -2.2774959   0.80958237   421013 
  244000   0.72742954   -2.2758825   -2.2758825   -1.4686265    0.1021552   -2.2758825   0.80725599   421013 
  245000   0.72688885   -2.2765084   -2.2765084   -1.4698525   0.08909275   -2.2765084   0.80665596   421013 
  246000    0.7278044   -2.2777326   -2.2777326   -1.4700606   0.10722816   -2.2777326   0.80767199   421013 
  247000   0.72846185   -2.2788869   -2.2788869   -1.4704853   0.10421777   -2.2788869   0.80840158   421013 
  248000   0.72566051   -2.2768724   -2.2768724   -1.4715796   0.10440218   -2.2768724   0.80529283   421013 
  249000   0.72708515   -2.2797542   -2.2797542   -1.4728804  0.095468312   -2.2797542    0.8068738   421013 
  250000   0.72592138     -2.27913     -2.27913   -1.4735477   0.09643887     -2.27913   0.80558232   421013 
  251000   0.72718948   -2.2821766   -2.2821766    -1.475187  0.092319856   -2.2821766   0.80698959   421013 
  252000   0.72581866   -2.2816873   -2.2816873    -1.476219   0.10106358   -2.2816873   0.80546834   421013 
  253000   0.72548296   -2.2816945   -2.2816945   -1.4765988   0.10276655   -2.2816945   0.80509579   421013 
  254000   0.72413673   -2.2815535   -2.2815535   -1.4779516   0.10325403   -2.2815535   0.80360183   421013 
  255000   0.72476633   -2.2820371   -2.2820371   -1.4777365  0.090314801   -2.2820371   0.80430053   421013 
  256000   0.72633399   -2.2849793   -2.2849793   -1.4789391  0.092180056   -2.2849793   0.80604021   421013 
  257000    0.7241015   -2.2837657   -2.2837657    -1.480203   0.10280888   -2.2837657   0.80356273   421013 
  258000   0.72547605   -2.2864996   -2.2864996   -1.4814114   0.09352235   -2.2864996   0.80508813   421013 
  259000   0.72462341   -2.2863339   -2.2863339    -1.482192   0.10090376   -2.2863339   0.80414192   421013 
  260000   0.72579125   -2.2881425   -2.2881425   -1.4827046   0.10550333   -2.2881425   0.80543791   421013 
  261000   0.72474018    -2.287679    -2.287679   -1.4834075   0.10651876    -2.287679    0.8042715   421013 
  262000   0.72269375   -2.2862952   -2.2862952   -1.4842947  0.085342408   -2.2862952    0.8020005   421013 
  263000   0.72491492   -2.2894703   -2.2894703   -1.4850049  0.093128138   -2.2894703   0.80446542   421013 
  264000   0.72362706   -2.2890979   -2.2890979   -1.4860617  0.091421807   -2.2890979   0.80303624   421013 
  265000   0.72293181   -2.2882443   -2.2882443   -1.4859797  0.092235281   -2.2882443   0.80226468   421013 
  266000   0.72362742   -2.2901718   -2.2901718   -1.4871351   0.09583582   -2.2901718   0.80303663   421013 
  267000   0.72265949   -2.2906753   -2.2906753   -1.4887128   0.09577373   -2.2906753   0.80196249   421013 
  268000   0.72387442   -2.2921548   -2.2921548   -1.4888441  0.094810826   -2.2921548   0.80331074   421013 
  269000    0.7241319     -2.29372     -2.29372   -1.4901235   0.10012621     -2.29372   0.80359648   421013 
  270000   0.72315559   -2.2931083   -2.2931083   -1.4905953   0.11266757   -2.2931083   0.80251302   421013 
  271000   0.72147622   -2.2919517   -2.2919517   -1.4913023   0.08286925   -2.2919517   0.80064936   421013 
  272000   0.72185704   -2.2923108   -2.2923108   -1.4912388  0.092575685   -2.2923108   0.80107197   421013 
  273000   0.72209129   -2.2936854   -2.2936854   -1.4923534  0.098932578   -2.2936854   0.80133193   421013 
  274000   0.72053428   -2.2930788   -2.2930788   -1.4934747  0.087642668   -2.2930788   0.79960406   421013 
  275000   0.72079238   -2.2940231   -2.2940231   -1.4941326  0.098234563   -2.2940231   0.79989048   421013 
  276000   0.72149533   -2.2941837   -2.2941837   -1.4935131   0.10388431   -2.2941837   0.80067057   421013 
  277000   0.72070602   -2.2933547   -2.2933547     -1.49356  0.090025337   -2.2933547   0.79979464   421013 
  278000   0.72214449   -2.2948249   -2.2948249    -1.493434  0.091168518   -2.2948249   0.80139097   421013 
  279000   0.72188207   -2.2947055   -2.2947055   -1.4936057  0.095234186   -2.2947055   0.80109975   421013 
  280000   0.72176142   -2.2962287   -2.2962287   -1.4952629  0.080124897   -2.2962287   0.80096586   421013 
  281000   0.72046881   -2.2958333   -2.2958333   -1.4963019  0.090271093   -2.2958333    0.7995314   421013 
  282000   0.72063984   -2.2965134   -2.2965134   -1.4967922  0.091165499   -2.2965134    0.7997212   421013 
  283000   0.72116851   -2.2979805   -2.2979805   -1.4976727  0.095857139   -2.2979805   0.80030788   421013 
  284000   0.72041032   -2.2976403   -2.2976403   -1.4981738  0.097049106   -2.2976403   0.79946649   421013 
  285000    0.7189896   -2.2966307   -2.2966307   -1.4987409  0.087428128   -2.2966307   0.79788987   421013 
  286000   0.71746202   -2.2954346   -2.2954346     -1.49924  0.098433515   -2.2954346   0.79619466   421013 
  287000   0.72018538   -2.2989821   -2.2989821   -1.4997652   0.10271627   -2.2989821   0.79921687   421013 
  288000   0.72053059    -2.300392    -2.300392   -1.5007921  0.088366902    -2.300392   0.79959996   421013 
  289000   0.71888914   -2.2992047   -2.2992047   -1.5014263  0.083115229   -2.2992047   0.79777839   421013 
  290000   0.71833976   -2.3003529   -2.3003529   -1.5031842  0.084965547   -2.3003529   0.79716871   421013 
  291000   0.71844516   -2.3009375   -2.3009375   -1.5036518  0.098279563   -2.3009375   0.79728568   421013 
  292000   0.71881578    -2.302155    -2.302155   -1.5044581  0.084520362    -2.302155   0.79769697   421013 
  293000   0.71675034   -2.3009117   -2.3009117   -1.5055068  0.083607916   -2.3009117   0.79540488   421013 
  294000   0.71663205   -2.3018171   -2.3018171   -1.5065435  0.095306739   -2.3018171    0.7952736   421013 
  295000   0.71667669   -2.3030219   -2.3030219   -1.5076988  0.082527041   -2.3030219   0.79532314   421013 
  296000   0.71722609   -2.3043872   -2.3043872   -1.5084544  0.096471872   -2.3043872   0.79593284   421013 
  297000   0.71770431   -2.3060419   -2.3060419   -1.5095783   0.10141141   -2.3060419   0.79646353   421013 
  298000   0.71818334   -2.3069603   -2.3069603   -1.5099652  0.096263171   -2.3069603   0.79699513   421013 
  299000   0.71714203   -2.3069571   -2.3069571   -1.5111175  0.093558983   -2.3069571   0.79583955   421013 
  300000    0.7163573   -2.3068785   -2.3068785   -1.5119098  0.096150904   -2.3068785    0.7949687   421013 
  301000   0.71684327   -2.3089329   -2.3089329   -1.5134249   0.10951899   -2.3089329   0.79550801   421013 
  302000   0.71600207   -2.3087141   -2.3087141   -1.5141396  0.093807672   -2.3087141   0.79457449   421013 
  303000   0.71618451   -2.3089296   -2.3089296   -1.5141527  0.093942639   -2.3089296   0.79477696   421013 
  304000   0.71604709   -2.3097919   -2.3097919   -1.5151674  0.088609994   -2.3097919   0.79462445   421013 
  305000    0.7166722   -2.3112885   -2.3112885   -1.5159703  0.095817657   -2.3112885   0.79531817   421013 
  306000   0.71482182   -2.3099576   -2.3099576   -1.5166929   0.11229935   -2.3099576   0.79326472   421013 
  307000   0.71563503   -2.3113328   -2.3113328   -1.5171657  0.096489541   -2.3113328   0.79416718   421013 
  308000   0.71617244   -2.3125644   -2.3125644   -1.5178008  0.092653448   -2.3125644   0.79476356   421013 
  309000   0.71643058   -2.3125384   -2.3125384   -1.5174884  0.096578119   -2.3125384   0.79505002   421013 
  310000   0.71413546   -2.3108711   -2.3108711    -1.518368    0.1031693   -2.3108711   0.79250304   421013 
  311000   0.71530555   -2.3131114   -2.3131114   -1.5193099   0.10153642   -2.3131114   0.79380154   421013 
  312000   0.71627734   -2.3150903   -2.3150903   -1.5202104  0.097338714   -2.3150903   0.79487998   421013 
  313000   0.71528453   -2.3146074   -2.3146074   -1.5208292  0.089802278   -2.3146074   0.79377821   421013 
  314000   0.71460364   -2.3140122   -2.3140122   -1.5209896  0.090370748   -2.3140122    0.7930226   421013 
  315000   0.71542138   -2.3154372   -2.3154372   -1.5215072  0.096721194   -2.3154372   0.79393007   421013 
  316000   0.71507507   -2.3160113   -2.3160113   -1.5224656  0.089237515   -2.3160113   0.79354577   421013 
  317000   0.71384065   -2.3159454   -2.3159454   -1.5237696  0.086726873   -2.3159454   0.79217589   421013 
  318000   0.71520778   -2.3170835   -2.3170835   -1.5233904   0.07863018   -2.3170835   0.79369304   421013 
  319000   0.71326738   -2.3154144   -2.3154144   -1.5238747  0.092339583   -2.3154144    0.7915397   421013 
  320000   0.71317639   -2.3153448   -2.3153448   -1.5239061  0.093857069   -2.3153448   0.79143873   421013 
  321000   0.71379046   -2.3173877   -2.3173877   -1.5252675   0.09510401   -2.3173877   0.79212019   421013 
  322000    0.7151709   -2.3199018   -2.3199018   -1.5262497  0.081078402   -2.3199018   0.79365211   421013 
  323000   0.71237204   -2.3176079   -2.3176079   -1.5270618  0.078045303   -2.3176079   0.79054611   421013 
  324000   0.71437504   -2.3198483   -2.3198483   -1.5270794  0.090912086   -2.3198483   0.79276891   421013 
  325000   0.71365523   -2.3202829   -2.3202829   -1.5283128  0.095408292   -2.3202829   0.79197012   421013 
  326000   0.71363049   -2.3208128   -2.3208128   -1.5288702  0.087392359   -2.3208128   0.79194266   421013 
  327000   0.71404087   -2.3217031   -2.3217031   -1.5293051  0.083369404   -2.3217031   0.79239807   421013 
  328000   0.71314498   -2.3212541   -2.3212541   -1.5298503  0.091693674   -2.3212541   0.79140387   421013 
  329000   0.71335161   -2.3224741   -2.3224741   -1.5308409  0.097183716   -2.3224741   0.79163317   421013 
  330000     0.713192    -2.322312    -2.322312    -1.530856  0.094282284    -2.322312   0.79145605   421013 
  331000   0.71262641    -2.322237    -2.322237   -1.5314086  0.093648162    -2.322237   0.79082839   421013 
  332000   0.71199822   -2.3231594   -2.3231594   -1.5330281  0.086514482   -2.3231594   0.79013127   421013 
  333000   0.71386561   -2.3245728   -2.3245728   -1.5323692  0.090572233   -2.3245728   0.79220358   421013 
  334000   0.71164041   -2.3225743   -2.3225743   -1.5328401  0.098572684   -2.3225743   0.78973419   421013 
  335000   0.71089175    -2.323528    -2.323528   -1.5346247  0.083066536    -2.323528   0.78890338   421013 
  336000   0.71017143   -2.3230679   -2.3230679   -1.5349638  0.089785637   -2.3230679   0.78810401   421013 
  337000   0.71103047   -2.3241174   -2.3241174   -1.5350601   0.09910028   -2.3241174   0.78905732   421013 
  338000   0.70894762   -2.3228227   -2.3228227   -1.5360768  0.095205493   -2.3228227    0.7867459   421013 
  339000   0.71087099   -2.3246538   -2.3246538   -1.5357735   0.10545255   -2.3246538   0.78888034   421013 
  340000   0.71037273   -2.3247667   -2.3247667   -1.5364393  0.089445068   -2.3247667    0.7883274   421013 
  341000   0.71120838   -2.3258801   -2.3258801   -1.5366253  0.094332112   -2.3258801   0.78925475   421013 
  342000    0.7098893    -2.325014    -2.325014   -1.5372231  0.087597611    -2.325014   0.78779092   421013 
  343000   0.71145478   -2.3266188   -2.3266188   -1.5370906  0.095616061   -2.3266188   0.78952819   421013 
  344000   0.70910826   -2.3257621   -2.3257621   -1.5388379  0.078732658   -2.3257621   0.78692417   421013 
  345000     0.709028    -2.325897    -2.325897   -1.5390619  0.092415676    -2.325897    0.7868351   421013 
  346000   0.70899147   -2.3266112   -2.3266112   -1.5398167  0.078423229   -2.3266112   0.78679456   421013 
  347000   0.70839644    -2.326833    -2.326833   -1.5406988  0.084213947    -2.326833   0.78613424   421013 
  348000   0.70896778   -2.3279925   -2.3279925   -1.5412242   0.10508121   -2.3279925   0.78676828   421013 
  349000   0.70954667   -2.3297547   -2.3297547    -1.542344  0.089281754   -2.3297547   0.78741069   421013 
  350000   0.70810033   -2.3291213   -2.3291213   -1.5433157   0.08704054   -2.3291213   0.78580564   421013 
  351000   0.70865966   -2.3305676   -2.3305676   -1.5441413  0.088953415   -2.3305676   0.78642634   421013 
  352000   0.70819269   -2.3305196   -2.3305196   -1.5446115  0.087943104   -2.3305196   0.78590813   421013 
  353000   0.70946055   -2.3325815   -2.3325815   -1.5452664  0.087270428   -2.3325815   0.78731512   421013 
  354000   0.71067335   -2.3350074   -2.3350074   -1.5463464  0.096075761   -2.3350074   0.78866101   421013 
  355000   0.70925642   -2.3342872   -2.3342872   -1.5471987   0.09167805   -2.3342872   0.78708859   421013 
  356000   0.70911176   -2.3352377   -2.3352377   -1.5483096  0.092117886   -2.3352377   0.78692806   421013 
  357000   0.70854356   -2.3350687   -2.3350687   -1.5487712  0.095747716   -2.3350687    0.7862975   421013 
  358000   0.70810926   -2.3347881   -2.3347881   -1.5489725  0.079346542   -2.3347881   0.78581555   421013 
  359000   0.70909657   -2.3363437   -2.3363437   -1.5494325   0.08739361   -2.3363437    0.7869112   421013 
  360000   0.70862934   -2.3362255   -2.3362255   -1.5498328  0.075654811   -2.3362255    0.7863927   421013 
  361000   0.70663198   -2.3352287   -2.3352287   -1.5510525  0.096741191   -2.3352287   0.78417615   421013 
  362000   0.70700253     -2.33574     -2.33574   -1.5511527  0.084752449     -2.33574   0.78458737   421013 
  363000   0.70732771   -2.3368732   -2.3368732    -1.551925  0.083357505   -2.3368732   0.78494823   421013 
  364000   0.70681512    -2.336547    -2.336547   -1.5521676  0.092591728    -2.336547   0.78437939   421013 
  365000   0.70645081   -2.3370557   -2.3370557   -1.5530806   0.09006069   -2.3370557    0.7839751   421013 
  366000   0.70665005   -2.3373446   -2.3373446   -1.5531484  0.092080078   -2.3373446    0.7841962   421013 
  367000   0.70609324   -2.3374571   -2.3374571   -1.5538788  0.089233262   -2.3374571   0.78357829   421013 
  368000   0.70611312   -2.3374297   -2.3374297   -1.5538293  0.087700605   -2.3374297   0.78360036   421013 
  369000   0.70615868   -2.3388043   -2.3388043   -1.5551533   0.09675594   -2.3388043   0.78365092   421013 
  370000   0.70588166     -2.33847     -2.33847   -1.5551266   0.10334075     -2.33847   0.78334349   421013 
  371000   0.70555695    -2.339273    -2.339273   -1.5562898   0.10299157    -2.339273   0.78298315   421013 
  372000   0.70638354   -2.3402969   -2.3402969   -1.5563965   0.08177978   -2.3402969   0.78390044   421013 
  373000   0.70603602   -2.3411463   -2.3411463   -1.5576315  0.077724025   -2.3411463   0.78351479   421013 
  374000   0.70499854   -2.3412558   -2.3412558   -1.5588924  0.088116882   -2.3412558   0.78236346   421013 
  375000   0.70580694   -2.3424275   -2.3424275   -1.5591669  0.091723871   -2.3424275   0.78326057   421013 
  376000   0.70456207    -2.342218    -2.342218   -1.5603389  0.091971606    -2.342218   0.78187909   421013 
  377000   0.70482425   -2.3427884   -2.3427884   -1.5606183  0.079511042   -2.3427884   0.78217005   421013 
  378000   0.70321771   -2.3418051   -2.3418051   -1.5614179   0.08643309   -2.3418051   0.78038721   421013 
  379000   0.70439549    -2.344005    -2.344005   -1.5623107  0.084895651    -2.344005   0.78169423   421013 
  380000    0.7055229   -2.3460217   -2.3460217   -1.5630763  0.085000486   -2.3460217   0.78294536   421013 
  381000   0.70533842   -2.3471135   -2.3471135   -1.5643729  0.095826193   -2.3471135   0.78274064   421013 
  382000   0.70443362   -2.3465669   -2.3465669   -1.5648303  0.091774557   -2.3465669   0.78173654   421013 
  383000   0.70341391    -2.345927    -2.345927   -1.5653221  0.086971357    -2.345927   0.78060494   421013 
  384000   0.70452396   -2.3480608   -2.3480608    -1.566224  0.096108359   -2.3480608    0.7818368   421013 
  385000   0.70302184   -2.3474916   -2.3474916   -1.5673218  0.093890408   -2.3474916   0.78016984   421013 
  386000   0.70379573   -2.3485519   -2.3485519   -1.5675233  0.072967913   -2.3485519   0.78102865   421013 
  387000   0.70441075   -2.3493321   -2.3493321   -1.5676209   0.09796999   -2.3493321   0.78171117   421013 
  388000   0.70389237   -2.3499739   -2.3499739    -1.568838  0.087186513   -2.3499739   0.78113591   421013 
  389000   0.70216708   -2.3487549   -2.3487549   -1.5695336  0.090338545   -2.3487549   0.77922128   421013 
  390000   0.70276161   -2.3498447   -2.3498447   -1.5699637  0.084858172   -2.3498447   0.77988106   421013 
  391000   0.70098797   -2.3485107   -2.3485107    -1.570598  0.092969551   -2.3485107   0.77791278   421013 
  392000   0.70280759   -2.3508045   -2.3508045   -1.5708724  0.082354739   -2.3508045   0.77993208   421013 
  393000   0.70243929     -2.35147     -2.35147   -1.5719466  0.079741305     -2.35147   0.77952336   421013 
  394000   0.70130898   -2.3508855   -2.3508855   -1.5726165  0.091395971   -2.3508855   0.77826901   421013 
  395000   0.70145932   -2.3518935   -2.3518935   -1.5734576  0.081725374   -2.3518935   0.77843586   421013 
  396000   0.69983806   -2.3498758   -2.3498758   -1.5732391  0.095041531   -2.3498758   0.77663668   421013 
  397000   0.70066848   -2.3517376   -2.3517376   -1.5741793  0.092185991   -2.3517376   0.77755823   421013 
  398000    0.7014271   -2.3520249   -2.3520249   -1.5736248  0.087001553   -2.3520249    0.7784001   421013 
  399000   0.70163633   -2.3525854   -2.3525854   -1.5739531  0.085678406   -2.3525854   0.77863229   421013 
  400000   0.69948457    -2.351487    -2.351487   -1.5752426  0.080089199    -2.351487    0.7762444   421013 
  401000   0.70068537   -2.3532955   -2.3532955   -1.5757185  0.071557498   -2.3532955   0.77757697   421013 
  402000   0.70193716   -2.3542442   -2.3542442   -1.5752781  0.090557664   -2.3542442   0.77896613   421013 
  403000   0.70063548   -2.3530852   -2.3530852   -1.5755636  0.086456796   -2.3530852    0.7775216   421013 
  404000   0.70007611   -2.3532063   -2.3532063   -1.5763055  0.079209467   -2.3532063   0.77690085   421013 
  405000   0.70010348   -2.3537065   -2.3537065   -1.5767753  0.080923779   -2.3537065   0.77693123   421013 
  406000   0.69986823   -2.3541257   -2.3541257   -1.5774555  0.078713991   -2.3541257   0.77667016   421013 
  407000    0.6995215    -2.353496    -2.353496   -1.5772107  0.087853305    -2.353496   0.77628538   421013 
  408000   0.69856268   -2.3536652   -2.3536652   -1.5784438  0.092394647   -2.3536652   0.77522134   421013 
  409000   0.69767181   -2.3532953   -2.3532953   -1.5790626  0.090253718   -2.3532953   0.77423271   421013 
  410000   0.69878808    -2.354265    -2.354265   -1.5787935  0.083014615    -2.354265   0.77547148   421013 
  411000   0.69738905   -2.3537944   -2.3537944   -1.5798755  0.089418059   -2.3537944   0.77391892   421013 
  412000   0.69840913   -2.3552207   -2.3552207   -1.5801697  0.079832693   -2.3552207   0.77505094   421013 
  413000   0.70073947   -2.3576216   -2.3576216   -1.5799846   0.08806942   -2.3576216   0.77763701   421013 
  414000   0.70064348   -2.3568063   -2.3568063   -1.5792758  0.083808223   -2.3568063   0.77753048   421013 
  415000   0.69904082   -2.3561095   -2.3561095   -1.5803575  0.096691665   -2.3561095   0.77575196   421013 
  416000   0.69825307   -2.3562201   -2.3562201   -1.5813423  0.080161209   -2.3562201   0.77487776   421013 
  417000   0.69672761   -2.3557656   -2.3557656   -1.5825807  0.084889798   -2.3557656    0.7731849   421013 
  418000     0.697624   -2.3576226   -2.3576226   -1.5834429  0.092179862   -2.3576226   0.77417966   421013 
  419000   0.69717164   -2.3576012   -2.3576012   -1.5839235   0.08896841   -2.3576012   0.77367766   421013 
  420000   0.69749407   -2.3580961   -2.3580961   -1.5840606  0.064408029   -2.3580961   0.77403546   421013 
  421000   0.69861007   -2.3596691   -2.3596691   -1.5843952  0.079989927   -2.3596691   0.77527394   421013 
  422000    0.7000272   -2.3618959   -2.3618959   -1.5850493  0.087075186   -2.3618959   0.77684657   421013 
  423000   0.69787289   -2.3598383   -2.3598383   -1.5853824  0.084685698   -2.3598383   0.77445585   421013 
  424000   0.69831418   -2.3607603   -2.3607603   -1.5858148   0.08667943   -2.3607603   0.77494557   421013 
  425000   0.69828768   -2.3618884   -2.3618884   -1.5869723   0.10440834   -2.3618884   0.77491616   421013 
  426000   0.69844041   -2.3633562   -2.3633562   -1.5882706  0.091601971   -2.3633562   0.77508565   421013 
  427000   0.69615982   -2.3613321   -2.3613321   -1.5887773     0.075003   -2.3613321    0.7725548   421013 
  428000   0.69876317   -2.3647827   -2.3647827   -1.5893389  0.088051896   -2.3647827   0.77544383   421013 
  429000   0.69887555   -2.3648488   -2.3648488   -1.5892803  0.084742162   -2.3648488   0.77556854   421013 
  430000   0.69642501   -2.3628483   -2.3628483   -1.5899992  0.083122527   -2.3628483   0.77284909   421013 
  431000   0.69693111   -2.3636667   -2.3636667    -1.590256  0.080382149   -2.3636667   0.77341073   421013 
  432000   0.69567955   -2.3623634   -2.3623634   -1.5903415  0.084626604   -2.3623634   0.77202183   421013 
  433000   0.69552048   -2.3621698   -2.3621698   -1.5903245  0.081838028   -2.3621698    0.7718453   421013 
  434000   0.69554466   -2.3614945   -2.3614945   -1.5896223  0.082892536   -2.3614945   0.77187214   421013 
  435000   0.69572814   -2.3619545   -2.3619545   -1.5898787  0.083143083   -2.3619545   0.77207575   421013 
  436000   0.69507083   -2.3625609   -2.3625609   -1.5912146  0.093218801   -2.3625609   0.77134631   421013 
  437000   0.69688512   -2.3645877   -2.3645877    -1.591228  0.088101622   -2.3645877    0.7733597   421013 
  438000   0.69569125   -2.3639933   -2.3639933   -1.5919585  0.079114308   -2.3639933   0.77203481   421013 
  439000   0.69584103   -2.3642896   -2.3642896   -1.5920886   0.08541293   -2.3642896   0.77220102   421013 
  440000   0.69457556   -2.3634027   -2.3634027    -1.592606   0.07181902   -2.3634027   0.77079669   421013 
  441000    0.6941009   -2.3636049   -2.3636049   -1.5933349  0.078644957   -2.3636049   0.77026994   421013 
  442000   0.69641056   -2.3661939   -2.3661939   -1.5933608  0.076792592   -2.3661939   0.77283305   421013 
  443000   0.69606862   -2.3663874   -2.3663874   -1.5939339  0.085876959   -2.3663874   0.77245359   421013 
  444000    0.6957419   -2.3665079   -2.3665079   -1.5944169  0.079206233   -2.3665079   0.77209102   421013 
  445000    0.6955252   -2.3666995   -2.3666995   -1.5948489  0.091443031   -2.3666995   0.77185054   421013 
  446000   0.69672794   -2.3688537   -2.3688537   -1.5956685  0.072964401   -2.3688537   0.77318526   421013 
  447000   0.69508207   -2.3681605   -2.3681605   -1.5968017  0.076458223   -2.3681605   0.77135878   421013 
  448000   0.69523441   -2.3689588   -2.3689588   -1.5974309  0.091709054   -2.3689588   0.77152784   421013 
  449000   0.69482741   -2.3692808   -2.3692808   -1.5982046  0.091386141   -2.3692808   0.77107618   421013 
  450000   0.69442445   -2.3698414   -2.3698414   -1.5992124  0.084232408   -2.3698414     0.770629   421013 
  451000   0.69462498    -2.370845    -2.370845   -1.5999935  0.090529495    -2.370845   0.77085153   421013 
  452000   0.69485255   -2.3713015   -2.3713015   -1.6001975  0.076140482   -2.3713015   0.77110407   421013 
  453000   0.69385584   -2.3699101   -2.3699101   -1.5999121  0.075589004   -2.3699101   0.76999798   421013 
  454000   0.69359668   -2.3700757   -2.3700757   -1.6003653   0.07550023   -2.3700757   0.76971038   421013 
  455000   0.69293275   -2.3699333   -2.3699333   -1.6009597  0.084516658   -2.3699333    0.7689736   421013 
  456000   0.69440065    -2.371809    -2.371809   -1.6012064  0.080372178    -2.371809   0.77060258   421013 
  457000   0.69318848   -2.3709031   -2.3709031   -1.6016457  0.071257701   -2.3709031    0.7692574   421013 
  458000   0.69447621   -2.3720552   -2.3720552   -1.6013687  0.082891969   -2.3720552   0.77068644   421013 
  459000   0.69343781   -2.3714325   -2.3714325   -1.6018984  0.074336695   -2.3714325   0.76953408   421013 
  460000   0.69426538   -2.3726694   -2.3726694   -1.6022169  0.089288266   -2.3726694   0.77045247   421013 
  461000   0.69252966   -2.3724902   -2.3724902   -1.6039639  0.086640867   -2.3724902   0.76852628   421013 
  462000   0.69299075   -2.3730142   -2.3730142   -1.6039762  0.082213442   -2.3730142   0.76903796   421013 
  463000   0.69292576   -2.3740078   -2.3740078    -1.605042  0.076631559   -2.3740078   0.76896584   421013 
  464000   0.69287294   -2.3749409   -2.3749409   -1.6060337  0.084668738   -2.3749409   0.76890722   421013 
  465000   0.69263541   -2.3751268   -2.3751268   -1.6064832  0.090099986   -2.3751268   0.76864363   421013 
  466000   0.69195005   -2.3754912   -2.3754912   -1.6076082  0.070517715   -2.3754912   0.76788305   421013 
  467000    0.6922773   -2.3757345   -2.3757345   -1.6074883  0.081630644   -2.3757345   0.76824622   421013 
  468000   0.69211315   -2.3757542   -2.3757542   -1.6076902  0.077392847   -2.3757542   0.76806405   421013 
  469000   0.69119857   -2.3763637   -2.3763637   -1.6093146  0.092752623   -2.3763637   0.76704911   421013 
  470000   0.69022301   -2.3751701   -2.3751701   -1.6092036  0.070975588   -2.3751701   0.76596649   421013 
  471000   0.69164821   -2.3770526   -2.3770526   -1.6095046  0.074219769   -2.3770526   0.76754809   421013 
  472000   0.68974933   -2.3750097   -2.3750097   -1.6095689  0.082160162   -2.3750097   0.76544084   421013 
  473000   0.69183586   -2.3772885   -2.3772885   -1.6095321  0.084910919   -2.3772885   0.76775634   421013 
  474000   0.69259634    -2.378316    -2.378316   -1.6097158  0.091469362    -2.378316   0.76860027   421013 
  475000   0.69243196   -2.3795029   -2.3795029    -1.611085  0.073482833   -2.3795029   0.76841785   421013 
  476000   0.68997941   -2.3786817   -2.3786817   -1.6129856  0.084903016   -2.3786817   0.76569616   421013 
  477000   0.69086703   -2.3787143   -2.3787143   -1.6120331  0.067678606   -2.3787143   0.76668119   421013 
  478000   0.69211214   -2.3802398   -2.3802398   -1.6121768  0.076449131   -2.3802398   0.76806294   421013 
  479000   0.68922365   -2.3781489   -2.3781489   -1.6132915  0.079034152   -2.3781489   0.76485748   421013 
  480000   0.69025196   -2.3797299   -2.3797299   -1.6137313  0.087270647   -2.3797299   0.76599863   421013 
  481000   0.69053655   -2.3808524   -2.3808524    -1.614538  0.067882221   -2.3808524   0.76631445   421013 
  482000   0.69021307   -2.3809463   -2.3809463   -1.6149908  0.092771815   -2.3809463   0.76595547   421013 
  483000   0.69012481   -2.3816792   -2.3816792   -1.6158216  0.073929231   -2.3816792   0.76585753   421013 
  484000   0.68970752   -2.3813212   -2.3813212   -1.6159268  0.080963944   -2.3813212   0.76539444   421013 
  485000   0.68960259   -2.3819623   -2.3819623   -1.6166843  0.077146426   -2.3819623     0.765278   421013 
  486000   0.68939498    -2.382205    -2.382205   -1.6171574  0.086446848    -2.382205    0.7650476   421013 
  487000   0.68908444   -2.3824709   -2.3824709   -1.6177679  0.079454327   -2.3824709   0.76470299   421013 
  488000   0.68940562   -2.3836852   -2.3836852   -1.6186258   0.07863196   -2.3836852   0.76505941   421013 
  489000   0.68789547    -2.382349    -2.382349   -1.6189654  0.081756214    -2.382349   0.76338353   421013 
  490000   0.68854249   -2.3831811   -2.3831811   -1.6190795  0.084076102   -2.3831811   0.76410156   421013 
  491000   0.68930477   -2.3843902   -2.3843902   -1.6194427  0.078819465   -2.3843902   0.76494749   421013 
  492000   0.68884961   -2.3841912   -2.3841912   -1.6197489  0.078793444   -2.3841912   0.76444239   421013 
  493000    0.6904085   -2.3860028   -2.3860028   -1.6198305  0.079782795   -2.3860028   0.76617234   421013 
  494000   0.68831976   -2.3841488   -2.3841488   -1.6202944   0.07973226   -2.3841488   0.76385439   421013 
  495000   0.68872883   -2.3852809   -2.3852809   -1.6209726  0.076827456   -2.3852809   0.76430835   421013 
  496000   0.68820613   -2.3861439   -2.3861439   -1.6224156  0.071181527   -2.3861439   0.76372829   421013 
  497000   0.68913826   -2.3877567   -2.3877567    -1.622994   0.08001822   -2.3877567   0.76476271   421013 
  498000   0.68790857   -2.3871712   -2.3871712   -1.6237731  0.082220234   -2.3871712   0.76339808   421013 
  499000   0.68820433   -2.3876866   -2.3876866   -1.6239603   0.07773573   -2.3876866   0.76372629   421013 
  500000   0.68969366   -2.3893507   -2.3893507   -1.6239716  0.085285794   -2.3893507   0.76537906   421013 
  501000   0.68793501   -2.3880092   -2.3880092   -1.6245818  0.072755914   -2.3880092   0.76342742   421013 
  502000   0.68799358   -2.3882379   -2.3882379   -1.6247455  0.070618967   -2.3882379   0.76349241   421013 
  503000   0.68908015     -2.38997     -2.38997   -1.6252717  0.092250429     -2.38997   0.76469822   421013 
  504000   0.68756248   -2.3887421   -2.3887421   -1.6257281   0.07406954   -2.3887421   0.76301401   421013 
  505000   0.68864941   -2.3900601   -2.3900601   -1.6258399  0.079317038   -2.3900601   0.76422022   421013 
  506000   0.68743483   -2.3893821   -2.3893821   -1.6265097  0.085344204   -2.3893821   0.76287235   421013 
  507000   0.68671029   -2.3889872   -2.3889872   -1.6269189  0.072422098   -2.3889872    0.7620683   421013 
  508000   0.68693882   -2.3892185   -2.3892185   -1.6268966  0.078629034   -2.3892185   0.76232191   421013 
  509000   0.68584292   -2.3887249   -2.3887249   -1.6276191  0.078290621   -2.3887249   0.76110575   421013 
  510000   0.68633044   -2.3893963   -2.3893963   -1.6277495  0.079238249   -2.3893963   0.76164677   421013 
  511000   0.68556393   -2.3897507   -2.3897507   -1.6289545  0.081349073   -2.3897507   0.76079614   421013 
  512000   0.68528224    -2.389554    -2.389554   -1.6290705  0.082002917    -2.389554   0.76048354   421013 
  513000   0.68649003   -2.3920885   -2.3920885   -1.6302646  0.074245223   -2.3920885   0.76182387   421013 
  514000   0.68590405   -2.3922547   -2.3922547   -1.6310811  0.081273825   -2.3922547   0.76117359   421013 
  515000   0.68632999   -2.3937208   -2.3937208   -1.6320745  0.065973139   -2.3937208   0.76164627   421013 
  516000   0.68709653   -2.3943265   -2.3943265   -1.6318296  0.081382452   -2.3943265   0.76249693   421013 
  517000   0.68641784   -2.3942436   -2.3942436   -1.6324999  0.080226689   -2.3942436   0.76174376   421013 
  518000   0.68696957   -2.3948889   -2.3948889   -1.6325329  0.082269854   -2.3948889   0.76235603   421013 
  519000   0.68660553   -2.3940843   -2.3940843   -1.6321323   0.06144896   -2.3940843   0.76195204   421013 
  520000   0.68596143   -2.3938898   -2.3938898   -1.6326526  0.083700252   -2.3938898   0.76123726   421013 
  521000   0.68637871   -2.3949773   -2.3949773   -1.6332769  0.086475575   -2.3949773   0.76170034   421013 
  522000   0.68694455   -2.3953239   -2.3953239   -1.6329956  0.085059465   -2.3953239   0.76232827   421013 
  523000   0.68684433     -2.39607     -2.39607    -1.633853  0.084145942     -2.39607   0.76221705   421013 
  524000   0.68711924    -2.395982    -2.395982   -1.6334599  0.074573619    -2.395982   0.76252213   421013 
  525000    0.6863884   -2.3960333   -2.3960333   -1.6343222  0.068206846   -2.3960333   0.76171109   421013 
  526000   0.68545142   -2.3962564   -2.3962564   -1.6355851  0.072839324   -2.3962564   0.76067129   421013 
  527000   0.68639457   -2.3972384   -2.3972384   -1.6355205  0.072588616   -2.3972384   0.76171794   421013 
  528000   0.68538507   -2.3959618   -2.3959618   -1.6353642  0.085670827   -2.3959618   0.76059765   421013 
  529000   0.68626696   -2.3974162   -2.3974162   -1.6358399  0.073144121   -2.3974162   0.76157632   421013 
  530000   0.68598507   -2.3970962   -2.3970962   -1.6358328  0.084311698   -2.3970962   0.76126349   421013 
  531000   0.68406707   -2.3950561   -2.3950561   -1.6359211  0.069071166   -2.3950561   0.75913502   421013 
  532000   0.68513191   -2.3958342   -2.3958342   -1.6355175  0.076452993   -2.3958342   0.76031671   421013 
  533000   0.68534557   -2.3955287   -2.3955287   -1.6349749  0.085591402   -2.3955287   0.76055381   421013 
  534000   0.68523842   -2.3960106   -2.3960106   -1.6355757  0.068861258   -2.3960106   0.76043491   421013 
  535000   0.68560295   -2.3974373   -2.3974373   -1.6365978  0.076252103   -2.3974373   0.76083944   421013 
  536000   0.68453878   -2.3963418   -2.3963418   -1.6366833  0.076744651   -2.3963418   0.75965849   421013 
  537000   0.68366165   -2.3962462   -2.3962462   -1.6375611  0.064854004   -2.3962462   0.75868511   421013 
  538000   0.68310872   -2.3965324   -2.3965324   -1.6384609  0.075469175   -2.3965324   0.75807151   421013 
  539000   0.68483125   -2.3986403   -2.3986403   -1.6386572  0.078175604   -2.3986403   0.75998306   421013 
  540000   0.68500414   -2.3991076   -2.3991076   -1.6389327  0.080265531   -2.3991076   0.76017492   421013 
  541000   0.68419035   -2.3989195   -2.3989195   -1.6396476  0.079538598   -2.3989195   0.75927183   421013 
  542000   0.68486179   -2.4003534   -2.4003534   -1.6403364  0.088054736   -2.4003534   0.76001695   421013 
  543000   0.68551347   -2.4021225   -2.4021225   -1.6413824  0.088955625   -2.4021225   0.76074015   421013 
  544000   0.68526221   -2.4028104   -2.4028104   -1.6423491  0.088631969   -2.4028104   0.76046131   421013 
  545000   0.68222538   -2.4002462   -2.4002462    -1.643155  0.074757781   -2.4002462   0.75709123   421013 
  546000   0.68363121   -2.4020424   -2.4020424    -1.643391  0.078441088   -2.4020424   0.75865133   421013 
  547000   0.68408782   -2.4025419   -2.4025419   -1.6433839  0.074466979   -2.4025419   0.75915805   421013 
  548000   0.68397869   -2.4024849   -2.4024849   -1.6434479  0.070208126   -2.4024849   0.75903694   421013 
  549000   0.68183682   -2.4005877   -2.4005877   -1.6439277  0.081841601   -2.4005877   0.75666003   421013 
  550000   0.68391278   -2.4030456   -2.4030456   -1.6440818  0.085714487   -2.4030456    0.7589638   421013 
  551000   0.68442157   -2.4040689   -2.4040689   -1.6445405  0.080320282   -2.4040689   0.75952842   421013 
  552000   0.68340341   -2.4036923   -2.4036923   -1.6452938  0.073254881   -2.4036923   0.75839853   421013 
  553000   0.68302807   -2.4040391   -2.4040391   -1.6460571  0.073587505   -2.4040391     0.757982   421013 
  554000   0.68152728    -2.402164    -2.402164   -1.6458475  0.080906561    -2.402164   0.75631652   421013 
  555000   0.68276944   -2.4040655   -2.4040655   -1.6463705  0.066497735   -2.4040655   0.75769499   421013 
  556000   0.68180279   -2.4032697   -2.4032697   -1.6466474  0.081438446   -2.4032697   0.75662226   421013 
  557000   0.68325889    -2.405226    -2.405226   -1.6469878  0.074897549    -2.405226   0.75823815   421013 
  558000   0.68286623   -2.4052576   -2.4052576   -1.6474552  0.080491187   -2.4052576    0.7578024   421013 
  559000   0.68195197   -2.4045438   -2.4045438    -1.647756  0.082898665   -2.4045438   0.75678782   421013 
  560000   0.68170263   -2.4049982   -2.4049982   -1.6484871  0.075123044   -2.4049982   0.75651111   421013 
  561000   0.68431929   -2.4081866   -2.4081866   -1.6487717  0.074340205   -2.4081866   0.75941492   421013 
  562000   0.68126092   -2.4058522   -2.4058522   -1.6498313  0.073694651   -2.4058522   0.75602093   421013 
  563000   0.68236666   -2.4071895   -2.4071895   -1.6499415  0.077085713   -2.4071895   0.75724801   421013 
  564000   0.68197014   -2.4069203   -2.4069203   -1.6501123   0.07680052   -2.4069203   0.75680798   421013 
  565000   0.68224902   -2.4071223   -2.4071223   -1.6500049  0.071508919   -2.4071223   0.75711746   421013 
  566000   0.68237901   -2.4074703   -2.4074703   -1.6502086  0.073555904   -2.4074703   0.75726171   421013 
  567000   0.68131774   -2.4066708   -2.4066708   -1.6505869  0.068615914   -2.4066708   0.75608398   421013 
  568000   0.68189493   -2.4083962   -2.4083962   -1.6516717  0.073710088   -2.4083962   0.75672451   421013 
  569000   0.68178229   -2.4093402   -2.4093402   -1.6527407  0.079660857   -2.4093402   0.75659951   421013 
  570000   0.68031752   -2.4070886   -2.4070886   -1.6521146  0.085694304   -2.4070886     0.754974   421013 
  571000   0.68223936   -2.4100507   -2.4100507    -1.652944  0.066907049   -2.4100507   0.75710674   421013 
  572000   0.68016645   -2.4085631   -2.4085631   -1.6537568  0.064016099   -2.4085631   0.75480635   421013 
  573000   0.68220171   -2.4103228   -2.4103228   -1.6532579  0.073663169   -2.4103228   0.75706496   421013 
  574000   0.68171231   -2.4101138   -2.4101138    -1.653592  0.079598387   -2.4101138   0.75652185   421013 
  575000   0.68146928   -2.4101164   -2.4101164   -1.6538642   0.08350661   -2.4101164   0.75625215   421013 
  576000   0.68167864   -2.4118537   -2.4118537   -1.6553692  0.086915635   -2.4118537   0.75648449   421013 
  577000   0.68085699   -2.4120529   -2.4120529   -1.6564802  0.075275495   -2.4120529   0.75557267   421013 
  578000   0.67937617   -2.4110293   -2.4110293   -1.6570999  0.072807231   -2.4110293   0.75392935   421013 
  579000   0.68016575   -2.4123966   -2.4123966   -1.6575911  0.089092703   -2.4123966   0.75480558   421013 
  580000   0.67949385   -2.4122153   -2.4122153   -1.6581553  0.079353448   -2.4122153   0.75405995   421013 
  581000   0.68031032   -2.4128584   -2.4128584   -1.6578923   0.08289067   -2.4128584   0.75496602   421013 
  582000   0.68112598   -2.4144416   -2.4144416   -1.6585704  0.060721277   -2.4144416   0.75587118   421013 
  583000   0.67890743   -2.4134703   -2.4134703   -1.6600611  0.064809796   -2.4134703   0.75340917   421013 
  584000   0.67865516   -2.4136952   -2.4136952   -1.6605659  0.066717439   -2.4136952   0.75312922   421013 
  585000   0.68000597   -2.4145773   -2.4145773   -1.6599491  0.072386121   -2.4145773   0.75462827   421013 
  586000   0.68052455    -2.416177    -2.416177   -1.6609732  0.081387265    -2.416177   0.75520375   421013 
  587000   0.67901627    -2.414367    -2.414367    -1.660837  0.076679609    -2.414367   0.75352996   421013 
  588000   0.68072087   -2.4162575   -2.4162575   -1.6608359   0.07485148   -2.4162575   0.75542161   421013 
  589000   0.68012735   -2.4158803   -2.4158803   -1.6611173  0.073783162   -2.4158803   0.75476297   421013 
  590000   0.67873835   -2.4154037   -2.4154037   -1.6621822  0.074014424   -2.4154037   0.75322153   421013 
  591000   0.67889488   -2.4166406   -2.4166406   -1.6632454  0.069893607   -2.4166406   0.75339525   421013 
  592000   0.67841427   -2.4164302   -2.4164302   -1.6635683  0.067039831   -2.4164302    0.7528619   421013 
  593000   0.67913191    -2.417393    -2.417393   -1.6637347  0.080769974    -2.417393   0.75365829   421013 
  594000   0.67894087   -2.4164092   -2.4164092   -1.6629629   0.07914188   -2.4164092   0.75344628   421013 
  595000   0.67934262   -2.4176525   -2.4176525   -1.6637604  0.073998802   -2.4176525   0.75389212   421013 
  596000   0.67964411   -2.4186618   -2.4186618   -1.6644351  0.054826109   -2.4186618   0.75422669   421013 
  597000   0.67854519   -2.4168971   -2.4168971   -1.6638899  0.073484242   -2.4168971   0.75300718   421013 
  598000   0.67912012   -2.4179171   -2.4179171   -1.6642719  0.080216373   -2.4179171    0.7536452   421013 
  599000   0.67792994   -2.4172783   -2.4172783   -1.6649539  0.083216969   -2.4172783   0.75232441   421013 
  600000   0.67963655   -2.4190954   -2.4190954   -1.6648771  0.085262866   -2.4190954    0.7542183   421013 
  601000   0.67819268   -2.4183615   -2.4183615   -1.6657455  0.088207133   -2.4183615   0.75261598   421013 
  602000   0.67858259   -2.4199424   -2.4199424   -1.6668937  0.068865219   -2.4199424   0.75304869   421013 
  603000   0.67730075   -2.4183063   -2.4183063   -1.6666801  0.079754566   -2.4183063   0.75162617   421013 
  604000   0.67596974     -2.41823     -2.41823   -1.6680809  0.074436196     -2.41823   0.75014911   421013 
  605000   0.67573119   -2.4181326   -2.4181326   -1.6682483  0.073787327   -2.4181326   0.74988438   421013 
  606000   0.67649563    -2.419972    -2.419972   -1.6692393  0.071696479    -2.419972   0.75073271   421013 
  607000   0.67582003   -2.4192889   -2.4192889    -1.669306  0.073337176   -2.4192889   0.74998297   421013 
  608000   0.67680355   -2.4209597   -2.4209597   -1.6698853  0.071935881   -2.4209597   0.75107441   421013 
  609000   0.67724197   -2.4216535   -2.4216535   -1.6700926  0.069354517   -2.4216535   0.75156095   421013 
  610000   0.67699083   -2.4212767   -2.4212767   -1.6699945  0.080343296   -2.4212767   0.75128225   421013 
  611000   0.67621542    -2.420612    -2.420612   -1.6701903  0.077728485    -2.420612   0.75042174   421013 
  612000   0.67667295     -2.42179     -2.42179   -1.6708605  0.077955893     -2.42179   0.75092948   421013 
  613000   0.67744542   -2.4231082   -2.4231082   -1.6713215   0.08558517   -2.4231082   0.75178672   421013 
  614000   0.67624298   -2.4213703   -2.4213703   -1.6709179  0.070872492   -2.4213703   0.75045233   421013 
  615000   0.67709232   -2.4219563   -2.4219563   -1.6705614  0.095673956   -2.4219563   0.75139488   421013 
  616000   0.67801723   -2.4229986   -2.4229986   -1.6705773  0.069340066   -2.4229986   0.75242128   421013 
  617000   0.67703201   -2.4221078   -2.4221078   -1.6707799  0.071343276   -2.4221078   0.75132795   421013 
  618000   0.67577639   -2.4210712   -2.4210712   -1.6711367  0.073000315   -2.4210712   0.74993454   421013 
  619000   0.67593458   -2.4211376   -2.4211376   -1.6710275  0.073342787   -2.4211376   0.75011009   421013 
  620000   0.67766883   -2.4235099   -2.4235099   -1.6714753  0.068972789   -2.4235099   0.75203465   421013 
  621000   0.67508434   -2.4212812   -2.4212812   -1.6721147  0.061914939   -2.4212812   0.74916655   421013 
  622000   0.67665674   -2.4227129   -2.4227129   -1.6718014  0.077100891   -2.4227129   0.75091149   421013 
  623000   0.67588813   -2.4232291   -2.4232291   -1.6731705  0.073050906   -2.4232291   0.75005854   421013 
  624000   0.67527852   -2.4217721   -2.4217721     -1.67239  0.063019723   -2.4217721   0.74938203   421013 
  625000   0.67625968    -2.422985    -2.422985   -1.6725141  0.062619462    -2.422985   0.75047087   421013 
  626000    0.6756209   -2.4229786   -2.4229786   -1.6732166  0.071960361   -2.4229786   0.74976198   421013 
  627000   0.67474194   -2.4230958   -2.4230958   -1.6743092  0.071371749   -2.4230958   0.74878657   421013 
  628000   0.67613148   -2.4251658   -2.4251658   -1.6748372  0.080727946   -2.4251658    0.7503286   421013 
  629000   0.67656209   -2.4262667   -2.4262667   -1.6754602  0.052965141   -2.4262667   0.75080646   421013 
  630000   0.67625914   -2.4264004   -2.4264004   -1.6759302  0.074865523   -2.4264004   0.75047026   421013 
  631000   0.67704192   -2.4281311   -2.4281311   -1.6767922  0.063292374   -2.4281311   0.75133895   421013 
  632000   0.67693564   -2.4281336   -2.4281336   -1.6769126  0.066080761   -2.4281336     0.751221   421013 
  633000   0.67669045   -2.4284731   -2.4284731   -1.6775242  0.070284137   -2.4284731   0.75094891   421013 
  634000   0.67455379   -2.4268049   -2.4268049   -1.6782271  0.072632087   -2.4268049   0.74857777   421013 
  635000   0.67540765   -2.4269975   -2.4269975   -1.6774721  0.075990724   -2.4269975   0.74952533   421013 
  636000   0.67523678   -2.4285137   -2.4285137    -1.679178  0.068351679   -2.4285137   0.74933571   421013 
  637000   0.67377942   -2.4265843   -2.4265843   -1.6788659  0.078300419   -2.4265843   0.74771843   421013 
  638000   0.67464562   -2.4278597   -2.4278597     -1.67918  0.058057385   -2.4278597   0.74867969   421013 
  639000   0.67394754   -2.4278443   -2.4278443   -1.6799393  0.064627714   -2.4278443     0.747905   421013 
  640000   0.67478626   -2.4288803   -2.4288803   -1.6800445  0.074525552   -2.4288803   0.74883576   421013 
  641000   0.67385873   -2.4289254   -2.4289254    -1.681119  0.075187327   -2.4289254   0.74780644   421013 
  642000   0.67449232   -2.4298782   -2.4298782   -1.6813687  0.077849578   -2.4298782   0.74850955   421013 
  643000    0.6750698   -2.4309002   -2.4309002   -1.6817498   0.07614705   -2.4309002   0.74915041   421013 
  644000   0.67560465    -2.431944    -2.431944      -1.6822  0.075475254    -2.431944   0.74974395   421013 
  645000   0.67491158   -2.4317945   -2.4317945   -1.6828197  0.086566579   -2.4317945   0.74897483   421013 
  646000   0.67421014   -2.4313596   -2.4313596   -1.6831632  0.072260342   -2.4313596   0.74819641   421013 
[...]
 4356000   0.60526208   -2.7300421   -2.7300421   -2.0583599  0.025939023   -2.7300421   0.67168215   421013 
 4357000   0.60314619   -2.7284346   -2.7284346   -2.0591005  0.038094202   -2.7284346   0.66933407   421013 
 4358000   0.60425168   -2.7290851   -2.7290851   -2.0585242  0.039717374   -2.7290851   0.67056087   421013 
 4359000   0.60382605   -2.7282759   -2.7282759   -2.0581874  0.031681753   -2.7282759   0.67008853   421013 
 4360000   0.60498296   -2.7296485   -2.7296485   -2.0582761  0.030057929   -2.7296485   0.67137241   421013 
 4361000   0.60581871   -2.7298415   -2.7298415   -2.0575416  0.015023383   -2.7298415   0.67229987   421013 
 4362000   0.60554313   -2.7295978   -2.7295978   -2.0576037  0.034862763   -2.7295978   0.67199405   421013 
 4363000   0.60535094   -2.7294634   -2.7294634   -2.0576826  0.030930955   -2.7294634   0.67178076   421013 
 4364000   0.60598969   -2.7307746   -2.7307746    -2.058285  0.022089861   -2.7307746    0.6724896   421013 
 4365000   0.60610513   -2.7308588   -2.7308588   -2.0582411  0.027704039   -2.7308588   0.67261772   421013 
 4366000   0.60537038   -2.7303243   -2.7303243    -2.058522   0.03417759   -2.7303243   0.67180234   421013 
 4367000   0.60560117   -2.7297531   -2.7297531   -2.0576946  0.034121719   -2.7297531   0.67205846   421013 
 4368000   0.60684478   -2.7309118   -2.7309118   -2.0574733  0.041916353   -2.7309118   0.67343853   421013 
 4369000   0.60523203   -2.7294825   -2.7294825   -2.0578337  0.023989188   -2.7294825    0.6716488   421013 
 4370000   0.60692848   -2.7310649   -2.7310649   -2.0575334   0.01661235   -2.7310649   0.67353141   421013 
 4371000   0.60724305   -2.7315853   -2.7315853   -2.0577048  0.042047955   -2.7315853   0.67388051   421013 
 4372000   0.60610984   -2.7305234   -2.7305234   -2.0579004  0.041185618   -2.7305234   0.67262294   421013 
 4373000   0.60628502   -2.7310055   -2.7310055   -2.0581881  0.036243742   -2.7310055   0.67281735   421013 
 4374000   0.60600418   -2.7304311   -2.7304311   -2.0579254  0.038145598   -2.7304311   0.67250569   421013 
 4375000   0.60606546   -2.7296244   -2.7296244   -2.0570507  0.041426579   -2.7296244   0.67257369   421013 
 4376000   0.60486244   -2.7283488   -2.7283488   -2.0571102  0.037173792   -2.7283488   0.67123866   421013 
 4377000   0.60605799    -2.729441    -2.729441   -2.0568756  0.030708942    -2.729441    0.6725654   421013 
 4378000   0.60518381   -2.7286585   -2.7286585   -2.0570632  0.025531951   -2.7286585   0.67159529   421013 
 4379000   0.60579092   -2.7286425   -2.7286425   -2.0563735  0.034104253   -2.7286425   0.67226903   421013 
 4380000    0.6060903   -2.7294442   -2.7294442    -2.056843  0.024053257   -2.7294442   0.67260126   421013 
 4381000   0.60492748   -2.7291364   -2.7291364   -2.0578255  0.030647789   -2.7291364   0.67131083   421013 
 4382000   0.60489282   -2.7275614   -2.7275614    -2.056289  0.038014836   -2.7275614   0.67127237   421013 
 4383000   0.60673404   -2.7292547   -2.7292547    -2.055939  0.041189439   -2.7292547   0.67331564   421013 
 4384000   0.60524941   -2.7282726   -2.7282726   -2.0566045  0.030966971   -2.7282726   0.67166809   421013 
 4385000   0.60630602   -2.7292106   -2.7292106   -2.0563699  0.023656172   -2.7292106   0.67284065   421013 
 4386000   0.60623543   -2.7291286   -2.7291286   -2.0563663  0.035913875   -2.7291286   0.67276231   421013 
 4387000   0.60467895   -2.7279318   -2.7279318   -2.0568968   0.02719891   -2.7279318   0.67103503   421013 
 4388000   0.60527537   -2.7291524   -2.7291524   -2.0574555  0.029290176   -2.7291524    0.6716969   421013 
 4389000   0.60437544   -2.7282707   -2.7282707   -2.0575725  0.031179894   -2.7282707   0.67069821   421013 
 4390000   0.60544033   -2.7284942   -2.7284942   -2.0566142  0.038670088   -2.7284942   0.67187996   421013 
 4391000   0.60563646   -2.7290283   -2.7290283   -2.0569307  0.023179798   -2.7290283   0.67209762   421013 
 4392000   0.60603486   -2.7292508   -2.7292508    -2.056711  0.024889062   -2.7292508   0.67253973   421013 
 4393000   0.60551136   -2.7292149   -2.7292149   -2.0572561  0.036908475   -2.7292149   0.67195879   421013 
 4394000   0.60645695   -2.7306472   -2.7306472   -2.0576391  0.038507681   -2.7306472   0.67300814   421013 
 4395000   0.60633197    -2.730342    -2.730342   -2.0574725  0.033672136    -2.730342   0.67286944   421013 
 4396000   0.60554023   -2.7299023   -2.7299023   -2.0579114  0.025710173   -2.7299023   0.67199083   421013 
 4397000    0.6053899   -2.7296986   -2.7296986   -2.0578746  0.028004145   -2.7296986     0.671824   421013 
 4398000   0.60636009   -2.7303079   -2.7303079   -2.0574072  0.037174309   -2.7303079   0.67290066   421013 
 4399000   0.60553476   -2.7304829   -2.7304829   -2.0584981   0.04032576   -2.7304829   0.67198475   421013 
 4400000   0.60667246   -2.7312748   -2.7312748   -2.0580275  0.026180365   -2.7312748   0.67324731   421013 
 4401000   0.60633453   -2.7308583   -2.7308583    -2.057986  0.029965088   -2.7308583   0.67287229   421013 
 4402000   0.60603381   -2.7310858   -2.7310858   -2.0585472  0.041618166   -2.7310858   0.67253857   421013 
 4403000   0.60588205   -2.7305853   -2.7305853   -2.0582151  0.028763995   -2.7305853   0.67237016   421013 
 4404000   0.60602812   -2.7312183   -2.7312183    -2.058686  0.040454053   -2.7312183   0.67253225   421013 
 4405000   0.60580035   -2.7302865   -2.7302865    -2.058007  0.027433066   -2.7302865   0.67227949   421013 
 4406000   0.60545698   -2.7297349   -2.7297349   -2.0578365  0.044314134   -2.7297349   0.67189844   421013 
 4407000   0.60641576    -2.729936    -2.729936   -2.0569736  0.037769426    -2.729936   0.67296244   421013 
 4408000   0.60579521   -2.7294667   -2.7294667   -2.0571929  0.031873962   -2.7294667   0.67227379   421013 
 4409000   0.60543612   -2.7286486   -2.7286486   -2.0567733  0.031997274   -2.7286486   0.67187529   421013 
 4410000   0.60451655   -2.7279489   -2.7279489   -2.0570941  0.035582443   -2.7279489   0.67085481   421013 
 4411000   0.60346666   -2.7272613   -2.7272613   -2.0575716  0.034017048   -2.7272613    0.6696897   421013 
 4412000   0.60560967   -2.7291807   -2.7291807   -2.0571128   0.02632826   -2.7291807   0.67206789   421013 
 4413000   0.60509423   -2.7284564   -2.7284564   -2.0569605  0.030235042   -2.7284564   0.67149588   421013 
 4414000   0.60438616   -2.7282011   -2.7282011    -2.057491  0.025089366   -2.7282011   0.67071011   421013 
 4415000   0.60556831   -2.7294266   -2.7294266   -2.0574046  0.026358466   -2.7294266   0.67202198   421013 
 4416000   0.60578503   -2.7296048   -2.7296048   -2.0573423  0.033509544   -2.7296048   0.67226249   421013 
 4417000   0.60565554   -2.7293304   -2.7293304   -2.0572116  0.036714657   -2.7293304   0.67211879   421013 
 4418000   0.60619177   -2.7298971   -2.7298971   -2.0571833  0.036788941   -2.7298971   0.67271387   421013 
 4419000    0.6073557   -2.7309994   -2.7309994   -2.0569939  0.028479512   -2.7309994   0.67400553   421013 
 4420000   0.60657469   -2.7300791   -2.7300791   -2.0569403  0.039181946   -2.7300791   0.67313881   421013 
 4421000    0.6056424   -2.7288666   -2.7288666   -2.0567624  0.042023724   -2.7288666   0.67210421   421013 
 4422000   0.60563218   -2.7299742   -2.7299742   -2.0578814  0.040063693   -2.7299742   0.67209286   421013 
 4423000   0.60585647   -2.7304163   -2.7304163   -2.0580745  0.035385904   -2.7304163   0.67234177   421013 
 4424000   0.60652115   -2.7310356   -2.7310356   -2.0579562  0.025973149   -2.7310356   0.67307939   421013 
 4425000   0.60519921   -2.7292669   -2.7292669   -2.0576546  0.039685509   -2.7292669   0.67161238   421013 
 4426000   0.60674937   -2.7314615   -2.7314615   -2.0581289  0.034975171   -2.7314615   0.67333266   421013 
 4427000    0.6060694   -2.7308617   -2.7308617   -2.0582836  0.033255048   -2.7308617   0.67257806   421013 
 4428000   0.60547354   -2.7303087   -2.7303087   -2.0583919  0.025797088   -2.7303087   0.67191681   421013 
 4429000   0.60591923    -2.730855    -2.730855   -2.0584436  0.036877455    -2.730855   0.67241142   421013 
 4430000    0.6055111   -2.7310279   -2.7310279   -2.0590694  0.034391173   -2.7310279    0.6719585   421013 
 4431000   0.60544768   -2.7306478   -2.7306478   -2.0587597  0.044673012   -2.7306478   0.67188812   421013 
 4432000   0.60500698   -2.7289168   -2.7289168   -2.0575177  0.030698692   -2.7289168   0.67139906   421013 
 4433000   0.60708396   -2.7309055   -2.7309055   -2.0572016  0.028761934   -2.7309055   0.67370396   421013 
 4434000   0.60495207   -2.7284952   -2.7284952   -2.0571571  0.041971626   -2.7284952   0.67133813   421013 
 4435000   0.60587246   -2.7295837   -2.7295837   -2.0572242   0.03564461   -2.7295837   0.67235951   421013 
 4436000   0.60573763   -2.7297915   -2.7297915   -2.0575817  0.045153102   -2.7297915   0.67220989   421013 
 4437000   0.60553106   -2.7295904   -2.7295904   -2.0576098  0.031362265   -2.7295904   0.67198065   421013 
 4438000   0.60619682   -2.7302918   -2.7302918   -2.0575724  0.036661612   -2.7302918   0.67271946   421013 
 4439000   0.60605193   -2.7294128   -2.7294128   -2.0568541  0.040891461   -2.7294128   0.67255868   421013 
 4440000   0.60540028   -2.7292376   -2.7292376   -2.0574021  0.019512218   -2.7292376   0.67183551   421013 
 4441000   0.60479877    -2.729188    -2.729188     -2.05802  0.036166862    -2.729188     0.671168   421013 
 4442000   0.60397527   -2.7285685   -2.7285685   -2.0583144    0.0272776   -2.7285685   0.67025413   421013 
 4443000    0.6040627   -2.7283655   -2.7283655   -2.0580144  0.024039899   -2.7283655   0.67035116   421013 
 4444000   0.60449808   -2.7292996   -2.7292996   -2.0584653  0.029048261   -2.7292996   0.67083431   421013 
 4445000   0.60431638   -2.7297424   -2.7297424   -2.0591097  0.041730752   -2.7297424   0.67063268   421013 
 4446000   0.60456576   -2.7295357   -2.7295357   -2.0586262   0.04397639   -2.7295357   0.67090942   421013 
 4447000   0.60445767   -2.7290167   -2.7290167   -2.0582272  0.035001542   -2.7290167   0.67078947   421013 
 4448000   0.60577105    -2.730845    -2.730845    -2.058598  0.025508622    -2.730845   0.67224698   421013 
 4449000   0.60581955   -2.7308848   -2.7308848    -2.058584  0.045066811   -2.7308848    0.6723008   421013 
 4450000   0.60511142   -2.7312032   -2.7312032   -2.0596883  0.024985944   -2.7312032   0.67151496   421013 
 4451000   0.60465239   -2.7301393   -2.7301393   -2.0591337  0.042948802   -2.7301393   0.67100555   421013 
 4452000   0.60485006   -2.7306702   -2.7306702   -2.0594453  0.023267584   -2.7306702   0.67122491   421013 
 4453000   0.60427908   -2.7309039   -2.7309039   -2.0603126  0.039438248   -2.7309039   0.67059128   421013 
 4454000   0.60465719   -2.7314299   -2.7314299    -2.060419  0.029878414   -2.7314299   0.67101088   421013 
 4455000   0.60370633    -2.730697    -2.730697   -2.0607413  0.047211531    -2.730697   0.66995568   421013 
 4456000    0.6043528   -2.7302362   -2.7302362   -2.0595631  0.041966187   -2.7302362   0.67067309   421013 
 4457000   0.60508119   -2.7306183   -2.7306183   -2.0591369  0.032829445   -2.7306183   0.67148141   421013 
 4458000   0.60608804    -2.731978    -2.731978   -2.0593793  0.029789176    -2.731978   0.67259875   421013 
 4459000   0.60622166   -2.7318724   -2.7318724   -2.0591254  0.024293006   -2.7318724   0.67274703   421013 
 4460000   0.60562758   -2.7319727   -2.7319727    -2.059885  0.034998943   -2.7319727   0.67208776   421013 
 4461000   0.60526505   -2.7309867   -2.7309867   -2.0593013  0.037241228   -2.7309867   0.67168545   421013 
 4462000   0.60540913   -2.7318556   -2.7318556   -2.0600102  0.038681498   -2.7318556   0.67184533   421013 
 4463000   0.60528738   -2.7318731   -2.7318731   -2.0601629   0.04221523   -2.7318731   0.67171023   421013 
 4464000   0.60512042    -2.731467    -2.731467   -2.0599421   0.03707779    -2.731467   0.67152495   421013 
 4465000   0.60570568   -2.7323503   -2.7323503   -2.0601759   0.02725373   -2.7323503   0.67217443   421013 
 4466000   0.60539598   -2.7316183   -2.7316183   -2.0597876  0.022119272   -2.7316183   0.67183074   421013 
 4467000   0.60438282   -2.7304774   -2.7304774    -2.059771  0.036522904   -2.7304774    0.6707064   421013 
 4468000   0.60413129   -2.7305856   -2.7305856   -2.0601583   0.02421991   -2.7305856   0.67042727   421013 
 4469000   0.60373154   -2.7303559   -2.7303559   -2.0603723  0.041960685   -2.7303559   0.66998366   421013 
 4470000   0.60538719   -2.7322597   -2.7322597   -2.0604387  0.033105322   -2.7322597   0.67182099   421013 
 4471000   0.60496326   -2.7316104   -2.7316104   -2.0602599  0.043426118   -2.7316104   0.67135054   421013 
 4472000   0.60390279   -2.7304607   -2.7304607    -2.060287  0.040862084   -2.7304607   0.67017369   421013 
 4473000   0.60373864   -2.7298753   -2.7298753   -2.0598838  0.044227867   -2.7298753   0.66999153   421013 
 4474000   0.60559669   -2.7321335   -2.7321335     -2.06008  0.028348241   -2.7321335   0.67205348   421013 
 4475000   0.60570625   -2.7331179   -2.7331179   -2.0609429  0.044646451   -2.7331179   0.67217506   421013 
 4476000   0.60312159   -2.7304635   -2.7304635   -2.0611567  0.032886109   -2.7304635   0.66930677   421013 
 4477000   0.60398478   -2.7322229   -2.7322229   -2.0619582  0.047803667   -2.7322229   0.67026468   421013 
 4478000   0.60345947   -2.7311578   -2.7311578   -2.0614761  0.039308959   -2.7311578   0.66968172   421013 
 4479000   0.60492565   -2.7329043   -2.7329043   -2.0615955  0.034981263   -2.7329043    0.6713088   421013 
 4480000   0.60381867   -2.7319178   -2.7319178   -2.0618374  0.045846062   -2.7319178   0.67008035   421013 
 4481000   0.60437357    -2.732197    -2.732197   -2.0615008  0.033186457    -2.732197   0.67069614   421013 
 4482000   0.60495688   -2.7325091   -2.7325091   -2.0611656  0.017378917   -2.7325091   0.67134345   421013 
 4483000   0.60602293   -2.7337738   -2.7337738   -2.0612473  0.041134363   -2.7337738    0.6725265   421013 
 4484000   0.60362931   -2.7309956   -2.7309956   -2.0611253  0.028041587   -2.7309956   0.66987021   421013 
 4485000   0.60483187   -2.7319142   -2.7319142   -2.0607095  0.033174673   -2.7319142   0.67120473   421013 
 4486000   0.60690943   -2.7346807   -2.7346807   -2.0611704  0.034043875   -2.7346807   0.67351028   421013 
 4487000   0.60660612   -2.7342343   -2.7342343   -2.0610606  0.040442388   -2.7342343   0.67317368   421013 
 4488000   0.60586016   -2.7336668   -2.7336668    -2.061321  0.038856413   -2.7336668   0.67234587   421013 
 4489000   0.60471633   -2.7324959   -2.7324959   -2.0614193  0.035682724   -2.7324959   0.67107651   421013 
 4490000   0.60525563   -2.7331295   -2.7331295   -2.0614546   0.04146739   -2.7331295   0.67167499   421013 
 4491000   0.60503568   -2.7334918   -2.7334918   -2.0620609  0.038091761   -2.7334918    0.6714309   421013 
 4492000   0.60631908    -2.734383    -2.734383   -2.0615278  0.034091995    -2.734383   0.67285515   421013 
 4493000   0.60539068   -2.7336471   -2.7336471   -2.0618223  0.038135894   -2.7336471   0.67182487   421013 
 4494000   0.60581584   -2.7337413   -2.7337413   -2.0614446  0.035021949   -2.7337413   0.67229668   421013 
 4495000   0.60461032   -2.7320771   -2.7320771   -2.0611182  0.034454375   -2.7320771   0.67095887   421013 
 4496000   0.60487348   -2.7324075   -2.7324075   -2.0611566  0.026365944   -2.7324075    0.6712509   421013 
 4497000   0.60578987   -2.7328217   -2.7328217   -2.0605539  0.035798188   -2.7328217   0.67226786   421013 
 4498000   0.60315515   -2.7300226   -2.7300226   -2.0606786  0.031815351   -2.7300226   0.66934401   421013 
 4499000    0.6041155   -2.7318753   -2.7318753   -2.0614655   0.03823846   -2.7318753   0.67040975   421013 
 4500000   0.60481435   -2.7322433   -2.7322433    -2.061058  0.042252884   -2.7322433   0.67118529   421013 
 4501000   0.60637493   -2.7336689   -2.7336689   -2.0607518  0.047045546   -2.7336689   0.67291712   421013 
 4502000   0.60470582    -2.731944    -2.731944   -2.0608792  0.041168902    -2.731944   0.67106485   421013 
 4503000   0.60357675   -2.7305919   -2.7305919   -2.0607801  0.040524302   -2.7305919   0.66981188   421013 
 4504000   0.60529703   -2.7321207   -2.7321207   -2.0603997  0.033313081   -2.7321207   0.67172093   421013 
 4505000   0.60438839   -2.7314751   -2.7314751   -2.0607625  0.026673149   -2.7314751   0.67071259   421013 
 4506000   0.60380736   -2.7314668   -2.7314668    -2.061399  0.030850612   -2.7314668   0.67006779   421013 
 4507000   0.60376584   -2.7313564   -2.7313564   -2.0613347  0.036177096   -2.7313564   0.67002172   421013 
 4508000   0.60406621   -2.7315946   -2.7315946   -2.0612395  0.037541938   -2.7315946   0.67035505   421013 
 4509000   0.60377484    -2.730488    -2.730488   -2.0604563  0.036309892    -2.730488   0.67003171   421013 
 4510000     0.604461   -2.7315343   -2.7315343   -2.0607412  0.036316032   -2.7315343   0.67079316   421013 
 4511000   0.60546915   -2.7318666   -2.7318666   -2.0599546  0.025560802   -2.7318666   0.67191195   421013 
 4512000   0.60522319   -2.7316789   -2.7316789   -2.0600399  0.035759507   -2.7316789   0.67163899   421013 
 4513000   0.60559295    -2.732415    -2.732415   -2.0603657  0.024104796    -2.732415   0.67204933   421013 
 4514000   0.60402631   -2.7304888   -2.7304888   -2.0601781  0.020912011   -2.7304888   0.67031077   421013 
 4515000   0.60345374   -2.7313397   -2.7313397   -2.0616643   0.03121481   -2.7313397   0.66967537   421013 
 4516000   0.60553065   -2.7331804   -2.7331804   -2.0612002  0.027915941   -2.7331804    0.6719802   421013 
 4517000   0.60599598   -2.7330732   -2.7330732   -2.0605766  0.024904439   -2.7330732   0.67249659   421013 
 4518000   0.60553641   -2.7322025   -2.7322025   -2.0602159  0.030638253   -2.7322025   0.67198658   421013 
 4519000   0.60596427   -2.7334906   -2.7334906   -2.0610292  0.042942592   -2.7334906    0.6724614   421013 
 4520000   0.60621183   -2.7336536   -2.7336536   -2.0609174  0.035855943   -2.7336536   0.67273612   421013 
 4521000   0.60582435   -2.7332977   -2.7332977   -2.0609915   0.03718928   -2.7332977   0.67230613   421013 
 4522000   0.60625705   -2.7338658   -2.7338658   -2.0610795  0.033992265   -2.7338658   0.67278631   421013 
 4523000   0.60669308    -2.735212    -2.735212   -2.0619418  0.034898526    -2.735212   0.67327018   421013 
 4524000   0.60515829   -2.7332414   -2.7332414   -2.0616744  0.039250101   -2.7332414   0.67156697   421013 
 4525000   0.60511413   -2.7334538   -2.7334538   -2.0619358  0.029889775   -2.7334538   0.67151797   421013 
 4526000   0.60588869   -2.7347309   -2.7347309   -2.0623534    0.0344135   -2.7347309   0.67237752   421013 
 4527000   0.60604605   -2.7352542   -2.7352542    -2.062702  0.026729756   -2.7352542   0.67255216   421013 
 4528000   0.60506545   -2.7339502   -2.7339502   -2.0624862  0.034589477   -2.7339502   0.67146394   421013 
 4529000   0.60469417   -2.7328247   -2.7328247   -2.0617728  0.031309528   -2.7328247   0.67105192   421013 
 4530000   0.60578424   -2.7342294   -2.7342294   -2.0619678  0.038705563   -2.7342294   0.67226161   421013 
 4531000   0.60399147   -2.7324468   -2.7324468   -2.0621747  0.035023939   -2.7324468   0.67027211   421013 
 4532000   0.60440332   -2.7337066   -2.7337066   -2.0629775  0.025623733   -2.7337066   0.67072915   421013 
 4533000   0.60369878   -2.7318763   -2.7318763    -2.061929  0.035937916   -2.7318763    0.6699473   421013 
 4534000   0.60381657   -2.7323697   -2.7323697   -2.0622917  0.040181403   -2.7323697   0.67007802   421013 
 4535000   0.60392819   -2.7320094   -2.7320094   -2.0618075   0.03637972   -2.7320094   0.67020188   421013 
 4536000   0.60583973   -2.7340171   -2.7340171   -2.0616939  0.028413437   -2.7340171   0.67232319   421013 
 4537000    0.6057766   -2.7340485   -2.