LAMMPS (29 Oct 2020)
  using 1 OpenMP thread(s) per MPI task
Created orthogonal box = (0.0000000 0.0000000 0.0000000) to (160.00000 160.00000 160.00000)
  4 by 4 by 8 MPI processor grid
Lattice spacing in x,y,z = 1.0000000 1.0000000 1.0000000
Created 4096000 atoms
  create_atoms CPU = 0.038 seconds
4096000 atoms in group solvent
Reading data file ...
  orthogonal box = (0.0000000 0.0000000 0.0000000) to (160.00000 160.00000 320.00000)
  4 by 4 by 8 MPI processor grid
Finding 1-2 1-3 1-4 neighbors ...
  special bond factors lj:    0.0      0.0      0.0     
  special bond factors coul:  0.0      0.0      0.0     
     0 = max # of 1-2 neighbors
     0 = max # of 1-3 neighbors
     0 = max # of 1-4 neighbors
     1 = max # of special neighbors
  special bonds CPU = 20.716 seconds
  read_data CPU = 20.771 seconds
Balancing ...
Neighbor list info ...
  update every 1 steps, delay 10 steps, check yes
  max neighbors/atom: 2000, page size: 100000
  master list distance cutoff = 2.9
  ghost atom cutoff = 2.9
  binsize = 1.45, bins = 111 111 221
  1 neighbor lists, perpetual/occasional/extra = 1 0 0
  (1) pair lj/cut/opt, perpetual
      attributes: half, newton on
      pair build: half/bin/newton
      stencil: half/bin/3d/newton
      bin: standard
 rebalancing time: 0.063 seconds
  iteration count = 5
  initial/final maximal load/proc = 64000.000 40000.000
  initial/final imbalance factor  = 2.0000000 1.2500000
  x cuts: 0.0000000 0.25 0.5 0.75 1.0000000
  y cuts: 0.0000000 0.25 0.5 0.75 1.0000000
  z cuts: 0.0000000 0.0625 0.12890625 0.1875 0.2578125 0.30859375 0.38671875 0.4375 1.0000000
WARNING: Ignoring 'compress yes' for molecular system (src/delete_atoms.cpp:125)
Deleted 76800 atoms, new total = 4019200
WARNING: Ignoring 'compress yes' for molecular system (src/delete_atoms.cpp:125)
Deleted 25600 atoms, new total = 3993600
dynamic group thermo defined
New timer settings: style=full  mode=nosync  timeout=off
Per MPI rank memory allocation (min/avg/max) = 31.86 | 38.71 | 41.48 Mbytes
Step Temp E_pair E_vdwl TotEng Press PotEng KinEng Volume 
       0   0.49997217   -3.3137429   -3.3137429   -2.5637849    8.4475947   -3.3137429   0.74995807      8192000 
    1000    1.4218057   -4.7581727   -4.7581727   -2.6254646    4.8154836   -4.7581727    2.1327081      8192000 
    2000    1.4173914   -4.8210158   -4.8210158   -2.6949291    4.0874468   -4.8210158    2.1260866      8192000 
    3000    1.4131803    -4.881406    -4.881406   -2.7616362    3.3784311    -4.881406    2.1197699      8192000 
    4000    1.3810432   -4.8923913   -4.8923913   -2.8208271    2.8247769   -4.8923913    2.0715642      8192000 
    5000    1.3435339   -4.8881381   -4.8881381   -2.8728377    2.3547374   -4.8881381    2.0153004      8192000 
    6000    1.3240366   -4.9040741   -4.9040741   -2.9180197    1.8441498   -4.9040741    1.9860544      8192000 
    7000    1.3168049    -4.926653    -4.926653   -2.9514462    1.3018064    -4.926653    1.9752068      8192000 
    8000    1.3033733   -4.9266635   -4.9266635    -2.971604   0.81422604   -4.9266635    1.9550595      8192000 
    9000    1.2762049   -4.8960296   -4.8960296   -2.9817227   0.42730195   -4.8960296    1.9143069      8192000 
   10000    1.2393609   -4.8442035   -4.8442035   -2.9851626   0.13564345   -4.8442035    1.8590409      8192000 
   11000    1.1993471   -4.7831655   -4.7831655   -2.9841453 -0.061513837   -4.7831655    1.7990202      8192000 
   12000    1.1628551   -4.7250103   -4.7250103   -2.9807281  -0.18430838   -4.7250103    1.7442822      8192000 
   13000    1.1385371   -4.6837221   -4.6837221   -2.9759169  -0.21703913   -4.6837221    1.7078052      8192000 
   14000    1.1349617   -4.6731921   -4.6731921     -2.97075  -0.16069092   -4.6731921    1.7024421      8192000 
   15000    1.1424516   -4.6798015   -4.6798015   -2.9661245 -0.068394629   -4.6798015     1.713677      8192000 
   16000    1.1518231   -4.6910614   -4.6910614   -2.9633272  0.012243055   -4.6910614    1.7277342      8192000 
   17000    1.1589725   -4.7011533   -4.7011533    -2.962695  0.069577287   -4.7011533    1.7384583      8192000 
   18000    1.1629262   -4.7088246   -4.7088246   -2.9644357   0.10331603   -4.7088246    1.7443889      8192000 
   19000    1.1638998   -4.7133914   -4.7133914   -2.9675421    0.1243354   -4.7133914    1.7458493      8192000 
   20000    1.1627934   -4.7158069   -4.7158069   -2.9716172   0.13952387   -4.7158069    1.7441897      8192000 
   21000    1.1614231   -4.7176517   -4.7176517   -2.9755175   0.14438983   -4.7176517    1.7421341      8192000 
   22000      1.15912   -4.7176027   -4.7176027   -2.9789231   0.13885871   -4.7176027    1.7386796      8192000 
   23000    1.1586235   -4.7195364   -4.7195364   -2.9816016   0.13292338   -4.7195364    1.7379348      8192000 
   24000    1.1592946   -4.7225461   -4.7225461   -2.9836046   0.14011629   -4.7225461    1.7389415      8192000 
   25000    1.1618186   -4.7279086   -4.7279086   -2.9851811   0.15628379   -4.7279086    1.7427274      8192000 
   26000    1.1655576   -4.7348793   -4.7348793   -2.9865434   0.18231554   -4.7348793     1.748336      8192000 
   27000       1.1687   -4.7411577   -4.7411577   -2.9881082   0.20308965   -4.7411577    1.7530495      8192000 
   28000    1.1699738   -4.7449183   -4.7449183   -2.9899581   0.21586234   -4.7449183    1.7549602      8192000 
   29000    1.1692194   -4.7458078   -4.7458078   -2.9919791   0.21683923   -4.7458078    1.7538286      8192000 
   30000    1.1681202   -4.7459319   -4.7459319    -2.993752   0.21513461   -4.7459319    1.7521798      8192000 
   31000    1.1663906   -4.7450685   -4.7450685   -2.9954831   0.20846892   -4.7450685    1.7495855      8192000 
   32000    1.1639452   -4.7429708   -4.7429708   -2.9970534   0.20189046   -4.7429708    1.7459174      8192000 
   33000    1.1625646    -4.742487    -4.742487   -2.9986406   0.19593822    -4.742487    1.7438464      8192000 
   34000    1.1618197   -4.7428936   -4.7428936   -3.0001644   0.19531201   -4.7428936    1.7427292      8192000 
   35000     1.161883   -4.7442286   -4.7442286   -3.0014045   0.19632734   -4.7442286    1.7428241      8192000 
   36000    1.1621761   -4.7459905   -4.7459905   -3.0027268   0.20336555   -4.7459905    1.7432637      8192000 
   37000      1.16331   -4.7490575   -4.7490575   -3.0040929   0.20787584   -4.7490575    1.7449646      8192000 
   38000    1.1637366    -4.751039    -4.751039   -3.0054345   0.21543107    -4.751039    1.7456044      8192000 
   39000    1.1641161   -4.7530891   -4.7530891   -3.0069154   0.22035594   -4.7530891    1.7461737      8192000 
   40000    1.1640961   -4.7544543   -4.7544543   -3.0083106   0.22596821   -4.7544543    1.7461437      8192000 
   41000    1.1645812   -4.7563785   -4.7563785   -3.0095071   0.23009222   -4.7563785    1.7468714      8192000 
   42000     1.164531   -4.7574347   -4.7574347   -3.0106386   0.23403854   -4.7574347    1.7467961      8192000 
   43000    1.1645604     -4.75879     -4.75879   -3.0119498   0.24250929     -4.75879    1.7468402      8192000 
   44000     1.167487    -4.765177    -4.765177   -3.0139469   0.40069022    -4.765177    1.7512301      8192000 
   45000    1.1680885   -4.7673099   -4.7673099   -3.0151776    0.7458455   -4.7673099    1.7521323      8192000 
   46000    1.1670932   -4.7669112   -4.7669112   -3.0162718    1.1081365   -4.7669112    1.7506394      8192000 
   47000    1.1668794   -4.7677784   -4.7677784   -3.0174596     1.455976   -4.7677784    1.7503187      8192000 
   48000    1.1664614   -4.7687108   -4.7687108   -3.0190192    1.8046763   -4.7687108    1.7496917      8192000 
   49000    1.1675667   -4.7714239   -4.7714239   -3.0200743    2.1640832   -4.7714239    1.7513496      8192000 
   50000    1.1691684   -4.7751983   -4.7751983   -3.0214462     2.478476   -4.7751983    1.7537522      8192000 
   51000    1.1739454    -4.783582    -4.783582   -3.0226644    2.4128998    -4.783582    1.7609176      8192000 
   52000    1.1724831   -4.7823475   -4.7823475   -3.0236233    2.1528982   -4.7823475    1.7587242      8192000 
   53000     1.172103   -4.7829288   -4.7829288   -3.0247748    1.8784765   -4.7829288     1.758154      8192000 
   54000    1.1710997   -4.7826588   -4.7826588   -3.0260097    1.6186473   -4.7826588    1.7566491      8192000 
   55000    1.1676636   -4.7784476   -4.7784476   -3.0269526    1.3486827   -4.7784476     1.751495      8192000 
   56000     1.156201   -4.7622616   -4.7622616   -3.0279605    1.0954442   -4.7622616    1.7343011      8192000 
   57000    1.1386117   -4.7367244   -4.7367244   -3.0288072   0.89348459   -4.7367244    1.7079172      8192000 
   58000    1.1166074   -4.7048177   -4.7048177   -3.0299071    0.7316588   -4.7048177    1.6749106      8192000 
   59000    1.0927054   -4.6702952   -4.6702952   -3.0312374   0.59676011   -4.6702952    1.6390577      8192000 
   60000    1.0669377    -4.633094    -4.633094   -3.0326878   0.46759278    -4.633094    1.6004062      8192000 
   61000    1.0411642   -4.5959042   -4.5959042   -3.0341582   0.34926339   -4.5959042     1.561746      8192000 
   62000     1.014806    -4.557476    -4.557476   -3.0352674   0.24422712    -4.557476    1.5222086      8192000 
   63000   0.99022604   -4.5219579   -4.5219579   -3.0366192   0.15100939   -4.5219579    1.4853387      8192000 
   64000   0.96754581   -4.4892557   -4.4892557   -3.0379374  0.076173277   -4.4892557    1.4513183      8192000 
   65000   0.94728735   -4.4601735   -4.4601735   -3.0392428  0.018002525   -4.4601735    1.4209307      8192000 
   66000   0.93000266   -4.4354237   -4.4354237   -3.0404201 -0.022734831   -4.4354237    1.3950036      8192000 
   67000   0.91593884   -4.4157975   -4.4157975   -3.0418896  -0.05081741   -4.4157975    1.3739079      8192000 
   68000   0.90483916   -4.4005693   -4.4005693   -3.0433108 -0.064379801   -4.4005693    1.3572584      8192000 
   69000   0.89685754   -4.3899522   -4.3899522   -3.0446663   -0.0675514   -4.3899522     1.345286      8192000 
   70000   0.89283614   -4.3853275   -4.3853275   -3.0460736  -0.06690811   -4.3853275    1.3392539      8192000 
   71000   0.89054715   -4.3833691   -4.3833691   -3.0475487 -0.056291919   -4.3833691    1.3358204      8192000 
   72000   0.89111092   -4.3854846   -4.3854846   -3.0488185 -0.042673878   -4.3854846     1.336666      8192000 
   73000   0.89361901    -4.390794    -4.390794   -3.0503659 -0.024738287    -4.390794    1.3404282      8192000 
   74000   0.89693025   -4.3973975   -4.3973975   -3.0520025 0.00099344886   -4.3973975     1.345395      8192000 
   75000   0.90069122   -4.4048607   -4.4048607   -3.0538242  0.027402813   -4.4048607    1.3510365      8192000 
   76000   0.90528318   -4.4136108   -4.4136108   -3.0556864  0.052046463   -4.4136108    1.3579244      8192000 
   77000   0.90910983   -4.4212294   -4.4212294    -3.057565  0.077735288   -4.4212294    1.3636644      8192000 
   78000   0.91281879   -4.4287579   -4.4287579   -3.0595301  0.098286357   -4.4287579    1.3692278      8192000 
   79000   0.91569231   -4.4350307   -4.4350307   -3.0614926   0.11717826   -4.4350307    1.3735381      8192000 
   80000   0.91747463   -4.4397353   -4.4397353   -3.0635237   0.13698624   -4.4397353    1.3762116      8192000 
   81000   0.91873834   -4.4438452   -4.4438452    -3.065738   0.15199347   -4.4438452    1.3781072      8192000 
   82000   0.91941254   -4.4469118   -4.4469118   -3.0677933   0.15976508   -4.4469118    1.3791185      8192000 
   83000   0.91868663   -4.4479764   -4.4479764   -3.0699468   0.16509858   -4.4479764    1.3780296      8192000 
   84000    0.9184092    -4.449775    -4.449775   -3.0721616   0.16778504    -4.449775    1.3776135      8192000 
   85000   0.91680388   -4.4496677   -4.4496677   -3.0744622   0.17090285   -4.4496677    1.3752055      8192000 
   86000   0.91593451   -4.4505517   -4.4505517   -3.0766503   0.16837641   -4.4505517    1.3739014      8192000 
   87000   0.91474574   -4.4510931   -4.4510931   -3.0789748   0.16486112   -4.4510931    1.3721183      8192000 
   88000   0.91271277   -4.4504996   -4.4504996   -3.0814308   0.16056628   -4.4504996    1.3690688      8192000 
   89000   0.90954923   -4.4483719   -4.4483719   -3.0840483   0.15563546   -4.4483719    1.3643235      8192000 
   90000   0.90576477   -4.4454015   -4.4454015   -3.0867547    0.1444762   -4.4454015    1.3586468      8192000 
   91000   0.90114251   -4.4411973   -4.4411973   -3.0894839   0.12939518   -4.4411973    1.3517134      8192000 
   92000   0.89743146    -4.438337    -4.438337   -3.0921901   0.11062852    -4.438337    1.3461469      8192000 
   93000   0.89254506   -4.4335932   -4.4335932   -3.0947759   0.09226225   -4.4335932    1.3388173      8192000 
   94000   0.88762117   -4.4287977   -4.4287977   -3.0973663  0.078102972   -4.4287977    1.3314314      8192000 
   95000   0.88326774   -4.4248471   -4.4248471   -3.0999459  0.060604181   -4.4248471    1.3249013      8192000 
   96000   0.87897168   -4.4208917   -4.4208917   -3.1024345  0.045497125   -4.4208917    1.3184572      8192000 
   97000   0.87487682   -4.4172717   -4.4172717   -3.1049568  0.034004162   -4.4172717    1.3123149      8192000 
   98000   0.87217365   -4.4155113   -4.4155113   -3.1072511  0.025225933   -4.4155113    1.3082601      8192000 
   99000   0.86987991   -4.4143998   -4.4143998   -3.1095802  0.020679963   -4.4143998    1.3048195      8192000 
  100000    0.8688349   -4.4151113   -4.4151113   -3.1118592  0.020145642   -4.4151113     1.303252      8192000 
  101000   0.86858207   -4.4173077   -4.4173077   -3.1144349  0.018527955   -4.4173077    1.3028728      8192000 
  102000   0.86896978   -4.4204537   -4.4204537   -3.1169993  0.025756136   -4.4204537    1.3034543      8192000 
  103000   0.87056514    -4.425232    -4.425232   -3.1193846    0.0334049    -4.425232    1.3058474      8192000 
  104000   0.87153468   -4.4290746   -4.4290746   -3.1217729  0.044386551   -4.4290746    1.3073017      8192000 
  105000   0.87362447   -4.4347777   -4.4347777   -3.1243413  0.051998784   -4.4347777    1.3104364      8192000 
  106000   0.87533022   -4.4396271   -4.4396271   -3.1266321  0.064003844   -4.4396271     1.312995      8192000 
  107000   0.87712977    -4.444838    -4.444838   -3.1291436  0.076437347    -4.444838    1.3156943      8192000 
  108000   0.87921155   -4.4504389   -4.4504389   -3.1316219  0.087428404   -4.4504389     1.318817      8192000 
  109000   0.88094918   -4.4552806   -4.4552806   -3.1338572  0.098604827   -4.4552806    1.3214234      8192000 
  110000   0.88240094   -4.4599471   -4.4599471    -3.136346   0.10725547   -4.4599471    1.3236011      8192000 
  111000   0.88385813   -4.4644146   -4.4644146   -3.1386277   0.11249409   -4.4644146    1.3257869      8192000 
  112000   0.88447533   -4.4678182   -4.4678182   -3.1411056   0.11741564   -4.4678182    1.3267127      8192000 
  113000   0.88454449   -4.4700817   -4.4700817   -3.1432653   0.12218412   -4.4700817    1.3268164      8192000 
  114000   0.88381923   -4.4712253   -4.4712253   -3.1454968   0.12343364   -4.4712253    1.3257285      8192000 
  115000    0.8829149   -4.4720879   -4.4720879   -3.1477159   0.11665119   -4.4720879     1.324372      8192000 
  116000   0.88101577   -4.4715012   -4.4715012   -3.1499779   0.11068487   -4.4715012    1.3215233      8192000 
  117000   0.87929138   -4.4711028   -4.4711028    -3.152166  0.099862501   -4.4711028    1.3189367      8192000 
  118000   0.87674324   -4.4696465   -4.4696465    -3.154532   0.09401966   -4.4696465    1.3151145      8192000 
  119000   0.87465859   -4.4687457   -4.4687457   -3.1567582  0.085145762   -4.4687457    1.3119876      8192000 
  120000   0.87267706   -4.4680014   -4.4680014   -3.1589862  0.076680465   -4.4680014    1.3090153      8192000 
  121000   0.87080547   -4.4675112   -4.4675112   -3.1613034  0.069893898   -4.4675112    1.3062079      8192000 
  122000   0.86942477   -4.4677281   -4.4677281   -3.1635913  0.064268667   -4.4677281    1.3041368      8192000 
  123000   0.86813921   -4.4677109   -4.4677109   -3.1655024  0.061512452   -4.4677109    1.3022085      8192000 
  124000   0.86713989   -4.4682114   -4.4682114   -3.1675019  0.059497949   -4.4682114    1.3007095      8192000 
  125000   0.86734479   -4.4708246   -4.4708246   -3.1698077  0.059398299   -4.4708246    1.3010169      8192000 
  126000   0.86796936   -4.4739598   -4.4739598   -3.1720061  0.062138142   -4.4739598    1.3019537      8192000 
  127000   0.86872437   -4.4773657   -4.4773657   -3.1742794  0.067739972   -4.4773657    1.3030862      8192000 
  128000   0.87081172   -4.4826495   -4.4826495   -3.1764322  0.077777361   -4.4826495    1.3062172      8192000 
  129000   0.87338006   -4.4887569   -4.4887569   -3.1786872  0.088544413   -4.4887569    1.3100698      8192000 
  130000   0.87653184    -4.495729    -4.495729   -3.1809316   0.10507723    -4.495729    1.3147974      8192000 
  131000   0.87960068   -4.5026556   -4.5026556   -3.1832549   0.12328539   -4.5026556    1.3194007      8192000 
  132000   0.88390624   -4.5114756   -4.5114756   -3.1856166   0.14010921   -4.5114756     1.325859      8192000 
  133000   0.88794493   -4.5201954   -4.5201954   -3.1882783   0.16038872   -4.5201954    1.3319171      8192000 
  134000   0.89250143   -4.5296186   -4.5296186   -3.1908668   0.18288448   -4.5296186    1.3387518      8192000 
  135000   0.89761509   -4.5399204   -4.5399204   -3.1934981   0.20518712   -4.5399204    1.3464223      8192000 
  136000   0.90273366   -4.5504198   -4.5504198   -3.1963196   0.23273741   -4.5504198    1.3541002      8192000 
  137000   0.90783646   -4.5607595   -4.5607595   -3.1990052   0.26124415   -4.5607595    1.3617543      8192000 
  138000   0.91323882   -4.5720059   -4.5720059   -3.2021481   0.29183282   -4.5720059    1.3698579      8192000 
  139000   0.91897032   -4.5837194   -4.5837194   -3.2052642   0.32639644   -4.5837194    1.3784551      8192000 
  140000   0.92466719   -4.5955584   -4.5955584    -3.208558    0.3643563   -4.5955584    1.3870004      8192000 
  141000   0.93007596   -4.6070118   -4.6070118   -3.2118982   0.40788141   -4.6070118    1.3951136      8192000 
  142000   0.93513555   -4.6184046   -4.6184046   -3.2157016   0.45386655   -4.6184046     1.402703      8192000 
  143000   0.94011232   -4.6298077   -4.6298077   -3.2196396    0.5020757   -4.6298077    1.4101681      8192000 
  144000   0.94467617   -4.6408132   -4.6408132   -3.2237993   0.54803033   -4.6408132    1.4170139      8192000 
  145000   0.94864547   -4.6513415   -4.6513415   -3.2283736   0.59074986   -4.6513415    1.4229679      8192000 
  146000    0.9512209   -4.6601977   -4.6601977   -3.2333667   0.63041382   -4.6601977     1.426831      8192000 
  147000    0.9539666   -4.6693221   -4.6693221   -3.2383726   0.66021291   -4.6693221    1.4309495      8192000 
  148000   0.95488744    -4.675584    -4.675584   -3.2432532   0.68274999    -4.675584    1.4323308      8192000 
  149000   0.95591023   -4.6818802   -4.6818802   -3.2480152   0.69506934   -4.6818802     1.433865      8192000 
  150000   0.95491179   -4.6849223   -4.6849223    -3.252555   0.70299143   -4.6849223    1.4323673      8192000 
  151000   0.95352527   -4.6873981   -4.6873981   -3.2571105   0.70018989   -4.6873981    1.4302875      8192000 
  152000   0.95103289   -4.6878984   -4.6878984   -3.2613495   0.69484458   -4.6878984     1.426549      8192000 
  153000   0.94807391    -4.687771    -4.687771   -3.2656605   0.68216581    -4.687771    1.4221105      8192000 
  154000   0.94496573   -4.6871039   -4.6871039   -3.2696557   0.66287171   -4.6871039    1.4174482      8192000 
  155000   0.94089334   -4.6852612   -4.6852612   -3.2739216   0.63996037   -4.6852612    1.4113397      8192000 
  156000   0.93630994   -4.6821583   -4.6821583   -3.2776938   0.61153563   -4.6821583    1.4044646      8192000 
  157000   0.93146078   -4.6785845   -4.6785845   -3.2813937    0.5764905   -4.6785845    1.3971908      8192000 
  158000   0.92537315   -4.6731642   -4.6731642   -3.2851048    0.5394312   -4.6731642    1.3880594      8192000 
  159000   0.91777507   -4.6651406   -4.6651406   -3.2884784   0.49665012   -4.6651406    1.3766623      8192000 
  160000   0.91017579   -4.6567823   -4.6567823   -3.2915189   0.44822319   -4.6567823    1.3652633      8192000 
  161000   0.90155336   -4.6466586   -4.6466586   -3.2943289   0.39917863   -4.6466586    1.3523297      8192000 
  162000   0.89301585   -4.6362982   -4.6362982   -3.2967747   0.34761879   -4.6362982    1.3395234      8192000 
  163000   0.88456066   -4.6258456   -4.6258456    -3.299005   0.29468199   -4.6258456    1.3268407      8192000 
  164000   0.87485023   -4.6132048   -4.6132048   -3.3009297   0.24883284   -4.6132048     1.312275      8192000 
  165000   0.86602913   -4.6014763   -4.6014763   -3.3024329   0.20166822   -4.6014763    1.2990434      8192000 
  166000   0.85692246   -4.5891666   -4.5891666   -3.3037833    0.1586893   -4.5891666    1.2853834      8192000 
  167000   0.84796034   -4.5768858   -4.5768858   -3.3049456   0.12048751   -4.5768858    1.2719402      8192000 
  168000   0.83880494   -4.5642446   -4.5642446   -3.3060375  0.085177281   -4.5642446    1.2582071      8192000 
  169000   0.83000089   -4.5518589   -4.5518589   -3.3068579  0.051647656   -4.5518589     1.245001      8192000 
  170000    0.8213927   -4.5397811   -4.5397811   -3.3076924  0.020168239   -4.5397811    1.2320887      8192000 
  171000   0.81338724   -4.5285745   -4.5285745   -3.3084939 -0.0070582371   -4.5285745    1.2200806      8192000 
  172000   0.80562942   -4.5174764   -4.5174764   -3.3090326 -0.030893266   -4.5174764    1.2084438      8192000 
  173000   0.79856715   -4.5074023   -4.5074023   -3.3095519 -0.049729072   -4.5074023    1.1978504      8192000 
  174000   0.79233101   -4.4984551   -4.4984551   -3.3099589 -0.067177934   -4.4984551    1.1884962      8192000 
  175000   0.78696033   -4.4910192   -4.4910192    -3.310579 -0.082103663   -4.4910192    1.1804402      8192000 
  176000   0.78319804   -4.4858589   -4.4858589   -3.3110621 -0.091476138   -4.4858589    1.1747968      8192000 
  177000   0.78067558   -4.4825483   -4.4825483   -3.3115352 -0.095300804   -4.4825483    1.1710131      8192000 
  178000    0.7796415   -4.4813887   -4.4813887   -3.3119268 -0.098286208   -4.4813887     1.169462      8192000 
  179000   0.78002655   -4.4822256   -4.4822256    -3.312186  -0.09280446   -4.4822256    1.1700395      8192000 
  180000   0.78132398   -4.4848463   -4.4848463   -3.3128607 -0.084694779   -4.4848463    1.1719857      8192000 
  181000   0.78453727   -4.4901684   -4.4901684   -3.3133628 -0.071972736   -4.4901684    1.1768056      8192000 
  182000   0.78762662   -4.4955971   -4.4955971   -3.3141574 -0.057166603   -4.4955971    1.1814396      8192000 
  183000    0.7919996    -4.503115    -4.503115   -3.3151159 -0.038955126    -4.503115    1.1879991      8192000 
  184000   0.79627733   -4.5105136   -4.5105136   -3.3160979 -0.018907419   -4.5105136    1.1944157      8192000 
  185000    0.8002338   -4.5175442   -4.5175442   -3.3171938 3.5762729e-06   -4.5175442    1.2003504      8192000 
  186000   0.80471784   -4.5253026   -4.5253026   -3.3182261  0.019355663   -4.5253026    1.2070765      8192000 
  187000    0.8083298   -4.5317803   -4.5317803   -3.3192859  0.034422959   -4.5317803    1.2124944      8192000 
  188000   0.81115114   -4.5370423   -4.5370423   -3.3203159  0.049846118   -4.5370423    1.2167264      8192000 
  189000   0.81323091   -4.5414306   -4.5414306   -3.3215846  0.058868348   -4.5414306    1.2198461      8192000 
  190000   0.81459871   -4.5446434   -4.5446434   -3.3227457  0.064408477   -4.5446434    1.2218978      8192000 
  191000   0.81499522   -4.5461062   -4.5461062   -3.3236136  0.067904885   -4.5461062    1.2224925      8192000 
  192000   0.81477775   -4.5467227   -4.5467227   -3.3245564   0.06737573   -4.5467227    1.2221663      8192000 
  193000   0.81429698   -4.5466143   -4.5466143   -3.3251691  0.063187024   -4.5466143    1.2214452      8192000 
  194000    0.8126128   -4.5448497   -4.5448497   -3.3259308  0.056066564   -4.5448497    1.2189189      8192000 
  195000   0.81081108   -4.5430633   -4.5430633    -3.326847  0.047012507   -4.5430633    1.2162163      8192000 
  196000   0.80842915   -4.5400845   -4.5400845    -3.327441  0.037895084   -4.5400845    1.2126434      8192000 
  197000   0.80591032   -4.5371564   -4.5371564   -3.3282912  0.029836751   -4.5371564    1.2088652      8192000 
  198000    0.8034014    -4.534276    -4.534276   -3.3291742  0.016995827    -4.534276    1.2051018      8192000 
  199000   0.80051873   -4.5308837   -4.5308837   -3.3301059 0.0054408121   -4.5308837    1.2007778      8192000 
  200000   0.79796759   -4.5281139   -4.5281139   -3.3311628 -0.0046187277   -4.5281139    1.1969511      8192000 
  201000   0.79526951   -4.5250583   -4.5250583   -3.3321544 -0.0093362866   -4.5250583     1.192904      8192000 
  202000   0.79389521   -4.5237927   -4.5237927   -3.3329502 -0.016994925   -4.5237927    1.1908425      8192000 
  203000   0.79280092   -4.5231463   -4.5231463   -3.3339452 -0.021629239   -4.5231463    1.1892011      8192000 
  204000   0.79177113   -4.5225391   -4.5225391   -3.3348827 -0.022534979   -4.5225391    1.1876564      8192000 
  205000   0.79168918    -4.523497    -4.523497   -3.3359636 -0.019510359    -4.523497    1.1875335      8192000 
  206000   0.79290829   -4.5260092   -4.5260092    -3.336647 -0.016450744   -4.5260092    1.1893621      8192000 
  207000      0.79394   -4.5286065   -4.5286065   -3.3376968 -0.0096914482   -4.5286065    1.1909097      8192000 
  208000   0.79577691   -4.5324856   -4.5324856   -3.3388206 -0.0017298636   -4.5324856    1.1936651      8192000 
  209000    0.7984845    -4.537302    -4.537302   -3.3395755 0.0090148197    -4.537302    1.1977264      8192000 
  210000   0.80043503    -4.541192    -4.541192   -3.3405397  0.020986899    -4.541192    1.2006522      8192000 
  211000   0.80315905   -4.5461429   -4.5461429   -3.3414046    0.0332658   -4.5461429    1.2047383      8192000 
  212000   0.80538059   -4.5502417   -4.5502417   -3.3421711  0.044152421   -4.5502417    1.2080706      8192000 
  213000   0.80763957   -4.5543609   -4.5543609   -3.3429018  0.052066048   -4.5543609     1.211459      8192000 
  214000   0.80819736   -4.5560801   -4.5560801   -3.3437844  0.059982096   -4.5560801    1.2122957      8192000 
  215000   0.80869449   -4.5576282   -4.5576282   -3.3445868   0.06421221   -4.5576282    1.2130414      8192000 
  216000   0.80870194   -4.5584269   -4.5584269   -3.3453743  0.063442321   -4.5584269    1.2130526      8192000 
  217000   0.80776105   -4.5576763   -4.5576763    -3.346035  0.059955497   -4.5576763    1.2116413      8192000 
  218000   0.80546163   -4.5551975   -4.5551975   -3.3470054  0.052974312   -4.5551975    1.2081921      8192000 
  219000   0.80406459   -4.5539805   -4.5539805    -3.347884  0.043662331   -4.5539805    1.2060966      8192000 
  220000   0.80170931   -4.5513617   -4.5513617    -3.348798  0.033247436   -4.5513617    1.2025637      8192000 
  221000   0.79895994   -4.5479026   -4.5479026    -3.349463  0.024493391   -4.5479026    1.1984396      8192000 
  222000    0.7964261   -4.5447704   -4.5447704   -3.3501315  0.013864062   -4.5447704    1.1946389      8192000 
  223000    0.7943635   -4.5424548   -4.5424548   -3.3509098 0.0044177678   -4.5424548    1.1915449      8192000 
  224000   0.79248705   -4.5404406   -4.5404406   -3.3517104 -0.00076574257   -4.5404406    1.1887303      8192000 
  225000   0.79111298   -4.5390677   -4.5390677   -3.3523986 -0.0041752561   -4.5390677    1.1866692      8192000 
  226000    0.7904174   -4.5388487   -4.5388487   -3.3532229 -0.0084348634   -4.5388487    1.1856258      8192000 
  227000    0.7900524   -4.5392076   -4.5392076   -3.3541293 -0.0089480516   -4.5392076    1.1850783      8192000 
  228000   0.79040467   -4.5404705   -4.5404705   -3.3548638 -0.0070710377   -4.5404705    1.1856067      8192000 
  229000   0.79090847   -4.5419429   -4.5419429   -3.3555805 -0.0021480528   -4.5419429    1.1863624      8192000 
  230000   0.79178302   -4.5439009   -4.5439009   -3.3562266 0.0042510853   -4.5439009    1.1876742      8192000 
  231000   0.79347216   -4.5473734   -4.5473734   -3.3571654  0.010671101   -4.5473734    1.1902079      8192000 
  232000   0.79524522   -4.5508674   -4.5508674   -3.3579999  0.018610082   -4.5508674    1.1928675      8192000 
  233000   0.79670099   -4.5538177   -4.5538177   -3.3587665  0.025578752   -4.5538177    1.1950512      8192000 
  234000   0.79849391   -4.5572831   -4.5572831   -3.3595426  0.034274717   -4.5572831    1.1977406      8192000 
  235000   0.80021409   -4.5604853   -4.5604853   -3.3601645  0.041766786   -4.5604853    1.2003208      8192000 
  236000   0.80115992   -4.5627377   -4.5627377   -3.3609981  0.048470381   -4.5627377    1.2017396      8192000 
  237000   0.80208923   -4.5647883   -4.5647883   -3.3616548  0.055439714   -4.5647883    1.2031335      8192000 
  238000   0.80271303   -4.5665132   -4.5665132    -3.362444   0.05259755   -4.5665132    1.2040692      8192000 
  239000   0.80168245   -4.5654468   -4.5654468   -3.3629234  0.054616076   -4.5654468    1.2025234      8192000 
  240000   0.80110494   -4.5652968   -4.5652968   -3.3636397  0.051852861   -4.5652968    1.2016571      8192000 
  241000   0.79998575    -4.564441    -4.564441   -3.3644627  0.044987984    -4.564441    1.1999783      8192000 
  242000   0.79813431   -4.5622283   -4.5622283   -3.3650272  0.041352051   -4.5622283    1.1972012      8192000 
  243000   0.79657039   -4.5606158   -4.5606158   -3.3657605  0.032979557   -4.5606158    1.1948553      8192000 
  244000   0.79434223   -4.5582304   -4.5582304   -3.3667173   0.02538921   -4.5582304     1.191513      8192000 
  245000   0.79294134   -4.5568302   -4.5568302   -3.3674185  0.017298835   -4.5568302    1.1894117      8192000 
  246000   0.79127061   -4.5548932   -4.5548932   -3.3679875  0.012304424   -4.5548932    1.1869056      8192000 
  247000   0.78987752    -4.553393    -4.553393    -3.368577 0.0057446154    -4.553393     1.184816      8192000 
  248000   0.78897622   -4.5526528   -4.5526528   -3.3691887 0.0033338236   -4.5526528     1.183464      8192000 
  249000   0.78814095   -4.5520157   -4.5520157   -3.3698046 0.00038199466   -4.5520157    1.1822111      8192000 
  250000   0.78776807   -4.5520537   -4.5520537   -3.3704019 -0.00020833919   -4.5520537    1.1816518      8192000 
  251000   0.78791078   -4.5530072   -4.5530072   -3.3711413 0.0027021708   -4.5530072    1.1818659      8192000 
  252000   0.78886859   -4.5548579   -4.5548579   -3.3715553 0.0066182248   -4.5548579    1.1833026      8192000 
  253000   0.78937251   -4.5562468   -4.5562468   -3.3721884  0.010970539   -4.5562468    1.1840585      8192000 
  254000   0.79044262   -4.5585755   -4.5585755   -3.3729118  0.015622259   -4.5585755    1.1856636      8192000 
  255000   0.79193405   -4.5614914   -4.5614914   -3.3735907  0.023042109   -4.5614914    1.1879008      8192000 
  256000   0.79363777   -4.5645149   -4.5645149   -3.3740585   0.02846118   -4.5645149    1.1904564      8192000 
  257000   0.79492165   -4.5670703   -4.5670703   -3.3746882  0.034595128   -4.5670703    1.1923822      8192000 
  258000    0.7957163   -4.5689537   -4.5689537   -3.3753796  0.042446682   -4.5689537    1.1935741      8192000 
  259000   0.79657949   -4.5707667   -4.5707667   -3.3758978  0.045653969   -4.5707667    1.1948689      8192000 
  260000   0.79656859   -4.5714218   -4.5714218   -3.3765692  0.050810976   -4.5714218    1.1948526      8192000 
  261000   0.79679397   -4.5723538   -4.5723538   -3.3771632  0.050115039   -4.5723538    1.1951907      8192000 
  262000   0.79640599   -4.5723961   -4.5723961   -3.3777874  0.049372486   -4.5723961    1.1946087      8192000 
  263000   0.79575177   -4.5719549   -4.5719549   -3.3783275  0.047845088   -4.5719549    1.1936274      8192000 
  264000   0.79452089    -4.570702    -4.570702   -3.3789209  0.041489004    -4.570702     1.191781      8192000 
  265000   0.79315098   -4.5691876   -4.5691876   -3.3794614  0.035887678   -4.5691876    1.1897262      8192000 
  266000   0.79172488   -4.5677226   -4.5677226   -3.3801356  0.030769134   -4.5677226     1.187587      8192000 
  267000   0.79024493   -4.5660103   -4.5660103   -3.3806432   0.02450884   -4.5660103    1.1853671      8192000 
  268000   0.78939327   -4.5654677   -4.5654677   -3.3813781  0.018596061   -4.5654677    1.1840896      8192000 
  269000   0.78807417   -4.5640509   -4.5640509   -3.3819399   0.01571651   -4.5640509     1.182111      8192000 
  270000   0.78718209   -4.5631483   -4.5631483   -3.3823754  0.011633824   -4.5631483    1.1807728      8192000 
  271000   0.78618624   -4.5621828   -4.5621828   -3.3829037 0.0083982248   -4.5621828    1.1792791      8192000 
  272000   0.78580019   -4.5621642   -4.5621642   -3.3834642 0.0092050589   -4.5621642       1.1787      8192000 
  273000   0.78559323   -4.5623998   -4.5623998   -3.3840103  0.007828619   -4.5623998    1.1783895      8192000 
  274000   0.78638334    -4.564188    -4.564188   -3.3846133  0.010326941    -4.564188    1.1795747      8192000 
  275000   0.78693589   -4.5654426   -4.5654426    -3.385039  0.017068899   -4.5654426    1.1804035      8192000 
  276000     0.787456   -4.5668555   -4.5668555   -3.3856718  0.020009813   -4.5668555    1.1811837      8192000 
  277000   0.78846047   -4.5690031   -4.5690031   -3.3863126  0.023462169   -4.5690031    1.1826904      8192000 
  278000   0.78954403   -4.5709909   -4.5709909   -3.3866751  0.030622972   -4.5709909    1.1843157      8192000 
  279000   0.79070878   -4.5732465   -4.5732465   -3.3871836  0.033465475   -4.5732465    1.1860629      8192000 
  280000    0.7917187   -4.5753292   -4.5753292   -3.3877514  0.038006403   -4.5753292    1.1875778      8192000 
  281000   0.79244368    -4.576773    -4.576773   -3.3881077  0.043539472    -4.576773    1.1886652      8192000 
  282000   0.79293326   -4.5779108   -4.5779108   -3.3885112  0.047937114   -4.5779108    1.1893996      8192000 
  283000   0.79367604    -4.579439    -4.579439   -3.3889252   0.05288317    -4.579439    1.1905138      8192000 
  284000   0.79416415   -4.5806685   -4.5806685   -3.3894226  0.052313718   -4.5806685    1.1912459      8192000 
  285000    0.7948375   -4.5822486   -4.5822486   -3.3899926  0.058887978   -4.5822486     1.192256      8192000 
  286000   0.79602667   -4.5843449   -4.5843449   -3.3903052  0.064675763   -4.5843449    1.1940397      8192000 
  287000   0.79725526   -4.5867792   -4.5867792   -3.3908967  0.070435218   -4.5867792    1.1958826      8192000 
  288000   0.79858626   -4.5891552   -4.5891552   -3.3912761  0.081597683   -4.5891552    1.1978791      8192000 
  289000   0.80043179   -4.5924417   -4.5924417   -3.3917943  0.095834375   -4.5924417    1.2006474      8192000 
  290000   0.80304356   -4.5970841   -4.5970841   -3.3925191   0.11095219   -4.5970841     1.204565      8192000 
  291000   0.80646801   -4.6027072   -4.6027072   -3.3930055   0.13270942   -4.6027072    1.2097017      8192000 
  292000   0.81026726   -4.6088423   -4.6088423   -3.3934417   0.15910654   -4.6088423    1.2154006      8192000 
  293000   0.81442107   -4.6157157   -4.6157157   -3.3940844   0.18716356   -4.6157157    1.2216313      8192000 
  294000   0.81937352   -4.6234611   -4.6234611   -3.3944011     0.222981   -4.6234611      1.22906      8192000 
  295000   0.82359639   -4.6300189   -4.6300189   -3.3946246   0.25769229   -4.6300189    1.2353943      8192000 
  296000    0.8283241   -4.6375777   -4.6375777   -3.3950918    0.2816432   -4.6375777    1.2424858      8192000 
  297000   0.83220557   -4.6438861   -4.6438861    -3.395578   0.30219197   -4.6438861     1.248308      8192000 
  298000   0.83420252   -4.6473877   -4.6473877   -3.3960843   0.31619567   -4.6473877    1.2513035      8192000 
  299000   0.83544449   -4.6494798   -4.6494798   -3.3963134   0.32004395   -4.6494798    1.2531664      8192000 
  300000   0.83474565   -4.6487989   -4.6487989   -3.3966808   0.31447393   -4.6487989    1.2521182      8192000 
  301000   0.83201633   -4.6451235   -4.6451235   -3.3970993   0.29948137   -4.6451235    1.2480242      8192000 
  302000    0.8282849   -4.6397398   -4.6397398   -3.3973127   0.27252632   -4.6397398     1.242427      8192000 
  303000   0.82301234    -4.631968    -4.631968   -3.3974498   0.24077359    -4.631968    1.2345182      8192000 
  304000   0.81747952   -4.6239962   -4.6239962   -3.3977772   0.20477725   -4.6239962     1.226219      8192000 
  305000   0.81123926   -4.6151706   -4.6151706    -3.398312   0.16929236   -4.6151706    1.2168586      8192000 
  306000   0.80484627   -4.6060103   -4.6060103   -3.3987412   0.13730652   -4.6060103    1.2072691      8192000 
  307000   0.79920138   -4.5980476   -4.5980476   -3.3992459   0.10733684   -4.5980476    1.1988018      8192000 
  308000   0.79380654   -4.5901304   -4.5901304   -3.3994208  0.083547662   -4.5901304    1.1907095      8192000 
  309000   0.78964109   -4.5843737   -4.5843737   -3.3999123  0.060131516   -4.5843737    1.1844613      8192000 
  310000   0.78538306   -4.5783702   -4.5783702   -3.4002959  0.039215955   -4.5783702    1.1780743      8192000 
  311000   0.78143493   -4.5724892   -4.5724892   -3.4003371   0.02497813   -4.5724892    1.1721521      8192000 
  312000   0.77817679   -4.5682299   -4.5682299    -3.400965  0.010215094   -4.5682299    1.1672649      8192000 
  313000   0.77518797   -4.5639072   -4.5639072   -3.4011256 0.0016337631   -4.5639072    1.1627817      8192000 
  314000   0.77384239   -4.5621438   -4.5621438   -3.4013805 -0.0037067783   -4.5621438    1.1607633      8192000 
  315000   0.77280778   -4.5608784   -4.5608784    -3.401667 -0.0061856667   -4.5608784    1.1592114      8192000 
  316000   0.77267467   -4.5609363   -4.5609363   -3.4019246 -0.0074744319   -4.5609363    1.1590117      8192000 
  317000   0.77338264    -4.562385    -4.562385   -3.4023114 -0.0073416927    -4.562385    1.1600737      8192000 
  318000   0.77431054   -4.5640634   -4.5640634   -3.4025978 -0.0012201084   -4.5640634    1.1614655      8192000 
  319000   0.77547467   -4.5660773   -4.5660773   -3.4028656 0.0064304828   -4.5660773    1.1632117      8192000 
  320000    0.7768259   -4.5683815   -4.5683815   -3.4031429   0.01566669   -4.5683815    1.1652386      8192000 
  321000   0.77843831      -4.5709      -4.5709   -3.4032428  0.021336335      -4.5709    1.1676572      8192000 
  322000   0.78012994   -4.5737682   -4.5737682   -3.4035736  0.029080536   -4.5737682    1.1701946      8192000 
  323000   0.78153213    -4.576131    -4.576131   -3.4038331  0.036524483    -4.576131    1.1722979      8192000 
  324000   0.78324935   -4.5788059   -4.5788059   -3.4039322  0.041663799   -4.5788059    1.1748737      8192000 
  325000   0.78515862    -4.581863    -4.581863   -3.4041254  0.050030069    -4.581863    1.1777376      8192000 
  326000   0.78663097    -4.584474    -4.584474   -3.4045278  0.055956513    -4.584474    1.1799462      8192000 
  327000   0.78737353   -4.5858485   -4.5858485   -3.4047885  0.062851965   -4.5858485      1.18106      8192000 
  328000   0.78812831   -4.5873213   -4.5873213   -3.4051291  0.064651468   -4.5873213    1.1821922      8192000 
  329000   0.78783275   -4.5871255   -4.5871255   -3.4053767  0.064942557   -4.5871255    1.1817488      8192000 
  330000   0.78704872   -4.5860746   -4.5860746   -3.4055018  0.061944331   -4.5860746    1.1805728      8192000 
  331000   0.78616576   -4.5850052   -4.5850052   -3.4057568  0.057640317   -4.5850052    1.1792484      8192000 
  332000     0.784337   -4.5822436   -4.5822436   -3.4057383  0.053139647   -4.5822436    1.1765052      8192000 
  333000   0.78350378   -4.5811439   -4.5811439   -3.4058885  0.043643765   -4.5811439    1.1752554      8192000 
  334000   0.78142283   -4.5783823   -4.5783823   -3.4062484  0.035352038   -4.5783823    1.1721339      8192000 
  335000   0.77945858    -4.575813    -4.575813   -3.4066255  0.030795582    -4.575813    1.1691876      8192000 
  336000   0.77735704   -4.5727762   -4.5727762   -3.4067409   0.02318114   -4.5727762    1.1660353      8192000 
  337000   0.77569625     -4.57041     -4.57041   -3.4068659  0.016190818     -4.57041    1.1635441      8192000 
  338000   0.77404449   -4.5679575   -4.5679575    -3.406891 0.0099867575   -4.5679575    1.1610665      8192000 
  339000   0.77254186   -4.5659491   -4.5659491   -3.4071366 0.0044996599   -4.5659491    1.1588125      8192000 
  340000   0.77172124   -4.5647502   -4.5647502   -3.4071687 -0.00068766276   -4.5647502    1.1575816      8192000 
  341000   0.77093887   -4.5640183   -4.5640183   -3.4076103 -0.0037947089   -4.5640183     1.156408      8192000 
  342000   0.77019822   -4.5630405   -4.5630405   -3.4077435 -0.0035547637   -4.5630405     1.155297      8192000 
  343000   0.77047793   -4.5635204   -4.5635204   -3.4078038 -0.0021085587   -4.5635204    1.1557166      8192000 
  344000   0.77056392   -4.5639877   -4.5639877   -3.4081421 -0.00025337619   -4.5639877    1.1558456      8192000 
  345000   0.77134127   -4.5654017   -4.5654017   -3.4083901 0.0028873228   -4.5654017    1.1570116      8192000 
  346000   0.77250777    -4.567236    -4.567236   -3.4084746  0.007485837    -4.567236    1.1587614      8192000 
  347000   0.77399807   -4.5695275   -4.5695275   -3.4085307  0.013858422   -4.5695275    1.1609968      8192000 
  348000   0.77492426   -4.5710725   -4.5710725   -3.4086864  0.022576943   -4.5710725    1.1623861      8192000 
  349000   0.77693064   -4.5742498   -4.5742498   -3.4088542  0.026671929   -4.5742498    1.1653957      8192000 
  350000   0.77850293   -4.5767757   -4.5767757   -3.4090216  0.031925771   -4.5767757    1.1677541      8192000 
  351000   0.77925923   -4.5781662   -4.5781662   -3.4092777  0.037315841   -4.5781662    1.1688885      8192000 
  352000   0.78075678   -4.5806204   -4.5806204   -3.4094855  0.042513781   -4.5806204    1.1711349      8192000 
  353000   0.78180399    -4.582406    -4.582406   -3.4097003  0.046471458    -4.582406    1.1727057      8192000 
  354000   0.78254788   -4.5836126   -4.5836126    -3.409791  0.050639836   -4.5836126    1.1738215      8192000 
  355000   0.78245452   -4.5837866   -4.5837866   -3.4101051  0.052976897   -4.5837866    1.1736815      8192000 
  356000   0.78292297    -4.584362    -4.584362   -3.4099778  0.053044261    -4.584362    1.1743842      8192000 
  357000   0.78229477   -4.5835725   -4.5835725   -3.4101306  0.050729789   -4.5835725    1.1734419      8192000 
  358000   0.78110417   -4.5818501   -4.5818501   -3.4101942  0.047656464   -4.5818501     1.171656      8192000 
  359000   0.78003828   -4.5804768   -4.5804768   -3.4104197   0.04245741   -4.5804768    1.1700571      8192000 
  360000   0.77872757   -4.5784646   -4.5784646   -3.4103736  0.037578349   -4.5784646    1.1680911      8192000 
  361000   0.77714275   -4.5760077   -4.5760077   -3.4102938  0.033176886   -4.5760077    1.1657138      8192000 
  362000   0.77604134   -4.5743691   -4.5743691   -3.4103073  0.024312737   -4.5743691    1.1640617      8192000 
  363000   0.77466385   -4.5725762   -4.5725762   -3.4105807  0.016738921   -4.5725762    1.1619955      8192000 
  364000   0.77340079   -4.5706631   -4.5706631   -3.4105622 0.0099571745   -4.5706631    1.1601009      8192000 
  365000   0.77180945   -4.5682344   -4.5682344   -3.4105205 0.0077478727   -4.5682344    1.1577139      8192000 
  366000   0.77064699   -4.5664069   -4.5664069   -3.4104367 0.0058734945   -4.5664069    1.1559702      8192000 
  367000   0.77003612   -4.5655352   -4.5655352   -3.4104813 0.0016411664   -4.5655352    1.1550539      8192000 
  368000   0.76943746    -4.564737    -4.564737   -3.4105811 -0.00013037254    -4.564737    1.1541559      8192000 
  369000   0.76962761   -4.5651595   -4.5651595   -3.4107184 -0.0013699375   -4.5651595    1.1544411      8192000 
  370000   0.76933981   -4.5648709   -4.5648709   -3.4108615 -0.00019527476   -4.5648709    1.1540094      8192000 
  371000   0.76974775   -4.5654857   -4.5654857   -3.4108644 0.0021926846   -4.5654857    1.1546213      8192000 
  372000   0.77038419   -4.5662575   -4.5662575   -3.4106815 0.0036906227   -4.5662575     1.155576      8192000 
  373000   0.77120953   -4.5673312   -4.5673312   -3.4105172 0.0078704624   -4.5673312     1.156814      8192000 
  374000   0.77270205   -4.5697104   -4.5697104   -3.4106576  0.011424496   -4.5697104    1.1590528      8192000 
  375000   0.77323069   -4.5705159   -4.5705159   -3.4106702  0.017788856   -4.5705159    1.1598458      8192000 
  376000   0.77452483   -4.5723106   -4.5723106   -3.4105236  0.021282352   -4.5723106     1.161787      8192000 
  377000   0.77608033   -4.5745217   -4.5745217   -3.4104015  0.025749965   -4.5745217    1.1641202      8192000 
  378000   0.77714182   -4.5761824   -4.5761824     -3.41047  0.032024746   -4.5761824    1.1657124      8192000 
  379000   0.77791713   -4.5775402   -4.5775402   -3.4106648  0.034745601   -4.5775402    1.1668754      8192000 
  380000   0.77830862   -4.5779565   -4.5779565   -3.4104938  0.038515268   -4.5779565    1.1674626      8192000 
  381000   0.77901395   -4.5788199   -4.5788199   -3.4102993  0.041194213   -4.5788199    1.1685206      8192000 
  382000   0.77944202   -4.5794021   -4.5794021   -3.4102394  0.044268097   -4.5794021    1.1691627      8192000 
  383000   0.77914574   -4.5790246   -4.5790246   -3.4103063  0.043707131   -4.5790246    1.1687183      8192000 
  384000   0.77866139   -4.5783127   -4.5783127   -3.4103209   0.04158809   -4.5783127    1.1679918      8192000 
  385000   0.77843003   -4.5777221   -4.5777221   -3.4100773  0.037146195   -4.5777221    1.1676448      8192000 
  386000   0.77756368   -4.5763721   -4.5763721   -3.4100269  0.034432196   -4.5763721    1.1663452      8192000 
  387000   0.77650634   -4.5747122   -4.5747122    -3.409953  0.030552033   -4.5747122    1.1647592      8192000 
  388000   0.77540849   -4.5729479   -4.5729479   -3.4098354   0.02703074   -4.5729479    1.1631124      8192000 
  389000   0.77427633   -4.5713952   -4.5713952    -3.409981  0.021828351   -4.5713952    1.1614142      8192000 
  390000   0.77273094   -4.5688959   -4.5688959   -3.4097998  0.018391651   -4.5688959    1.1590961      8192000 
  391000   0.77199911    -4.567698    -4.567698   -3.4096996   0.01297695    -4.567698    1.1579984      8192000 
  392000   0.77069635   -4.5657034   -4.5657034   -3.4096592 0.0082502476   -4.5657034    1.1560442      8192000 
  393000   0.76985461   -4.5644322   -4.5644322   -3.4096506 0.0051016764   -4.5644322    1.1547816      8192000 
  394000   0.76963363    -4.564109    -4.564109   -3.4096589 0.00086875543    -4.564109    1.1544502      8192000 
  395000   0.76922007   -4.5633989   -4.5633989   -3.4095691 0.0022210541   -4.5633989    1.1538298      8192000 
  396000   0.76930109    -4.563186    -4.563186   -3.4092346 0.0005229371    -4.563186    1.1539514      8192000 
  397000   0.76890889    -4.562486    -4.562486   -3.4091229 0.0034135438    -4.562486    1.1533631      8192000 
  398000   0.76977432   -4.5635134   -4.5635134   -3.4088522 0.0023704346   -4.5635134    1.1546612      8192000 
  399000   0.77034812   -4.5643712   -4.5643712   -3.4088493 0.0069321819   -4.5643712    1.1555219      8192000 
  400000   0.77122915   -4.5656068   -4.5656068   -3.4087634 0.0087667259   -4.5656068    1.1568434      8192000 
  401000   0.77205706   -4.5666112   -4.5666112   -3.4085259  0.012848848   -4.5666112    1.1580853      8192000 
  402000    0.7727814   -4.5674128   -4.5674128    -3.408241  0.018643565   -4.5674128    1.1591718      8192000 
  403000   0.77338634   -4.5682614   -4.5682614   -3.4081822  0.024156801   -4.5682614    1.1600792      8192000 
  404000   0.77459433   -4.5699817   -4.5699817   -3.4080905  0.026228506   -4.5699817    1.1618912      8192000 
  405000   0.77561284   -4.5714565   -4.5714565   -3.4080375  0.029184316   -4.5714565     1.163419      8192000 
  406000   0.77600819   -4.5718986   -4.5718986   -3.4078866  0.033471599   -4.5718986     1.164012      8192000 
  407000   0.77716183     -4.57328     -4.57328   -3.4075375  0.034162698     -4.57328    1.1657425      8192000 
  408000   0.77756944   -4.5736364   -4.5736364   -3.4072825  0.037826549   -4.5736364    1.1663539      8192000 
  409000   0.77751264   -4.5734328   -4.5734328   -3.4071641  0.037564353   -4.5734328    1.1662687      8192000 
  410000   0.77761981   -4.5734253   -4.5734253   -3.4069958  0.036945285   -4.5734253    1.1664294      8192000 
  411000   0.77723687   -4.5724428   -4.5724428   -3.4065878  0.036150444   -4.5724428     1.165855      8192000 
  412000   0.77724092   -4.5720459   -4.5720459   -3.4061848   0.03375414   -4.5720459    1.1658611      8192000 
  413000   0.77614701   -4.5703211   -4.5703211   -3.4061008  0.031640834   -4.5703211    1.1642202      8192000 
  414000   0.77536227   -4.5688669   -4.5688669   -3.4058237  0.028332448   -4.5688669    1.1630431      8192000 
  415000   0.77409642   -4.5667302   -4.5667302   -3.4055858  0.024977584   -4.5667302    1.1611443      8192000 
  416000   0.77318183   -4.5651471   -4.5651471   -3.4053747  0.020282307   -4.5651471    1.1597725      8192000 
  417000   0.77242266   -4.5636851   -4.5636851   -3.4050514  0.016721009   -4.5636851    1.1586337      8192000 
  418000   0.77178723   -4.5624448   -4.5624448   -3.4047642  0.011775182   -4.5624448    1.1576805      8192000 
  419000   0.77073477   -4.5605683   -4.5605683   -3.4044664 0.0076353776   -4.5605683    1.1561019      8192000 
  420000   0.76969391   -4.5586458   -4.5586458   -3.4041053 0.0071443452   -4.5586458    1.1545406      8192000 
  421000   0.76985121   -4.5584337   -4.5584337   -3.4036572   0.00367681   -4.5584337    1.1547765      8192000 
  422000    0.7698676   -4.5579387   -4.5579387   -3.4031376   0.00371885   -4.5579387    1.1548011      8192000 
  423000   0.76981664   -4.5575869   -4.5575869   -3.4028622 0.0043432238   -4.5575869    1.1547247      8192000 
  424000   0.76999862   -4.5575394   -4.5575394   -3.4025417   0.00384042   -4.5575394    1.1549976      8192000 
  425000   0.77026168   -4.5575804   -4.5575804   -3.4021882 0.0071319403   -4.5575804    1.1553922      8192000 
  426000   0.77084703    -4.558221    -4.558221   -3.4019508  0.008824471    -4.558221    1.1562703      8192000 
  427000     0.771472   -4.5588655   -4.5588655   -3.4016578  0.013005443   -4.5588655    1.1572077      8192000 
  428000   0.77191474   -4.5592106   -4.5592106   -3.4013388   0.01550498   -4.5592106    1.1578718      8192000 
  429000   0.77295632   -4.5603416   -4.5603416   -3.4009075  0.017798856   -4.5603416    1.1594342      8192000 
  430000   0.77388084   -4.5613535   -4.5613535   -3.4005325  0.022568248   -4.5613535     1.160821      8192000 
  431000   0.77447779   -4.5617133   -4.5617133    -3.399997  0.027034406   -4.5617133    1.1617164      8192000 
  432000   0.77535437   -4.5627324   -4.5627324   -3.3997011  0.027142702   -4.5627324    1.1630313      8192000 
  433000   0.77588747   -4.5629972   -4.5629972   -3.3991663  0.029688252   -4.5629972    1.1638309      8192000 
  434000   0.77591227   -4.5628568   -4.5628568   -3.3989887  0.032663384   -4.5628568    1.1638681      8192000 
  435000   0.77619013   -4.5627288   -4.5627288   -3.3984439  0.033210979   -4.5627288    1.1642849      8192000 
  436000    0.7762978   -4.5625318   -4.5625318   -3.3980854  0.032543321   -4.5625318    1.1644464      8192000 
  437000   0.77572345   -4.5613205   -4.5613205   -3.3977356  0.032736175   -4.5613205    1.1635849      8192000 
  438000   0.77590074   -4.5610268   -4.5610268    -3.397176  0.029157814   -4.5610268    1.1638508      8192000 
  439000   0.77528132   -4.5598064   -4.5598064   -3.3968847  0.026385609   -4.5598064    1.1629217      8192000 
  440000   0.77467468    -4.558383    -4.558383   -3.3963712   0.02355007    -4.558383    1.1620117      8192000 
  441000    0.7737002   -4.5564705   -4.5564705   -3.3959205  0.023584978   -4.5564705      1.16055      8192000 
  442000    0.7731087   -4.5550886   -4.5550886   -3.3954258  0.019864708   -4.5550886    1.1596628      8192000 
  443000   0.77289729   -4.5543826   -4.5543826   -3.3950369  0.015642107   -4.5543826    1.1593456      8192000 
  444000   0.77217438   -4.5528872   -4.5528872   -3.3946259  0.012945758   -4.5528872    1.1582613      8192000 
  445000   0.77130651   -4.5512143   -4.5512143   -3.3942549  0.010972142   -4.5512143    1.1569595      8192000 
  446000     0.771151   -4.5502587   -4.5502587   -3.3935325 0.0097451966   -4.5502587    1.1567262      8192000 
  447000    0.7707196   -4.5491908   -4.5491908   -3.3931117 0.0080262599   -4.5491908    1.1560791      8192000 
  448000   0.77060861   -4.5485848   -4.5485848   -3.3926722 0.0070912016   -4.5485848    1.1559126      8192000 
  449000   0.77053641   -4.5479524   -4.5479524   -3.3921481 0.0067606536   -4.5479524    1.1558043      8192000 
  450000   0.77063323    -4.547698    -4.547698   -3.3917484 0.0070160272    -4.547698    1.1559496      8192000 
  451000   0.77096721   -4.5475848   -4.5475848   -3.3911343 0.0075770958   -4.5475848    1.1564505      8192000 
  452000   0.77060542   -4.5466622   -4.5466622   -3.3907544 0.0096976758   -4.5466622    1.1559078      8192000 
  453000   0.77159298   -4.5476107   -4.5476107   -3.3902215  0.011227156   -4.5476107    1.1573892      8192000 
  454000   0.77199591   -4.5476316   -4.5476316    -3.389638  0.013913249   -4.5476316    1.1579936      8192000 
  455000   0.77290684   -4.5485048   -4.5485048   -3.3891448   0.01482609   -4.5485048      1.15936      8192000 
  456000   0.77321952   -4.5484714   -4.5484714   -3.3886424   0.01923015   -4.5484714     1.159829      8192000 
  457000   0.77397268   -4.5491229   -4.5491229   -3.3881642  0.020402495   -4.5491229    1.1609587      8192000 
  458000   0.77446619   -4.5491829   -4.5491829   -3.3874839  0.022970435   -4.5491829     1.161699      8192000 
  459000   0.77495155   -4.5496153   -4.5496153   -3.3871883  0.024873152   -4.5496153     1.162427      8192000 
  460000    0.7752007    -4.549229    -4.549229   -3.3864282  0.027815334    -4.549229    1.1628008      8192000 
  461000   0.77533032   -4.5490923   -4.5490923   -3.3860971   0.02681436   -4.5490923    1.1629952      8192000 
  462000    0.7752505    -4.548412    -4.548412   -3.3855365  0.028123898    -4.548412    1.1628755      8192000 
  463000   0.77587155   -4.5488021   -4.5488021   -3.3849951  0.025712166   -4.5488021     1.163807      8192000 
  464000    0.7757863    -4.547857    -4.547857   -3.3841778  0.025933365    -4.547857    1.1636792      8192000 
  465000   0.77531012   -4.5467453   -4.5467453   -3.3837804  0.026881849   -4.5467453    1.1629649      8192000 
  466000   0.77533411   -4.5462399   -4.5462399    -3.383239  0.023180891   -4.5462399    1.1630009      8192000 
  467000     0.774716   -4.5448021   -4.5448021   -3.3827284  0.023211321   -4.5448021    1.1620737      8192000 
  468000   0.77422082   -4.5434206   -4.5434206   -3.3820897  0.020122101   -4.5434206    1.1613309      8192000 
  469000   0.77340895   -4.5416431   -4.5416431     -3.38153  0.018348429   -4.5416431    1.1601131      8192000 
  470000   0.77296064   -4.5405681   -4.5405681   -3.3811274  0.015330147   -4.5405681    1.1594407      8192000 
  471000   0.77269094   -4.5394935   -4.5394935   -3.3804574  0.011750084   -4.5394935    1.1590361      8192000 
  472000   0.77186695   -4.5377835   -4.5377835   -3.3799833 0.0089758676   -4.5377835    1.1578001      8192000 
  473000   0.77175693   -4.5369055   -4.5369055   -3.3792704 0.0085317293   -4.5369055    1.1576351      8192000 
  474000   0.77104552   -4.5353352   -4.5353352   -3.3787672 0.0073612283   -4.5353352     1.156568      8192000 
  475000    0.7708891   -4.5344589   -4.5344589   -3.3781256 0.0076869491   -4.5344589    1.1563334      8192000 
  476000   0.77082941   -4.5337181   -4.5337181   -3.3774743 0.0067502871   -4.5337181    1.1562438      8192000 
  477000   0.77089401   -4.5331488   -4.5331488   -3.3768081 0.0070607781   -4.5331488    1.1563407      8192000 
  478000   0.77137957   -4.5332866   -4.5332866   -3.3762175  0.008209943   -4.5332866    1.1570691      8192000 
  479000   0.77117316   -4.5323718   -4.5323718   -3.3756123 0.0093583499   -4.5323718    1.1567595      8192000 
  480000   0.77188295   -4.5324414   -4.5324414   -3.3746173 0.0097166178   -4.5324414    1.1578241      8192000 
  481000      0.77235   -4.5323422   -4.5323422   -3.3738175  0.012456783   -4.5323422    1.1585247      8192000 
  482000   0.77300126   -4.5325044   -4.5325044   -3.3730028  0.014764572   -4.5325044    1.1595016      8192000 
  483000   0.77376375   -4.5330905   -4.5330905   -3.3724452  0.016093204   -4.5330905    1.1606453      8192000 
  484000   0.77421864   -4.5332036   -4.5332036   -3.3718759   0.01968957   -4.5332036    1.1613277      8192000 
  485000   0.77489278    -4.533726    -4.533726   -3.3713871  0.020144976    -4.533726    1.1623389      8192000 
  486000    0.7753861   -4.5337721   -4.5337721   -3.3706932  0.022812446   -4.5337721    1.1630789      8192000 
  487000   0.77482643   -4.5321077   -4.5321077   -3.3698683  0.026634228   -4.5321077    1.1622394      8192000 
  488000   0.77553674   -4.5325907   -4.5325907   -3.3692859  0.025237135   -4.5325907    1.1633048      8192000 
  489000   0.77581098   -4.5324493   -4.5324493   -3.3687332  0.025957075   -4.5324493    1.1637162      8192000 
  490000   0.77554177   -4.5313652   -4.5313652   -3.3680529  0.024955899   -4.5313652    1.1633124      8192000 
  491000    0.7756232   -4.5307542   -4.5307542   -3.3673197  0.024438202   -4.5307542    1.1634345      8192000 
  492000   0.77525433   -4.5295885   -4.5295885   -3.3667073  0.024438362   -4.5295885    1.1628812      8192000 
  493000    0.7748673   -4.5284615   -4.5284615   -3.3661608  0.021164261   -4.5284615    1.1623007      8192000 
  494000   0.77484759   -4.5278305   -4.5278305   -3.3655594   0.01960931   -4.5278305    1.1622711      8192000 
  495000   0.77433288   -4.5262397   -4.5262397   -3.3647407  0.017665509   -4.5262397     1.161499      8192000 
  496000   0.77363716   -4.5246089   -4.5246089   -3.3641534  0.015090347   -4.5246089    1.1604555      8192000 
  497000   0.77345621   -4.5233969   -4.5233969   -3.3632128  0.011481603   -4.5233969     1.160184      8192000 
  498000   0.77269469   -4.5216041   -4.5216041   -3.3625624  0.011147127   -4.5216041    1.1590417      8192000 
  499000    0.7727785    -4.521012    -4.521012   -3.3618445   0.01032655    -4.521012    1.1591675      8192000 
  500000   0.77200949   -4.5194597   -4.5194597   -3.3614458  0.010432485   -4.5194597    1.1580139      8192000 
  501000   0.77190949   -4.5185132   -4.5185132   -3.3606493 0.0073090925   -4.5185132    1.1578639      8192000 
  502000   0.77211615   -4.5180656   -4.5180656   -3.3598917 0.0073582207   -4.5180656    1.1581739      8192000 
  503000    0.7720718   -4.5173009   -4.5173009   -3.3591935  0.007211435   -4.5173009    1.1581074      8192000 
  504000   0.77197305    -4.516476    -4.516476   -3.3585168  0.006913777    -4.516476    1.1579593      8192000 
  505000    0.7721685   -4.5162217   -4.5162217   -3.3579693  0.008346671   -4.5162217    1.1582525      8192000 
  506000    0.7727219   -4.5164142   -4.5164142   -3.3573317 0.0087822593   -4.5164142    1.1590826      8192000 
  507000   0.77326124   -4.5166812   -4.5166812   -3.3567896 0.0091837496   -4.5166812    1.1598916      8192000 
  508000   0.77312072   -4.5157263   -4.5157263   -3.3560456  0.012464096   -4.5157263    1.1596808      8192000 
  509000    0.7738035   -4.5161628   -4.5161628   -3.3554579  0.015386501   -4.5161628     1.160705      8192000 
  510000   0.77440187   -4.5162498   -4.5162498   -3.3546473  0.016845535   -4.5162498    1.1616025      8192000 
  511000   0.77491448   -4.5162688   -4.5162688   -3.3538974  0.019116467   -4.5162688    1.1623714      8192000 
  512000   0.77524871   -4.5160158   -4.5160158    -3.353143  0.020696768   -4.5160158    1.1628728      8192000 
  513000   0.77545736   -4.5157959   -4.5157959   -3.3526102  0.023072473   -4.5157959    1.1631857      8192000 
  514000   0.77637804   -4.5166557   -4.5166557   -3.3520889   0.02160184   -4.5166557    1.1645668      8192000 
  515000   0.77615321   -4.5157951   -4.5157951   -3.3515656  0.023531957   -4.5157951    1.1642295      8192000 
  516000   0.77626018   -4.5152664   -4.5152664   -3.3508764  0.023030099   -4.5152664      1.16439      8192000 
  517000    0.7761279   -4.5145689   -4.5145689   -3.3503774  0.022155632   -4.5145689    1.1641916      8192000 
  518000   0.77564735   -4.5133488   -4.5133488   -3.3498781  0.022226502   -4.5133488    1.1634707      8192000 
  519000   0.77576204   -4.5129078   -4.5129078   -3.3492651  0.019235743   -4.5129078    1.1636428      8192000 
  520000    0.7760578    -4.512654    -4.512654   -3.3485676   0.01710113    -4.512654    1.1640864      8192000 
  521000   0.77588698   -4.5117612   -4.5117612    -3.347931  0.017376613   -4.5117612    1.1638302      8192000 
  522000   0.77531965   -4.5103069   -4.5103069   -3.3473277  0.017712029   -4.5103069    1.1629792      8192000 
  523000   0.77511593   -4.5095044   -4.5095044   -3.3468308  0.016334163   -4.5095044    1.1626736      8192000 
  524000    0.7748023   -4.5084146   -4.5084146   -3.3462114  0.012793931   -4.5084146    1.1622032      8192000 
  525000   0.77420801   -4.5071146   -4.5071146   -3.3458029  0.011683512   -4.5071146    1.1613117      8192000 
  526000   0.77434441   -4.5068547   -4.5068547   -3.3453384 0.0094707699   -4.5068547    1.1615163      8192000 
  527000   0.77388422   -4.5056957   -4.5056957   -3.3448696 0.0080170633   -4.5056957     1.160826      8192000 
  528000   0.77343081   -4.5045054   -4.5045054   -3.3443594  0.010056321   -4.5045054    1.1601459      8192000 
  529000   0.77363735   -4.5044527   -4.5044527    -3.343997 0.0073358451   -4.5044527    1.1604557      8192000 
  530000   0.77354294   -4.5038784   -4.5038784   -3.3435643 0.0083303945   -4.5038784    1.1603141      8192000 
  531000   0.77398165    -4.503893    -4.503893   -3.3429208 0.0096718275    -4.503893    1.1609722      8192000 
  532000   0.77425964   -4.5037649   -4.5037649   -3.3423757 0.0098953946   -4.5037649    1.1613892      8192000 
  533000   0.77377199   -4.5025537   -4.5025537    -3.341896  0.011416612   -4.5025537    1.1606577      8192000 
  534000   0.77479595   -4.5037757   -4.5037757    -3.341582  0.010828759   -4.5037757    1.1621936      8192000 
  535000   0.77479049   -4.5033716   -4.5033716   -3.3411862  0.011044865   -4.5033716    1.1621854      8192000 
  536000   0.77496403   -4.5033671   -4.5033671   -3.3409213  0.012672735   -4.5033671    1.1624457      8192000 
  537000   0.77580038   -4.5041873   -4.5041873   -3.3404871  0.012254745   -4.5041873    1.1637003      8192000 
  538000   0.77607647   -4.5040454   -4.5040454    -3.339931  0.013925242   -4.5040454    1.1641144      8192000 
  539000   0.77604652   -4.5036642   -4.5036642   -3.3395947   0.01663759   -4.5036642    1.1640695      8192000 
  540000   0.77620947   -4.5036135   -4.5036135   -3.3392996  0.017646208   -4.5036135    1.1643139      8192000 
  541000   0.77667264   -4.5039076   -4.5039076    -3.338899   0.01846091   -4.5039076    1.1650087      8192000 
  542000    0.7767668   -4.5037217   -4.5037217   -3.3385718  0.018350691   -4.5037217    1.1651499      8192000 
  543000   0.77702751   -4.5037766   -4.5037766   -3.3382356   0.02054163   -4.5037766     1.165541      8192000 
  544000   0.77747622   -4.5042025   -4.5042025   -3.3379885   0.02022025   -4.5042025     1.166214      8192000 
  545000   0.77766382   -4.5043631   -4.5043631   -3.3378676  0.019849512   -4.5043631    1.1664954      8192000 
  546000    0.7771737   -4.5032731   -4.5032731   -3.3375128   0.01915431   -4.5032731    1.1657603      8192000 
  547000   0.77723161   -4.5029812   -4.5029812   -3.3371341  0.018641735   -4.5029812    1.1658471      8192000 
  548000   0.77714457   -4.5026186   -4.5026186    -3.336902   0.01781962   -4.5026186    1.1657166      8192000 
  549000   0.77677895   -4.5018582   -4.5018582     -3.33669  0.016063688   -4.5018582    1.1651681      8192000 
  550000   0.77648045   -4.5009844   -4.5009844   -3.3362641  0.015724655   -4.5009844    1.1647204      8192000 
  551000   0.77646851   -4.5006902   -4.5006902   -3.3359877  0.014365611   -4.5006902    1.1647025      8192000 
  552000   0.77608972   -4.4999939   -4.4999939   -3.3358596  0.012835337   -4.4999939    1.1641343      8192000 
  553000   0.77577242   -4.4994714   -4.4994714    -3.335813  0.010422034   -4.4994714    1.1636583      8192000 
  554000   0.77550741   -4.4989668   -4.4989668    -3.335706  0.010085502   -4.4989668    1.1632608      8192000 
  555000   0.77530505   -4.4984422   -4.4984422   -3.3354849 0.0098436004   -4.4984422    1.1629573      8192000 
  556000   0.77513464   -4.4980123   -4.4980123   -3.3353106  0.007492198   -4.4980123    1.1627017      8192000 
  557000   0.77564843   -4.4984836   -4.4984836   -3.3350113 0.0083297901   -4.4984836    1.1634724      8192000 
  558000   0.77566151   -4.4985876   -4.4985876   -3.3350956 0.0080049936   -4.4985876     1.163492      8192000 
  559000   0.77548682   -4.4982762   -4.4982762   -3.3350462 0.0077153697   -4.4982762    1.1632299      8192000 
  560000   0.77557466   -4.4983114   -4.4983114   -3.3349497 0.0079900181   -4.4983114    1.1633617      8192000 
  561000   0.77550449   -4.4981037   -4.4981037   -3.3348473 0.0080332413   -4.4981037    1.1632564      8192000 
  562000   0.77600134   -4.4985456   -4.4985456   -3.3345439 0.0093929632   -4.4985456    1.1640017      8192000 
  563000    0.7763547   -4.4989147   -4.4989147    -3.334383  0.010557702   -4.4989147    1.1645318      8192000 
  564000   0.77693095   -4.4995468   -4.4995468   -3.3341507  0.011181895   -4.4995468    1.1653961      8192000 
  565000   0.77702773   -4.4998054   -4.4998054   -3.3342641  0.014609098   -4.4998054    1.1655413      8192000 
  566000   0.77727642   -4.5000517   -4.5000517   -3.3341374  0.016893623   -4.5000517    1.1659143      8192000 
  567000   0.77799744   -4.5010628   -4.5010628    -3.334067  0.015709917   -4.5010628    1.1669959      8192000 
  568000   0.77823111    -4.501267    -4.501267   -3.3339206  0.017415119    -4.501267    1.1673464      8192000 
  569000   0.77877569   -4.5019195   -4.5019195   -3.3337563  0.018318603   -4.5019195    1.1681632      8192000 
  570000   0.77837992   -4.5011898   -4.5011898   -3.3336202  0.020027909   -4.5011898    1.1675696      8192000 
  571000   0.77863379   -4.5015404   -4.5015404     -3.33359  0.017801708   -4.5015404    1.1679504      8192000 
  572000   0.77902938   -4.5020332   -4.5020332   -3.3334894  0.017401849   -4.5020332    1.1685438      8192000 
  573000   0.77871734   -4.5014969   -4.5014969   -3.3334212  0.019604074   -4.5014969    1.1680757      8192000 
  574000   0.77864959   -4.5013625   -4.5013625   -3.3333884  0.019225628   -4.5013625    1.1679741      8192000 
  575000   0.77795702   -4.5003756   -4.5003756   -3.3334404  0.020029958   -4.5003756    1.1669352      8192000 
  576000   0.77857477   -4.5012956   -4.5012956   -3.3334337  0.014415757   -4.5012956    1.1678619      8192000 
  577000   0.77807199   -4.5005413   -4.5005413   -3.3334336  0.015309701   -4.5005413    1.1671077      8192000 
  578000   0.77771852   -4.4999857   -4.4999857   -3.3334082  0.015031902   -4.4999857    1.1665775      8192000 
  579000   0.77779325   -4.5002848   -4.5002848   -3.3335952  0.012660017   -4.5002848    1.1666896      8192000 
  580000   0.77769248   -4.5001364   -4.5001364    -3.333598   0.01063576   -4.5001364    1.1665384      8192000 
  581000    0.7773561   -4.4995121   -4.4995121   -3.3334782   0.01169398   -4.4995121    1.1660339      8192000 
  582000   0.77725962   -4.4992672   -4.4992672   -3.3333781   0.01199369   -4.4992672    1.1658891      8192000 
  583000   0.77694794   -4.4987923   -4.4987923   -3.3333707  0.011576704   -4.4987923    1.1654216      8192000 
  584000    0.7770114   -4.4988508   -4.4988508    -3.333334  0.011051864   -4.4988508    1.1655168      8192000 
  585000   0.77703135   -4.4985565   -4.4985565   -3.3330098  0.010155381   -4.4985565    1.1655467      8192000 
  586000   0.77686536   -4.4984107   -4.4984107    -3.333113  0.010297635   -4.4984107    1.1652977      8192000 
  587000   0.77749136   -4.4993233   -4.4993233   -3.3330865 0.0087350534   -4.4993233    1.1662367      8192000 
  588000    0.7774113   -4.4991213   -4.4991213   -3.3330046  0.010599829   -4.4991213    1.1661167      8192000 
  589000   0.77753216   -4.4993026   -4.4993026   -3.3330047  0.012220372   -4.4993026    1.1662979      8192000 
  590000   0.77797063   -4.4997108   -4.4997108   -3.3327552  0.011471129   -4.4997108    1.1669557      8192000 
  591000   0.77803026     -4.49971     -4.49971   -3.3326649  0.014028708     -4.49971    1.1670451      8192000 
  592000   0.77825994   -4.5001321   -4.5001321   -3.3327425  0.013765515   -4.5001321    1.1673896      8192000 
  593000   0.77863833   -4.5005414   -4.5005414   -3.3325842  0.015055255   -4.5005414    1.1679572      8192000 
  594000   0.77915315   -4.5012035   -4.5012035   -3.3324741  0.015769109   -4.5012035    1.1687294      8192000 
  595000   0.77911361   -4.5010957   -4.5010957   -3.3324255  0.015621451   -4.5010957    1.1686701      8192000 
  596000   0.77950333   -4.5014981   -4.5014981   -3.3322434  0.015870756   -4.5014981    1.1692547      8192000 
  597000   0.77974906   -4.5015897   -4.5015897   -3.3319664  0.017018146   -4.5015897    1.1696233      8192000 
  598000   0.77996896   -4.5018027   -4.5018027   -3.3318496  0.018467093   -4.5018027    1.1699532      8192000 
  599000   0.78006036    -4.501998    -4.501998   -3.3319078  0.019125806    -4.501998    1.1700903      8192000 
  600000   0.78039734    -4.502438    -4.502438   -3.3318423  0.018746488    -4.502438    1.1705957      8192000 
  601000   0.78026158   -4.5020696   -4.5020696   -3.3316775  0.021330071   -4.5020696    1.1703921      8192000 
  602000   0.78017691   -4.5018634   -4.5018634   -3.3315984  0.021038399   -4.5018634    1.1702651      8192000 
  603000   0.78057258   -4.5023324   -4.5023324   -3.3314738  0.019183352   -4.5023324    1.1708586      8192000 
  604000   0.78057697   -4.5025685   -4.5025685   -3.3317033  0.019530254   -4.5025685    1.1708652      8192000 
  605000   0.78005343   -4.5018835   -4.5018835   -3.3318036  0.019477235   -4.5018835    1.1700799      8192000 
  606000   0.78050462   -4.5024219   -4.5024219   -3.3316653  0.017127385   -4.5024219    1.1707566      8192000 
  607000   0.77986001   -4.5014073   -4.5014073   -3.3316176  0.018385234   -4.5014073    1.1697897      8192000 
  608000   0.78005853   -4.5016114   -4.5016114   -3.3315239  0.017433472   -4.5016114    1.1700875      8192000 
  609000   0.77997895   -4.5016114   -4.5016114   -3.3316433  0.016407339   -4.5016114    1.1699681      8192000 
  610000    0.7799632   -4.5012978   -4.5012978   -3.3313533  0.016500557   -4.5012978    1.1699445      8192000 
  611000   0.77982301    -4.501092    -4.501092   -3.3313578  0.017728524    -4.501092    1.1697342      8192000 
  612000   0.78025003   -4.5016914   -4.5016914   -3.3313166  0.018707734   -4.5016914    1.1703748      8192000 
  613000   0.78015738   -4.5015295   -4.5015295   -3.3312938  0.018115638   -4.5015295    1.1702358      8192000 
  614000   0.78091365   -4.5027555   -4.5027555   -3.3313853  0.018126819   -4.5027555    1.1713702      8192000 
  615000   0.78124006   -4.5033079   -4.5033079   -3.3314481  0.018182524   -4.5033079    1.1718598      8192000 
  616000   0.78123424   -4.5032139   -4.5032139   -3.3313628  0.019709554   -4.5032139    1.1718511      8192000 
  617000   0.78142826   -4.5035408   -4.5035408   -3.3313986  0.023212372   -4.5035408    1.1721421      8192000 
  618000   0.78230536   -4.5048692   -4.5048692   -3.3314115  0.023806445   -4.5048692    1.1734577      8192000 
  619000   0.78273927   -4.5055725   -4.5055725   -3.3314639  0.026138827   -4.5055725    1.1741086      8192000 
  620000    0.7835054   -4.5067935   -4.5067935   -3.3315357  0.028067766   -4.5067935    1.1752578      8192000 
  621000   0.78409072   -4.5077654   -4.5077654   -3.3316296  0.029635344   -4.5077654    1.1761358      8192000 
  622000   0.78486543   -4.5090183   -4.5090183   -3.3317205  0.033151394   -4.5090183    1.1772978      8192000 
  623000   0.78563461   -4.5098638   -4.5098638   -3.3314122  0.037749961   -4.5098638    1.1784516      8192000 
  624000   0.78625446   -4.5109512   -4.5109512   -3.3315698  0.040742785   -4.5109512    1.1793814      8192000 
  625000   0.78720456   -4.5124286   -4.5124286   -3.3316221  0.043504192   -4.5124286    1.1808065      8192000 
  626000   0.78765085   -4.5132702   -4.5132702   -3.3317942  0.046781947   -4.5132702     1.181476      8192000 
  627000    0.7883501   -4.5145525   -4.5145525   -3.3320277  0.048862588   -4.5145525    1.1825249      8192000 
  628000   0.78898463   -4.5159347   -4.5159347    -3.332458   0.05157436   -4.5159347    1.1834766      8192000 
  629000   0.78993484     -4.51745     -4.51745    -3.332548  0.056148631     -4.51745     1.184902      8192000 
  630000   0.79041647   -4.5183431   -4.5183431   -3.3327187  0.061106577   -4.5183431    1.1856244      8192000 
  631000   0.79166418    -4.520404    -4.520404    -3.332908  0.065180567    -4.520404     1.187496      8192000 
  632000   0.79262461      -4.5221      -4.5221   -3.3331633  0.071640728      -4.5221    1.1889366      8192000 
  633000   0.79360064   -4.5238931   -4.5238931   -3.3334925  0.077962642   -4.5238931    1.1904007      8192000 
  634000   0.79459307    -4.525902    -4.525902   -3.3340127  0.083164647    -4.525902    1.1918893      8192000 
  635000   0.79580975   -4.5280299   -4.5280299   -3.3343156  0.089196487   -4.5280299    1.1937143      8192000 
  636000   0.79677979   -4.5301301   -4.5301301   -3.3349607  0.091736592   -4.5301301    1.1951694      8192000 
  637000   0.79732735   -4.5313776   -4.5313776   -3.3353869  0.099048697   -4.5313776    1.1959907      8192000 
  638000   0.79804061   -4.5330656   -4.5330656    -3.336005   0.10392537   -4.5330656    1.1970606      8192000 
  639000   0.79888296   -4.5352012   -4.5352012   -3.3368771   0.10529461   -4.5352012    1.1983241      8192000 
  640000   0.79881654   -4.5359641   -4.5359641   -3.3377396   0.10850882   -4.5359641    1.1982245      8192000 
  641000   0.79885023   -4.5366311   -4.5366311   -3.3383561   0.11114994   -4.5366311     1.198275      8192000 
  642000   0.79900803   -4.5372742   -4.5372742   -3.3387625   0.11207994   -4.5372742    1.1985117      8192000 
  643000    0.7988659   -4.5374847   -4.5374847   -3.3391861   0.11115346   -4.5374847    1.1982985      8192000 
  644000   0.79908037   -4.5383748   -4.5383748   -3.3397545   0.10938977   -4.5383748    1.1986203      8192000 
  645000    0.7986381   -4.5379909   -4.5379909    -3.340034   0.10591724   -4.5379909    1.1979568      8192000 
  646000   0.79742712   -4.5362777   -4.5362777   -3.3401374   0.10607571   -4.5362777    1.1961404      8192000 
  647000   0.79720118   -4.5359158   -4.5359158   -3.3401144   0.10053055   -4.5359158    1.1958015      8192000 
  648000   0.79648498   -4.5349978   -4.5349978   -3.3402707  0.095603557   -4.5349978    1.1947272      8192000 
  649000   0.79569811   -4.5337274   -4.5337274   -3.3401805  0.093143234   -4.5337274    1.1935469      8192000 
  650000   0.79497057   -4.5326839   -4.5326839   -3.3402283  0.087230287   -4.5326839    1.1924556      8192000 
  651000   0.79384743   -4.5307375   -4.5307375   -3.3399667   0.08503004   -4.5307375    1.1907709      8192000 
  652000    0.7931573   -4.5296793   -4.5296793   -3.3399436  0.080028243   -4.5296793    1.1897356      8192000 
  653000   0.79238057   -4.5282914   -4.5282914   -3.3397208  0.074712703   -4.5282914    1.1885706      8192000 
  654000   0.79083044   -4.5256592   -4.5256592   -3.3394139  0.071551571   -4.5256592    1.1862454      8192000 
  655000   0.78968853   -4.5239672   -4.5239672   -3.3394347  0.063967628   -4.5239672    1.1845325      8192000 
  656000   0.78847065   -4.5221229   -4.5221229   -3.3394172  0.059462358   -4.5221229    1.1827057      8192000 
  657000   0.78744002   -4.5201635   -4.5201635   -3.3390038  0.052611728   -4.5201635    1.1811597      8192000 
  658000   0.78626026   -4.5179794   -4.5179794   -3.3385893  0.044182168   -4.5179794    1.1793901      8192000 
  659000   0.78433771   -4.5148337   -4.5148337   -3.3383274  0.037790014   -4.5148337    1.1765063      8192000 
  660000    0.7827825   -4.5120206   -4.5120206   -3.3378472  0.029612049   -4.5120206    1.1741735      8192000 
  661000   0.78105388   -4.5086753   -4.5086753   -3.3370947  0.024283525   -4.5086753    1.1715805      8192000 
  662000   0.78034752   -4.5070328   -4.5070328   -3.3365118  0.014643009   -4.5070328     1.170521      8192000 
  663000   0.77841158   -4.5032725   -4.5032725   -3.3356554 0.0086726926   -4.5032725    1.1676171      8192000 
  664000   0.77759162   -4.5014179   -4.5014179   -3.3350308 6.4091706e-05   -4.5014179    1.1663871      8192000 
  665000   0.77597445   -4.4980113   -4.4980113   -3.3340499 -0.0047269562   -4.4980113    1.1639614      8192000 
  666000   0.77510349    -4.495888    -4.495888   -3.3332331 -0.012348988    -4.495888    1.1626549      8192000 
  667000   0.77383411   -4.4931981   -4.4931981   -3.3324472 -0.016475783   -4.4931981    1.1607509      8192000 
  668000   0.77255619    -4.490259    -4.490259    -3.331425 -0.021436675    -4.490259     1.158834      8192000 
  669000   0.77194991   -4.4884416   -4.4884416    -3.330517  -0.02643965   -4.4884416    1.1579246      8192000 
  670000   0.77034421   -4.4853243   -4.4853243   -3.3298083 -0.029456879   -4.4853243     1.155516      8192000 
  671000   0.77011365   -4.4842075   -4.4842075   -3.3290373 -0.037246271   -4.4842075    1.1551702      8192000 
  672000   0.76881248   -4.4814199   -4.4814199   -3.3282014 -0.040971482   -4.4814199    1.1532184      8192000 
  673000   0.76783746   -4.4790998   -4.4790998   -3.3273439 -0.044521794   -4.4790998    1.1517559      8192000 
  674000    0.7671655   -4.4771987   -4.4771987   -3.3264507 -0.048484716   -4.4771987     1.150748      8192000 
  675000   0.76611076   -4.4749011   -4.4749011   -3.3257353 -0.051643021   -4.4749011    1.1491659      8192000 
  676000   0.76554615   -4.4735095   -4.4735095   -3.3251905 -0.055328755   -4.4735095    1.1483189      8192000 
  677000   0.76472882   -4.4713642   -4.4713642   -3.3242713    -0.058369   -4.4713642    1.1470929      8192000 
  678000   0.76436813   -4.4701781   -4.4701781   -3.3236262 -0.061981639   -4.4701781    1.1465519      8192000 
  679000   0.76405171    -4.468725    -4.468725   -3.3226477 -0.065326885    -4.468725    1.1460773      8192000 
  680000   0.76366768   -4.4672206   -4.4672206   -3.3217194 -0.066963292   -4.4672206    1.1455012      8192000 
  681000   0.76368583   -4.4664449   -4.4664449   -3.3209164  -0.06739277   -4.4664449    1.1455285      8192000 
  682000   0.76321208    -4.464932    -4.464932   -3.3201142 -0.067089003    -4.464932    1.1448178      8192000 
[...]
  838000   0.78025769     -4.47652     -4.47652   -3.3061337 -0.0044755201     -4.47652    1.1703862      8192000 
  839000    0.7795879   -4.4750046   -4.4750046    -3.305623 -0.007118902   -4.4750046    1.1693816      8192000 
  840000   0.77932725   -4.4740355   -4.4740355    -3.305045 -0.010056399   -4.4740355    1.1689906      8192000 
  841000   0.77895457   -4.4730536   -4.4730536   -3.3046221 -0.011411407   -4.4730536    1.1684316      8192000 
  842000   0.77847189     -4.47182     -4.47182   -3.3041125 -0.012787361     -4.47182    1.1677075      8192000 
  843000   0.77835243   -4.4711945   -4.4711945   -3.3036662 -0.015770307   -4.4711945    1.1675283      8192000 
  844000   0.77802706   -4.4702427   -4.4702427   -3.3032024 -0.016783705   -4.4702427    1.1670403      8192000 
  845000   0.77739776   -4.4687782   -4.4687782   -3.3026818 -0.014672177   -4.4687782    1.1660963      8192000 
  846000   0.77798765   -4.4688872   -4.4688872    -3.301906 -0.018236869   -4.4688872    1.1669812      8192000 
  847000   0.77776702   -4.4678673   -4.4678673   -3.3012171 -0.018369317   -4.4678673    1.1666502      8192000 
  848000   0.77781958   -4.4673587   -4.4673587   -3.3006296 -0.020428567   -4.4673587    1.1667291      8192000 
  849000    0.7776638   -4.4666093   -4.4666093   -3.3001138 -0.021047523   -4.4666093    1.1664954      8192000 
  850000   0.77750373   -4.4658778   -4.4658778   -3.2996225 -0.022758151   -4.4658778    1.1662553      8192000 
  851000   0.77775852   -4.4660371   -4.4660371   -3.2993996 -0.022736197   -4.4660371    1.1666375      8192000 
  852000   0.77766614   -4.4653861   -4.4653861   -3.2988872  -0.02111825   -4.4653861    1.1664989      8192000 
  853000   0.77743733   -4.4646849   -4.4646849   -3.2985292 -0.021585142   -4.4646849    1.1661557      8192000 
  854000    0.7778606   -4.4649546   -4.4649546    -3.298164 -0.021440627   -4.4649546    1.1667906      8192000 
  855000   0.77789697   -4.4646302   -4.4646302    -3.297785 -0.020554453   -4.4646302    1.1668452      8192000 
  856000   0.77822033   -4.4647968   -4.4647968   -3.2974666 -0.021110348   -4.4647968    1.1673302      8192000 
  857000   0.77856816   -4.4646502   -4.4646502   -3.2967983 -0.020839108   -4.4646502     1.167852      8192000 
  858000   0.77847803   -4.4641814   -4.4641814   -3.2964647 -0.017363359   -4.4641814    1.1677168      8192000 
  859000   0.77892702    -4.464611    -4.464611   -3.2962208 -0.017216322    -4.464611    1.1683902      8192000 
  860000   0.77951569   -4.4650484   -4.4650484   -3.2957751 -0.015989372   -4.4650484    1.1692732      8192000 
  861000   0.77956415   -4.4647486   -4.4647486   -3.2954027 -0.014769624   -4.4647486    1.1693459      8192000 
  862000   0.78032086   -4.4656883   -4.4656883   -3.2952073 -0.012093829   -4.4656883     1.170481      8192000 
  863000   0.78076699   -4.4661915   -4.4661915   -3.2950413 -0.011726632   -4.4661915    1.1711502      8192000 
  864000   0.78139547   -4.4667483   -4.4667483   -3.2946554 -0.010087598   -4.4667483    1.1720929      8192000 
  865000   0.78122876   -4.4662475   -4.4662475   -3.2944047 -0.0067752156   -4.4662475    1.1718428      8192000 
  866000   0.78168862   -4.4667943   -4.4667943   -3.2942617 -0.0058985122   -4.4667943    1.1725326      8192000 
  867000   0.78208381   -4.4670463   -4.4670463   -3.2939209 -0.0044428881   -4.4670463    1.1731254      8192000 
  868000   0.78253157    -4.467673    -4.467673   -3.2938759 -0.003721933    -4.467673    1.1737971      8192000 
  869000   0.78302934   -4.4684131   -4.4684131   -3.2938694 -6.9756138e-06   -4.4684131    1.1745437      8192000 
  870000   0.78356522   -4.4693048   -4.4693048   -3.2939573 0.00061846845   -4.4693048    1.1753475      8192000 
  871000   0.78393153   -4.4697466   -4.4697466   -3.2938496 0.0029322954   -4.4697466     1.175897      8192000 
  872000   0.78436255   -4.4703463   -4.4703463   -3.2938028 0.0042811275   -4.4703463    1.1765435      8192000 
  873000   0.78517541    -4.471626    -4.471626   -3.2938632 0.0048385681    -4.471626    1.1777628      8192000 
  874000   0.78552077   -4.4722083   -4.4722083   -3.2939274 0.0085919847   -4.4722083    1.1782809      8192000 
  875000   0.78550629   -4.4723706   -4.4723706   -3.2941115  0.012514626   -4.4723706    1.1782591      8192000 
  876000   0.78646311   -4.4736544   -4.4736544     -3.29396  0.013021638   -4.4736544    1.1796944      8192000 
  877000    0.7867772   -4.4743564   -4.4743564   -3.2941909   0.01472612   -4.4743564    1.1801655      8192000 
  878000   0.78697959   -4.4747194   -4.4747194   -3.2942503  0.018326303   -4.4747194    1.1804691      8192000 
  879000   0.78773858   -4.4757729   -4.4757729   -3.2941653  0.019813219   -4.4757729    1.1816076      8192000 
  880000   0.78783579   -4.4762033   -4.4762033   -3.2944499  0.021855055   -4.4762033    1.1817534      8192000 
  881000   0.78803594   -4.4766833   -4.4766833   -3.2946297  0.022825196   -4.4766833    1.1820536      8192000 
  882000   0.78859262   -4.4777435   -4.4777435   -3.2948549  0.022509681   -4.4777435    1.1828886      8192000 
  883000   0.78869599   -4.4779508   -4.4779508   -3.2949071   0.02568624   -4.4779508    1.1830437      8192000 
  884000   0.78890185   -4.4782216   -4.4782216   -3.2948691  0.028204544   -4.4782216    1.1833525      8192000 
  885000   0.78973355   -4.4796114   -4.4796114   -3.2950113  0.028194087   -4.4796114       1.1846      8192000 
  886000   0.78970134   -4.4796457   -4.4796457    -3.295094   0.02980061   -4.4796457    1.1845517      8192000 
  887000   0.78973567   -4.4800607   -4.4800607   -3.2954575  0.032136105   -4.4800607    1.1846032      8192000 
  888000   0.78999783   -4.4808065   -4.4808065   -3.2958101  0.031094347   -4.4808065    1.1849964      8192000 
  889000   0.79022632   -4.4808999   -4.4808999   -3.2955607  0.033774995   -4.4808999    1.1853392      8192000 
  890000   0.79050088   -4.4814896   -4.4814896   -3.2957385  0.032266795   -4.4814896     1.185751      8192000 
  891000   0.79039216   -4.4814222   -4.4814222   -3.2958343  0.033738757   -4.4814222    1.1855879      8192000 
  892000   0.79076548   -4.4818824   -4.4818824   -3.2957345  0.035324048   -4.4818824    1.1861479      8192000 
  893000   0.79069785   -4.4818643   -4.4818643   -3.2958178  0.035352887   -4.4818643    1.1860465      8192000 
  894000   0.79042011   -4.4814477   -4.4814477   -3.2958178  0.037705718   -4.4814477    1.1856299      8192000 
  895000   0.79105504   -4.4823538   -4.4823538   -3.2957715  0.034277184   -4.4823538    1.1865823      8192000 
  896000   0.79094981   -4.4820795   -4.4820795   -3.2956551   0.03534867   -4.4820795    1.1864244      8192000 
  897000   0.79068905   -4.4816468   -4.4816468   -3.2956135  0.036169411   -4.4816468    1.1860333      8192000 
  898000     0.790543   -4.4812896   -4.4812896   -3.2954754   0.03792152   -4.4812896    1.1858142      8192000 
  899000    0.7904197   -4.4808771   -4.4808771   -3.2952479  0.037454762   -4.4808771    1.1856293      8192000 
  900000   0.79090344   -4.4815008   -4.4815008   -3.2951459  0.034041396   -4.4815008    1.1863549      8192000 
  901000    0.7904988   -4.4806873   -4.4806873   -3.2949394  0.034348134   -4.4806873    1.1857479      8192000 
  902000   0.79068495   -4.4806885   -4.4806885   -3.2946614   0.03284384   -4.4806885    1.1860271      8192000 
  903000   0.79065995   -4.4804482   -4.4804482   -3.2944586  0.031885174   -4.4804482    1.1859896      8192000 
  904000   0.79026112   -4.4797724   -4.4797724   -3.2943811  0.031449335   -4.4797724    1.1853914      8192000 
  905000   0.79010408   -4.4793492   -4.4793492   -3.2941934  0.030228913   -4.4793492    1.1851558      8192000 
  906000   0.78978361   -4.4787813   -4.4787813   -3.2941062  0.029310134   -4.4787813    1.1846751      8192000 
  907000   0.78945261   -4.4781276   -4.4781276    -3.293949   0.02913905   -4.4781276    1.1841786      8192000 
  908000   0.78932138   -4.4776101   -4.4776101   -3.2936283   0.02722764   -4.4776101    1.1839818      8192000 
  909000   0.78935659   -4.4773487   -4.4773487   -3.2933141  0.025513936   -4.4773487    1.1840346      8192000 
  910000   0.78859428   -4.4761254   -4.4761254   -3.2932343  0.025849976   -4.4761254    1.1828911      8192000 
  911000   0.78872122   -4.4759469   -4.4759469   -3.2928653  0.023258769   -4.4759469    1.1830815      8192000 
  912000   0.78838209   -4.4749632   -4.4749632   -3.2923904  0.022484005   -4.4749632    1.1825728      8192000 
  913000   0.78789978     -4.47407     -4.47407   -3.2922207  0.019721522     -4.47407    1.1818494      8192000 
  914000   0.78736967   -4.4728501   -4.4728501   -3.2917958  0.018482884   -4.4728501    1.1810542      8192000 
  915000   0.78736344   -4.4726333   -4.4726333   -3.2915885  0.015955837   -4.4726333    1.1810449      8192000 
  916000   0.78701361   -4.4713655   -4.4713655   -3.2908453  0.014563418   -4.4713655    1.1805201      8192000 
  917000   0.78688289   -4.4710096   -4.4710096   -3.2906856  0.011460194   -4.4710096     1.180324      8192000 
  918000   0.78630888   -4.4697947   -4.4697947   -3.2903317  0.012442759   -4.4697947     1.179463      8192000 
  919000   0.78595695   -4.4688055   -4.4688055   -3.2898704  0.010081512   -4.4688055    1.1789351      8192000 
  920000   0.78576233     -4.46793     -4.46793   -3.2892868 0.0080182338     -4.46793    1.1786432      8192000 
  921000   0.78552129   -4.4669053   -4.4669053   -3.2886236  0.006333791   -4.4669053    1.1782816      8192000 
  922000   0.78552441   -4.4664524   -4.4664524    -3.288166 0.0049967732   -4.4664524    1.1782863      8192000 
  923000   0.78534512   -4.4660485   -4.4660485   -3.2880311 0.0024340834   -4.4660485    1.1780174      8192000 
  924000   0.78477237   -4.4647896   -4.4647896   -3.2876314 0.0022620147   -4.4647896    1.1771583      8192000 
  925000    0.7846966    -4.464301    -4.464301   -3.2872564 0.00022102846    -4.464301    1.1770446      8192000 
  926000   0.78459373   -4.4634738   -4.4634738   -3.2865835 0.00066551848   -4.4634738    1.1768903      8192000 
  927000   0.78415034   -4.4623654   -4.4623654   -3.2861402 -0.00035995807   -4.4623654    1.1762252      8192000 
  928000   0.78401069   -4.4617979   -4.4617979   -3.2857822 -0.0018440393   -4.4617979    1.1760157      8192000 
  929000   0.78408636   -4.4612409   -4.4612409   -3.2851116 -0.0020945859   -4.4612409    1.1761293      8192000 
  930000   0.78438652   -4.4610817   -4.4610817   -3.2845023 -0.0057651605   -4.4610817    1.1765795      8192000 
  931000   0.78428453   -4.4605986   -4.4605986   -3.2841721 -0.0044900439   -4.4605986    1.1764265      8192000 
  932000   0.78406924   -4.4598787   -4.4598787   -3.2837752 -0.005336382   -4.4598787    1.1761036      8192000 
  933000    0.7838739   -4.4591958   -4.4591958   -3.2833852 -0.0071918276   -4.4591958    1.1758106      8192000 
  934000   0.78358954   -4.4582298   -4.4582298   -3.2828458 -0.0057440863   -4.4582298     1.175384      8192000 
  935000   0.78368268   -4.4577844   -4.4577844   -3.2822607 -0.0058804005   -4.4577844    1.1755237      8192000 
  936000   0.78359074   -4.4571259   -4.4571259   -3.2817401 -0.0059370414   -4.4571259    1.1753858      8192000 
  937000   0.78392715   -4.4572867   -4.4572867   -3.2813963 -0.0069925263   -4.4572867    1.1758904      8192000 
  938000   0.78386439   -4.4568693   -4.4568693    -3.281073 -0.0070907462   -4.4568693    1.1757963      8192000 
  939000   0.78393778   -4.4563678   -4.4563678   -3.2804614 -0.0073009892   -4.4563678    1.1759064      8192000 
  940000   0.78394305   -4.4560498   -4.4560498   -3.2801356 -0.006383049   -4.4560498    1.1759143      8192000 
  941000   0.78398516   -4.4557623   -4.4557623   -3.2797848 -0.0087116135   -4.4557623    1.1759774      8192000 
  942000   0.78429485   -4.4556989   -4.4556989   -3.2792569 -0.0069374863   -4.4556989     1.176442      8192000 
  943000   0.78421919   -4.4552656   -4.4552656   -3.2789371 -0.0061314578   -4.4552656    1.1763285      8192000 
  944000   0.78405064   -4.4549239   -4.4549239   -3.2788483 -0.0032141873   -4.4549239    1.1760757      8192000 
  945000   0.78479988   -4.4556866   -4.4556866    -3.278487 -0.0067700125   -4.4556866    1.1771995      8192000 
  946000   0.78424312   -4.4547505   -4.4547505   -3.2783861 -0.004717482   -4.4547505    1.1763644      8192000 
  947000   0.78428146   -4.4544435   -4.4544435   -3.2780216 -0.0026449047   -4.4544435    1.1764219      8192000 
  948000   0.78499779   -4.4552706   -4.4552706   -3.2777742 -0.0040873673   -4.4552706    1.1774964      8192000 
  949000   0.78538098   -4.4554518   -4.4554518   -3.2773806 -0.0030423278   -4.4554518    1.1780712      8192000 
  950000   0.78520504   -4.4549002   -4.4549002   -3.2770929 -0.0010346199   -4.4549002    1.1778073      8192000 
  951000   0.78557303   -4.4553332   -4.4553332   -3.2769739 -0.0012143285   -4.4553332    1.1783593      8192000 
  952000   0.78616107   -4.4557516   -4.4557516   -3.2765103 0.00069396343   -4.4557516    1.1792413      8192000 
  953000   0.78614919   -4.4554468   -4.4554468   -3.2762233 0.0015541048   -4.4554468    1.1792235      8192000 
  954000   0.78657625   -4.4558331   -4.4558331   -3.2759691 0.0022423113   -4.4558331    1.1798641      8192000 
  955000   0.78655088   -4.4559974   -4.4559974   -3.2761714 0.0035127056   -4.4559974     1.179826      8192000 
  956000   0.78733767    -4.456708    -4.456708   -3.2757018 0.0031573916    -4.456708    1.1810062      8192000 
  957000   0.78735844   -4.4566234   -4.4566234   -3.2755861 0.0062249968   -4.4566234    1.1810374      8192000 
  958000   0.78772481   -4.4570851   -4.4570851   -3.2754982 0.0067190866   -4.4570851    1.1815869      8192000 
  959000   0.78788467   -4.4570183   -4.4570183   -3.2751916 0.0092245356   -4.4570183    1.1818267      8192000 
  960000   0.78811809   -4.4575996   -4.4575996   -3.2754228 0.0096188367   -4.4575996    1.1821768      8192000 
  961000   0.78868784   -4.4581599   -4.4581599   -3.2751285  0.010107428   -4.4581599    1.1830315      8192000 
  962000   0.78868779   -4.4581632   -4.4581632   -3.2751318  0.011876478   -4.4581632    1.1830314      8192000 
  963000   0.78902805   -4.4585423   -4.4585423   -3.2750006  0.013800889   -4.4585423    1.1835418      8192000 
  964000   0.78961787   -4.4592477   -4.4592477   -3.2748212  0.015623028   -4.4592477    1.1844265      8192000 
  965000   0.78995353   -4.4594295   -4.4594295   -3.2744994  0.015742982   -4.4594295      1.18493      8192000 
  966000   0.79011287   -4.4596308   -4.4596308   -3.2744618   0.01757312   -4.4596308     1.185169      8192000 
  967000   0.79066629   -4.4604888   -4.4604888   -3.2744897  0.017868212   -4.4604888    1.1859991      8192000 
  968000   0.79060238   -4.4602036   -4.4602036   -3.2743003  0.019386264   -4.4602036    1.1859033      8192000 
  969000   0.79097349   -4.4606209   -4.4606209    -3.274161  0.018399767   -4.4606209    1.1864599      8192000 
  970000   0.79090866    -4.460633    -4.460633   -3.2742703  0.020269189    -4.460633    1.1863627      8192000 
  971000   0.79128155   -4.4610462   -4.4610462   -3.2741241  0.020355964   -4.4610462     1.186922      8192000 
  972000   0.79147541   -4.4612169   -4.4612169   -3.2740041  0.021266792   -4.4612169    1.1872128      8192000 
  973000   0.79155238   -4.4612635   -4.4612635   -3.2739352  0.021221799   -4.4612635    1.1873283      8192000 
  974000     0.791193   -4.4608765   -4.4608765   -3.2740873  0.023023491   -4.4608765    1.1867892      8192000 
  975000   0.79143929    -4.461139    -4.461139   -3.2739803  0.023186685    -4.461139    1.1871586      8192000 
  976000   0.79179115   -4.4618481   -4.4618481   -3.2741617  0.023455165   -4.4618481    1.1876864      8192000 
  977000   0.79208874   -4.4620553   -4.4620553   -3.2739225   0.02400402   -4.4620553    1.1881328      8192000 
  978000   0.79212093   -4.4620869   -4.4620869   -3.2739058   0.02344528   -4.4620869    1.1881811      8192000 
  979000   0.79191728   -4.4615431   -4.4615431   -3.2736675  0.024411235   -4.4615431    1.1878756      8192000 
  980000   0.79178427   -4.4613261   -4.4613261     -3.27365  0.025492949   -4.4613261    1.1876761      8192000 
  981000   0.79177798   -4.4611347   -4.4611347    -3.273468  0.026113261   -4.4611347    1.1876667      8192000 
  982000   0.79224633   -4.4615271   -4.4615271   -3.2731579  0.026982667   -4.4615271    1.1883692      8192000 
  983000   0.79220657   -4.4614143   -4.4614143   -3.2731048  0.026155053   -4.4614143    1.1883096      8192000 
  984000   0.79262096   -4.4618027   -4.4618027   -3.2728716   0.02620869   -4.4618027    1.1889311      8192000 
  985000    0.7923142   -4.4612755   -4.4612755   -3.2728045  0.025649549   -4.4612755     1.188471      8192000 
  986000   0.79241543   -4.4612497   -4.4612497   -3.2726269  0.025127236   -4.4612497    1.1886229      8192000 
  987000   0.79254666   -4.4611768   -4.4611768   -3.2723571  0.024657088   -4.4611768    1.1888197      8192000 
  988000   0.79264352   -4.4610064   -4.4610064   -3.2720414  0.024563824   -4.4610064     1.188965      8192000 
  989000    0.7926697   -4.4605459   -4.4605459   -3.2715416  0.024549202   -4.4605459    1.1890043      8192000 
  990000   0.79235251   -4.4601512   -4.4601512   -3.2716227  0.024566614   -4.4601512    1.1885285      8192000 
  991000   0.79220038    -4.459698    -4.459698   -3.2713977  0.024667322    -4.459698    1.1883003      8192000 
  992000   0.79235101   -4.4596273   -4.4596273   -3.2711011  0.023295646   -4.4596273    1.1885262      8192000 
  993000   0.79226294   -4.4589173   -4.4589173   -3.2705232  0.023155511   -4.4589173    1.1883941      8192000 
  994000   0.79196686   -4.4582338   -4.4582338   -3.2702838  0.022538638   -4.4582338      1.18795      8192000 
  995000   0.79227437   -4.4585673   -4.4585673   -3.2701561  0.021084887   -4.4585673    1.1884113      8192000 
  996000   0.79202873   -4.4576554   -4.4576554   -3.2696126  0.021597324   -4.4576554    1.1880428      8192000 
  997000   0.79184038   -4.4572532   -4.4572532   -3.2694929  0.020136343   -4.4572532    1.1877603      8192000 
  998000   0.79158385   -4.4565022   -4.4565022   -3.2691267   0.01824882   -4.4565022    1.1873755      8192000 
  999000    0.7914678   -4.4558454   -4.4558454    -3.268644  0.019811524   -4.4558454    1.1872014      8192000 
 1000000   0.79175273   -4.4561253   -4.4561253   -3.2684965   0.01552216   -4.4561253    1.1876288      8192000 
Loop time of 35811.5 on 128 procs for 1000000 steps with 3993600 atoms

Performance: 6031.577 tau/day, 27.924 timesteps/s
99.5% CPU use with 128 MPI tasks x 1 OpenMP threads

MPI task timing breakdown:
Section |  min time  |  avg time  |  max time  |%varavg|  %CPU | %total
-----------------------------------------------------------------------
Pair    | 10786      | 14759      | 24600      |2376.6 |  99.6 | 41.21
Bond    | 0.54662    | 0.73416    | 1.0831     |  14.2 | 100.0 |  0.00
Neigh   | 2527.3     | 3416.7     | 5315.4     |1048.0 | 100.0 |  9.54
Comm    | 2833.7     | 15242      | 20801      |2914.2 |  99.0 | 42.56
Output  | 67.248     | 67.628     | 67.692     |   0.5 |  98.9 |  0.19
Modify  | 507.26     | 808.54     | 2705.3     |1626.7 |  99.6 |  2.26
Other   |            | 1517       |            |       |       |  4.24

Nlocal:        31200.0 ave       31853 max       30292 min
Histogram: 1 3 2 3 7 48 55 8 0 1
Nghost:        17545.6 ave       18879 max       13889 min
Histogram: 32 0 0 0 0 0 0 0 0 96
Neighs:    1.12933e+06 ave  1.1653e+06 max      974177 min
Histogram: 6 8 1 1 0 0 0 2 47 63

Total # of neighbors = 1.4455425e+08
Ave neighs/atom = 36.196476
Ave special neighs/atom = 0.0000000
Neighbor list builds = 66406
Dangerous builds = 2401
Total wall time: 9:57:11
