LAMMPS (24 Dec 2020)
OMP_NUM_THREADS environment is not set. Defaulting to 1 thread. (src/comm.cpp:94)
  using 1 OpenMP thread(s) per MPI task
#Read the equilibrated lj fluid and add nanocubes

units           lj
atom_style      full
#atom_modify     map array first cubes
dimension       3
boundary        p p f
pair_style      lj/cut/opt 2.5

variable        sigma           equal 1.0
variable        epsilon         equal 1.0

read_restart	restart.dat.1000000
Reading restart file ...
  restart file = 24 Dec 2020, LAMMPS = 24 Dec 2020
  restoring atom style full from restart
  orthogonal box = (0.0000000 0.0000000 0.0000000) to (160.00000 160.00000 320.00000)
  5 by 4 by 12 MPI processor grid
  restoring pair style lj/cut/opt from restart
  4233413 atoms
Finding 1-2 1-3 1-4 neighbors ...
  special bond factors lj:    0        0        0       
  special bond factors coul:  0        0        0       
     0 = max # of 1-2 neighbors
     0 = max # of 1-3 neighbors
     0 = max # of 1-4 neighbors
     1 = max # of special neighbors
  special bonds CPU = 1.911 seconds
  read_restart CPU = 3.580 seconds

neighbor      0.4 bin
neigh_modify  exclude molecule/intra cubes


pair_modify   shift yes

pair_coeff    1 1 1.0 1.0 #solvent
pair_coeff    2 2 0.6 1.0 #np
pair_coeff    3 3 0.0 0.0 0.0 #dummy
pair_coeff    2 3 0.0 0.0 0.0 #np dummy
pair_coeff    1 2 0.8 1.0 #np solvent
pair_coeff    1 3 0.0 0.0 0.0 #dummy solvent


comm_modify   mode multi cutoff/multi 1 2.5 cutoff/multi 2 2.5 cutoff/multi 3 6.95

reset_timestep 	0

balance 	1.05 shift z 10 1.05
Balancing ...
Unused restart file global fix info:
  fix style: STORE, fix ID: msd_COMPUTE_STORE
Neighbor list info ...
  update every 1 steps, delay 10 steps, check yes
  max neighbors/atom: 2000, page size: 100000
  master list distance cutoff = 2.9
  ghost atom cutoff = 6.95
  binsize = 1.45, bins = 111 111 221
  1 neighbor lists, perpetual/occasional/extra = 1 0 0
  (1) pair lj/cut/opt, perpetual
      attributes: half, newton on
      pair build: half/bin/newton
      stencil: half/bin/3d/newton
      bin: standard
 rebalancing time: 0.067 seconds
  iteration count = 4
  initial/final maximal load/proc = 30442.000 25144.000
  initial/final imbalance factor  = 1.7258132 1.4254598
  x cuts: 0.0000000 0.20000000 0.40000000 0.60000000 0.80000000 1.0000000
  y cuts: 0.0000000 0.25000000 0.50000000 0.75000000 1.0000000
  z cuts: 0.0000000 0.057291667 0.10937500 0.15625000 0.21875000 0.26041667 0.32812500 0.38020833 0.43229167 0.47916667 0.52083333 0.60416667 1.0000000

####################### WALLS ###########################

variable       epsilonWall equal 2*${epsilon}
variable       epsilonWall equal 2*1

variable       cutoffTop   equal   0.7147*${sigma}
variable       cutoffTop   equal   0.7147*1

variable       cutoffLow   equal   3*${sigma}
variable       cutoffLow   equal   3*1

region         lowWall block EDGE EDGE EDGE EDGE EDGE 2


fix            topWall all wall/lj93 zhi EDGE 	       ${epsilonWall} ${sigma} ${cutoffTop} units box
fix            topWall all wall/lj93 zhi EDGE 	       2 ${sigma} ${cutoffTop} units box
fix            topWall all wall/lj93 zhi EDGE 	       2 1 ${cutoffTop} units box
fix            topWall all wall/lj93 zhi EDGE 	       2 1 0.7147 units box

fix            lowWall all wall/lj93 zlo EDGE                ${epsilonWall} ${sigma} ${cutoffLow} units box
fix            lowWall all wall/lj93 zlo EDGE                2 ${sigma} ${cutoffLow} units box
fix            lowWall all wall/lj93 zlo EDGE                2 1 ${cutoffLow} units box
fix            lowWall all wall/lj93 zlo EDGE                2 1 3 units box


######################  FIXES ############################


fix             1 cubes rigid/nve/small molecule #temp 1.0 1.0 0.25
  create bodies CPU = 0.027 seconds
  512 rigid bodies with 585216 atoms
  6.9282032 = max distance from body owner to body atom

fix             2 solvent nve


## Thermostat

region          regthermo block EDGE EDGE EDGE EDGE 0 20
group           thermo dynamic solvent region regthermo every 1000
dynamic group thermo defined
fix             3 thermo langevin ${startTemp} ${temp} 0.1 156453
fix             3 thermo langevin 0.8 ${temp} 0.1 156453
fix             3 thermo langevin 0.8 0.8 0.1 156453


## Evaporation

region		regevap block EDGE EDGE EDGE EDGE 140 EDGE
fix 		evap solvent evaporate ${Nevap} 1 regevap 156455
fix 		evap solvent evaporate 75 1 regevap 156455


## Load balancing

fix             bal all balance 1000 1.05 shift z 10 1.05


############### Diagnostics and computes ###################

compute        com cubes          rigid/local   1 mol x y z
compute        quat cubes         rigid/local   1 mol quatw quati quatj quatk
compute 	cc2 cubes chunk/atom molecule

compute 	msd cubes msd/chunk cc2


thermo          1000
thermo_style    custom step temp epair evdwl etotal press pe ke vol


dump            1 all custom 100000 dump.lammpstrj id mol type x y z
dump            2 all image 10000 image.*.png type type
dump_modify     2 pad 8


dump		image cubes image 10000 image_cubes.*.png type type
dump_modify	image pad 8


dump            3 all movie 5000 movie.avi type type
dump           com cubes local 1000 dump.*.xyz c_com[*]
dump           quat cubes      local 1000 dump.*.quat c_quat[*]


restart         1000000 restart.dat
timestep        0.005
timer           full
New timer settings: style=full  mode=nosync  timeout=off

run            10000000
Per MPI rank memory allocation (min/avg/max) = 43.08 | 54.57 | 59.51 Mbytes
Step Temp E_pair E_vdwl TotEng Press PotEng KinEng Volume 
       0   0.79763102   -3.8689716   -3.8689716   -2.8376296  0.023395161   -3.8689716     1.031342      8192000 
    1000   0.79748012   -3.8684961   -3.8684961   -2.8373461  0.028134344   -3.8684961      1.03115      8192000 
    2000    0.7972792   -3.8683677   -3.8683677   -2.8374743  0.030550529   -3.8683677    1.0308934      8192000 
    3000   0.79717765   -3.8681835   -3.8681835    -2.837418  0.029891858   -3.8681835    1.0307655      8192000 
    4000    0.7968449   -3.8679902   -3.8679902   -2.8376518  0.029574266   -3.8679902    1.0303384      8192000 
    5000   0.79687175   -3.8677491   -3.8677491   -2.8373727  0.025907421   -3.8677491    1.0303763      8192000 
    6000   0.79687539   -3.8679875   -3.8679875    -2.837603  0.024283153   -3.8679875    1.0303844      8192000 
    7000   0.79713515   -3.8681453   -3.8681453   -2.8374218  0.020686446   -3.8681453    1.0307235      8192000 
    8000   0.79685289    -3.867682    -3.867682   -2.8373203  0.024733808    -3.867682    1.0303617      8192000 
    9000   0.79662779   -3.8676516   -3.8676516   -2.8375776  0.027318188   -3.8676516     1.030074      8192000 
   10000   0.79697951   -3.8676412   -3.8676412   -2.8371092  0.025253411   -3.8676412     1.030532      8192000 
   11000   0.79696519   -3.8680879   -3.8680879   -2.8375713  0.024549065   -3.8680879    1.0305166      8192000 
   12000   0.79665164   -3.8675363   -3.8675363   -2.8374218  0.024396612   -3.8675363    1.0301146      8192000 
   13000    0.7969363   -3.8673536   -3.8673536   -2.8368678  0.025445854   -3.8673536    1.0304858      8192000 
   14000    0.7975642   -3.8680884   -3.8680884   -2.8367875  0.025874701   -3.8680884    1.0313009      8192000 
   15000   0.79738059   -3.8677262   -3.8677262   -2.8366593  0.026010817   -3.8677262    1.0310669      8192000 
   16000   0.79715479   -3.8678013   -3.8678013   -2.8370232  0.027372813   -3.8678013    1.0307781      8192000 
   17000    0.7972253   -3.8681076   -3.8681076   -2.8372352  0.027671485   -3.8681076    1.0308724      8192000 
   18000   0.79697124   -3.8678382   -3.8678382   -2.8372909  0.028704988   -3.8678382    1.0305473      8192000 
   19000   0.79719227   -3.8680545   -3.8680545   -2.8372182   0.02662257   -3.8680545    1.0308363      8192000 
   20000   0.79744662   -3.8682844   -3.8682844   -2.8371161  0.026228763   -3.8682844    1.0311684      8192000 
   21000   0.79729228   -3.8679945   -3.8679945   -2.8370223  0.028067927   -3.8679945    1.0309722      8192000 
   22000   0.79736576    -3.868204    -3.868204   -2.8371336  0.028946965    -3.868204    1.0310704      8192000 
   23000   0.79746716    -3.868256    -3.868256   -2.8370513  0.024511905    -3.868256    1.0312047      8192000 
   24000   0.79753869    -3.868308    -3.868308   -2.8370074  0.030108025    -3.868308    1.0313006      8192000 
   25000   0.79770272   -3.8684658   -3.8684658   -2.8369499  0.028431232   -3.8684658    1.0315158      8192000 
   26000   0.79735684   -3.8682055   -3.8682055   -2.8371337  0.028741811   -3.8682055    1.0310717      8192000 
   27000   0.79732818   -3.8682171   -3.8682171    -2.837179  0.029530239   -3.8682171    1.0310381      8192000 
   28000   0.79775364   -3.8686074   -3.8686074    -2.837016  0.028102548   -3.8686074    1.0315914      8192000 
   29000   0.79767817   -3.8683374   -3.8683374   -2.8368404  0.028991263   -3.8683374     1.031497      8192000 
   30000   0.79767945   -3.8683725   -3.8683725   -2.8368705  0.030510042   -3.8683725    1.0315021      8192000 
   31000   0.79792092   -3.8687646   -3.8687646   -2.8369471  0.028440458   -3.8687646    1.0318175      8192000 
   32000   0.79724607   -3.8679787   -3.8679787   -2.8370307  0.028396099   -3.8679787     1.030948      8192000 
   33000   0.79739535   -3.8681954   -3.8681954    -2.837051  0.029341702   -3.8681954    1.0311444      8192000 
   34000   0.79720755   -3.8676225   -3.8676225   -2.8367178  0.028423498   -3.8676225    1.0309048      8192000 
   35000    0.7968827   -3.8672698   -3.8672698    -2.836782  0.029092177   -3.8672698    1.0304878      8192000 
   36000   0.79705808    -3.867752    -3.867752   -2.8370339  0.025742473    -3.867752     1.030718      8192000 
   37000   0.79706829   -3.8673455   -3.8673455   -2.8366111  0.026514695   -3.8673455    1.0307344      8192000 
   38000   0.79702229    -3.867773    -3.867773   -2.8370949   0.02731219    -3.867773    1.0306781      8192000 
   39000   0.79715664   -3.8677785   -3.8677785   -2.8369233  0.027845543   -3.8677785    1.0308552      8192000 
   40000   0.79706064   -3.8676093   -3.8676093    -2.836875  0.024877833   -3.8676093    1.0307343      8192000 
   41000   0.79708443    -3.867507    -3.867507   -2.8367388  0.025783168    -3.867507    1.0307682      8192000 
   42000   0.79704562   -3.8677904   -3.8677904    -2.837069    0.0243332   -3.8677904    1.0307214      8192000 
   43000   0.79695873   -3.8674065   -3.8674065   -2.8367943  0.027173921   -3.8674065    1.0306122      8192000 
   44000   0.79721816    -3.867687    -3.867687   -2.8367362  0.026845077    -3.867687    1.0309509      8192000 
   45000   0.79706343   -3.8675695   -3.8675695   -2.8368153  0.025167663   -3.8675695    1.0307542      8192000 
   46000   0.79683899    -3.866938    -3.866938   -2.8364709  0.028942059    -3.866938    1.0304671      8192000 
   47000   0.79693001    -3.867051    -3.867051    -2.836463  0.025272094    -3.867051     1.030588      8192000 
   48000   0.79694827   -3.8672884   -3.8672884   -2.8366734  0.025844281   -3.8672884     1.030615      8192000 
   49000   0.79714576   -3.8672522   -3.8672522   -2.8363786  0.027604812   -3.8672522    1.0308736      8192000 
   50000   0.79748896   -3.8680237   -3.8680237   -2.8367031  0.026659831   -3.8680237    1.0313206      8192000 
   51000   0.79769397   -3.8679696   -3.8679696   -2.8363805  0.028764014   -3.8679696    1.0315891      8192000 
   52000   0.79731351   -3.8673432   -3.8673432   -2.8362429  0.026616256   -3.8673432    1.0311002      8192000 
   53000   0.79768921    -3.867751    -3.867751   -2.8361617   0.02978704    -3.867751    1.0315893      8192000 
   54000   0.79727981   -3.8670734   -3.8670734   -2.8360102  0.029064929   -3.8670734    1.0310632      8192000 
   55000     0.797265   -3.8676268   -3.8676268   -2.8365796  0.028443081   -3.8676268    1.0310472      8192000 
   56000   0.79762941   -3.8680839   -3.8680839   -2.8365623  0.027739824   -3.8680839    1.0315217      8192000 
   57000   0.79741013    -3.867755    -3.867755   -2.8365135  0.028735873    -3.867755    1.0312415      8192000 
   58000   0.79719347   -3.8673282   -3.8673282   -2.8363637  0.029584329   -3.8673282    1.0309645      8192000 
   59000   0.79734871   -3.8678615   -3.8678615    -2.836693  0.027765183   -3.8678615    1.0311684      8192000 
   60000   0.79773722   -3.8682562   -3.8682562   -2.8365819  0.022194638   -3.8682562    1.0316743      8192000 
   61000   0.79731696   -3.8678241   -3.8678241   -2.8366901   0.02746418   -3.8678241    1.0311339      8192000 
   62000   0.79719815   -3.8674813   -3.8674813   -2.8364978  0.027186427   -3.8674813    1.0309835      8192000 
   63000   0.79778207   -3.8681446   -3.8681446   -2.8364026  0.028149694   -3.8681446     1.031742      8192000 
   64000   0.79784003   -3.8683418   -3.8683418   -2.8365217  0.027536274   -3.8683418    1.0318202      8192000 
   65000   0.79702116   -3.8673689   -3.8673689   -2.8366046   0.03111605   -3.8673689    1.0307643      8192000 
   66000   0.79755564   -3.8680881   -3.8680881   -2.8366292  0.029457269   -3.8680881    1.0314589      8192000 
   67000   0.79729066   -3.8680191   -3.8680191   -2.8368996  0.026895171   -3.8680191    1.0311194      8192000 
   68000   0.79742661   -3.8677269   -3.8677269   -2.8364285  0.026419732   -3.8677269    1.0312984      8192000 
   69000   0.79734272   -3.8674849   -3.8674849   -2.8362916  0.025299442   -3.8674849    1.0311933      8192000 
   70000   0.79703202   -3.8674549   -3.8674549   -2.8366602  0.026063681   -3.8674549    1.0307947      8192000 
   71000   0.79718872   -3.8676877   -3.8676877   -2.8366872  0.025634585   -3.8676877    1.0310005      8192000 
   72000   0.79701413   -3.8673936   -3.8673936   -2.8366155  0.026486379   -3.8673936    1.0307781      8192000 
   73000   0.79704734   -3.8675838   -3.8675838   -2.8367596  0.027648484   -3.8675838    1.0308242      8192000 
   74000   0.79688693   -3.8669879   -3.8669879    -2.836368  0.027152528   -3.8669879    1.0306199      8192000 
   75000   0.79733184   -3.8676707   -3.8676707   -2.8364719  0.026683667   -3.8676707    1.0311987      8192000 
   76000   0.79721547   -3.8673939   -3.8673939   -2.8363425  0.027825843   -3.8673939    1.0310514      8192000 
   77000   0.79766053   -3.8674395   -3.8674395   -2.8358093  0.026897834   -3.8674395    1.0316302      8192000 
   78000   0.79767164   -3.8675631   -3.8675631   -2.8359151  0.026689656   -3.8675631     1.031648      8192000 
   79000     0.797405   -3.8674281   -3.8674281   -2.8361218  0.027507826   -3.8674281    1.0313063      8192000 
   80000   0.79771121   -3.8678122   -3.8678122   -2.8361068  0.025693902   -3.8678122    1.0317055      8192000 
   81000   0.79762526   -3.8674561   -3.8674561   -2.8358584  0.028270792   -3.8674561    1.0315977      8192000 
   82000   0.79733868   -3.8673413   -3.8673413   -2.8361111  0.027134995   -3.8673413    1.0312303      8192000 
   83000   0.79762943   -3.8676046   -3.8676046   -2.8359951  0.028128343   -3.8676046    1.0316095      8192000 
   84000   0.79755224   -3.8675343   -3.8675343   -2.8360213  0.027158686   -3.8675343     1.031513      8192000 
   85000   0.79753749   -3.8671837   -3.8671837   -2.8356866  0.026306007   -3.8671837    1.0314971      8192000 
   86000   0.79791853   -3.8675517   -3.8675517   -2.8355586  0.028901465   -3.8675517    1.0319931      8192000 
   87000   0.79746841   -3.8676503   -3.8676503   -2.8362359  0.026824126   -3.8676503    1.0314144      8192000 
   88000   0.79703979   -3.8673866   -3.8673866   -2.8365234   0.02788559   -3.8673866    1.0308632      8192000 
   89000   0.79725814   -3.8671861   -3.8671861   -2.8360373  0.028810663   -3.8671861    1.0311487      8192000 
   90000   0.79773724   -3.8676061   -3.8676061   -2.8358344  0.027036447   -3.8676061    1.0317718      8192000 
   91000   0.79745482    -3.867508    -3.867508   -2.8360983  0.027315421    -3.867508    1.0314097      8192000 
   92000   0.79698407   -3.8672804   -3.8672804   -2.8364764  0.027015086   -3.8672804     1.030804      8192000 
   93000   0.79726589   -3.8671974   -3.8671974   -2.8360255  0.027085268   -3.8671974    1.0311719      8192000 
   94000   0.79760352   -3.8678866   -3.8678866   -2.8362748  0.026392818   -3.8678866    1.0316118      8192000 
   95000   0.79748216    -3.867717    -3.867717   -2.8362591  0.031165333    -3.867717     1.031458      8192000 
   96000   0.79716153   -3.8672434   -3.8672434   -2.8361967  0.031135316   -3.8672434    1.0310467      8192000 
   97000   0.79736218   -3.8674266   -3.8674266   -2.8361173  0.030167912   -3.8674266    1.0313094      8192000 
   98000   0.79694065   -3.8671603   -3.8671603    -2.836393  0.026545178   -3.8671603    1.0307673      8192000 
   99000   0.79736106   -3.8671412   -3.8671412   -2.8358266  0.028443558   -3.8671412    1.0313145      8192000 
  100000   0.79705855   -3.8669455   -3.8669455   -2.8360191  0.028891201   -3.8669455    1.0309264      8192000 
  101000   0.79744881   -3.8669839   -3.8669839   -2.8355496  0.030313215   -3.8669839    1.0314343      8192000 
  102000   0.79795177   -3.8676753   -3.8676753    -2.835587  0.029867935   -3.8676753    1.0320883      8192000 
  103000   0.79775853   -3.8674303   -3.8674303   -2.8355887  0.026336854   -3.8674303    1.0318415      8192000 
  104000   0.79758769   -3.8674021   -3.8674021   -2.8357784  0.025949602   -3.8674021    1.0316237      8192000 
  105000   0.79755564   -3.8669735   -3.8669735   -2.8353878  0.029357612   -3.8669735    1.0315857      8192000 
  106000   0.79775481   -3.8673971   -3.8673971   -2.8355507  0.028869659   -3.8673971    1.0318465      8192000 
  107000   0.79761788   -3.8676407   -3.8676407   -2.8359681  0.026543814   -3.8676407    1.0316725      8192000 
  108000   0.79733737   -3.8671406   -3.8671406   -2.8358275  0.027998803   -3.8671406    1.0313131      8192000 
  109000    0.7970767   -3.8666025   -3.8666025   -2.8356234  0.028249082   -3.8666025    1.0309791      8192000 
  110000   0.79726911   -3.8672105   -3.8672105   -2.8359794  0.026325244   -3.8672105    1.0312311      8192000 
  111000   0.79679699   -3.8665099   -3.8665099    -2.835886  0.031006721   -3.8665099    1.0306239      8192000 
  112000   0.79661448   -3.8664711   -3.8664711   -2.8360801  0.023685601   -3.8664711     1.030391      8192000 
  113000    0.7970096   -3.8663658   -3.8663658   -2.8354605  0.026211357   -3.8663658    1.0309052      8192000 
  114000   0.79677591    -3.866361    -3.866361   -2.8357547  0.026876945    -3.866361    1.0306064      8192000 
  115000   0.79690877    -3.866478    -3.866478   -2.8356966  0.026102594    -3.866478    1.0307814      8192000 
  116000    0.7970803    -3.866539    -3.866539   -2.8355326  0.026278242    -3.866539    1.0310064      8192000 
  117000   0.79696533   -3.8665689   -3.8665689   -2.8357078  0.027388808   -3.8665689    1.0308611      8192000 
  118000   0.79702989   -3.8662899   -3.8662899   -2.8353421  0.029145556   -3.8662899    1.0309478      8192000 
  119000   0.79711068   -3.8666942   -3.8666942   -2.8356388  0.026992333   -3.8666942    1.0310555      8192000 
  120000   0.79711301   -3.8671161   -3.8671161   -2.8360542  0.024770532   -3.8671161    1.0310619      8192000 
  121000   0.79727003   -3.8667819   -3.8667819   -2.8355137  0.028373653   -3.8667819    1.0312682      8192000 
  122000   0.79709138    -3.866415    -3.866415   -2.8353747   0.02879527    -3.866415    1.0310402      8192000 
  123000   0.79712408    -3.866531    -3.866531    -2.835445  0.027411083    -3.866531     1.031086      8192000 
  124000    0.7972972   -3.8668958   -3.8668958   -2.8355828  0.027025815   -3.8668958    1.0313131      8192000 
  125000   0.79729563   -3.8667554   -3.8667554   -2.8354413  0.027136706   -3.8667554    1.0313142      8192000 
  126000   0.79696933   -3.8662281   -3.8662281   -2.8353326  0.026599684   -3.8662281    1.0308955      8192000 
  127000   0.79727475   -3.8666609   -3.8666609   -2.8353672  0.025706378   -3.8666609    1.0312938      8192000 
  128000   0.79741026   -3.8667509   -3.8667509   -2.8352787  0.029815177   -3.8667509    1.0314722      8192000 
  129000    0.7977491   -3.8674469   -3.8674469    -2.835533  0.029944908   -3.8674469    1.0319139      8192000 
  130000     0.797499   -3.8669273   -3.8669273   -2.8353337  0.028208155   -3.8669273    1.0315936      8192000 
  131000    0.7979555   -3.8677672   -3.8677672     -2.83558  0.028228861   -3.8677672    1.0321873      8192000 
  132000   0.79785341   -3.8676012   -3.8676012   -2.8355425  0.028572722   -3.8676012    1.0320586      8192000 
  133000   0.79753325   -3.8672435   -3.8672435   -2.8355959  0.027865711   -3.8672435    1.0316476      8192000 
  134000    0.7976679   -3.8672986   -3.8672986   -2.8354736  0.028891043   -3.8672986     1.031825      8192000 
  135000   0.79753579    -3.867121    -3.867121   -2.8354635  0.027468445    -3.867121    1.0316575      8192000 
  136000     0.796877   -3.8667551   -3.8667551   -2.8359466  0.029382279   -3.8667551    1.0308085      8192000 
  137000   0.79689852   -3.8664894   -3.8664894   -2.8356499  0.028969978   -3.8664894    1.0308395      8192000 
  138000   0.79728886   -3.8670144   -3.8670144   -2.8356666  0.027189605   -3.8670144    1.0313478      8192000 
  139000   0.79723417   -3.8667593   -3.8667593   -2.8354791    0.0279668   -3.8667593    1.0312803      8192000 
  140000   0.79724511    -3.866917    -3.866917   -2.8356195  0.027784627    -3.866917    1.0312976      8192000 
  141000   0.79686471   -3.8663824   -3.8663824   -2.8355734  0.028127345   -3.8663824    1.0308089      8192000 
  142000   0.79754138   -3.8670483   -3.8670483   -2.8353608  0.028303781   -3.8670483    1.0316874      8192000 
  143000    0.7972228   -3.8667877   -3.8667877   -2.8355092   0.02862781   -3.8667877    1.0312785      8192000 
  144000   0.79723894   -3.8667268   -3.8667268    -2.835424  0.026727604   -3.8667268    1.0313028      8192000 
  145000   0.79752543   -3.8667985   -3.8667985    -2.835122  0.027069748   -3.8667985    1.0316765      8192000 
  146000    0.7977874   -3.8668943   -3.8668943   -2.8348757  0.031958776   -3.8668943    1.0320186      8192000 
  147000   0.79734282   -3.8664859   -3.8664859    -2.835039  0.028991763   -3.8664859    1.0314469      8192000 
  148000   0.79756258   -3.8668219   -3.8668219   -2.8350876  0.027244763   -3.8668219    1.0317343      8192000 
  149000   0.79761949   -3.8665308   -3.8665308   -2.8347196  0.027651229   -3.8665308    1.0318111      8192000 
  150000   0.79691553   -3.8659571   -3.8659571   -2.8350532  0.027952627   -3.8659571    1.0309039      8192000 
  151000   0.79721601   -3.8665546   -3.8665546   -2.8352588  0.026472407   -3.8665546    1.0312958      8192000 
  152000   0.79693448   -3.8658201   -3.8658201   -2.8348853  0.027461543   -3.8658201    1.0309347      8192000 
  153000   0.79714074   -3.8661666   -3.8661666   -2.8349616  0.024554811   -3.8661666     1.031205      8192000 
  154000   0.79750642   -3.8666266   -3.8666266   -2.8349454   0.02661621   -3.8666266    1.0316812      8192000 
  155000   0.79718482   -3.8666078   -3.8666078   -2.8353395  0.027128844   -3.8666078    1.0312683      8192000 
  156000   0.79696193   -3.8657242   -3.8657242   -2.8347408  0.028819001   -3.8657242    1.0309834      8192000 
  157000   0.79677755   -3.8655937   -3.8655937   -2.8348457  0.026127832   -3.8655937    1.0307481      8192000 
  158000   0.79711881   -3.8661418   -3.8661418   -2.8349491  0.027491599   -3.8661418    1.0311927      8192000 
  159000   0.79713522    -3.866009    -3.866009   -2.8347916  0.031169357    -3.866009    1.0312173      8192000 
  160000   0.79743016   -3.8662366   -3.8662366   -2.8346346  0.026740564   -3.8662366    1.0316021      8192000 
  161000   0.79723084   -3.8659502   -3.8659502   -2.8346028  0.027994035   -3.8659502    1.0313474      8192000 
  162000   0.79750403   -3.8665034   -3.8665034   -2.8347992  0.025336013   -3.8665034    1.0317042      8192000 
  163000    0.7969654   -3.8654884   -3.8654884   -2.8344778   0.02784604   -3.8654884    1.0310106      8192000 
  164000   0.79697879   -3.8657167   -3.8657167   -2.8346857  0.027042035   -3.8657167     1.031031      8192000 
  165000    0.7968639    -3.865524    -3.865524   -2.8346382  0.029337157    -3.865524    1.0308858      8192000 
  166000   0.79722173   -3.8654809   -3.8654809    -2.834129  0.025813537   -3.8654809    1.0313519      8192000 
  167000    0.7969831   -3.8654613   -3.8654613   -2.8344149  0.029928419   -3.8654613    1.0310464      8192000 
  168000   0.79707587   -3.8660161   -3.8660161   -2.8348463  0.026679511   -3.8660161    1.0311698      8192000 
  169000   0.79722877   -3.8664295   -3.8664295   -2.8350588  0.026072555   -3.8664295    1.0313708      8192000 
  170000    0.7976319   -3.8664615   -3.8664615    -2.834566  0.027551379   -3.8664615    1.0318955      8192000 
  171000   0.79724188   -3.8651914   -3.8651914   -2.8337971  0.029633983   -3.8651914    1.0313943      8192000 
  172000   0.79730686   -3.8657161   -3.8657161   -2.8342346  0.027154669   -3.8657161    1.0314815      8192000 
  173000   0.79751728   -3.8656603   -3.8656603   -2.8339033  0.030278529   -3.8656603    1.0317569      8192000 
  174000   0.79764633   -3.8657911   -3.8657911   -2.8338638  0.027488925   -3.8657911    1.0319273      8192000 
  175000   0.79726033   -3.8659314   -3.8659314   -2.8345003  0.028814698   -3.8659314    1.0314311      8192000 
  176000   0.79732488   -3.8659555   -3.8659555   -2.8344377  0.026764204   -3.8659555    1.0315178      8192000 
  177000   0.79762953   -3.8662854   -3.8662854     -2.83437  0.027030859   -3.8662854    1.0319153      8192000 
  178000   0.79754726   -3.8659204   -3.8659204   -2.8341083  0.028427873   -3.8659204    1.0318121      8192000 
  179000   0.79743613   -3.8658966   -3.8658966   -2.8342252  0.027156406   -3.8658966    1.0316715      8192000 
  180000   0.79758423   -3.8660073   -3.8660073   -2.8341408   0.02678289   -3.8660073    1.0318665      8192000 
  181000    0.7971248   -3.8656603   -3.8656603   -2.8343851  0.026673356   -3.8656603    1.0312753      8192000 
  182000   0.79726181   -3.8657721   -3.8657721   -2.8343164  0.029856035   -3.8657721    1.0314557      8192000 
  183000   0.79705564   -3.8654868   -3.8654868   -2.8342944  0.029889988   -3.8654868    1.0311924      8192000 
  184000   0.79740025   -3.8662202   -3.8662202   -2.8345788  0.028370335   -3.8662202    1.0316414      8192000 
  185000   0.79669044   -3.8651874   -3.8651874   -2.8344612    0.0253828   -3.8651874    1.0307262      8192000 
  186000   0.79712236    -3.865544    -3.865544   -2.8342555  0.027218295    -3.865544    1.0312884      8192000 
  187000    0.7970553   -3.8655124   -3.8655124   -2.8343075  0.026286989   -3.8655124    1.0312048      8192000 
  188000   0.79775549   -3.8662492   -3.8662492   -2.8341353  0.025629778   -3.8662492    1.0321139      8192000 
  189000    0.7976513   -3.8661308   -3.8661308   -2.8341482  0.026514793   -3.8661308    1.0319825      8192000 
  190000   0.79779939    -3.866155    -3.866155   -2.8339777  0.024998303    -3.866155    1.0321773      8192000 
  191000   0.79749397   -3.8661865   -3.8661865   -2.8344012  0.027450125   -3.8661865    1.0317853      8192000 
  192000   0.79711067   -3.8658184   -3.8658184   -2.8345256  0.026409667   -3.8658184    1.0312928      8192000 
  193000   0.79734314   -3.8659777   -3.8659777   -2.8343809    0.0281629   -3.8659777    1.0315968      8192000 
  194000   0.79761746    -3.865999    -3.865999   -2.8340442  0.028967453    -3.865999    1.0319548      8192000 
  195000    0.7972371   -3.8657324   -3.8657324   -2.8342663  0.025412923   -3.8657324    1.0314661      8192000 
  196000   0.79760183   -3.8659502   -3.8659502    -2.834009  0.025558022   -3.8659502    1.0319412      8192000 
  197000   0.79736613   -3.8656323   -3.8656323   -2.8339929  0.026135156   -3.8656323    1.0316394      8192000 
  198000   0.79681109   -3.8653507   -3.8653507    -2.834426  0.029798055   -3.8653507    1.0309247      8192000 
  199000   0.79721069   -3.8659132   -3.8659132   -2.8344683  0.028246409   -3.8659132    1.0314449      8192000 
  200000   0.79724367   -3.8657968   -3.8657968   -2.8343061  0.030136703   -3.8657968    1.0314907      8192000 
  201000    0.7975597   -3.8657648   -3.8657648   -2.8338618  0.030187853   -3.8657648     1.031903      8192000 
  202000   0.79756959   -3.8660346   -3.8660346   -2.8341156  0.032046626   -3.8660346     1.031919      8192000 
  203000   0.79792377   -3.8665363   -3.8665363   -2.8341559  0.028358248   -3.8665363    1.0323804      8192000 
  204000   0.79766163   -3.8660158   -3.8660158   -2.8339711  0.026282061   -3.8660158    1.0320447      8192000 
  205000   0.79750036   -3.8658049   -3.8658049   -2.8339658  0.032469389   -3.8658049    1.0318392      8192000 
  206000   0.79814327    -3.866396    -3.866396   -2.8337219  0.027998005    -3.866396    1.0326742      8192000 
  207000   0.79759312   -3.8657026   -3.8657026   -2.8337368  0.030532772   -3.8657026    1.0319658      8192000 
  208000   0.79730557   -3.8656749   -3.8656749    -2.834078  0.029336771   -3.8656749    1.0315969      8192000 
  209000   0.79715663   -3.8657249   -3.8657249   -2.8343175  0.029799914   -3.8657249    1.0314074      8192000 
  210000   0.79703468   -3.8654599   -3.8654599   -2.8342069  0.028588912   -3.8654599     1.031253      8192000 
  211000    0.7970118   -3.8655573   -3.8655573   -2.8343307  0.025901037   -3.8655573    1.0312266      8192000 
  212000   0.79702395   -3.8653436   -3.8653436   -2.8340981  0.028834445   -3.8653436    1.0312455      8192000 
  213000   0.79754709   -3.8660931   -3.8660931   -2.8341673   0.02467413   -3.8660931    1.0319257      8192000 
  214000   0.79763521     -3.86619     -3.86619   -2.8341471  0.027271202     -3.86619    1.0320429      8192000 
  215000   0.79678328   -3.8650956   -3.8650956   -2.8341518  0.028080205   -3.8650956    1.0309438      8192000 
  216000   0.79775661    -3.866193    -3.866193   -2.8339864  0.028293803    -3.866193    1.0322066      8192000 
  217000   0.79748446   -3.8654658   -3.8654658   -2.8336082  0.029773665   -3.8654658    1.0318576      8192000 
  218000   0.79726749   -3.8652905   -3.8652905   -2.8337104  0.031721876   -3.8652905    1.0315801      8192000 
  219000   0.79760369   -3.8656672   -3.8656672   -2.8336487  0.027035551   -3.8656672    1.0320185      8192000 
  220000   0.79757592   -3.8653978   -3.8653978   -2.8334121     0.029547   -3.8653978    1.0319857      8192000 
  221000   0.79765528   -3.8657993   -3.8657993   -2.8337077  0.028578859   -3.8657993    1.0320916      8192000 
  222000   0.79721184   -3.8647563   -3.8647563    -2.833235  0.030390084   -3.8647563    1.0315212      8192000 
  223000   0.79767124   -3.8654587   -3.8654587   -2.8333399  0.025939607   -3.8654587    1.0321188      8192000 
  224000   0.79740212   -3.8653125   -3.8653125   -2.8335387   0.03058331   -3.8653125    1.0317738      8192000 
  225000   0.79716936     -3.86483     -3.86483    -2.833354  0.026943685     -3.86483     1.031476      8192000 
  226000   0.79722126   -3.8652534   -3.8652534   -2.8337071  0.027281548   -3.8652534    1.0315463      8192000 
  227000   0.79687096   -3.8649734   -3.8649734   -2.8338771  0.028123134   -3.8649734    1.0310962      8192000 
  228000   0.79709979    -3.865194    -3.865194   -2.8337983  0.026015175    -3.865194    1.0313958      8192000 
  229000   0.79721462   -3.8650181   -3.8650181   -2.8334706  0.027396139   -3.8650181    1.0315475      8192000 
  230000   0.79720538   -3.8648588   -3.8648588   -2.8333201  0.026111938   -3.8648588    1.0315387      8192000 
  231000   0.79674082   -3.8643536   -3.8643536   -2.8334126  0.029217302   -3.8643536     1.030941      8192000 
  232000   0.79724995   -3.8648772   -3.8648772   -2.8332743  0.028893733   -3.8648772     1.031603      8192000 
  233000   0.79782401   -3.8653758   -3.8653758   -2.8330269   0.02949105   -3.8653758    1.0323489      8192000 
  234000   0.79700233   -3.8647097   -3.8647097   -2.8334206  0.028720567   -3.8647097    1.0312892      8192000 
  235000   0.79791674   -3.8657162   -3.8657162   -2.8332407  0.027253485   -3.8657162    1.0324755      8192000 
  236000   0.79767172    -3.865526    -3.865526   -2.8333643  0.027463783    -3.865526    1.0321617      8192000 
  237000   0.79754277   -3.8654283   -3.8654283   -2.8334301  0.029032157   -3.8654283    1.0319982      8192000 
  238000   0.79728801   -3.8647394   -3.8647394   -2.8330676  0.029999217   -3.8647394    1.0316717      8192000 
  239000   0.79706445   -3.8644394   -3.8644394   -2.8330538  0.029908478   -3.8644394    1.0313856      8192000 
  240000    0.7973563   -3.8648323   -3.8648323   -2.8330657  0.027509268   -3.8648323    1.0317667      8192000 
  241000   0.79714887   -3.8647092   -3.8647092   -2.8332078  0.026956942   -3.8647092    1.0315014      8192000 
  242000   0.79722012   -3.8648879   -3.8648879   -2.8332911  0.025814125   -3.8648879    1.0315968      8192000 
  243000   0.79651393   -3.8642836   -3.8642836   -2.8335972  0.028056605   -3.8642836    1.0306864      8192000 
  244000   0.79730397   -3.8652156   -3.8652156   -2.8335037  0.026551424   -3.8652156    1.0317119      8192000 
  245000     0.797397   -3.8652313   -3.8652313   -2.8333959   0.02869153   -3.8652313    1.0318354      8192000 
  246000   0.79735047   -3.8648982   -3.8648982   -2.8331195  0.027055833   -3.8648982    1.0317786      8192000 
  247000   0.79723501   -3.8648054   -3.8648054    -2.833173  0.028169987   -3.8648054    1.0316324      8192000 
  248000   0.79785409   -3.8653293   -3.8653293   -2.8328926  0.029327425   -3.8653293    1.0324367      8192000 
  249000   0.79774618   -3.8650988   -3.8650988   -2.8327984  0.027339591   -3.8650988    1.0323005      8192000 
  250000   0.79764657   -3.8648482   -3.8648482   -2.8326734  0.028569104   -3.8648482    1.0321747      8192000 
  251000   0.79765869   -3.8649661   -3.8649661   -2.8327725  0.028560005   -3.8649661    1.0321936      8192000 
  252000   0.79779482   -3.8651421   -3.8651421   -2.8327689  0.026299101   -3.8651421    1.0323732      8192000 
  253000   0.79769338   -3.8652047   -3.8652047   -2.8329596  0.027932386   -3.8652047    1.0322451      8192000 
  254000   0.79760942   -3.8649421   -3.8649421   -2.8328025  0.029168038   -3.8649421    1.0321396      8192000 
  255000   0.79766233   -3.8644664   -3.8644664    -2.832255  0.030202345   -3.8644664    1.0322115      8192000 
  256000   0.79747296   -3.8643171   -3.8643171   -2.8323475  0.031899016   -3.8643171    1.0319696      8192000 
  257000   0.79767392   -3.8646668   -3.8646668    -2.832434  0.027857222   -3.8646668    1.0322328      8192000 
  258000   0.79814197   -3.8647619   -3.8647619   -2.8319199  0.030663287   -3.8647619    1.0328419      8192000 
  259000    0.7981167   -3.8650867   -3.8650867   -2.8322743  0.030986693   -3.8650867    1.0328124      8192000 
  260000   0.79785467   -3.8647567   -3.8647567   -2.8322802  0.030165953   -3.8647567    1.0324765      8192000 
  261000   0.79779147   -3.8645973   -3.8645973   -2.8321992  0.029239081   -3.8645973    1.0323981      8192000 
  262000    0.7977313   -3.8643649   -3.8643649   -2.8320415  0.027596264   -3.8643649    1.0323234      8192000 
  263000   0.79761659   -3.8640989   -3.8640989   -2.8319207  0.030666734   -3.8640989    1.0321782      8192000 
  264000   0.79760609   -3.8641017   -3.8641017   -2.8319337  0.027103714   -3.8641017     1.032168      8192000 
  265000   0.79693781   -3.8635116   -3.8635116   -2.8322052  0.027147875   -3.8635116    1.0313063      8192000 
  266000   0.79692655   -3.8635428   -3.8635428   -2.8322478  0.024656491   -3.8635428    1.0312949      8192000 
  267000   0.79690916   -3.8640187   -3.8640187   -2.8327428  0.026844496   -3.8640187    1.0312759      8192000 
  268000    0.7971522   -3.8641147   -3.8641147   -2.8325211     0.027465   -3.8641147    1.0315935      8192000 
  269000   0.79697417   -3.8639746   -3.8639746   -2.8326083  0.027739502   -3.8639746    1.0313663      8192000 
  270000   0.79763442   -3.8642314   -3.8642314   -2.8320073  0.025029537   -3.8642314    1.0322242      8192000 
  271000   0.79730831   -3.8641223   -3.8641223    -2.832317  0.026816833   -3.8641223    1.0318053      8192000 
  272000   0.79734008   -3.8641487   -3.8641487   -2.8322991  0.026590735   -3.8641487    1.0318496      8192000 
  273000   0.79761463   -3.8641907   -3.8641907   -2.8319824  0.026476151   -3.8641907    1.0322083      8192000 
  274000   0.79752679   -3.8639601   -3.8639601   -2.8318623  0.027158706   -3.8639601    1.0320978      8192000 
  275000   0.79774433   -3.8640965   -3.8640965    -2.831714  0.028926168   -3.8640965    1.0323825      8192000 
  276000   0.79791615   -3.8646296   -3.8646296   -2.8320213  0.028597809   -3.8646296    1.0326083      8192000 
  277000   0.79759166   -3.8639734   -3.8639734   -2.8317819  0.029680026   -3.8639734    1.0321915      8192000 
  278000    0.7970734   -3.8636473   -3.8636473   -2.8321233  0.031397022   -3.8636473     1.031524      8192000 
  279000   0.79803769    -3.864556    -3.864556   -2.8317807  0.026689767    -3.864556    1.0327754      8192000 
  280000   0.79730834   -3.8636856   -3.8636856    -2.831851  0.027037129   -3.8636856    1.0318346      8192000 
  281000   0.79763111   -3.8642557   -3.8642557   -2.8320002  0.027631484   -3.8642557    1.0322555      8192000 
  282000   0.79747717    -3.863842    -3.863842   -2.8317822  0.028037039    -3.863842    1.0320597      8192000 
  283000   0.79804692   -3.8643866   -3.8643866   -2.8315864  0.028672255   -3.8643866    1.0328002      8192000 
  284000   0.79786984   -3.8645553   -3.8645553    -2.831981  0.028559047   -3.8645553    1.0325742      8192000 
  285000   0.79769861   -3.8643923   -3.8643923   -2.8320362  0.029990307   -3.8643923    1.0323561      8192000 
  286000   0.79747601   -3.8642791   -3.8642791    -2.832208  0.028595747   -3.8642791    1.0320711      8192000 
  287000   0.79779073   -3.8641826   -3.8641826   -2.8317009  0.029002709   -3.8641826    1.0324816      8192000 
  288000   0.79719118   -3.8638239   -3.8638239   -2.8321148  0.028254426   -3.8638239    1.0317091      8192000 
  289000   0.79691662   -3.8633616   -3.8633616   -2.8320047  0.030741415   -3.8633616    1.0313569      8192000 
  290000   0.79723367   -3.8634166   -3.8634166   -2.8316461  0.032441928   -3.8634166    1.0317704      8192000 
  291000   0.79739704   -3.8637828   -3.8637828   -2.8317975  0.028639806   -3.8637828    1.0319853      8192000 
  292000   0.79728232   -3.8636147   -3.8636147   -2.8317748  0.029769521   -3.8636147      1.03184      8192000 
  293000   0.79769698   -3.8645584   -3.8645584   -2.8321786  0.025496663   -3.8645584    1.0323798      8192000 
  294000   0.79801606   -3.8643789   -3.8643789   -2.8315827   0.02801622   -3.8643789    1.0327962      8192000 
  295000   0.79789389   -3.8644266   -3.8644266   -2.8317853  0.028872458   -3.8644266    1.0326413      8192000 
  296000   0.79760417   -3.8640006   -3.8640006   -2.8317311  0.029072374   -3.8640006    1.0322695      8192000 
  297000   0.79759283   -3.8642228   -3.8642228   -2.8319646  0.027878383   -3.8642228    1.0322582      8192000 
  298000   0.79778474   -3.8643572   -3.8643572   -2.8318474   0.02580565   -3.8643572    1.0325097      8192000 
  299000   0.79751215   -3.8640103   -3.8640103   -2.8318502  0.027546717   -3.8640103    1.0321601      8192000 
  300000   0.79766263   -3.8640018   -3.8640018   -2.8316435  0.026920566   -3.8640018    1.0323583      8192000 
  301000   0.79753521   -3.8640579   -3.8640579   -2.8318613  0.025629224   -3.8640579    1.0321966      8192000 
  302000   0.79690444   -3.8635166   -3.8635166   -2.8321332   0.02936601   -3.8635166    1.0313834      8192000 
  303000   0.79732413   -3.8639495   -3.8639495   -2.8320195  0.027897484   -3.8639495      1.03193      8192000 
  304000   0.79707103   -3.8639071   -3.8639071   -2.8323015  0.029631718   -3.8639071    1.0316056      8192000 
  305000   0.79750928   -3.8638367   -3.8638367   -2.8316608  0.025733051   -3.8638367    1.0321759      8192000 
  306000   0.79713243   -3.8637734   -3.8637734   -2.8320818  0.029429927   -3.8637734    1.0316916      8192000 
  307000   0.79758036   -3.8642086   -3.8642086    -2.831934  0.027085436   -3.8642086    1.0322745      8192000 
  308000   0.79781148   -3.8640601   -3.8640601   -2.8314833  0.030173964   -3.8640601    1.0325768      8192000 
  309000   0.79746122   -3.8641698   -3.8641698   -2.8320429  0.029180287   -3.8641698    1.0321269      8192000 
  310000   0.79807818   -3.8644018   -3.8644018   -2.8314732  0.029128724   -3.8644018    1.0329286      8192000 
  311000   0.79770469   -3.8643092   -3.8643092   -2.8318608  0.028925876   -3.8643092    1.0324484      8192000 
  312000    0.7974287   -3.8640618   -3.8640618   -2.8319672  0.029491794   -3.8640618    1.0320946      8192000 
  313000   0.79774232   -3.8640037   -3.8640037      -2.8315  0.028179501   -3.8640037    1.0325037      8192000 
  314000   0.79733655   -3.8639891   -3.8639891   -2.8320075  0.027351747   -3.8639891    1.0319817      8192000 
  315000   0.79680053    -3.863459    -3.863459   -2.8321677  0.027868079    -3.863459    1.0312913      8192000 
  316000   0.79707407   -3.8632036   -3.8632036   -2.8315551  0.029915357   -3.8632036    1.0316485      8192000 
  317000   0.79762941   -3.8642673   -3.8642673   -2.8318968  0.024628769   -3.8642673    1.0323705      8192000 
  318000     0.797646   -3.8641457   -3.8641457   -2.8317503  0.028527364   -3.8641457    1.0323954      8192000 
  319000   0.79732652   -3.8637273   -3.8637273   -2.8317422  0.028469543   -3.8637273     1.031985      8192000 
  320000   0.79742636   -3.8641454   -3.8641454   -2.8320279  0.026449611   -3.8641454    1.0321174      8192000 
  321000   0.79761034   -3.8640008   -3.8640008   -2.8316419  0.028844336   -3.8640008     1.032359      8192000 
  322000   0.79756117    -3.863496    -3.863496   -2.8311975  0.032133366    -3.863496    1.0322985      8192000 
  323000   0.79788482   -3.8638454   -3.8638454   -2.8311248  0.028806654   -3.8638454    1.0327206      8192000 
  324000   0.79782009   -3.8636537   -3.8636537   -2.8310134  0.030026554   -3.8636537    1.0326402      8192000 
  325000    0.7978569   -3.8636372   -3.8636372   -2.8309462  0.031621026   -3.8636372     1.032691      8192000 
  326000   0.79766836   -3.8638473   -3.8638473   -2.8313971   0.02539079   -3.8638473    1.0324502      8192000 
  327000   0.79759608   -3.8637392   -3.8637392   -2.8313791   0.02764419   -3.8637392    1.0323601      8192000 
  328000    0.7979064   -3.8636629   -3.8636629    -2.830898   0.02849215   -3.8636629    1.0327649      8192000 
  329000    0.7971972       -3.863       -3.863   -2.8311499  0.029572858       -3.863    1.0318501      8192000 
  330000   0.79726383   -3.8633039   -3.8633039   -2.8313641  0.027073635   -3.8633039    1.0319398      8192000 
  331000   0.79709842   -3.8628638   -3.8628638   -2.8311349  0.028286763   -3.8628638    1.0317288      8192000 
  332000   0.79704392   -3.8630268   -3.8630268   -2.8313653  0.028370666   -3.8630268    1.0316615      8192000 
  333000   0.79696368   -3.8630234   -3.8630234   -2.8314624  0.028041545   -3.8630234     1.031561      8192000 
  334000   0.79750657   -3.8634953   -3.8634953   -2.8312284  0.028677741   -3.8634953    1.0322669      8192000 
  335000    0.7977955   -3.8640565   -3.8640565   -2.8314125  0.023239074   -3.8640565     1.032644      8192000 
  336000   0.79753184   -3.8638716   -3.8638716   -2.8315654  0.025314576   -3.8638716    1.0323062      8192000 
  337000   0.79737461   -3.8631557   -3.8631557   -2.8310498  0.026842373   -3.8631557    1.0321059      8192000 
  338000   0.79748638   -3.8634687   -3.8634687    -2.831215   0.02541766   -3.8634687    1.0322537      8192000 
  339000    0.7974321   -3.8631692   -3.8631692   -2.8309824  0.025038334   -3.8631692    1.0321869      8192000 
  340000   0.79754299   -3.8633627   -3.8633627   -2.8310291  0.026173904   -3.8633627    1.0323336      8192000 
  341000   0.79742813   -3.8631877   -3.8631877   -2.8309996  0.026966355   -3.8631877    1.0321881      8192000 
  342000   0.79761818    -3.863413    -3.863413   -2.8309755  0.027964669    -3.863413    1.0324375      8192000 
  343000   0.79732257   -3.8632089   -3.8632089   -2.8311509   0.02763881   -3.8632089     1.032058      8192000 
  344000   0.79758742   -3.8633407   -3.8633407   -2.8309367  0.027344565   -3.8633407     1.032404      8192000 
  345000    0.7977706   -3.8634234   -3.8634234   -2.8307788  0.028016484   -3.8634234    1.0326445      8192000 
  346000    0.7975135   -3.8631129   -3.8631129    -2.830798   0.03091959   -3.8631129    1.0323149      8192000 
  347000   0.79811985   -3.8633914   -3.8633914   -2.8302884  0.028668819   -3.8633914     1.033103      8192000 
  348000   0.79796754   -3.8637189   -3.8637189   -2.8308097  0.026355735   -3.8637189    1.0329092      8192000 
  349000   0.79780309   -3.8630886   -3.8630886   -2.8303891  0.030329343   -3.8630886    1.0326995      8192000 
  350000   0.79790873   -3.8633185   -3.8633185   -2.8304791  0.030398586   -3.8633185    1.0328395      8192000 
  351000   0.79764527   -3.8632501   -3.8632501   -2.8307483  0.030291355   -3.8632501    1.0325018      8192000 
  352000   0.79791783   -3.8635982   -3.8635982   -2.8307404  0.029831501   -3.8635982    1.0328578      8192000 
  353000   0.79795551   -3.8636353   -3.8636353   -2.8307255  0.027559615   -3.8636353    1.0329098      8192000 
  354000   0.79732775   -3.8628933   -3.8628933   -2.8307927  0.029307083   -3.8628933    1.0321006      8192000 
  355000   0.79755346   -3.8631477   -3.8631477   -2.8307518  0.025664725   -3.8631477    1.0323959      8192000 
  356000   0.79758545   -3.8632407   -3.8632407   -2.8308002  0.028695915   -3.8632407    1.0324405      8192000 
  357000   0.79733984   -3.8627898   -3.8627898   -2.8306638  0.032220241   -3.8627898     1.032126      8192000 
  358000   0.79797984   -3.8632652   -3.8632652   -2.8303075  0.026623258   -3.8632652    1.0329576      8192000 
  359000   0.79764705   -3.8632811   -3.8632811    -2.830751  0.029408701   -3.8632811      1.03253      8192000 
  360000    0.7974883   -3.8628136   -3.8628136   -2.8304856  0.029988515   -3.8628136    1.0323279      8192000 
  361000   0.79786654   -3.8633515   -3.8633515   -2.8305307  0.028853679   -3.8633515    1.0328207      8192000 
  362000   0.79739761   -3.8622793   -3.8622793   -2.8300624    0.0289375   -3.8622793    1.0322169      8192000 
  363000    0.7977901   -3.8627599   -3.8627599   -2.8300315  0.026881873   -3.8627599    1.0327284      8192000 
  364000   0.79739484   -3.8623351   -3.8623351   -2.8301152  0.028655029   -3.8623351    1.0322199      8192000 
  365000   0.79707889   -3.8618898   -3.8618898   -2.8300757  0.030527447   -3.8618898    1.0318141      8192000 
  366000   0.79746837   -3.8623383   -3.8623383   -2.8300167  0.026606045   -3.8623383    1.0323217      8192000 
  367000   0.79764297   -3.8622359   -3.8622359   -2.8296851  0.027473627   -3.8622359    1.0325509      8192000 
  368000   0.79734008   -3.8620042   -3.8620042   -2.8298422  0.029966489   -3.8620042     1.032162      8192000 
  369000   0.79778111   -3.8624042   -3.8624042   -2.8296679  0.028947017   -3.8624042    1.0327363      8192000 
  370000   0.79784011   -3.8623585   -3.8623585   -2.8295427  0.028932949   -3.8623585    1.0328158      8192000 
  371000   0.79771839   -3.8622701   -3.8622701   -2.8296086  0.028972011   -3.8622701    1.0326614      8192000 
  372000    0.7973614   -3.8622367   -3.8622367    -2.830034   0.02538993   -3.8622367    1.0322027      8192000 
  373000    0.7971365   -3.8615199   -3.8615199   -2.8296051   0.02970136   -3.8615199    1.0319148      8192000 
  374000   0.79706095   -3.8617601   -3.8617601   -2.8299399  0.026133357   -3.8617601    1.0318201      8192000 
  375000   0.79703323   -3.8621727   -3.8621727    -2.830385  0.026338735   -3.8621727    1.0317877      8192000 
  376000   0.79691935   -3.8617326   -3.8617326   -2.8300892  0.026201952   -3.8617326    1.0316434      8192000 
  377000   0.79715345   -3.8618387   -3.8618387   -2.8298891   0.02524155   -3.8618387    1.0319496      8192000 
  378000    0.7970626   -3.8621603   -3.8621603   -2.8303249  0.026255952   -3.8621603    1.0318355      8192000 
  379000   0.79731013   -3.8620744   -3.8620744   -2.8299154  0.027808672   -3.8620744    1.0321591      8192000 
  380000   0.79778611   -3.8623596   -3.8623596   -2.8295812  0.026795359   -3.8623596    1.0327784      8192000 
  381000   0.79725177   -3.8621471   -3.8621471    -2.830057  0.025846705   -3.8621471    1.0320901      8192000 
  382000   0.79764256   -3.8622754   -3.8622754   -2.8296763  0.027832794   -3.8622754    1.0325992      8192000 
  383000   0.79759245   -3.8626421   -3.8626421   -2.8301046  0.027678844   -3.8626421    1.0325375      8192000 
  384000   0.79808419   -3.8629375   -3.8629375     -2.82976  0.027391072   -3.8629375    1.0331775      8192000 
  385000   0.79753287   -3.8625196   -3.8625196   -2.8300527   0.03016513   -3.8625196    1.0324669      8192000 
  386000   0.79797522   -3.8625224   -3.8625224   -2.8294796  0.028327905   -3.8625224    1.0330428      8192000 
  387000   0.79731604   -3.8621621   -3.8621621   -2.8299693  0.029946347   -3.8621621    1.0321928      8192000 
  388000   0.79773414   -3.8625607   -3.8625607   -2.8298234  0.029233306   -3.8625607    1.0327373      8192000 
  389000   0.79795637   -3.8628745   -3.8628745   -2.8298464  0.026979901   -3.8628745    1.0330282      8192000 
  390000   0.79787474   -3.8626077   -3.8626077   -2.8296818  0.028637396   -3.8626077    1.0329259      8192000 
  391000   0.79739433   -3.8620656   -3.8620656   -2.8297584  0.029870269   -3.8620656    1.0323071      8192000 
  392000    0.7980439   -3.8629493   -3.8629493    -2.829798  0.030759829   -3.8629493    1.0331512      8192000 
  393000   0.79798414   -3.8632924   -3.8632924   -2.8302151  0.030725867   -3.8632924    1.0330773      8192000 
  394000   0.79797044    -3.863025    -3.863025   -2.8299622  0.028984139    -3.863025    1.0330627      8192000 
  395000    0.7977105   -3.8629885   -3.8629885   -2.8302591  0.028955352   -3.8629885    1.0327294      8192000 
  396000   0.79785775   -3.8627715   -3.8627715    -2.829848  0.026427996   -3.8627715    1.0329234      8192000 
  397000   0.79788237    -3.862469    -3.862469   -2.8295105  0.030910768    -3.862469    1.0329585      8192000 
  398000   0.79760151   -3.8623974   -3.8623974   -2.8297994  0.030485342   -3.8623974    1.0325981      8192000 
  399000   0.79745316   -3.8622015   -3.8622015   -2.8297921  0.027928482   -3.8622015    1.0324094      8192000 
  400000   0.79813444   -3.8630798   -3.8630798   -2.8297852  0.029325199   -3.8630798    1.0332946      8192000 
  401000   0.79774689   -3.8625819   -3.8625819   -2.8297858  0.028140621   -3.8625819     1.032796      8192000 
  402000   0.79763392   -3.8620628   -3.8620628   -2.8294096  0.029712409   -3.8620628    1.0326532      8192000 
  403000   0.79761772   -3.8617805   -3.8617805   -2.8291451  0.027922555   -3.8617805    1.0326354      8192000 
  404000     0.797279   -3.8619872   -3.8619872   -2.8297871  0.027705798   -3.8619872    1.0322001      8192000 
  405000   0.79750096   -3.8616555   -3.8616555   -2.8291646  0.028061424   -3.8616555    1.0324908      8192000 
  406000   0.79787922   -3.8625995   -3.8625995   -2.8296157  0.024890378   -3.8625995    1.0329837      8192000 
  407000   0.79740427   -3.8611527   -3.8611527   -2.8287807  0.031158856   -3.8611527     1.032372      8192000 
  408000   0.79731471    -3.861622    -3.861622   -2.8293625  0.027304049    -3.861622    1.0322595      8192000 
  409000   0.79728499   -3.8613987   -3.8613987   -2.8291746  0.027332277   -3.8613987    1.0322242      8192000 
  410000   0.79734194   -3.8613242   -3.8613242   -2.8290231  0.026275512   -3.8613242    1.0323011      8192000 
  411000    0.7976595   -3.8618024   -3.8618024   -2.8290868  0.023910469   -3.8618024    1.0327156      8192000 
  412000   0.79680514   -3.8606909   -3.8606909   -2.8290782  0.027745142   -3.8606909    1.0316127      8192000 
  413000   0.79725887   -3.8610684   -3.8610684   -2.8288651  0.024430426   -3.8610684    1.0322033      8192000 
  414000   0.79723717   -3.8611241   -3.8611241   -2.8289455  0.025326012   -3.8611241    1.0321786      8192000 
  415000   0.79691235   -3.8608419   -3.8608419   -2.8290807  0.026338039   -3.8608419    1.0317612      8192000 
  416000   0.79691332   -3.8608638   -3.8608638   -2.8290981  0.028508438   -3.8608638    1.0317657      8192000 
  417000   0.79729496   -3.8610613   -3.8610613   -2.8287981  0.028256858   -3.8610613    1.0322632      8192000 
  418000   0.79725768   -3.8612443   -3.8612443   -2.8290262  0.027380586   -3.8612443    1.0322181      8192000 
  419000   0.79726804   -3.8612216   -3.8612216   -2.8289869  0.028853529   -3.8612216    1.0322347      8192000 
  420000   0.79708111   -3.8612467   -3.8612467   -2.8292506  0.027277375   -3.8612467    1.0319961      8192000 
  421000   0.79814164   -3.8620711   -3.8620711   -2.8286988  0.025806538   -3.8620711    1.0333724      8192000 
  422000   0.79707666   -3.8611892   -3.8611892   -2.8291925  0.030249597   -3.8611892    1.0319967      8192000 
  423000   0.79728459   -3.8614139   -3.8614139   -2.8291446  0.030826148   -3.8614139    1.0322693      8192000 
  424000   0.79719424   -3.8612367   -3.8612367   -2.8290812  0.030260673   -3.8612367    1.0321555      8192000 
  425000   0.79714335   -3.8613583   -3.8613583   -2.8292655  0.028368003   -3.8613583    1.0320928      8192000 
  426000    0.7970022   -3.8611471   -3.8611471   -2.8292336  0.028828174   -3.8611471    1.0319134      8192000 
  427000   0.79722189   -3.8611801   -3.8611801    -2.828979  0.028520756   -3.8611801    1.0322011      8192000 
  428000   0.79736884   -3.8618646   -3.8618646   -2.8294701  0.028266181   -3.8618646    1.0323945      8192000 
  429000   0.79740339   -3.8621712   -3.8621712   -2.8297285  0.025985197   -3.8621712    1.0324427      8192000 
  430000   0.79759104   -3.8622372   -3.8622372   -2.8295484   0.02822001   -3.8622372    1.0326888      8192000 
  431000   0.79777912   -3.8626189   -3.8626189   -2.8296834  0.028827347   -3.8626189    1.0329355      8192000 
  432000   0.79763145   -3.8622747   -3.8622747    -2.829527  0.030192526   -3.8622747    1.0327477      8192000 
  433000   0.79748758   -3.8619183   -3.8619183   -2.8293537   0.03078843   -3.8619183    1.0325646      8192000 
  434000    0.7978444   -3.8623391   -3.8623391   -2.8293093  0.030755224   -3.8623391    1.0330298      8192000 
  435000   0.79760048   -3.8620493   -3.8620493   -2.8293319  0.027690637   -3.8620493    1.0327174      8192000 
  436000   0.79785126   -3.8623182   -3.8623182   -2.8292729  0.030859717   -3.8623182    1.0330453      8192000 
  437000   0.79770839   -3.8621304   -3.8621304   -2.8292669  0.032245364   -3.8621304    1.0328635      8192000 
  438000   0.79824973    -3.862923    -3.862923   -2.8293552  0.027608125    -3.862923    1.0335678      8192000 
  439000   0.79798763   -3.8624876   -3.8624876    -2.829256  0.032349849   -3.8624876    1.0332316      8192000 
  440000    0.7977762   -3.8622417   -3.8622417   -2.8292807  0.030067103   -3.8622417     1.032961      8192000 
  441000   0.79801349   -3.8625437   -3.8625437    -2.829272  0.028013073   -3.8625437    1.0332717      8192000 
  442000    0.7976305    -3.861999    -3.861999   -2.8292201  0.028230544    -3.861999     1.032779      8192000 
  443000   0.79770568   -3.8616727   -3.8616727   -2.8287932   0.02722899   -3.8616727    1.0328795      8192000 
  444000   0.79748836   -3.8617007   -3.8617007   -2.8290991  0.027597003   -3.8617007    1.0326015      8192000 
  445000   0.79741827   -3.8618795   -3.8618795   -2.8293656  0.030040121   -3.8618795    1.0325139      8192000 
  446000   0.79703856   -3.8617426   -3.8617426   -2.8297172  0.029516574   -3.8617426    1.0320255      8192000 
  447000   0.79751496    -3.861594    -3.861594   -2.8289483  0.028725477    -3.861594    1.0326457      8192000 
  448000   0.79723358    -3.861422    -3.861422   -2.8291375  0.028313041    -3.861422    1.0322846      8192000 
  449000   0.79709604   -3.8612777   -3.8612777   -2.8291681  0.026534711   -3.8612777    1.0321097      8192000 
  450000   0.79746169   -3.8612114   -3.8612114   -2.8286249  0.026334084   -3.8612114    1.0325865      8192000 
  451000   0.79732131   -3.8613478   -3.8613478   -2.8289399  0.027434111   -3.8613478    1.0324079      8192000 
  452000   0.79716305   -3.8609033   -3.8609033   -2.8286971  0.025632213   -3.8609033    1.0322062      8192000 
  453000   0.79644718   -3.8603908   -3.8603908   -2.8291081  0.027452929   -3.8603908    1.0312827      8192000 
  454000   0.79693357   -3.8609946   -3.8609946   -2.8290789  0.026979956   -3.8609946    1.0319156      8192000 
  455000   0.79731602   -3.8610208   -3.8610208   -2.8286068  0.025996539   -3.8610208     1.032414      8192000 
  456000   0.79716802   -3.8610529   -3.8610529   -2.8288271  0.028700883   -3.8610529    1.0322258      8192000 
  457000   0.79734586   -3.8612346   -3.8612346   -2.8287753  0.026953052   -3.8612346    1.0324593      8192000 
  458000    0.7972141    -3.860838    -3.860838   -2.8285462  0.027201886    -3.860838    1.0322918      8192000 
  459000   0.79695015   -3.8608337   -3.8608337   -2.8288803  0.025236846   -3.8608337    1.0319535      8192000 
  460000   0.79684816   -3.8605435   -3.8605435   -2.8287189  0.028966769   -3.8605435    1.0318246      8192000 
  461000   0.79710268   -3.8606602   -3.8606602   -2.8285029  0.027115784   -3.8606602    1.0321573      8192000 
  462000    0.7976882   -3.8609289   -3.8609289     -2.82801  0.028755454   -3.8609289    1.0329189      8192000 
  463000   0.79681815   -3.8605223   -3.8605223   -2.8287268  0.029835973   -3.8605223    1.0317955      8192000 
  464000   0.79721677   -3.8606134   -3.8606134   -2.8282986  0.026695703   -3.8606134    1.0323148      8192000 
  465000   0.79750511   -3.8610245   -3.8610245   -2.8283329  0.030931274   -3.8610245    1.0326916      8192000 
  466000   0.79713898   -3.8606957   -3.8606957    -2.828475  0.029114202   -3.8606957    1.0322207      8192000 
  467000   0.79752302   -3.8609152   -3.8609152    -2.828194  0.029298255   -3.8609152    1.0327211      8192000 
  468000   0.79754293   -3.8612959   -3.8612959   -2.8285455   0.02719774   -3.8612959    1.0327504      8192000 
  469000   0.79751234   -3.8613291   -3.8613291   -2.8286152  0.027498371   -3.8613291    1.0327139      8192000 
  470000   0.79758942   -3.8612195   -3.8612195   -2.8284026  0.029609712   -3.8612195    1.0328169      8192000 
  471000   0.79772415   -3.8611861   -3.8611861   -2.8281913  0.029768161   -3.8611861    1.0329948      8192000 
  472000   0.79732312   -3.8611802   -3.8611802   -2.8287015  0.030486508   -3.8611802    1.0324787      8192000 
  473000   0.79693244   -3.8607895   -3.8607895   -2.8288136    0.0288694   -3.8607895    1.0319759      8192000 
  474000   0.79760401   -3.8616687   -3.8616687   -2.8288197  0.027481329   -3.8616687     1.032849      8192000 
  475000   0.79762626   -3.8617989   -3.8617989    -2.828918  0.027764352   -3.8617989     1.032881      8192000 
  476000   0.79764359   -3.8616825   -3.8616825   -2.8287759  0.028155293   -3.8616825    1.0329066      8192000 
  477000   0.79768815   -3.8614987   -3.8614987   -2.8285309  0.027904285   -3.8614987    1.0329677      8192000 
  478000   0.79765194   -3.8610604   -3.8610604   -2.8281364  0.028672161   -3.8610604     1.032924      8192000 
  479000   0.79735246   -3.8611864   -3.8611864   -2.8286471  0.029064026   -3.8611864    1.0325394      8192000 
  480000    0.7977514   -3.8611636   -3.8611636   -2.8281042  0.030333167   -3.8611636    1.0330594      8192000 
  481000   0.79785024   -3.8610673   -3.8610673   -2.8278767  0.028148944   -3.8610673    1.0331906      8192000 
  482000   0.79754712   -3.8607256   -3.8607256   -2.8279244  0.030251492   -3.8607256    1.0328012      8192000 
  483000   0.79715075   -3.8605346   -3.8605346   -2.8282433  0.031442493   -3.8605346    1.0322914      8192000 
  484000   0.79761868   -3.8611075   -3.8611075    -2.828207  0.028572714   -3.8611075    1.0329005      8192000 
  485000   0.79789185   -3.8613968   -3.8613968   -2.8281394   0.02568885   -3.8613968    1.0332574      8192000 
  486000   0.79722224   -3.8605525   -3.8605525   -2.8281588  0.027844499   -3.8605525    1.0323937      8192000 
  487000   0.79746535   -3.8607851   -3.8607851   -2.8280734  0.024578834   -3.8607851    1.0327117      8192000 
  488000   0.79726303   -3.8607029   -3.8607029     -2.82825  0.027795533   -3.8607029    1.0324529      8192000 
  489000   0.79714923   -3.8607705   -3.8607705   -2.8284615   0.02642507   -3.8607705    1.0323089      8192000 
  490000   0.79687954   -3.8604294   -3.8604294   -2.8284666  0.029047035   -3.8604294    1.0319628      8192000 
  491000   0.79756032   -3.8608064   -3.8608064   -2.8279588  0.026269139   -3.8608064    1.0328476      8192000 
  492000    0.7974195   -3.8607199   -3.8607199   -2.8280512  0.026487584   -3.8607199    1.0326687      8192000 
  493000   0.79690393   -3.8600246   -3.8600246   -2.8280204  0.027835293   -3.8600246    1.0320042      8192000 
  494000   0.79726736   -3.8606786   -3.8606786   -2.8282006  0.026623611   -3.8606786     1.032478      8192000 
  495000   0.79748376   -3.8605401   -3.8605401   -2.8277784  0.027718659   -3.8605401    1.0327617      8192000 
  496000   0.79774683   -3.8610236   -3.8610236    -2.827918    0.0264497   -3.8610236    1.0331056      8192000 
  497000   0.79746769   -3.8607079   -3.8607079   -2.8279607  0.027109426   -3.8607079    1.0327472      8192000 
  498000   0.79766873   -3.8609199   -3.8609199   -2.8279089  0.028227114   -3.8609199     1.033011      8192000 
  499000   0.79752266    -3.860715    -3.860715     -2.82789  0.028494685    -3.860715     1.032825      8192000 
  500000   0.79731933   -3.8604918   -3.8604918    -2.827927  0.030781208   -3.8604918    1.0325649      8192000 
  501000   0.79720468    -3.860248    -3.860248   -2.8278282  0.030007406    -3.860248    1.0324198      8192000 
  502000   0.79735549    -3.860528    -3.860528   -2.8279097   0.02673599    -3.860528    1.0326183      8192000 
  503000   0.79768638    -3.861025    -3.861025    -2.827975  0.029128558    -3.861025      1.03305      8192000 
  504000   0.79737484   -3.8605672   -3.8605672   -2.8279172  0.028213419   -3.8605672      1.03265      8192000 
  505000   0.79758954   -3.8607775   -3.8607775   -2.8278463  0.030602272   -3.8607775    1.0329312      8192000 
  506000   0.79713538   -3.8604376   -3.8604376   -2.8280914  0.029602199   -3.8604376    1.0323462      8192000 
  507000   0.79728537   -3.8606857   -3.8606857   -2.8281419  0.028230293   -3.8606857    1.0325439      8192000 
  508000   0.79745699   -3.8608616   -3.8608616   -2.8280923  0.027811397   -3.8608616    1.0327693      8192000 
  509000   0.79737339   -3.8605801   -3.8605801   -2.8279159  0.029650719   -3.8605801    1.0326642      8192000 
  510000   0.79724156   -3.8604971   -3.8604971   -2.8280002  0.028931534   -3.8604971    1.0324969      8192000 
  511000   0.79743404   -3.8605076   -3.8605076   -2.8277582  0.031857464   -3.8605076    1.0327493      8192000 
  512000   0.79783232   -3.8611691   -3.8611691   -2.8279008  0.030610226   -3.8611691    1.0332683      8192000 
  513000    0.7977001   -3.8610374   -3.8610374   -2.8279369  0.031123508   -3.8610374    1.0331005      8192000 
  514000   0.79774832   -3.8607507   -3.8607507   -2.8275846  0.030555112   -3.8607507    1.0331661      8192000 
  515000   0.79786561   -3.8611785   -3.8611785   -2.8278573   0.02921971   -3.8611785    1.0333212      8192000 
  516000    0.7982589   -3.8610449   -3.8610449   -2.8272109    0.0297654   -3.8610449     1.033834      8192000 
  517000   0.79782085   -3.8607236   -3.8607236   -2.8274537  0.030986529   -3.8607236    1.0332699      8192000 
  518000   0.79772248   -3.8605974   -3.8605974   -2.8274518  0.030158789   -3.8605974    1.0331456      8192000 
  519000   0.79791748    -3.860744    -3.860744   -2.8273424  0.027188038    -3.860744    1.0334016      8192000 
  520000   0.79751612    -3.860721    -3.860721   -2.8278361  0.030550279    -3.860721     1.032885      8192000 
  521000   0.79739247   -3.8604556   -3.8604556   -2.8277276  0.030082566   -3.8604556     1.032728      8192000 
  522000   0.79771685   -3.8605196   -3.8605196   -2.8273681  0.029657463   -3.8605196    1.0331515      8192000 
  523000   0.79722045   -3.8600813   -3.8600813   -2.8275695  0.029393034   -3.8600813    1.0325118      8192000 
  524000   0.79751435   -3.8603407   -3.8603407    -2.827445  0.025385333   -3.8603407    1.0328956      8192000 
  525000   0.79734736   -3.8602348   -3.8602348    -2.827552  0.027149513   -3.8602348    1.0326828      8192000 
  526000   0.79729459   -3.8597748   -3.8597748   -2.8271572  0.030288126   -3.8597748    1.0326176      8192000 
  527000   0.79746056   -3.8601795   -3.8601795   -2.8273437  0.026100101   -3.8601795    1.0328357      8192000 
  528000    0.7973504   -3.8597564   -3.8597564   -2.8270599  0.025798516   -3.8597564    1.0326965      8192000 
  529000   0.79754798   -3.8600183   -3.8600183   -2.8270627  0.025229736   -3.8600183    1.0329556      8192000 
  530000   0.79729065   -3.8593965   -3.8593965    -2.826771  0.029017558   -3.8593965    1.0326255      8192000 
  531000    0.7975997   -3.8600436   -3.8600436   -2.8270144  0.024601541   -3.8600436    1.0330291      8192000 
  532000   0.79773885    -3.860231    -3.860231   -2.8270184  0.024839684    -3.860231    1.0332125      8192000 
  533000   0.79755557   -3.8597097   -3.8597097   -2.8267314  0.027290996   -3.8597097    1.0329783      8192000 
  534000   0.79728924   -3.8593205   -3.8593205   -2.8266837  0.027247716   -3.8593205    1.0326368      8192000 
  535000   0.79694628   -3.8594151   -3.8594151   -2.8272193  0.024676308   -3.8594151    1.0321958      8192000 
  536000   0.79700202    -3.858832    -3.858832   -2.8265608  0.027425065    -3.858832    1.0322712      8192000 
  537000   0.79703956   -3.8592233   -3.8592233      -2.8269  0.027049812   -3.8592233    1.0323232      8192000 
  538000   0.79700994   -3.8592722   -3.8592722   -2.8269842  0.025559641   -3.8592722     1.032288      8192000 
  539000   0.79734153   -3.8596495   -3.8596495   -2.8269289  0.027011287   -3.8596495    1.0327207      8192000 
  540000   0.79735066   -3.8597042   -3.8597042   -2.8269683  0.025025093   -3.8597042    1.0327359      8192000 
  541000   0.79748274   -3.8594005   -3.8594005   -2.8264903   0.02588127   -3.8594005    1.0329102      8192000 
  542000   0.79727436   -3.8592202   -3.8592202   -2.8265768  0.028533465   -3.8592202    1.0326435      8192000 
  543000   0.79771319    -3.860086    -3.860086   -2.8268708    0.0292503    -3.860086    1.0332152      8192000 
  544000   0.79744445   -3.8600997   -3.8600997   -2.8272293  0.027361045   -3.8600997    1.0328704      8192000 
  545000    0.7971566   -3.8595223   -3.8595223   -2.8270216  0.029816724   -3.8595223    1.0325007      8192000 
  546000   0.79729361    -3.859633    -3.859633   -2.8269515  0.030412115    -3.859633    1.0326816      8192000 
  547000    0.7973255   -3.8597704   -3.8597704   -2.8270443  0.027796062   -3.8597704    1.0327261      8192000 
  548000    0.7978475   -3.8605177   -3.8605177   -2.8271124  0.026315651   -3.8605177    1.0334053      8192000 
  549000    0.7974825   -3.8596384   -3.8596384   -2.8267024  0.030080511   -3.8596384     1.032936      8192000 
  550000   0.79766874   -3.8598261   -3.8598261   -2.8266457  0.028236822   -3.8598261    1.0331804      8192000 
  551000   0.79773695   -3.8601739   -3.8601739    -2.826902  0.030145009   -3.8601739    1.0332719      8192000 
  552000   0.79802642   -3.8601505   -3.8601505   -2.8265002  0.032903046   -3.8601505    1.0336503      8192000 
  553000    0.7983321   -3.8605845   -3.8605845   -2.8265351  0.030812713   -3.8605845    1.0340494      8192000 
  554000   0.79803079    -3.860123    -3.860123   -2.8264607  0.032022727    -3.860123    1.0336623      8192000 
  555000    0.7980217   -3.8604641   -3.8604641   -2.8268102  0.027846652   -3.8604641     1.033654      8192000 
  556000   0.79812831   -3.8606492   -3.8606492    -2.826854  0.031349905   -3.8606492    1.0337952      8192000 
  557000   0.79780175   -3.8603881   -3.8603881   -2.8270126  0.028684302   -3.8603881    1.0333754      8192000 
  558000    0.7976835   -3.8599187   -3.8599187    -2.826693  0.029038225   -3.8599187    1.0332257      8192000 
  559000   0.79761512   -3.8600906   -3.8600906   -2.8269503  0.028384709   -3.8600906    1.0331403      8192000 
  560000   0.79775161   -3.8598563   -3.8598563    -2.826536  0.029045056   -3.8598563    1.0333203      8192000 
  561000   0.79744516   -3.8596153   -3.8596153   -2.8266885  0.027032943   -3.8596153    1.0329268      8192000 
  562000   0.79749319   -3.8595621   -3.8595621     -2.82657    0.0269672   -3.8595621    1.0329921      8192000 
  563000    0.7978261   -3.8602462   -3.8602462   -2.8268197  0.029200389   -3.8602462    1.0334265      8192000 
  564000   0.79788756   -3.8600271   -3.8600271   -2.8265175  0.026784157   -3.8600271    1.0335096      8192000 
  565000   0.79753628   -3.8595123   -3.8595123   -2.8264546  0.028494975   -3.8595123    1.0330577      8192000 
  566000   0.79789596   -3.8597742   -3.8597742   -2.8262474  0.030396411   -3.8597742    1.0335268      8192000 
  567000    0.7979236   -3.8595259   -3.8595259   -2.8259599    0.0273814   -3.8595259     1.033566      8192000 
  568000   0.79764067   -3.8589503   -3.8589503   -2.8257476  0.028747101   -3.8589503    1.0332027      8192000 
  569000   0.79737419   -3.8585183   -3.8585183   -2.8256576  0.026353761   -3.8585183    1.0328607      8192000 
  570000   0.79764474   -3.8590499   -3.8590499   -2.8258353  0.026846878   -3.8590499    1.0332146      8192000 
  571000   0.79720536   -3.8588027   -3.8588027    -2.826154  0.026451881   -3.8588027    1.0326486      8192000 
  572000   0.79684692   -3.8581481   -3.8581481   -2.8259606  0.027649878   -3.8581481    1.0321875      8192000 
  573000   0.79693685   -3.8584471   -3.8584471   -2.8261397  0.026173584   -3.8584471    1.0323074      8192000 
  574000   0.79739094   -3.8590242   -3.8590242   -2.8261254  0.025363884   -3.8590242    1.0328988      8192000 
  575000   0.79709487   -3.8586879   -3.8586879   -2.8261694  0.026949916   -3.8586879    1.0325185      8192000 
  576000   0.79705139   -3.8586287   -3.8586287   -2.8261631  0.026063617   -3.8586287    1.0324656      8192000 
  577000   0.79709033   -3.8588102   -3.8588102    -2.826291  0.024594558   -3.8588102    1.0325192      8192000 
  578000   0.79682384   -3.8582951   -3.8582951   -2.8261179  0.030784707   -3.8582951    1.0321772      8192000 
  579000   0.79697622   -3.8586781   -3.8586781   -2.8263002  0.027141266   -3.8586781     1.032378      8192000 
  580000   0.79728553   -3.8586476   -3.8586476   -2.8258658   0.02883043   -3.8586476    1.0327818      8192000 
  581000   0.79722549    -3.858646    -3.858646   -2.8259388   0.03076096    -3.858646    1.0327072      8192000 
  582000   0.79767659   -3.8591573   -3.8591573   -2.8258623  0.029147851   -3.8591573     1.033295      8192000 
  583000   0.79721831   -3.8589755   -3.8589755    -2.826271  0.028246961   -3.8589755    1.0327045      8192000 
  584000   0.79719429    -3.858998    -3.858998   -2.8263214  0.027450709    -3.858998    1.0326766      8192000 
  585000   0.79760575   -3.8592526   -3.8592526   -2.8260396  0.029854838   -3.8592526     1.033213      8192000 
  586000    0.7972316   -3.8587031   -3.8587031   -2.8259716  0.028324259   -3.8587031    1.0327315      8192000 
  587000   0.79807509   -3.8599409   -3.8599409   -2.8261136   0.02814624   -3.8599409    1.0338273      8192000 
  588000   0.79762078   -3.8598591   -3.8598591   -2.8266169  0.029875841   -3.8598591    1.0332422      8192000 
  589000   0.79785274   -3.8595747   -3.8595747   -2.8260288  0.028728398   -3.8595747    1.0335459      8192000 
  590000   0.79790348   -3.8594599   -3.8594599   -2.8258451  0.029502641   -3.8594599    1.0336148      8192000 
  591000   0.79748721   -3.8592762   -3.8592762   -2.8261972  0.032931186   -3.8592762     1.033079      8192000 
  592000   0.79765545   -3.8593653   -3.8593653   -2.8260651  0.032347348   -3.8593653    1.0333001      8192000 
  593000    0.7982185   -3.8599373   -3.8599373   -2.8259046  0.031854426   -3.8599373    1.0340327      8192000 
  594000   0.79791141   -3.8599247   -3.8599247   -2.8262864  0.029590332   -3.8599247    1.0336383      8192000 
  595000   0.79771303   -3.8597946   -3.8597946   -2.8264101  0.030283201   -3.8597946    1.0333845      8192000 
  596000   0.79749873    -3.859196    -3.859196   -2.8260859  0.032541575    -3.859196    1.0331101      8192000 
  597000   0.79789375   -3.8597156   -3.8597156   -2.8260904  0.029635205   -3.8597156    1.0336252      8192000 
  598000   0.79755344   -3.8593357   -3.8593357   -2.8261481  0.029395217   -3.8593357    1.0331875      8192000 
  599000   0.79815521   -3.8597977   -3.8597977   -2.8258274  0.026819209   -3.8597977    1.0339703      8192000 
  600000   0.79782929   -3.8592617   -3.8592617   -2.8257102  0.028651754   -3.8592617    1.0335515      8192000 
  601000   0.79725062   -3.8586525   -3.8586525   -2.8258474  0.029138794   -3.8586525     1.032805      8192000 
  602000   0.79747706    -3.859375    -3.859375   -2.8262735   0.03176784    -3.859375    1.0331015      8192000 
  603000   0.79757594   -3.8595228   -3.8595228   -2.8262897  0.027075421   -3.8595228    1.0332331      8192000 
  604000   0.79765199   -3.8592404   -3.8592404   -2.8259057  0.027579498   -3.8592404    1.0333348      8192000 
  605000   0.79740878   -3.8586193   -3.8586193   -2.8255965  0.027636702   -3.8586193    1.0330229      8192000 
  606000   0.79721052   -3.8586151   -3.8586151   -2.8258456  0.027896385   -3.8586151    1.0327695      8192000 
  607000   0.79722934   -3.8585387   -3.8585387   -2.8257417  0.028933988   -3.8585387     1.032797      8192000 
  608000   0.79719734   -3.8586692   -3.8586692   -2.8259104    0.0267497   -3.8586692    1.0327587      8192000 
  609000   0.79723237   -3.8589978   -3.8589978   -2.8261902  0.028004748   -3.8589978    1.0328075      8192000 
  610000   0.79767844   -3.8593618   -3.8593618   -2.8259732  0.024929346   -3.8593618    1.0333886      8192000 
  611000   0.79716495   -3.8587377   -3.8587377   -2.8260111   0.02664227   -3.8587377    1.0327266      8192000 
  612000   0.79704795   -3.8582348   -3.8582348   -2.8256564  0.025425664   -3.8582348    1.0325784      8192000 
  613000   0.79704509   -3.8583499   -3.8583499   -2.8257721  0.026349411   -3.8583499    1.0325779      8192000 
  614000    0.7972392   -3.8584114   -3.8584114   -2.8255788  0.028319351   -3.8584114    1.0328325      8192000 
  615000   0.79710943   -3.8582383   -3.8582383   -2.8255705  0.024894335   -3.8582383    1.0326678      8192000 
  616000   0.79689496   -3.8584059   -3.8584059   -2.8260127  0.026015731   -3.8584059    1.0323932      8192000 
  617000   0.79707888   -3.8585352   -3.8585352   -2.8259006  0.028760196   -3.8585352    1.0326346      8192000 
  618000   0.79736172   -3.8586206   -3.8586206   -2.8256162  0.028002217   -3.8586206    1.0330045      8192000 
  619000   0.79733311   -3.8585754   -3.8585754   -2.8256048  0.027037788   -3.8585754    1.0329706      8192000 
  620000   0.79780636   -3.8590104   -3.8590104   -2.8254236  0.031028922   -3.8590104    1.0335869      8192000 
  621000   0.79739454   -3.8586474   -3.8586474   -2.8255906  0.029254563   -3.8586474    1.0330567      8192000 
  622000   0.79784462    -3.859112    -3.859112    -2.825469  0.026462912    -3.859112     1.033643      8192000 
  623000   0.79775969   -3.8586848   -3.8586848   -2.8251486  0.030626913   -3.8586848    1.0335362      8192000 
  624000   0.79742674   -3.8587639   -3.8587639   -2.8256556  0.028790042   -3.8587639    1.0331082      8192000 
  625000   0.79771168   -3.8589423   -3.8589423   -2.8254617  0.028959954   -3.8589423    1.0334806      8192000 
  626000   0.79770442   -3.8589338   -3.8589338   -2.8254594  0.030545547   -3.8589338    1.0334744      8192000 
  627000   0.79747345   -3.8588888   -3.8588888   -2.8257103  0.028500118   -3.8588888    1.0331785      8192000 
  628000   0.79780392   -3.8589386   -3.8589386   -2.8253287  0.028312718   -3.8589386    1.0336099      8192000 
  629000   0.79731091   -3.8585431   -3.8585431   -2.8255688   0.02869638   -3.8585431    1.0329743      8192000 
  630000   0.79750592   -3.8587914   -3.8587914    -2.825561  0.027296422   -3.8587914    1.0332304      8192000 
  631000   0.79723052   -3.8587796   -3.8587796   -2.8259028  0.030358073   -3.8587796    1.0328768      8192000 
  632000   0.79741468   -3.8584682   -3.8584682   -2.8253496  0.029249794   -3.8584682    1.0331185      8192000 
  633000   0.79734717   -3.8582655   -3.8582655    -2.825231  0.032224135   -3.8582655    1.0330345      8192000 
  634000   0.79760658   -3.8587196   -3.8587196   -2.8253458  0.031150454   -3.8587196    1.0333738      8192000 
  635000   0.79816167   -3.8589914   -3.8589914   -2.8248953  0.029818758   -3.8589914    1.0340961      8192000 
  636000   0.79797966    -3.859109    -3.859109   -2.8252452  0.030095927    -3.859109    1.0338637      8192000 
  637000   0.79770237   -3.8588832   -3.8588832   -2.8253755  0.030325383   -3.8588832    1.0335077      8192000 
  638000   0.79775476   -3.8588259   -3.8588259   -2.8252472  0.028236459   -3.8588259    1.0335787      8192000 
  639000   0.79703399    -3.857897    -3.857897   -2.8252487   0.03189489    -3.857897    1.0326483      8192000 
  640000    0.7976097   -3.8589242   -3.8589242   -2.8255268  0.024868083   -3.8589242    1.0333974      8192000 
  641000   0.79719691   -3.8585441   -3.8585441   -2.8256784  0.025952788   -3.8585441    1.0328657      8192000 
  642000   0.79731914   -3.8585395   -3.8585395    -2.825512  0.026560301   -3.8585395    1.0330275      8192000 
  643000   0.79694959   -3.8578024   -3.8578024   -2.8252505  0.026017914   -3.8578024    1.0325519      8192000 
  644000   0.79720757   -3.8580988   -3.8580988   -2.8252095  0.027513032   -3.8580988    1.0328893      8192000 
  645000   0.79763669   -3.8586998   -3.8586998    -2.825251   0.02656011   -3.8586998    1.0334487      8192000 
  646000   0.79710413   -3.8577596   -3.8577596   -2.8249977  0.029609535   -3.8577596    1.0327619      8192000 
  647000   0.79774934   -3.8586394   -3.8586394   -2.8250384  0.026258115   -3.8586394    1.0336011      8192000 
  648000   0.79741821   -3.8587704   -3.8587704    -2.825595   0.02560683   -3.8587704    1.0331754      8192000 
  649000   0.79788247   -3.8588539   -3.8588539   -2.8250737  0.027740195   -3.8588539    1.0337801      8192000 
  650000   0.79760754   -3.8587463   -3.8587463   -2.8253192  0.026378477   -3.8587463    1.0334271      8192000 
  651000   0.79714091   -3.8581993   -3.8581993   -2.8253733  0.029903958   -3.8581993    1.0328259      8192000 
[...]
 3800000    0.7957289   -3.8178009   -3.8178009   -2.7764554  0.029209445   -3.8178009    1.0413455      8192000 
 3801000   0.79577473   -3.8176039   -3.8176039   -2.7761949  0.031530931   -3.8176039     1.041409      8192000 
 3802000   0.79585421   -3.8175792   -3.8175792    -2.776063  0.028707414   -3.8175792    1.0415162      8192000 
 3803000   0.79604541   -3.8173305   -3.8173305   -2.7755609  0.031811205   -3.8173305    1.0417697      8192000 
 3804000   0.79614962   -3.8180025   -3.8180025    -2.776093  0.030030181   -3.8180025    1.0419095      8192000 
 3805000   0.79592304    -3.817491    -3.817491   -2.7758748  0.029432194    -3.817491    1.0416162      8192000 
 3806000   0.79604107   -3.8178895   -3.8178895   -2.7761156  0.029682675   -3.8178895    1.0417739      8192000 
 3807000   0.79599851   -3.8176542   -3.8176542   -2.7759324  0.029075085   -3.8176542    1.0417217      8192000 
 3808000   0.79596101   -3.8178443   -3.8178443   -2.7761684  0.030287571   -3.8178443    1.0416759      8192000 
 3809000   0.79630109    -3.817424    -3.817424   -2.7752998   0.03211134    -3.817424    1.0421242      8192000 
 3810000   0.79614147   -3.8177495   -3.8177495   -2.7758307  0.028851954   -3.8177495    1.0419188      8192000 
 3811000   0.79656487    -3.818342    -3.818342   -2.7758659  0.029343066    -3.818342    1.0424761      8192000 
 3812000   0.79601625   -3.8174668   -3.8174668   -2.7757055  0.031201828   -3.8174668    1.0417614      8192000 
 3813000   0.79602339   -3.8177403   -3.8177403   -2.7759661  0.029751112   -3.8177403    1.0417742      8192000 
 3814000   0.79577908   -3.8173321   -3.8173321   -2.7758744  0.032158966   -3.8173321    1.0414577      8192000 
 3815000   0.79636149   -3.8177686   -3.8177686   -2.7755454  0.030873363   -3.8177686    1.0422232      8192000 
 3816000   0.79589547   -3.8175096   -3.8175096   -2.7758929  0.030990778   -3.8175096    1.0416168      8192000 
 3817000   0.79571293    -3.817219    -3.817219   -2.7758379  0.033095494    -3.817219    1.0413811      8192000 
 3818000   0.79633464   -3.8180861   -3.8180861   -2.7758881  0.027604267   -3.8180861     1.042198      8192000 
 3819000   0.79600807   -3.8177827   -3.8177827   -2.7760086  0.030021232   -3.8177827    1.0417741      8192000 
 3820000   0.79603067   -3.8173161   -3.8173161   -2.7755092   0.03347541   -3.8173161    1.0418069      8192000 
 3821000   0.79650841   -3.8179491   -3.8179491   -2.7755137  0.030313813   -3.8179491    1.0424354      8192000 
 3822000   0.79570016   -3.8171649   -3.8171649   -2.7757838  0.031704866   -3.8171649    1.0413811      8192000 
 3823000    0.7960854   -3.8179063   -3.8179063   -2.7760178  0.030435963   -3.8179063    1.0418885      8192000 
 3824000   0.79641532   -3.8178228   -3.8178228   -2.7754993  0.030206896   -3.8178228    1.0423235      8192000 
 3825000   0.79623585   -3.8175411   -3.8175411    -2.775449  0.031906689   -3.8175411    1.0420921      8192000 
 3826000   0.79599947   -3.8172792   -3.8172792   -2.7754932  0.030307369   -3.8172792     1.041786      8192000 
 3827000   0.79580747   -3.8171778   -3.8171778   -2.7756398  0.030293449   -3.8171778    1.0415379      8192000 
 3828000   0.79583689   -3.8171875   -3.8171875   -2.7756075  0.029023524   -3.8171875    1.0415799      8192000 
 3829000    0.7956448   -3.8173739   -3.8173739   -2.7760421  0.029677809   -3.8173739    1.0413318      8192000 
 3830000   0.79577489   -3.8170397   -3.8170397   -2.7755344   0.02889871   -3.8170397    1.0415053      8192000 
 3831000   0.79590183   -3.8175303   -3.8175303   -2.7758554   0.03094812   -3.8175303    1.0416749      8192000 
 3832000   0.79570644   -3.8176272   -3.8176272   -2.7762048  0.028900611   -3.8176272    1.0414224      8192000 
 3833000    0.7960064   -3.8174798   -3.8174798   -2.7756616  0.029404856   -3.8174798    1.0418182      8192000 
 3834000   0.79556981   -3.8169865   -3.8169865   -2.7757362  0.029418717   -3.8169865    1.0412503      8192000 
 3835000   0.79583931   -3.8175981   -3.8175981   -2.7759918  0.027612388   -3.8175981    1.0416063      8192000 
 3836000    0.7959245   -3.8176645   -3.8176645   -2.7759435  0.027226819   -3.8176645     1.041721      8192000 
 3837000   0.79581211   -3.8172418   -3.8172418   -2.7756644  0.027851953   -3.8172418    1.0415774      8192000 
 3838000   0.79651379   -3.8180895   -3.8180895   -2.7755904    0.0284065   -3.8180895     1.042499      8192000 
 3839000   0.79597803   -3.8175197   -3.8175197   -2.7757186  0.029749189   -3.8175197     1.041801      8192000 
 3840000   0.79608807    -3.817536    -3.817536   -2.7755875   0.03082004    -3.817536    1.0419485      8192000 
 3841000    0.7964629   -3.8181804   -3.8181804    -2.775738  0.030315001   -3.8181804    1.0424424      8192000 
 3842000   0.79621522   -3.8177036   -3.8177036   -2.7755821  0.028109666   -3.8177036    1.0421214      8192000 
 3843000   0.79577122   -3.8174704   -3.8174704   -2.7759266  0.030174071   -3.8174704    1.0415438      8192000 
 3844000   0.79636559   -3.8176352   -3.8176352   -2.7753103  0.031719983   -3.8176352     1.042325      8192000 
 3845000   0.79624799    -3.817782    -3.817782   -2.7756077  0.029260552    -3.817782    1.0421743      8192000 
 3846000   0.79613117   -3.8177735   -3.8177735   -2.7757486  0.031209519   -3.8177735    1.0420249      8192000 
 3847000   0.79606003   -3.8175213   -3.8175213   -2.7755863  0.031970281   -3.8175213     1.041935      8192000 
 3848000   0.79570425   -3.8175842   -3.8175842   -2.7761116  0.030186869   -3.8175842    1.0414726      8192000 
 3849000   0.79620369    -3.817516    -3.817516   -2.7753863  0.028301573    -3.817516    1.0421298      8192000 
 3850000   0.79595964   -3.8175181   -3.8175181   -2.7757045  0.032841548   -3.8175181    1.0418136      8192000 
 3851000   0.79630838   -3.8175948   -3.8175948   -2.7753215  0.032179506   -3.8175948    1.0422733      8192000 
 3852000   0.79628249   -3.8173132   -3.8173132   -2.7750703  0.034395301   -3.8173132    1.0422429      8192000 
 3853000   0.79674458   -3.8180445   -3.8180445   -2.7751936  0.032607912   -3.8180445     1.042851      8192000 
 3854000   0.79624021   -3.8176241   -3.8176241   -2.7754301  0.030868072   -3.8176241     1.042194      8192000 
 3855000   0.79621332   -3.8175856   -3.8175856   -2.7754233  0.030525037   -3.8175856    1.0421623      8192000 
 3856000   0.79595189   -3.8174282   -3.8174282   -2.7756048  0.030962572   -3.8174282    1.0418234      8192000 
 3857000   0.79637949   -3.8180393   -3.8180393    -2.775653    0.0283153   -3.8180393    1.0423863      8192000 
 3858000   0.79533564   -3.8164099   -3.8164099   -2.7753865   0.03058106   -3.8164099    1.0410235      8192000 
 3859000   0.79585971    -3.817245    -3.817245   -2.7755323  0.029232443    -3.817245    1.0417127      8192000 
 3860000   0.79549145   -3.8168203   -3.8168203   -2.7755864  0.031711047   -3.8168203    1.0412339      8192000 
 3861000   0.79623774   -3.8176117   -3.8176117   -2.7753975  0.026219777   -3.8176117    1.0422142      8192000 
 3862000   0.79586977   -3.8173982   -3.8173982   -2.7756624  0.029651271   -3.8173982    1.0417358      8192000 
 3863000   0.79607325   -3.8172961   -3.8172961   -2.7752907  0.031256002   -3.8172961    1.0420054      8192000 
 3864000    0.7961934   -3.8171761   -3.8171761     -2.77501  0.029373316   -3.8171761    1.0421661      8192000 
 3865000   0.79607197   -3.8172253   -3.8172253   -2.7752148  0.030414944   -3.8172253    1.0420104      8192000 
 3866000   0.79621858    -3.817288    -3.817288   -2.7750824  0.029848679    -3.817288    1.0422056      8192000 
 3867000   0.79578066   -3.8168288   -3.8168288    -2.775193  0.030499603   -3.8168288    1.0416359      8192000 
 3868000   0.79637322   -3.8171833   -3.8171833   -2.7747686  0.030040521   -3.8171833    1.0424147      8192000 
 3869000   0.79576042   -3.8170001   -3.8170001   -2.7753843  0.028949415   -3.8170001    1.0416158      8192000 
 3870000   0.79582262    -3.817002    -3.817002   -2.7753012  0.030961905    -3.817002    1.0417007      8192000 
 3871000   0.79614246   -3.8175986   -3.8175986    -2.775476  0.028124708   -3.8175986    1.0421226      8192000 
 3872000   0.79535168   -3.8169296   -3.8169296   -2.7758388  0.030088104   -3.8169296    1.0410908      8192000 
 3873000   0.79555408   -3.8169431   -3.8169431   -2.7755839  0.029978594   -3.8169431    1.0413592      8192000 
 3874000   0.79601024   -3.8177081   -3.8177081   -2.7757486  0.025828709   -3.8177081    1.0419595      8192000 
 3875000    0.7960571   -3.8176308   -3.8176308   -2.7756066  0.029583634   -3.8176308    1.0420241      8192000 
 3876000     0.796079   -3.8176275   -3.8176275   -2.7755712  0.027545574   -3.8176275    1.0420563      8192000 
 3877000   0.79551985   -3.8172881   -3.8172881   -2.7759605  0.032510622   -3.8172881    1.0413276      8192000 
 3878000   0.79627438    -3.817919    -3.817919   -2.7756005  0.030805047    -3.817919    1.0423185      8192000 
 3879000   0.79627246   -3.8181403   -3.8181403   -2.7758209  0.028890548   -3.8181403    1.0423195      8192000 
 3880000    0.7960037    -3.817644    -3.817644   -2.7756731  0.031617591    -3.817644    1.0419709      8192000 
 3881000   0.79638909    -3.817717    -3.817717   -2.7752383  0.029458698    -3.817717    1.0424786      8192000 
 3882000   0.79627512    -3.817736    -3.817736    -2.775403  0.032280107    -3.817736    1.0423329      8192000 
 3883000   0.79672433   -3.8180166   -3.8180166   -2.7750924  0.031627276   -3.8180166    1.0429242      8192000 
 3884000   0.79639138   -3.8180576   -3.8180576    -2.775566   0.03352638   -3.8180576    1.0424916      8192000 
 3885000    0.7960861   -3.8176008   -3.8176008   -2.7755053  0.033599665   -3.8176008    1.0420955      8192000 
 3886000   0.79659585   -3.8180827   -3.8180827   -2.7753167  0.029452344   -3.8180827     1.042766      8192000 
 3887000   0.79585545   -3.8171353   -3.8171353   -2.7753352  0.034760638   -3.8171353       1.0418      8192000 
 3888000   0.79647247   -3.8181334   -3.8181334   -2.7755221  0.033698091   -3.8181334    1.0426112      8192000 
 3889000   0.79595716   -3.8173934   -3.8173934   -2.7754535  0.032321648   -3.8173934    1.0419399      8192000 
 3890000   0.79601573   -3.8174045   -3.8174045   -2.7753847  0.032119603   -3.8174045    1.0420198      8192000 
 3891000   0.79626793   -3.8177132   -3.8177132   -2.7753597  0.032923283   -3.8177132    1.0423534      8192000 
 3892000   0.79625345   -3.8174464   -3.8174464   -2.7751087   0.03306297   -3.8174464    1.0423377      8192000 
 3893000   0.79656486   -3.8177892   -3.8177892   -2.7750406  0.032360438   -3.8177892    1.0427486      8192000 
 3894000   0.79571401   -3.8169868   -3.8169868   -2.7753485  0.030501405   -3.8169868    1.0416383      8192000 
 3895000   0.79578619   -3.8168137   -3.8168137   -2.7750777  0.030161214   -3.8168137     1.041736      8192000 
 3896000   0.79582853   -3.8171526   -3.8171526    -2.775358  0.031585873   -3.8171526    1.0417947      8192000 
 3897000    0.7959545   -3.8172288   -3.8172288   -2.7752657  0.030342333   -3.8172288    1.0419631      8192000 
 3898000   0.79544374   -3.8166272   -3.8166272   -2.7753295  0.030573297   -3.8166272    1.0412977      8192000 
 3899000   0.79563411   -3.8163096   -3.8163096   -2.7747595  0.030155178   -3.8163096    1.0415501      8192000 
 3900000   0.79604913   -3.8169307   -3.8169307   -2.7748337  0.030373998   -3.8169307    1.0420969      8192000 
 3901000   0.79598326   -3.8169488   -3.8169488   -2.7749349  0.030564427   -3.8169488    1.0420139      8192000 
 3902000   0.79609649   -3.8173069   -3.8173069   -2.7751415  0.027824419   -3.8173069    1.0421654      8192000 
 3903000   0.79569543   -3.8167787   -3.8167787   -2.7751349  0.029818788   -3.8167787    1.0416439      8192000 
 3904000    0.7958144    -3.816622    -3.816622   -2.7748192   0.02723403    -3.816622    1.0418028      8192000 
 3905000   0.79614042   -3.8167678   -3.8167678    -2.774535  0.030072117   -3.8167678    1.0422329      8192000 
 3906000    0.7957571   -3.8167064   -3.8167064   -2.7749718  0.030673508   -3.8167064    1.0417346      8192000 
 3907000   0.79622771    -3.816773    -3.816773   -2.7744191  0.029713764    -3.816773    1.0423539      8192000 
 3908000   0.79576676   -3.8162017   -3.8162017    -2.774448  0.030467757   -3.8162017    1.0417537      8192000 
 3909000   0.79563944   -3.8162578   -3.8162578   -2.7746674  0.029821521   -3.8162578    1.0415905      8192000 
 3910000    0.7961358   -3.8166411   -3.8166411   -2.7743975  0.030691092   -3.8166411    1.0422435      8192000 
 3911000   0.79586945   -3.8163245   -3.8163245   -2.7744264  0.032034046   -3.8163245    1.0418981      8192000 
 3912000   0.79594537   -3.8160169   -3.8160169   -2.7740159  0.032855367   -3.8160169     1.042001      8192000 
 3913000   0.79597923   -3.8163412   -3.8163412   -2.7742927  0.031034062   -3.8163412    1.0420485      8192000 
 3914000   0.79586784   -3.8161556   -3.8161556   -2.7742496  0.031458798   -3.8161556    1.0419059      8192000 
 3915000   0.79598976   -3.8162214   -3.8162214   -2.7741524  0.030703059   -3.8162214     1.042069      8192000 
 3916000   0.79640319   -3.8166552   -3.8166552   -2.7740417  0.032996969   -3.8166552    1.0426135      8192000 
 3917000   0.79641496   -3.8166879   -3.8166879   -2.7740557  0.028961077   -3.8166879    1.0426322      8192000 
 3918000   0.79635205   -3.8166419   -3.8166419   -2.7740886  0.031482929   -3.8166419    1.0425533      8192000 
 3919000   0.79607755   -3.8164823   -3.8164823   -2.7742851  0.030440843   -3.8164823    1.0421972      8192000 
 3920000   0.79575716   -3.8162757   -3.8162757   -2.7744947  0.029589408   -3.8162757     1.041781      8192000 
 3921000   0.79598553   -3.8161752   -3.8161752   -2.7740917  0.030120367   -3.8161752    1.0420834      8192000 
 3922000   0.79586464   -3.8157507   -3.8157507   -2.7738223  0.029245054   -3.8157507    1.0419284      8192000 
 3923000   0.79585911   -3.8165163   -3.8165163   -2.7745919  0.028902349   -3.8165163    1.0419244      8192000 
 3924000   0.79632258   -3.8169168   -3.8169168   -2.7743822  0.030387893   -3.8169168    1.0425347      8192000 
 3925000   0.79601771   -3.8160327   -3.8160327   -2.7738939  0.031905602   -3.8160327    1.0421388      8192000 
 3926000   0.79560891   -3.8158178   -3.8158178    -2.774211   0.03030166   -3.8158178    1.0416068      8192000 
 3927000   0.79578769   -3.8161902   -3.8161902   -2.7743459  0.031485728   -3.8161902    1.0418444      8192000 
 3928000    0.7958974   -3.8157671   -3.8157671   -2.7737759  0.030445187   -3.8157671    1.0419912      8192000 
 3929000   0.79663894   -3.8163949   -3.8163949   -2.7734296  0.030289834   -3.8163949    1.0429653      8192000 
 3930000    0.7961738   -3.8163053   -3.8163053   -2.7739455  0.032063731   -3.8163053    1.0423598      8192000 
 3931000   0.79600558   -3.8163177   -3.8163177   -2.7741748   0.02872235   -3.8163177    1.0421428      8192000 
 3932000    0.7957755   -3.8163406   -3.8163406   -2.7744957  0.031167094   -3.8163406    1.0418449      8192000 
 3933000   0.79592238   -3.8162595   -3.8162595   -2.7742189  0.030186525   -3.8162595    1.0420406      8192000 
 3934000   0.79585323   -3.8166904   -3.8166904    -2.774737  0.029479842   -3.8166904    1.0419534      8192000 
 3935000   0.79625672   -3.8167087   -3.8167087   -2.7742239  0.029388383   -3.8167087    1.0424849      8192000 
 3936000   0.79543528   -3.8155059   -3.8155059    -2.774093  0.030425772   -3.8155059    1.0414129      8192000 
 3937000   0.79603281   -3.8160316   -3.8160316   -2.7738332  0.029820667   -3.8160316    1.0421984      8192000 
 3938000   0.79588407   -3.8160798   -3.8160798   -2.7740729  0.029833503   -3.8160798    1.0420069      8192000 
 3939000   0.79608846    -3.816481    -3.816481    -2.774203  0.028568238    -3.816481     1.042278      8192000 
 3940000   0.79692338   -3.8173032   -3.8173032   -2.7739288  0.029275361   -3.8173032    1.0433744      8192000 
 3941000   0.79639085   -3.8164742   -3.8164742   -2.7737938  0.029141345   -3.8164742    1.0426804      8192000 
 3942000   0.79661234    -3.816763    -3.816763   -2.7737891  0.029872162    -3.816763    1.0429739      8192000 
 3943000   0.79610976   -3.8159603   -3.8159603   -2.7736412  0.030652413   -3.8159603    1.0423191      8192000 
 3944000   0.79584978   -3.8158002   -3.8158002   -2.7738182  0.031806519   -3.8158002     1.041982      8192000 
 3945000   0.79587834   -3.8159404   -3.8159404   -2.7739175  0.029269069   -3.8159404    1.0420229      8192000 
 3946000   0.79597871   -3.8160133   -3.8160133   -2.7738558  0.030061787   -3.8160133    1.0421575      8192000 
 3947000   0.79572478   -3.8160823   -3.8160823   -2.7742541  0.028425373   -3.8160823    1.0418283      8192000 
 3948000   0.79573297    -3.815748    -3.815748   -2.7739055  0.029406111    -3.815748    1.0418425      8192000 
 3949000   0.79617732    -3.816166    -3.816166   -2.7737384   0.02795559    -3.816166    1.0424275      8192000 
 3950000   0.79608768   -3.8160325   -3.8160325   -2.7737191  0.031960974   -3.8160325    1.0423134      8192000 
 3951000   0.79656355   -3.8163945   -3.8163945   -2.7734545  0.032713351   -3.8163945    1.0429399      8192000 
 3952000   0.79616338   -3.8160824   -3.8160824   -2.7736631  0.033830527   -3.8160824    1.0424192      8192000 
 3953000    0.7963748   -3.8163793   -3.8163793     -2.77368  0.031125014   -3.8163793    1.0426993      8192000 
 3954000   0.79649819   -3.8163916   -3.8163916   -2.7735272  0.031450042   -3.8163916    1.0428643      8192000 
 3955000   0.79622247   -3.8159208   -3.8159208   -2.7734142  0.034818165   -3.8159208    1.0425066      8192000 
 3956000    0.7964897   -3.8163313   -3.8163313   -2.7734716  0.030800791   -3.8163313    1.0428597      8192000 
 3957000    0.7957568   -3.8153748   -3.8153748   -2.7734712  0.031998375   -3.8153748    1.0419036      8192000 
 3958000   0.79529847    -3.815285    -3.815285   -2.7739783  0.031488619    -3.815285    1.0413067      8192000 
 3959000   0.79585552   -3.8157611   -3.8157611   -2.7737217  0.030953775   -3.8157611    1.0420394      8192000 
 3960000   0.79579867   -3.8157699   -3.8157699   -2.7738015  0.031069854   -3.8157699    1.0419684      8192000 
 3961000   0.79555249   -3.8156923   -3.8156923    -2.774043  0.029184598   -3.8156923    1.0416493      8192000 
 3962000   0.79599565   -3.8163259   -3.8163259   -2.7740931  0.029074897   -3.8163259    1.0422328      8192000 
 3963000   0.79548156   -3.8155468   -3.8155468   -2.7739836   0.02873105   -3.8155468    1.0415632      8192000 
 3964000   0.79623018   -3.8163527   -3.8163527   -2.7738061  0.025491938   -3.8163527    1.0425466      8192000 
 3965000   0.79616255   -3.8163912   -3.8163912   -2.7739299  0.032358094   -3.8163912    1.0424613      8192000 
 3966000   0.79557582   -3.8152809   -3.8152809   -2.7735843  0.031732419   -3.8152809    1.0416965      8192000 
 3967000   0.79637075   -3.8162477   -3.8162477    -2.773507  0.030089071   -3.8162477    1.0427406      8192000 
 3968000   0.79636702   -3.8164985   -3.8164985   -2.7737595  0.029873323   -3.8164985     1.042739      8192000 
 3969000   0.79595772   -3.8156209   -3.8156209   -2.7734144  0.032847195   -3.8156209    1.0422066      8192000 
 3970000   0.79598864   -3.8155936   -3.8155936   -2.7733433  0.029281267   -3.8155936    1.0422503      8192000 
 3971000   0.79599012   -3.8154562   -3.8154562   -2.7732007  0.031651122   -3.8154562    1.0422555      8192000 
 3972000   0.79565817   -3.8157061   -3.8157061   -2.7738818  0.030320446   -3.8157061    1.0418243      8192000 
 3973000    0.7959841   -3.8157746   -3.8157746   -2.7735203  0.029849469   -3.8157746    1.0422543      8192000 
 3974000   0.79583897   -3.8156352   -3.8156352   -2.7735677  0.031237378   -3.8156352    1.0420675      8