LAMMPS (29 Oct 2020)
  using 1 OpenMP thread(s) per MPI task
#Read the equilibrated lj fluid and add nanocubes

units           lj
atom_style      full
#atom_modify     map array first cubes
dimension       3
boundary        p p f
pair_style      lj/smooth/linear 2.0

variable        sigma           equal 1.0
variable        epsilon         equal 1.0
read_restart	restart.dat.10000000
Reading restart file ...
  restart file = 29 Oct 2020, LAMMPS = 29 Oct 2020
WARNING: Restart file used different # of processors: 64 vs. 128 (src/read_restart.cpp:697)
  restoring atom style full from restart
  orthogonal box = (0.0000000 0.0000000 0.0000000) to (80.000000 80.000000 160.00000)
  4 by 4 by 8 MPI processor grid
  restoring pair style lj/smooth/linear from restart
  466099 atoms
Finding 1-2 1-3 1-4 neighbors ...
  special bond factors lj:    0.0      0.0      0.0     
  special bond factors coul:  0.0      0.0      0.0     
     0 = max # of 1-2 neighbors
     0 = max # of 1-3 neighbors
     0 = max # of 1-4 neighbors
     1 = max # of special neighbors
  special bonds CPU = 23.651 seconds
  read_restart CPU = 24.286 seconds

group		solvent type 1
356371 atoms in group solvent
group 		hull  type 2
42816 atoms in group hull
group 		dummy type 3
66912 atoms in group dummy

neighbor      0.4 bin
neigh_modify  exclude molecule/intra cubes

pair_modify   shift yes

pair_coeff    1 1 1.0 1.0 #solvent
pair_coeff    2 2 1.0 1.0 1.12 #np
pair_coeff    3 3 0.0 0.0 0.0 #dummy
pair_coeff    2 3 0.0 0.0 0.0 #np dummy
pair_coeff    1 2 ${sol} 1.0  #np solvent
pair_coeff    1 2 0.65 1.0  
pair_coeff    1 3 0.0 0.0 0.0 #dummy solvent


comm_modify   mode multi cutoff/multi 1 2.0 cutoff/multi 2 2.0 cutoff/multi 3 6.95

reset_timestep 	0

balance 	1.05 shift z 10 1.05
Balancing ...
Unused restart file global fix info:
  fix style: STORE, fix ID: msd_COMPUTE_STORE
Unused restart file peratom fix info:
  fix style: STORE, fix ID: bin1_COMPUTE_STORE
  fix style: STORE, fix ID: bin3_COMPUTE_STORE
Neighbor list info ...
  update every 1 steps, delay 10 steps, check yes
  max neighbors/atom: 2000, page size: 100000
  master list distance cutoff = 2.4
  ghost atom cutoff = 6.95
  binsize = 1.2, bins = 67 67 134
  1 neighbor lists, perpetual/occasional/extra = 1 0 0
  (1) pair lj/smooth/linear, perpetual
      attributes: half, newton on
      pair build: half/bin/newton
      stencil: half/bin/3d/newton
      bin: standard
 rebalancing time: 0.012 seconds
  iteration count = 5
  initial/final maximal load/proc = 6619.0000 4817.0000
  initial/final imbalance factor  = 1.8177083 1.3228434
  x cuts: 0.0000000 0.25 0.5 0.75 1.0000000
  y cuts: 0.0000000 0.25 0.5 0.75 1.0000000
  z cuts: 0.0000000 0.08984375 0.17578125 0.25390625 0.3515625 0.4296875 0.5078125 0.60546875 1.0000000

####################### WALLS ###########################

variable       epsilonWall equal 2*${epsilon}
variable       epsilonWall equal 2*1
variable       repulsive   equal   0.7147*${sigma}
variable       repulsive   equal   0.7147*1
variable       full	   equal   3*${sigma}
variable       full	   equal   3*1
region         lowWall block EDGE EDGE EDGE EDGE EDGE 2

fix            topWall all wall/lj93 zhi EDGE 	       ${epsilonWall} ${sigma} ${repulsive} units box
fix            topWall all wall/lj93 zhi EDGE 	       2 ${sigma} ${repulsive} units box
fix            topWall all wall/lj93 zhi EDGE 	       2 1 ${repulsive} units box
fix            topWall all wall/lj93 zhi EDGE 	       2 1 0.7147 units box
fix            lowSol solvent wall/lj93 zlo EDGE                ${epsilonWall} ${sigma} ${full} units box
fix            lowSol solvent wall/lj93 zlo EDGE                2 ${sigma} ${full} units box
fix            lowSol solvent wall/lj93 zlo EDGE                2 1 ${full} units box
fix            lowSol solvent wall/lj93 zlo EDGE                2 1 3 units box
fix 	       lowCub cubes wall/lj93 zlo EDGE                ${epsilonWall} ${sigma} ${repulsive} units box
fix 	       lowCub cubes wall/lj93 zlo EDGE                2 ${sigma} ${repulsive} units box
fix 	       lowCub cubes wall/lj93 zlo EDGE                2 1 ${repulsive} units box
fix 	       lowCub cubes wall/lj93 zlo EDGE                2 1 0.7147 units box


###################### COMPUTES ##########################

compute        bin1 solvent chunk/atom bin/1d z lower 1.0 units box
compute        bin3 solvent chunk/atom bin/3d x lower 5.0 y lower 5.0 z lower 5.0 units box

compute 	pe solvent 	   pe/atom
compute 	pe2 all 	   pe/atom

######################  FIXES ############################


fix             peclet solvent ave/chunk 10 10 10000 bin1 density/number norm                  none ave one file density.profile

fix              temp solvent ave/chunk 10 10 10000 bin1 temp norm                  none ave one file temp.profile

fix 		 dens solvent ave/chunk 10 10 500000 bin3 density/number norm 		 none ave one file dens3.profile

fix		 temp2 solvent ave/chunk 10 10 500000 bin3 temp norm none ave one file temp3.profile

fix 		pe solvent ave/chunk 1 1 500000 bin3 c_pe norm none ave one file pe3.profile



################### INTEGRATION

fix             1 cubes rigid/nve/small molecule
  create bodies CPU = 0.012 seconds
  96 rigid bodies with 109728 atoms
  6.9282032 = max distance from body owner to body atom

fix             2 solvent nve



## Thermostat
region          regthermo block EDGE EDGE EDGE EDGE 0 15
group           thermo dynamic solvent region regthermo every 1000
dynamic group thermo defined
fix             3 thermo langevin ${temp} ${temp} 10 156453
fix             3 thermo langevin 0.6 ${temp} 10 156453
fix             3 thermo langevin 0.6 0.6 10 156453

## Evaporation
region		regevap block EDGE EDGE EDGE EDGE 140 EDGE
fix 		4 solvent evaporate ${evap} 1 regevap 156415
fix 		4 solvent evaporate 85 1 regevap 156415


#### Load balancing

fix             bal all balance 1000 1.05 shift z 10 1.05

############### Diagnostics and computes ###################

compute        	com cubes          rigid/local   1 mol x y z
compute        	quat cubes         rigid/local   1 mol quatw quati quatj quatk

compute 	cc2 cubes 	   chunk/atom 	 molecule
compute 	msd cubes 	   msd/chunk 	 cc2

fix 		msd all ave/time  1 1 10000 c_msd[*] file dump.msd ave one mode vector

dump            1 all custom 500000 dump.lammpstrj id mol type x y z vx vy vz c_pe2
dump		sol  solvent custom 500000 dump.soltrj id x y z vx vy vz c_pe
dump		cubetrj cubes custom 500000 cubes.lammpstrj id mol type x y z vx vy vz
dump            com cubes local 500000 dump.*.xyz c_com[*]
dump	        xyz hull xyz 500000 cubes.xyz
#dump            quat cubes      local 100000 dump.*.quat c_quat[*]
dump		order cubes 	local 100000 dump.*.order c_com[*] c_quat[*]
#dump		mol cubes molfile 10000 mol.xyz xyz


dump            2 all image 100000 image.*.png type type zoom 1.5 size 1280 720
dump_modify     2 pad 8
dump		image cubes image 100000 image_cubes.*.png type type zoom 1.5 size 1280 720
dump_modify	image pad 8
dump            3 all movie 5000 movie.avi type type zoom 1.5 size 1280 720
dump		4 cubes movie 5000 movie_cubes.avi type type size 1280 720


thermo          1000
thermo_style    custom step temp epair evdwl etotal press pe ke atoms

restart         1000000 restart.dat
timestep        0.005
timer           full
New timer settings: style=full  mode=nosync  timeout=off

run 		${steps}
run 		30000000
Per MPI rank memory allocation (min/avg/max) = 17.99 | 23.99 | 26.89 Mbytes
Step Temp E_pair E_vdwl TotEng Press PotEng KinEng Atoms 
       0   0.60445798   -1.7914716   -1.7914716   -1.0978633 -0.003365382   -1.7914716   0.69360827   466099 
    1000    0.6043384   -1.7919755   -1.7919755   -1.0984881  0.038007982   -1.7919755   0.69348741   466088 
    2000   0.60440889   -1.7919707   -1.7919707   -1.0983846  0.033642594   -1.7919707   0.69358616   466076 
    3000   0.60344802    -1.791198    -1.791198   -1.0986966  0.033537098    -1.791198   0.69250134   466064 
    4000   0.60388495   -1.7917472   -1.7917472   -1.0987266  0.035516356   -1.7917472    0.6930206   466052 
    5000   0.60330839   -1.7909438   -1.7909438   -1.0985685  0.036051151   -1.7909438   0.69237528   466041 
    6000   0.60310157   -1.7910665   -1.7910665   -1.0989107  0.040002378   -1.7910665   0.69215575   466029 
    7000   0.60307188    -1.791095    -1.791095   -1.0989555  0.033823446    -1.791095    0.6921395   466017 
    8000    0.6037434    -1.791571    -1.791571   -1.0986429  0.030752967    -1.791571   0.69292804   466005 
    9000   0.60362226   -1.7918005   -1.7918005   -1.0989951  0.030581993   -1.7918005   0.69280535   465994 
   10000    0.6033981   -1.7920928   -1.7920928   -1.0995269  0.031312001   -1.7920928   0.69256591   465982 
   11000   0.60369992   -1.7921189   -1.7921189   -1.0991888  0.033489318   -1.7921189   0.69293018   465970 
   12000   0.60240894   -1.7909803   -1.7909803   -1.0995141  0.035736411   -1.7909803   0.69146619   465958 
   13000   0.60161081   -1.7905396   -1.7905396   -1.0999733  0.034003368   -1.7905396   0.69056637   465947 
   14000   0.60280278     -1.79088     -1.79088   -1.0989276  0.035178529     -1.79088   0.69195241   465935 
   15000   0.60405357   -1.7924074   -1.7924074   -1.0990013  0.030910786   -1.7924074   0.69340605   465923 
   16000    0.6036352   -1.7925191   -1.7925191   -1.0995754  0.036887217   -1.7925191   0.69294364   465911 
   17000   0.60392788   -1.7929978   -1.7929978   -1.0997003  0.031075168   -1.7929978   0.69329748   465899 
   18000   0.60360254   -1.7925212   -1.7925212   -1.0995809  0.041744454   -1.7925212   0.69294035   465888 
   19000   0.60355334   -1.7924952   -1.7924952   -1.0995935  0.035784561   -1.7924952   0.69290171   465876 
   20000   0.60312301   -1.7910375   -1.7910375    -1.098612  0.038463674   -1.7910375   0.69242552   465864 
   21000   0.60325431   -1.7909528   -1.7909528   -1.0983587  0.034754439   -1.7909528   0.69259409   465852 
   22000   0.60406545   -1.7916448   -1.7916448    -1.098103  0.034610583   -1.7916448   0.69354174   465841 
   23000   0.60407941   -1.7919618   -1.7919618   -1.0983861  0.034008701   -1.7919618   0.69357563   465829 
   24000   0.60300626   -1.7910474   -1.7910474   -1.0986861  0.039026996   -1.7910474   0.69236133   465817 
   25000   0.60372185    -1.791781    -1.791781   -1.0985802  0.030738647    -1.791781   0.69320082   465805 
   26000   0.60382784   -1.7918713   -1.7918713   -1.0985324  0.034303342   -1.7918713   0.69333888   465794 
   27000   0.60495329    -1.792597    -1.792597   -1.0979479   0.03978727    -1.792597   0.69464907   465782 
   28000    0.6045785   -1.7923019   -1.7923019   -1.0980653  0.034808638   -1.7923019    0.6942366   465770 
   29000   0.60330403   -1.7910758   -1.7910758   -1.0982848  0.036077861   -1.7910758   0.69279097   465758 
   30000   0.60370289   -1.7916875   -1.7916875   -1.0984221  0.036114725   -1.7916875   0.69326537   465747 
   31000   0.60294581   -1.7908712   -1.7908712   -1.0984574  0.036129112   -1.7908712   0.69241381   465735 
   32000   0.60409307   -1.7917831   -1.7917831   -1.0980339  0.034449432   -1.7917831   0.69374918   465723 
   33000    0.6032315    -1.791005    -1.791005   -1.0982274  0.041035719    -1.791005   0.69277759   465711 
   34000   0.60421683   -1.7924368   -1.7924368   -1.0985097  0.031256465   -1.7924368   0.69392707   465699 
   35000   0.60314731   -1.7918237   -1.7918237   -1.0991086  0.030767745   -1.7918237   0.69271512   465688 
   36000   0.60294492   -1.7908741   -1.7908741   -1.0983736  0.038201151   -1.7908741   0.69250052   465676 
   37000   0.60294962    -1.791406    -1.791406   -1.0988823  0.038363212    -1.791406   0.69252376   465664 
   38000   0.60398427   -1.7922481   -1.7922481   -1.0985181  0.037814091   -1.7922481      0.69373   465652 
   39000   0.60481931   -1.7936699   -1.7936699   -1.0989644   0.03231917   -1.7936699   0.69470552   465641 
   40000    0.6028017   -1.7911519   -1.7911519    -1.098746  0.039355917   -1.7911519   0.69240591   465629 
   41000   0.60283616   -1.7908821   -1.7908821   -1.0984188  0.035540658   -1.7908821   0.69246334   465617 
   42000     0.602568   -1.7903236   -1.7903236   -1.0981505  0.036054866   -1.7903236   0.69217315   465605 
   43000   0.60180089   -1.7901195   -1.7901195   -1.0988112   0.03554347   -1.7901195   0.69130829   465594 
   44000   0.60381768   -1.7920416   -1.7920416   -1.0983987  0.034582812   -1.7920416   0.69364292   465582 
   45000   0.60264318   -1.7900543   -1.7900543   -1.0977427  0.034800907   -1.7900543   0.69231155   465570 
   46000    0.6040065   -1.7915999   -1.7915999   -1.0977043  0.037566701   -1.7915999    0.6938956   465558 
   47000    0.6037949   -1.7914248   -1.7914248   -1.0977559   0.03732504   -1.7914248    0.6936689   465547 
   48000   0.60377029    -1.791607    -1.791607   -1.0979485   0.03584384    -1.791607    0.6936585   465535 
   49000   0.60252401   -1.7904677   -1.7904677   -1.0982232  0.040630619   -1.7904677   0.69224452   465523 
   50000   0.60259307   -1.7908604   -1.7908604   -1.0985187  0.035734401   -1.7908604   0.69234172   465511 
   51000   0.60415034   -1.7921526   -1.7921526   -1.0980037  0.028151648   -1.7921526   0.69414882   465499 
   52000    0.6027414   -1.7900039   -1.7900039   -1.0974575  0.039049303   -1.7900039   0.69254636   465488 
   53000   0.60201801   -1.7894157   -1.7894157   -1.0976826  0.032434927   -1.7894157   0.69173301   465476 
   54000   0.60333741   -1.7905003   -1.7905003   -1.0972334  0.034689401   -1.7905003   0.69326691   465464 
   55000   0.60308878   -1.7905671   -1.7905671    -1.097568  0.033026033   -1.7905671   0.69299909   465452 
   56000   0.60302565    -1.790807    -1.790807   -1.0978641  0.034873309    -1.790807   0.69294292   465441 
   57000   0.60248139   -1.7911562   -1.7911562   -1.0988208  0.033048923   -1.7911562   0.69233536   465429 
   58000   0.60134404   -1.7895966   -1.7895966   -1.0985504  0.034332717   -1.7895966    0.6910462   465417 
   59000   0.60275127   -1.7909701   -1.7909701   -1.0982889  0.033442681   -1.7909701   0.69268121   465405 
   60000   0.60306773   -1.7912055   -1.7912055   -1.0981443  0.035414463   -1.7912055   0.69306126   465394 
   61000   0.60272937   -1.7908135   -1.7908135   -1.0981232  0.037066971   -1.7908135   0.69269027   465382 
   62000   0.60180622   -1.7896677   -1.7896677   -1.0980205  0.037331051   -1.7896677   0.69164717   465370 
   63000   0.60203078   -1.7904961   -1.7904961    -1.098573  0.036915195   -1.7904961    0.6919231   465358 
   64000   0.60175473   -1.7904889   -1.7904889   -1.0988667  0.038324333   -1.7904889   0.69162217   465347 
   65000   0.60231661   -1.7915983   -1.7915983   -1.0993125  0.036211886   -1.7915983   0.69228582   465335 
   66000   0.60352115   -1.7921079   -1.7921079   -1.0984198  0.032770547   -1.7921079   0.69368817   465323 
   67000   0.60211941   -1.7911171   -1.7911171   -1.0990222  0.040938977   -1.7911171   0.69209486   465311 
   68000   0.60341614    -1.792538    -1.792538   -1.0989348  0.038643204    -1.792538   0.69360325   465299 
   69000   0.60236833   -1.7914479   -1.7914479   -1.0990327  0.035223007   -1.7914479   0.69241521   465288 
   70000   0.60213343   -1.7914202   -1.7914202   -1.0992572  0.034599191   -1.7914202   0.69216304   465276 
   71000   0.60241916     -1.79209     -1.79209   -1.0995807  0.030889276     -1.79209   0.69250935   465264 
   72000   0.60223998   -1.7914218   -1.7914218   -1.0991006  0.034736017   -1.7914218   0.69232123   465252 
   73000   0.60139319   -1.7901696   -1.7901696   -1.0988055  0.034834651   -1.7901696   0.69136413   465241 
   74000   0.60289519   -1.7915774   -1.7915774   -1.0984687  0.035874704   -1.7915774   0.69310871   465229 
   75000   0.60285635   -1.7922026   -1.7922026   -1.0991206  0.037337679   -1.7922026   0.69308193   465217 
   76000   0.60259482   -1.7918564   -1.7918564   -1.0990572  0.033939204   -1.7918564   0.69279914   465205 
   77000   0.60267687   -1.7919231   -1.7919231   -1.0990133  0.033042549   -1.7919231   0.69290985   465194 
   78000   0.60297246   -1.7927509   -1.7927509   -1.0994833  0.039145417   -1.7927509   0.69326758   465182 
   79000   0.60246002   -1.7924137   -1.7924137   -1.0997174  0.035733171   -1.7924137   0.69269627   465170 
   80000   0.60249772   -1.7920606   -1.7920606   -1.0993031  0.034668307   -1.7920606   0.69275749   465158 
   81000   0.60213919   -1.7911813   -1.7911813   -1.0988197  0.030451991   -1.7911813   0.69236162   465147 
   82000   0.60147283    -1.791127    -1.791127   -1.0995137  0.038400073    -1.791127   0.69161326   465135 
   83000   0.60137291   -1.7916588   -1.7916588   -1.1001426  0.035806762   -1.7916588   0.69151621   465123 
   84000   0.60162084   -1.7916265   -1.7916265   -1.0998074  0.035928809   -1.7916265   0.69181915   465111 
   85000   0.60163245    -1.791707    -1.791707   -1.0998566   0.03078817    -1.791707   0.69185035   465099 
   86000   0.60185253   -1.7920628   -1.7920628    -1.099943  0.034240134   -1.7920628    0.6921198   465088 
   87000   0.60133434   -1.7910288   -1.7910288    -1.099487  0.034646045   -1.7910288   0.69154174   465076 
   88000   0.60186825   -1.7912392   -1.7912392   -1.0990656  0.034593481   -1.7912392   0.69217359   465064 
   89000    0.6020234   -1.7907899   -1.7907899     -1.09842  0.035113112   -1.7907899   0.69236989   465052 
   90000   0.60260921   -1.7926126   -1.7926126   -1.0995526  0.034490473   -1.7926126   0.69306001   465041 
   91000     0.602257   -1.7920468   -1.7920468    -1.099374  0.035814149   -1.7920468    0.6926728   465029 
   92000   0.60327524   -1.7930814   -1.7930814   -1.0992196   0.03677755   -1.7930814   0.69386182   465017 
   93000   0.60221442   -1.7918088   -1.7918088   -1.0991493  0.036614201   -1.7918088   0.69265958   465005 
   94000    0.6026197   -1.7922464   -1.7922464   -1.0991042  0.036552411   -1.7922464   0.69314213   464994 
   95000   0.60313853   -1.7925512   -1.7925512   -1.0987944  0.036855588   -1.7925512   0.69375679   464982 
   96000   0.60129675   -1.7906262   -1.7906262   -1.0989701  0.034605597   -1.7906262   0.69165615   464970 
   97000   0.60005679    -1.790205    -1.790205   -1.0999573  0.039119465    -1.790205   0.69024767   464958 
   98000   0.60120273   -1.7913266   -1.7913266   -1.0997444  0.036046098   -1.7913266    0.6915822   464947 
   99000   0.60095526   -1.7917856   -1.7917856   -1.1004703  0.032217072   -1.7917856   0.69131538   464935 
  100000   0.59981027   -1.7896713   -1.7896713   -1.0996553  0.040184067   -1.7896713   0.69001604   464923 
  101000   0.60040643   -1.7910395   -1.7910395   -1.1003199  0.036998948   -1.7910395   0.69071968   464911 
  102000   0.60041921   -1.7912275   -1.7912275   -1.1004753  0.032768891   -1.7912275   0.69075221   464899 
  103000   0.60061874   -1.7918132   -1.7918132   -1.1008151  0.034050212   -1.7918132   0.69099811   464888 
  104000   0.60023695   -1.7915271   -1.7915271   -1.1009504  0.030145868   -1.7915271   0.69057669   464876 
  105000   0.60129061   -1.7920775   -1.7920775   -1.1002707  0.034865771   -1.7920775    0.6918068   464864 
  106000   0.60214212   -1.7937011   -1.7937011   -1.1008967  0.033204008   -1.7937011   0.69280437   464852 
  107000   0.60151695    -1.793002    -1.793002   -1.1009005  0.037404538    -1.793002   0.69210144   464841 
  108000   0.60096678   -1.7918466   -1.7918466   -1.1003603  0.033543562   -1.7918466   0.69148628   464829 
  109000   0.60132588   -1.7928263   -1.7928263    -1.100909  0.037353887   -1.7928263   0.69191733   464817 
  110000   0.60178825   -1.7936571   -1.7936571   -1.1011899  0.037349469   -1.7936571   0.69246723   464805 
  111000   0.59958192   -1.7916737   -1.7916737    -1.101729  0.038152992   -1.7916737   0.68994477   464794 
  112000   0.60073751   -1.7925601   -1.7925601   -1.1012678   0.03694668   -1.7925601   0.69129237   464782 
  113000   0.60163177   -1.7941615   -1.7941615   -1.1018222  0.034829383   -1.7941615   0.69233931   464770 
  114000   0.60123012   -1.7938386   -1.7938386   -1.1019437  0.034036827   -1.7938386   0.69189497   464758 
  115000    0.6006928   -1.7927528   -1.7927528   -1.1014598  0.034571103   -1.7927528   0.69129299   464747 
  116000   0.60114795    -1.794367    -1.794367   -1.1025324  0.028413094    -1.794367   0.69183464   464735 
  117000   0.60138275   -1.7946134   -1.7946134   -1.1024907  0.037934792   -1.7946134   0.69212273   464723 
  118000   0.60034861   -1.7927585   -1.7927585   -1.1018081  0.036616791   -1.7927585    0.6909504   464711 
  119000   0.60103444   -1.7935557   -1.7935557   -1.1017981   0.03403654   -1.7935557    0.6917576   464699 
  120000   0.59989996   -1.7924792   -1.7924792    -1.102011  0.036736489   -1.7924792   0.69046821   464688 
  121000   0.60174042    -1.794187    -1.794187   -1.1015826    0.0326142    -1.794187   0.69260442   464676 
  122000   0.60174097   -1.7933314   -1.7933314   -1.1007084  0.035874381   -1.7933314   0.69262294   464664 
  123000   0.60171325   -1.7945856   -1.7945856   -1.1019766  0.036052728   -1.7945856   0.69260892   464652 
  124000   0.60053547   -1.7941802   -1.7941802   -1.1029106  0.028137544   -1.7941802   0.69126958   464641 
  125000   0.60108278   -1.7950082   -1.7950082   -1.1030908  0.037946281   -1.7950082   0.69191746   464629 
  126000   0.60041055   -1.7941617   -1.7941617   -1.1030002  0.038388512   -1.7941617   0.69116149   464617 
  127000   0.60116466   -1.7947981   -1.7947981   -1.1027506  0.035538543   -1.7947981   0.69204745   464605 
  128000   0.60095671   -1.7947453   -1.7947453   -1.1029208  0.035854557   -1.7947453   0.69182446   464594 
  129000   0.60075099   -1.7945417   -1.7945417   -1.1029363  0.038182331   -1.7945417   0.69160549   464582 
  130000   0.60097059   -1.7947801   -1.7947801   -1.1029039  0.036036409   -1.7947801   0.69187617   464570 
  131000   0.60096404   -1.7949553   -1.7949553   -1.1030688  0.039153326   -1.7949553    0.6918865   464558 
  132000   0.60140499    -1.794918    -1.794918   -1.1025074   0.03395274    -1.794918   0.69241056   464547 
  133000    0.6017932   -1.7961296   -1.7961296   -1.1032542  0.033334058   -1.7961296   0.69287541   464535 
  134000   0.60141263    -1.795828    -1.795828   -1.1033728  0.036906456    -1.795828   0.69245513   464523 
  135000   0.60173588   -1.7951745   -1.7951745   -1.1023293  0.035241703   -1.7951745   0.69284521   464511 
  136000   0.60165662   -1.7953218   -1.7953218     -1.10255  0.035856787   -1.7953218   0.69277185   464499 
  137000   0.60111071   -1.7940474   -1.7940474   -1.1018877  0.034519555   -1.7940474   0.69215965   464488 
  138000   0.60108159   -1.7939119   -1.7939119   -1.1017679  0.037600017   -1.7939119   0.69214401   464476 
  139000   0.60035556   -1.7935953   -1.7935953   -1.1022694  0.034932968   -1.7935953   0.69132585   464464 
  140000    0.6005566   -1.7944317   -1.7944317   -1.1028565  0.034024681   -1.7944317   0.69157522   464452 
  141000   0.59983796   -1.7940428   -1.7940428   -1.1032787  0.033425927   -1.7940428   0.69076403   464441 
  142000   0.60028565   -1.7947739   -1.7947739   -1.1034765  0.030449462   -1.7947739   0.69129743   464429 
  143000   0.60063692   -1.7943486   -1.7943486   -1.1026287   0.03402969   -1.7943486   0.69171983   464417 
  144000    0.5998222    -1.793684    -1.793684   -1.1028845  0.033813251    -1.793684   0.69079943   464405 
  145000   0.59993583   -1.7927833   -1.7927833   -1.1018367  0.036113008   -1.7927833   0.69094665   464394 
  146000   0.59856933   -1.7912537   -1.7912537    -1.101863  0.033941672   -1.7912537   0.68939067   464382 
  147000   0.59964328    -1.791659    -1.791659   -1.1010135  0.030209851    -1.791659   0.69064542   464370 
  148000   0.59838588   -1.7904171   -1.7904171   -1.1012021  0.032658273   -1.7904171     0.689215   464358 
  149000   0.59844233   -1.7912426   -1.7912426   -1.1019463  0.034498242   -1.7912426   0.68929635   464347 
  150000   0.59935253    -1.791706    -1.791706   -1.1013434  0.028536162    -1.791706   0.69036257   464335 
  151000   0.59891913   -1.7912162   -1.7912162   -1.1013351  0.033689482   -1.7912162   0.68988119   464323 
  152000   0.59890275   -1.7917172   -1.7917172   -1.1018371  0.030387272   -1.7917172   0.68988016   464311 
  153000   0.59950445   -1.7924554   -1.7924554   -1.1018643  0.024304487   -1.7924554    0.6905911   464299 
  154000   0.59874436   -1.7920714   -1.7920714   -1.1023395   0.02673372   -1.7920714   0.68973187   464288 
  155000   0.59969248   -1.7929531   -1.7929531   -1.1021112  0.031123696   -1.7929531   0.69084193   464276 
  156000   0.60026778   -1.7929199   -1.7929199   -1.1013974  0.030572615   -1.7929199   0.69152253   464264 
  157000   0.60030307   -1.7935844   -1.7935844   -1.1020034  0.031082941   -1.7935844   0.69158107   464252 
  158000   0.60120999    -1.793901    -1.793901   -1.1012587  0.034465984    -1.793901    0.6926423   464241 
  159000   0.59942319    -1.792007    -1.792007   -1.1014054  0.035459453    -1.792007   0.69060162   464229 
  160000   0.59986816    -1.792401    -1.792401   -1.1012689  0.036565939    -1.792401   0.69113213   464217 
  161000   0.60075651   -1.7933072   -1.7933072   -1.1011337  0.034617127   -1.7933072   0.69217353   464205 
  162000   0.60123025   -1.7939165   -1.7939165   -1.1011807  0.031680502   -1.7939165   0.69273577   464194 
  163000   0.60069402   -1.7943052   -1.7943052   -1.1021693  0.032939498   -1.7943052   0.69213583   464182 
  164000    0.6004321   -1.7945026   -1.7945026   -1.1026507  0.035542708   -1.7945026   0.69185193   464170 
  165000   0.60188798   -1.7958943   -1.7958943   -1.1023469  0.032773005   -1.7958943    0.6935474   464158 
  166000   0.60140466   -1.7951832   -1.7951832   -1.1021763  0.032900976   -1.7951832    0.6930069   464147 
  167000   0.60220362   -1.7956748   -1.7956748   -1.1017293  0.036691846   -1.7956748    0.6939455   464135 
  168000   0.60123002   -1.7951269   -1.7951269   -1.1022854  0.036515056   -1.7951269   0.69284148   464123 
  169000    0.6004004   -1.7942346   -1.7942346   -1.1023313  0.041212352   -1.7942346   0.69190334   464111 
  170000   0.60127884   -1.7957182   -1.7957182   -1.1027846  0.035074314   -1.7957182   0.69293358   464099 
  171000   0.60027281   -1.7952036   -1.7952036    -1.103413  0.039910172   -1.7952036   0.69179059   464088 
  172000   0.60103653   -1.7954007   -1.7954007    -1.102712  0.038948828   -1.7954007   0.69268865   464076 
  173000    0.5991484   -1.7938586   -1.7938586   -1.1033281  0.040173476   -1.7938586   0.69053046   464064 
  174000    0.5989714   -1.7940985   -1.7940985   -1.1037542  0.037150424   -1.7940985   0.69034431   464052 
  175000   0.59996968   -1.7951982   -1.7951982   -1.1036869  0.035176319   -1.7951982   0.69151127   464041 
  176000   0.60006776   -1.7961134   -1.7961134   -1.1044712  0.037607327   -1.7961134   0.69164221   464029 
  177000   0.59927748   -1.7958696   -1.7958696   -1.1051204  0.033851284   -1.7958696   0.69074919   464017 
  178000   0.59884254    -1.795602    -1.795602   -1.1053363  0.037976946    -1.795602   0.69026571   464005 
  179000   0.59866735   -1.7944986   -1.7944986   -1.1044185   0.03670596   -1.7944986   0.69008014   463994 
  180000   0.59861833   -1.7953206   -1.7953206   -1.1052792  0.030439553   -1.7953206   0.69004148   463982 
  181000   0.59943725   -1.7958953   -1.7958953   -1.1048919  0.029825683   -1.7958953   0.69100334   463970 
  182000   0.59900106   -1.7949722   -1.7949722   -1.1044539  0.031538673   -1.7949722   0.69051838   463958 
  183000   0.59865213   -1.7943603   -1.7943603   -1.1042278    0.0363568   -1.7943603    0.6901325   463947 
  184000   0.59857408   -1.7941895   -1.7941895   -1.1041291  0.029256134   -1.7941895   0.69006036   463935 
  185000   0.59982646   -1.7951166   -1.7951166   -1.1035946  0.030875016   -1.7951166   0.69152204   463923 
  186000   0.60002652   -1.7946884   -1.7946884   -1.1029178  0.034519749   -1.7946884   0.69177058   463911 
  187000   0.59971418   -1.7945332   -1.7945332   -1.1031049  0.034057265   -1.7945332   0.69142837   463899 
  188000   0.59820374   -1.7930077   -1.7930077   -1.1033044  0.031218918   -1.7930077    0.6897033   463888 
  189000    0.5993775   -1.7945162   -1.7945162   -1.1034418  0.028890497   -1.7945162   0.69107447   463876 
  190000   0.59897377   -1.7933926   -1.7933926   -1.1027658  0.033663632   -1.7933926   0.69062684   463864 
  191000   0.59988156   -1.7943668   -1.7943668   -1.1026754   0.03345688   -1.7943668   0.69169143   463852 
  192000   0.59925774   -1.7937893   -1.7937893   -1.1028007  0.032229473   -1.7937893   0.69098852   463841 
  193000   0.59861465   -1.7939067   -1.7939067   -1.1036418  0.033972849   -1.7939067   0.69026485   463829 
  194000   0.59812477   -1.7938354   -1.7938354   -1.1041176  0.029715485   -1.7938354   0.68971781   463817 
  195000   0.59687396   -1.7923898   -1.7923898   -1.1040965  0.031788391   -1.7923898   0.68829327   463805 
  196000   0.59810332   -1.7939648   -1.7939648   -1.1042376  0.031295723   -1.7939648   0.68972727   463794 
  197000   0.59851121   -1.7943246   -1.7943246   -1.1041091  0.028742689   -1.7943246   0.69021551   463782 
  198000   0.59813211   -1.7929081   -1.7929081    -1.103112   0.03417099   -1.7929081   0.68979618   463770 
  199000   0.59677685   -1.7922684   -1.7922684   -1.1040173  0.026824971   -1.7922684   0.68825103   463758 
  200000   0.59682545   -1.7921043   -1.7921043   -1.1037809   0.03280552   -1.7921043   0.68832341   463747 
  201000   0.59892735   -1.7939583   -1.7939583   -1.1031929  0.028295411   -1.7939583   0.69076541   463735 
  202000   0.59814375   -1.7931008   -1.7931008   -1.1032213  0.033007963   -1.7931008   0.68987951   463723 
  203000   0.59791395   -1.7928222   -1.7928222   -1.1031899  0.037126649   -1.7928222   0.68963232   463711 
  204000   0.60070177    -1.795705    -1.795705   -1.1028393  0.033402699    -1.795705   0.69286571   463699 
  205000   0.59984987   -1.7948626   -1.7948626   -1.1029631   0.03310891   -1.7948626   0.69189952   463688 
  206000   0.60010355   -1.7944952   -1.7944952   -1.1022851  0.035508669   -1.7944952   0.69221005   463676 
  207000   0.60065417   -1.7952013   -1.7952013   -1.1023382  0.035807275   -1.7952013    0.6928631   463664 
  208000   0.59970137   -1.7945914   -1.7945914   -1.1028095  0.040051482   -1.7945914   0.69178194   463652 
  209000   0.59938495   -1.7948114   -1.7948114    -1.103378  0.038421728   -1.7948114   0.69143333   463641 
  210000    0.5988935   -1.7946193   -1.7946193    -1.103735  0.036623124   -1.7946193    0.6908843   463629 
  211000    0.5985391   -1.7941908   -1.7941908   -1.1036974  0.033977681   -1.7941908   0.69049333   463617 
  212000   0.59950728   -1.7953069   -1.7953069   -1.1036788  0.034581452   -1.7953069   0.69162816   463605 
  213000   0.59836941   -1.7944459   -1.7944459   -1.1041141  0.031591831   -1.7944459   0.69033182   463594 
  214000   0.59923881   -1.7953186   -1.7953186   -1.1039658  0.033841217   -1.7953186   0.69135273   463582 
  215000   0.59830871   -1.7943006   -1.7943006    -1.104003  0.031377745   -1.7943006   0.69029753   463570 
  216000   0.59853863   -1.7950732   -1.7950732   -1.1044926  0.029099387   -1.7950732   0.69058068   463558 
  217000   0.59896776   -1.7951159   -1.7951159   -1.1040237   0.03448797   -1.7951159   0.69109219   463547 
  218000   0.59862089   -1.7949699   -1.7949699     -1.10426  0.033502385   -1.7949699   0.69070986   463535 
  219000   0.59837303    -1.794416    -1.794416   -1.1039743  0.032909671    -1.794416   0.69044174   463523 
  220000    0.5975114   -1.7942166   -1.7942166   -1.1047512  0.029471022   -1.7942166   0.68946538   463511 
  221000   0.59842328    -1.795016    -1.795016   -1.1044806  0.034126031    -1.795016   0.69053548   463499 
  222000   0.59877103    -1.795089    -1.795089   -1.1041359  0.031839007    -1.795089   0.69095315   463488 
  223000   0.59880111   -1.7954324   -1.7954324   -1.1044266  0.034165708   -1.7954324   0.69100576   463476 
  224000   0.59875935   -1.7944297   -1.7944297   -1.1034542  0.037497973   -1.7944297   0.69097546   463464 
  225000   0.59766595   -1.7935005   -1.7935005    -1.103769  0.030271379   -1.7935005   0.68973151   463452 
  226000   0.59777878   -1.7936218   -1.7936218   -1.1037437  0.032939109   -1.7936218    0.6898781   463441 
  227000   0.59861698   -1.7946061   -1.7946061   -1.1037428  0.028581474   -1.7946061   0.69086332   463429 
  228000    0.5982979   -1.7943411   -1.7943411   -1.1038281   0.03235578   -1.7943411   0.69051296   463417 
  229000   0.59817059   -1.7942785   -1.7942785   -1.1038946  0.036582697   -1.7942785    0.6903839   463405 
  230000   0.59865021   -1.7948988   -1.7948988   -1.1039449  0.031762233   -1.7948988   0.69095386   463394 
  231000   0.59851102    -1.794751    -1.794751   -1.1039399  0.029858549    -1.794751    0.6908111   463382 
  232000    0.5989667   -1.7950291   -1.7950291   -1.1036741  0.036321104   -1.7950291   0.69135496   463370 
  233000   0.59900467   -1.7957555   -1.7957555   -1.1043388  0.042138901   -1.7957555   0.69141669   463358 
  234000   0.59853666   -1.7949787   -1.7949787   -1.1040858  0.037342047   -1.7949787   0.69089288   463347 
  235000   0.59839194   -1.7949911   -1.7949911   -1.1042474  0.027315126   -1.7949911   0.69074372   463335 
  236000   0.59878995   -1.7956754   -1.7956754   -1.1044544  0.032530133   -1.7956754   0.69122105   463323 
  237000   0.59760811   -1.7943652   -1.7943652   -1.1044905  0.035130263   -1.7943652   0.68987465   463311 
  238000   0.59769589   -1.7947369   -1.7947369   -1.1047431  0.035539932   -1.7947369   0.68999386   463299 
  239000   0.59827781   -1.7950949   -1.7950949   -1.1044129  0.033164854   -1.7950949   0.69068203   463288 
  240000   0.59837048   -1.7952288   -1.7952288   -1.1044219  0.034068693   -1.7952288   0.69080691   463276 
  241000   0.59725832   -1.7934658   -1.7934658    -1.103925  0.036266539   -1.7934658    0.6895408   463264 
  242000    0.5962234   -1.7928342   -1.7928342   -1.1044704  0.035212961   -1.7928342   0.68836381   463252 
  243000   0.59687051   -1.7938278   -1.7938278   -1.1047005  0.033463564   -1.7938278   0.68912729   463241 
  244000   0.59750373   -1.7939565   -1.7939565   -1.1040803  0.032436789   -1.7939565   0.68987625   463229 
  245000   0.59754397   -1.7947069   -1.7947069   -1.1047663  0.034482921   -1.7947069   0.68994059   463217 
  246000    0.5998108   -1.7962706   -1.7962706   -1.1036947  0.033428644   -1.7962706   0.69257587   463205 
  247000   0.59763984   -1.7948812   -1.7948812   -1.1047956   0.03342948   -1.7948812   0.69008555   463194 
  248000   0.59699111    -1.794161    -1.794161   -1.1048067  0.036269901    -1.794161   0.68935433   463182 
  249000   0.59804549   -1.7949118   -1.7949118   -1.1043221  0.035685536   -1.7949118   0.69058973   463170 
  250000   0.59803897    -1.794914    -1.794914   -1.1043139  0.035267504    -1.794914   0.69060009   463158 
  251000   0.59867427   -1.7958972   -1.7958972   -1.1045471  0.030031074   -1.7958972   0.69135014   463147 
  252000   0.59722125   -1.7945004   -1.7945004   -1.1048103  0.034982103   -1.7945004   0.68969006   463135 
  253000   0.59757108   -1.7953395   -1.7953395   -1.1052276  0.033035579   -1.7953395   0.69011193   463123 
  254000   0.59776643   -1.7959692   -1.7959692   -1.1056138  0.034106725   -1.7959692   0.69035542   463111 
  255000   0.59882013   -1.7969726   -1.7969726   -1.1053824   0.03051163   -1.7969726   0.69159025   463099 
  256000   0.59762784   -1.7963007   -1.7963007   -1.1060711  0.033587867   -1.7963007   0.69022965   463088 
  257000   0.59747507   -1.7959953   -1.7959953   -1.1059242  0.034463727   -1.7959953   0.69007109   463076 
  258000   0.59784671   -1.7963049   -1.7963049   -1.1057867  0.030160154   -1.7963049   0.69051822   463064 
  259000   0.59742771   -1.7963338   -1.7963338   -1.1062816  0.030410307   -1.7963338   0.69005216   463052 
  260000   0.59749897   -1.7961091   -1.7961091   -1.1059582  0.032503137   -1.7961091   0.69015086   463041 
  261000   0.59714048   -1.7962415   -1.7962415   -1.1064868   0.03546631   -1.7962415   0.68975465   463029 
  262000   0.59713263   -1.7950286   -1.7950286   -1.1052652  0.039132661   -1.7950286   0.68976346   463017 
  263000   0.59768899   -1.7966258   -1.7966258   -1.1062018  0.037533569   -1.7966258   0.69042402   463005 
  264000   0.59837908   -1.7969907   -1.7969907   -1.1057531  0.033081501   -1.7969907    0.6912376   462994 
  265000   0.59903457   -1.7978357   -1.7978357   -1.1058229   0.03299182   -1.7978357   0.69201275   462982 
  266000   0.59876363    -1.797601    -1.797601   -1.1058833  0.035886902    -1.797601   0.69171768   462970 
  267000   0.59788101   -1.7976948   -1.7976948   -1.1069788  0.038373221   -1.7976948   0.69071595   462958 
  268000    0.5979545   -1.7972221   -1.7972221   -1.1064049  0.039096484   -1.7972221   0.69081726   462947 
  269000   0.59796026   -1.7982931   -1.7982931   -1.1074513  0.036937311   -1.7982931   0.69084183   462935 
  270000   0.59770343   -1.7973958   -1.7973958   -1.1068328   0.03252963   -1.7973958     0.690563   462923 
  271000   0.59821359   -1.7976849   -1.7976849   -1.1065146  0.031008813   -1.7976849   0.69117034   462911 
  272000   0.59777686   -1.7971445   -1.7971445   -1.1064609  0.037051307   -1.7971445   0.69068365   462899 
  273000    0.5972936   -1.7972965   -1.7972965   -1.1071548  0.034903298   -1.7972965   0.69014168   462888 
  274000   0.59649567   -1.7957436   -1.7957436    -1.106506  0.038236863   -1.7957436   0.68923758   462876 
  275000   0.59761314    -1.797288    -1.797288   -1.1067413  0.029723434    -1.797288   0.69054669   462864 
  276000   0.59811433   -1.7982024   -1.7982024   -1.1070587  0.031150618   -1.7982024   0.69114374   462852 
  277000   0.59781346   -1.7977569   -1.7977569   -1.1069444  0.034908231   -1.7977569    0.6908125   462841 
  278000   0.59849807   -1.7985218   -1.7985218   -1.1069002  0.035084108   -1.7985218   0.69162154   462829 
  279000   0.59825997   -1.7980506   -1.7980506   -1.1066863  0.038893357   -1.7980506   0.69136431   462817 
  280000   0.59652817   -1.7964385   -1.7964385   -1.1070576  0.034889285   -1.7964385   0.68938088   462805 
  281000   0.59725741   -1.7981493   -1.7981493   -1.1079093  0.031680236   -1.7981493   0.69024003   462794 
  282000   0.59668887   -1.7970976   -1.7970976   -1.1074968  0.034466417   -1.7970976   0.68960086   462782 
  283000   0.59593967   -1.7961809   -1.7961809    -1.107428  0.034980453   -1.7961809   0.68875286   462770 
  284000   0.59536643    -1.795196    -1.795196   -1.1070878  0.038838977    -1.795196   0.68810819   462758 
  285000   0.59753904   -1.7974537   -1.7974537    -1.106818  0.037647363   -1.7974537   0.69063565   462747 
  286000   0.59731644   -1.7974106   -1.7974106   -1.1070143  0.035175319   -1.7974106   0.69039627   462735 
  287000   0.59726422   -1.7970827   -1.7970827   -1.1067289  0.039076924   -1.7970827   0.69035381   462723 
  288000   0.59810334   -1.7984186   -1.7984186   -1.1070769  0.035497567   -1.7984186   0.69134165   462711 
  289000   0.59681551   -1.7965258   -1.7965258   -1.1066549  0.034039931   -1.7965258   0.68987095   462699 
  290000   0.59609081   -1.7963625   -1.7963625   -1.1073129  0.039411541   -1.7963625   0.68904963   462688 
  291000   0.59816165   -1.7986804   -1.7986804    -1.107219  0.034475361   -1.7986804   0.69146135   462676 
  292000   0.59674996   -1.7965865   -1.7965865   -1.1067391  0.036254015   -1.7965865   0.68984735   462664 
  293000   0.59649722   -1.7961881   -1.7961881    -1.106615  0.037557504   -1.7961881   0.68957307   462652 
  294000   0.59540391   -1.7956663   -1.7956663   -1.1073407  0.031722634   -1.7956663   0.68832554   462641 
  295000    0.5955448   -1.7967322   -1.7967322   -1.1082259  0.035228102   -1.7967322   0.68850627   462629 
  296000   0.59477192   -1.7961827   -1.7961827   -1.1085521  0.027621505   -1.7961827   0.68763058   462617 
  297000   0.59515245    -1.796663    -1.796663   -1.1085746  0.029941838    -1.796663   0.68808838   462605 
  298000   0.59558837   -1.7972023   -1.7972023   -1.1085936  0.034160511   -1.7972023   0.68860874   462594 
  299000   0.59626025   -1.7971538   -1.7971538   -1.1077504  0.033671161   -1.7971538   0.68940344   462582 
  300000   0.59568361   -1.7965052   -1.7965052   -1.1077507  0.036354407   -1.7965052   0.68875458   462570 
  301000   0.59593223   -1.7968786   -1.7968786   -1.1078186  0.032877726   -1.7968786   0.68905993   462558 
  302000   0.59656415    -1.796776    -1.796776    -1.106969  0.032798842    -1.796776     0.689807   462547 
  303000   0.59556188   -1.7957347   -1.7957347   -1.1070688  0.035998208   -1.7957347   0.68866594   462535 
  304000   0.59641723   -1.7968842   -1.7968842   -1.1072112   0.03252116   -1.7968842   0.68967291   462523 
  305000   0.59687547   -1.7973398   -1.7973398   -1.1071191  0.036903738   -1.7973398   0.69022071   462511 
  306000   0.59681252    -1.796792    -1.796792   -1.1066262  0.035381399    -1.796792   0.69016581   462499 
  307000   0.59635102   -1.7977777   -1.7977777   -1.1081291  0.031078928   -1.7977777   0.68964853   462488 
  308000   0.59539686   -1.7976658   -1.7976658   -1.1091029  0.039046529   -1.7976658   0.68856296   462476 
  309000   0.59504468   -1.7975981   -1.7975981   -1.1094245  0.037209325   -1.7975981   0.68817353   462464 
  310000   0.59638508   -1.7983406   -1.7983406    -1.108599  0.033150045   -1.7983406    0.6897416   462452 
  311000   0.59513449   -1.7969078   -1.7969078   -1.1085962  0.038114758   -1.7969078   0.68831162   462441 
  312000   0.59574461   -1.7981886   -1.7981886   -1.1091535  0.032255048   -1.7981886   0.68903515   462429 
  313000   0.59607375   -1.7981334   -1.7981334   -1.1086997   0.03625135   -1.7981334   0.68943372   462417 
  314000   0.59566566   -1.7972833   -1.7972833   -1.1083037  0.034686275   -1.7972833   0.68897959   462405 
  315000   0.59639774    -1.797984    -1.797984   -1.1081412  0.032698821    -1.797984   0.68984277   462394 
  316000   0.59736248   -1.7987404   -1.7987404   -1.1077638  0.037925559   -1.7987404   0.69097659   462382 
  317000   0.59691081   -1.7983111   -1.7983111   -1.1078391  0.034250189   -1.7983111   0.69047207   462370 
  318000   0.59816825   -1.7997652   -1.7997652   -1.1078206  0.038300207   -1.7997652   0.69194456   462358 
  319000   0.59787607   -1.7986516   -1.7986516   -1.1070286  0.037260081   -1.7986516   0.69162302   462347 
  320000    0.5978728   -1.7991482   -1.7991482   -1.1075111  0.029734319   -1.7991482   0.69163719   462335 
  321000   0.59690615   -1.7976222   -1.7976222   -1.1070854   0.02985294   -1.7976222   0.69053687   462323 
  322000   0.59791798   -1.7999761   -1.7999761   -1.1082507  0.029118758   -1.7999761   0.69172536   462311 
  323000   0.59543895   -1.7968132   -1.7968132   -1.1079379  0.035969819   -1.7968132   0.68887528   462299 
  324000   0.59564286    -1.796962    -1.796962   -1.1078344  0.029405904    -1.796962   0.68912758   462288 
  325000   0.59523658   -1.7972616   -1.7972616   -1.1085862  0.031875828   -1.7972616   0.68867542   462276 
  326000   0.59610044   -1.7980531   -1.7980531   -1.1083604   0.03386539   -1.7980531   0.68969279   462264 
  327000   0.59559977   -1.7980382   -1.7980382   -1.1089068  0.034524896   -1.7980382   0.68913139   462252 
  328000   0.59448804    -1.796385    -1.796385   -1.1085236  0.033738219    -1.796385   0.68786145   462241 
  329000   0.59443862    -1.797151    -1.797151   -1.1093288  0.031665944    -1.797151   0.68782213   462229 
  330000   0.59377719   -1.7965406   -1.7965406    -1.109466   0.02706507   -1.7965406   0.68707463   462217 
  331000   0.59480941   -1.7975745   -1.7975745   -1.1092876  0.030900512   -1.7975745   0.68828691   462205 
  332000   0.59429709   -1.7970256   -1.7970256   -1.1093151  0.033749728   -1.7970256   0.68771044   462194 
  333000   0.59481027   -1.7971413   -1.7971413   -1.1088192  0.030224383   -1.7971413   0.68832216   462182 
  334000   0.59465201   -1.7972244   -1.7972244   -1.1090676  0.028573046   -1.7972244   0.68815688   462170 
  335000   0.59572569   -1.7988306   -1.7988306   -1.1094133  0.033690994   -1.7988306   0.68941729   462158 
  336000   0.59457961   -1.7977084   -1.7977084    -1.109601  0.027610087   -1.7977084   0.68810734   462147 
  337000   0.59523191   -1.7981574   -1.7981574   -1.1092772   0.03098346   -1.7981574   0.68888014   462135 
  338000   0.59544785   -1.7988302   -1.7988302   -1.1096823  0.032488182   -1.7988302   0.68914794   462123 
  339000   0.59625576   -1.8001399   -1.8001399    -1.110039  0.031044547   -1.8001399   0.69010091   462111 
  340000   0.59536217   -1.7992198   -1.7992198   -1.1101353    0.0362514   -1.7992198   0.68908456   462099 
  341000   0.59498874   -1.7988111   -1.7988111   -1.1101424  0.034664689   -1.7988111   0.68866875   462088 
  342000   0.59589107   -1.7993557   -1.7993557   -1.1096246  0.030703836   -1.7993557   0.68973105   462076 
  343000   0.59587305   -1.8003093   -1.8003093   -1.1105812  0.027979327   -1.8003093   0.68972811   462064 
  344000   0.59441099    -1.798886    -1.798886   -1.1108324  0.038197914    -1.798886   0.68805363   462052 
  345000   0.59515411   -1.7998319   -1.7998319   -1.1109017  0.031216384   -1.7998319   0.68893022   462041 
  346000   0.59586833   -1.8004382   -1.8004382   -1.1106633  0.035831715   -1.8004382    0.6897749   462029 
  347000   0.59570317   -1.8000699   -1.8000699   -1.1104683  0.035099092   -1.8000699   0.68960162   462017 
  348000   0.59628585   -1.8000956   -1.8000956   -1.1098015  0.034336272   -1.8000956   0.69029407   462005 
  349000   0.59726835    -1.800306    -1.800306   -1.1088581  0.036930148    -1.800306   0.69144794   461994 
  350000   0.59613673   -1.7994121   -1.7994121   -1.1092563  0.038108065   -1.7994121    0.6901558   461982 
  351000   0.59711059   -1.8005446   -1.8005446   -1.1092434  0.035547133   -1.8005446   0.69130121   461970 
  352000   0.59686796   -1.7993374   -1.7993374   -1.1082991  0.042126047   -1.7993374   0.69103826   461958 
  353000   0.59651986   -1.7995964   -1.7995964   -1.1089447  0.035654399   -1.7995964   0.69065168   461947 
  354000   0.59629616   -1.8003681   -1.8003681   -1.1099575   0.03231373   -1.8003681   0.69041061   461935 
  355000   0.59687035   -1.8006351   -1.8006351   -1.1095417  0.037819374   -1.8006351   0.69109338   461923 
  356000   0.59601496    -1.799334    -1.799334   -1.1092131  0.030640597    -1.799334   0.69012089   461911 
  357000   0.59568258   -1.7998892   -1.7998892   -1.1101353  0.028677508   -1.7998892   0.68975394   461899 
  358000   0.59413598    -1.797965    -1.797965   -1.1099855   0.03804982    -1.797965   0.68797948   461888 
  359000   0.59424315    -1.798146    -1.798146   -1.1100245  0.036738437    -1.798146   0.68812146   461876 
  360000   0.59532114   -1.7993568   -1.7993568   -1.1099691   0.03494961   -1.7993568   0.68938767   461864 
  361000    0.5951711   -1.7989888   -1.7989888   -1.1097569  0.033818563   -1.7989888   0.68923183   461852 
  362000   0.59496462   -1.7989509   -1.7989509   -1.1099417  0.036373885   -1.7989509   0.68900913   461841 
  363000   0.59407226    -1.797714    -1.797714   -1.1097204  0.028917543    -1.797714   0.68799359   461829 
  364000   0.59445083   -1.7984209   -1.7984209    -1.109971   0.03528943   -1.7984209    0.6884499   461817 
  365000   0.59541026   -1.7990599   -1.7990599   -1.1094809  0.034257415   -1.7990599   0.68957896   461805 
  366000    0.5948311   -1.7984426   -1.7984426    -1.109518  0.036448121   -1.7984426   0.68892461   461794 
  367000   0.59533356   -1.7991086   -1.7991086   -1.1095841  0.035913499   -1.7991086   0.68952446   461782 
  368000   0.59465865   -1.7982961   -1.7982961   -1.1095354  0.032889229   -1.7982961   0.68876067   461770 
  369000    0.5938399   -1.7980803   -1.7980803     -1.11025  0.024620722   -1.7980803   0.68783023   461758 
  370000   0.59380086   -1.7973955   -1.7973955   -1.1095941  0.032538394   -1.7973955    0.6878014   461747 
  371000   0.59394863    -1.797352    -1.797352   -1.1093616  0.033958141    -1.797352   0.68799044   461735 
  372000   0.59509451   -1.7984647   -1.7984647    -1.109129  0.032526423   -1.7984647   0.68933566   461723 
  373000   0.59340398   -1.7977773   -1.7977773    -1.110382  0.033640744   -1.7977773   0.68739528   461711 
  374000   0.59408602   -1.7988241   -1.7988241   -1.1106208  0.032354938   -1.7988241   0.68820324   461699 
  375000   0.59385484   -1.7980041   -1.7980041   -1.1100523  0.030260785   -1.7980041   0.68795183   461688 
  376000   0.59433642   -1.7979828   -1.7979828   -1.1094552   0.03304196   -1.7979828   0.68852761   461676 
  377000   0.59421574    -1.797824    -1.797824   -1.1094183  0.035663464    -1.797824   0.68840571   461664 
  378000   0.59611242   -1.7990617   -1.7990617   -1.1084408  0.032738469   -1.7990617   0.69062098   461652 
  379000   0.59478203   -1.7985991   -1.7985991   -1.1095031  0.033819164   -1.7985991   0.68909608   461641 
  380000    0.5961079   -1.7994011   -1.7994011   -1.1087509  0.034643682   -1.7994011   0.69065015   461629 
  381000   0.59577513   -1.7987065   -1.7987065    -1.108424  0.034350099   -1.7987065   0.69028255   461617 
  382000   0.59513022    -1.798807    -1.798807   -1.1092538  0.037290753    -1.798807   0.68955325   461605 
  383000    0.5941903   -1.7980363   -1.7980363   -1.1095557  0.034404929   -1.7980363   0.68848062   461594 
  384000   0.59428953   -1.7986312   -1.7986312   -1.1100177  0.033701478   -1.7986312   0.68861349   461582 
  385000    0.5937244   -1.7983885   -1.7983885   -1.1104119  0.032409309   -1.7983885   0.68797656   461570 
  386000   0.59307122   -1.7973953   -1.7973953   -1.1101577  0.033536227   -1.7973953   0.68723756   461558 
  387000   0.59329096   -1.7979761   -1.7979761   -1.1104676  0.033342676   -1.7979761   0.68750857   461547 
  388000   0.59353884   -1.7984512   -1.7984512   -1.1106375  0.033673795   -1.7984512    0.6878137   461535 
  389000   0.59435572   -1.7994552   -1.7994552   -1.1106769  0.034039374   -1.7994552   0.68877823   461523 
  390000   0.59256562   -1.7984886   -1.7984886    -1.111767  0.036178882   -1.7984886   0.68672161   461511 
  391000   0.59385683   -1.7996138   -1.7996138   -1.1113779  0.035030977   -1.7996138   0.68823588   461499 
  392000   0.59354507   -1.7991026   -1.7991026   -1.1112116  0.034107524   -1.7991026   0.68789096   461488 
  393000   0.59418622   -1.7999304   -1.7999304   -1.1112785  0.031155795   -1.7999304   0.68865194   461476 
  394000   0.59400881   -1.7996155   -1.7996155   -1.1111513  0.032565415   -1.7996155   0.68846422   461464 
  395000   0.59351894   -1.7997226   -1.7997226   -1.1118082  0.038423471   -1.7997226   0.68791434   461452 
  396000   0.59362168   -1.7998651   -1.7998651   -1.1118152  0.032434075   -1.7998651   0.68804983   461441 
  397000   0.59352429   -1.7995844   -1.7995844   -1.1116295  0.033395876   -1.7995844   0.68795484   461429 
  398000   0.59426692   -1.8004115   -1.8004115    -1.111578  0.031765768   -1.8004115   0.68883353   461417 
  399000   0.59369153   -1.8000194   -1.8000194   -1.1118349    0.0322174   -1.8000194   0.68818448   461405 
  400000   0.59406852   -1.8007574   -1.8007574   -1.1121195  0.029437206   -1.8007574   0.68863789   461394 
  401000   0.59304073   -1.7998703   -1.7998703    -1.112406  0.026652374   -1.7998703   0.68746436   461382 
  402000    0.5937638   -1.8001446   -1.8001446   -1.1118241  0.036515321   -1.8001446   0.68832047   461370 
  403000   0.59321815   -1.7995543   -1.7995543   -1.1118485   0.03651347   -1.7995543   0.68770581   461358 
  404000   0.59457892   -1.8014316   -1.8014316   -1.1121319  0.034092684   -1.8014316   0.68929975   461347 
  405000   0.59368487   -1.8006167   -1.8006167   -1.1123355    0.0358849   -1.8006167   0.68828118   461335 
  406000   0.59373514   -1.8008194   -1.8008194    -1.112462  0.034472116   -1.8008194   0.68835736   461323 
  407000   0.59458877   -1.8015584   -1.8015584   -1.1121935  0.037190351   -1.8015584   0.68936497   461311 
  408000   0.59574503   -1.8022309   -1.8022309   -1.1115074  0.037855287   -1.8022309   0.69072349   461299 
  409000   0.59419758   -1.8009525   -1.8009525   -1.1120067    0.0367607   -1.8009525   0.68894577   461288 
  410000   0.59432417    -1.800745    -1.800745   -1.1116345  0.035205463    -1.800745   0.68911047   461276 
  411000   0.59502177   -1.8017857   -1.8017857   -1.1118484  0.036478359   -1.8017857   0.68993728   461264 
  412000   0.59407208   -1.8010741   -1.8010741   -1.1122201  0.035151068   -1.8010741   0.68885402   461252 
  413000   0.59306051   -1.7995789   -1.7995789   -1.1118815  0.033790943   -1.7995789   0.68769746   461241 
  414000   0.59538712   -1.8019448   -1.8019448   -1.1115315  0.034752127   -1.8019448   0.69041329   461229 
  415000   0.59480226   -1.8015908   -1.8015908   -1.1118378  0.035461565   -1.8015908   0.68975303   461217 
  416000    0.5941308   -1.8006545   -1.8006545   -1.1116622  0.036302278   -1.8006545   0.68899232   461205 
  417000   0.59392022   -1.8004459   -1.8004459   -1.1116814  0.037807186   -1.8004459   0.68876454   461194 
  418000   0.59395765   -1.8006228   -1.8006228   -1.1117969  0.031608611   -1.8006228   0.68882587   461182 
  419000     0.593923   -1.8004923   -1.8004923   -1.1116887  0.035258276   -1.8004923   0.68880361   461170 
  420000   0.59466942   -1.8003505   -1.8003505   -1.1106633  0.033331592   -1.8003505   0.68968722   461158 
  421000   0.59395037   -1.8004629   -1.8004629   -1.1115932  0.031466772   -1.8004629   0.68886971   461147 
  422000   0.59396816   -1.8003283   -1.8003283     -1.11142  0.029632682   -1.8003283   0.68890827   461135 
  423000   0.59411405   -1.8001817   -1.8001817   -1.1110863   0.03458269   -1.8001817   0.68909541   461123 
  424000   0.59380132   -1.7998903   -1.7998903   -1.1111397   0.03268369   -1.7998903    0.6887506   461111 
  425000   0.59262627   -1.7985737   -1.7985737   -1.1111682  0.034011202   -1.7985737   0.68740555   461099 
  426000   0.59266139   -1.7986708   -1.7986708   -1.1112081  0.030900255   -1.7986708   0.68746269   461088 
  427000   0.59390075   -1.7993671   -1.7993671   -1.1104489  0.029425061   -1.7993671   0.68891822   461076 
  428000   0.59307364   -1.7993362   -1.7993362   -1.1113596  0.035161226   -1.7993362    0.6879767   461064 
  429000   0.59277307   -1.7993237   -1.7993237   -1.1116778  0.027741877   -1.7993237   0.68764592   461052 
  430000   0.59242961   -1.7987649   -1.7987649    -1.111501  0.028344908   -1.7987649   0.68726389   461041 
  431000   0.59351983   -1.8001997   -1.8001997   -1.1116531   0.03291743   -1.8001997   0.68854655   461029 
  432000   0.59352367   -1.7997052   -1.7997052   -1.1111363   0.02888821   -1.7997052   0.68856892   461017 
  433000    0.5934731   -1.7992848   -1.7992848   -1.1107566  0.032204921   -1.7992848   0.68852818   461005 
  434000   0.59276706   -1.7991525   -1.7991525   -1.1114271  0.029086977   -1.7991525   0.68772547   460994 
  435000   0.59262816   -1.7982632   -1.7982632    -1.110681  0.034052159   -1.7982632   0.68758221   460982 
  436000   0.59383304   -1.7999373   -1.7999373   -1.1109392  0.032978531   -1.7999373   0.68899808   460970 
  437000   0.59221763   -1.7981586   -1.7981586   -1.1110169  0.037266692   -1.7981586   0.68714167   460958 
  438000   0.59206654   -1.7985295   -1.7985295   -1.1115467  0.033617826   -1.7985295   0.68698276   460947 
  439000   0.59306412   -1.7987295   -1.7987295   -1.1105713  0.033471108   -1.7987295   0.68815819   460935 
  440000   0.59245965   -1.7985679   -1.7985679   -1.1110932  0.036161729   -1.7985679   0.68747469   460923 
  441000   0.59251251    -1.799521    -1.799521    -1.111967  0.034724966    -1.799521   0.68755393   460911 
  442000   0.59276877   -1.8002575   -1.8002575   -1.1123883  0.033637872   -1.8002575   0.68786921   460899 
  443000   0.59346861     -1.80089     -1.80089   -1.1121922  0.030633881     -1.80089   0.68869775   460888 
  444000   0.59304986   -1.8007985   -1.8007985   -1.1125688  0.031248692   -1.8007985   0.68822973   460876 
  445000   0.59316354   -1.8010113   -1.8010113   -1.1126317  0.032728627   -1.8010113   0.68837958   460864 
  446000   0.59316603   -1.8008214   -1.8008214    -1.112421  0.035071459   -1.8008214    0.6884004   460852 
  447000   0.59364802   -1.8008083   -1.8008083   -1.1118321   0.03430171   -1.8008083   0.68897622   460841 
  448000   0.59389025   -1.8009316   -1.8009316   -1.1116563  0.036941451   -1.8009316   0.68927529   460829 
  449000   0.59398157   -1.8020987   -1.8020987   -1.1126995  0.032294639   -1.8020987   0.68939923   460817 
  450000   0.59338015   -1.8014201   -1.8014201    -1.112701  0.035965862   -1.8014201   0.68871913   460805 
  451000   0.59339937   -1.8008433   -1.8008433   -1.1120855  0.038081066   -1.8008433   0.68875788   460794 
  452000   0.59302451   -1.8012578   -1.8012578    -1.112917   0.03655752   -1.8012578   0.68834071   460782 
  453000    0.5929503   -1.8014291   -1.8014291   -1.1131566  0.034766735   -1.8014291   0.68827249   460770 
  454000   0.59413984    -1.802017    -1.802017   -1.1123458  0.035067928    -1.802017   0.68967123   460758 
  455000   0.59229102   -1.7998734   -1.7998734   -1.1123319  0.036622584   -1.7998734   0.68754155   460747 
  456000   0.59263237   -1.8011042   -1.8011042   -1.1131485  0.033751488   -1.8011042   0.68795571   460735 
  457000   0.59214722   -1.8004862   -1.8004862   -1.1130758  0.028996754   -1.8004862   0.68741043   460723 
  458000   0.59265913   -1.8008437   -1.8008437   -1.1128211  0.031568747   -1.8008437   0.68802262   460711 
  459000   0.59316676   -1.8009721   -1.8009721   -1.1123422  0.038513186   -1.8009721   0.68862986   460699 
  460000   0.59307081   -1.8009967   -1.8009967   -1.1124618  0.035973821   -1.8009967   0.68853491   460688 
  461000   0.59344822   -1.8013749   -1.8013749   -1.1123839  0.029643231   -1.8013749   0.68899102   460676 
  462000   0.59294391   -1.8008111   -1.8008111   -1.1123876   0.03066268   -1.8008111   0.68842345   460664 
  463000   0.59336159   -1.8015637   -1.8015637   -1.1126374  0.032155355   -1.8015637   0.68892633   460652 
  464000   0.59244353   -1.8004075   -1.8004075   -1.1125307  0.036120003   -1.8004075   0.68787684   460641 
  465000    0.5925754   -1.8009237   -1.8009237   -1.1128758  0.028782062   -1.8009237   0.68804788   460629 
  466000   0.59179098   -1.7997717   -1.7997717   -1.1126167  0.036003574   -1.7997717   0.68715498   460617 
  467000   0.59114921   -1.7996967   -1.7996967    -1.113269  0.031572427   -1.7996967   0.68642766   460605 
  468000   0.59165041   -1.8008042   -1.8008042   -1.1137781   0.02351388   -1.8008042   0.68702606   460594 
  469000   0.59169346   -1.8006666   -1.8006666   -1.1135726  0.032757615   -1.8006666   0.68709395   460582 
  470000   0.59181865    -1.801157    -1.801157   -1.1138998  0.031654527    -1.801157   0.68725723   460570 
  471000   0.59142579   -1.8010179   -1.8010179    -1.114199  0.034431515   -1.8010179   0.68681892   460558 
  472000   0.59137185   -1.8000851   -1.8000851   -1.1133125  0.029609791   -1.8000851   0.68677267   460547 
  473000    0.5927408   -1.8008608   -1.8008608   -1.1124804  0.027325903   -1.8008608    0.6883804   460535 
  474000   0.59097763   -1.7987934   -1.7987934   -1.1124428  0.030183943   -1.7987934   0.68635062   460523 
  475000   0.59126122   -1.7995248   -1.7995248   -1.1128269  0.029389014   -1.7995248   0.68669787   460511 
  476000   0.59232274   -1.8008501   -1.8008501   -1.1129015  0.029364095   -1.8008501   0.68794866   460499 
  477000   0.59287182   -1.8009525   -1.8009525   -1.1123497    0.0305496   -1.8009525   0.68860284   460488 
  478000   0.59253675   -1.7999556   -1.7999556    -1.111724  0.038089572   -1.7999556    0.6882316   460476 
  479000   0.59226661   -1.8003839   -1.8003839   -1.1124481  0.031178877   -1.8003839   0.68793576   460464 
  480000   0.59249279   -1.8012166   -1.8012166   -1.1130002  0.029324664   -1.8012166   0.68821641   460452 
  481000   0.59092161   -1.8003908   -1.8003908    -1.113983  0.033250026   -1.8003908   0.68640778   460441 
  482000   0.59135706    -1.799765    -1.799765   -1.1128335  0.030107349    -1.799765   0.68693151   460429 
  483000   0.59306159   -1.8011232   -1.8011232   -1.1121937  0.033279244   -1.8011232   0.68892947   460417 
  484000   0.59191399   -1.7999893   -1.7999893    -1.112375  0.033789387   -1.7999893   0.68761428   460405 
  485000    0.5925585    -1.800903    -1.800903   -1.1125236  0.027986609    -1.800903   0.68837945   460394 
  486000   0.59235769   -1.8004613   -1.8004613   -1.1122972   0.03195162   -1.8004613    0.6881641   460382 
  487000   0.59181023   -1.8001041   -1.8001041   -1.1125581  0.029771342   -1.8001041   0.68754602   460370 
  488000   0.59242831   -1.8005247   -1.8005247   -1.1122426  0.033759642   -1.8005247   0.68828202   460358 
  489000   0.59211038   -1.8001767   -1.8001767   -1.1122476  0.033738963   -1.8001767   0.68792908   460347 
  490000   0.59258728   -1.8004095   -1.8004095   -1.1119084  0.036360815   -1.8004095    0.6885011   460335 
  491000   0.59405939   -1.8022501   -1.8022501   -1.1120206  0.031331612   -1.8022501   0.69022949   460323 
  492000   0.59285482   -1.8014205   -1.8014205   -1.1125726  0.032941506   -1.8014205   0.68884786   460311 
  493000   0.59156321   -1.8000461   -1.8000461   -1.1126811  0.033336719   -1.8000461   0.68736504   460299 
  494000   0.59214231   -1.8008184   -1.8008184    -1.112764  0.032079589   -1.8008184   0.68805437   460288 
  495000   0.59118032   -1.8007747   -1.8007747   -1.1138202  0.032498661   -1.8007747   0.68695447   460276 
  496000   0.59081633   -1.8001274   -1.8001274    -1.113578   0.03113335   -1.8001274   0.68654942   460264 
  497000   0.59137596   -1.8006521   -1.8006521   -1.1134345   0.02948196   -1.8006521   0.68721764   460252 
  498000    0.5905514   -1.7993643   -1.7993643   -1.1130884  0.031418105   -1.7993643   0.68627585   460241 
  499000   0.59226813   -1.8010804   -1.8010804   -1.1127916  0.035313986   -1.8010804    0.6882888   460229 
  500000   0.59196607   -1.8004932   -1.8004932   -1.1125375  0.034077891   -1.8004932    0.6879557   460217 
  501000   0.59256657   -1.8011266   -1.8011266   -1.1124551  0.027907714   -1.8011266   0.68867153   460205 
  502000   0.59224054   -1.8012431   -1.8012431   -1.1129341  0.028262556   -1.8012431   0.68830908   460194 
  503000   0.59114871   -1.8002038   -1.8002038   -1.1131457  0.034054371   -1.8002038   0.68705805   460182 
  504000   0.59144435   -1.8007569   -1.8007569   -1.1133373  0.029425241   -1.8007569   0.68741958   460170 
  505000    0.5909486   -1.8009113   -1.8009113     -1.11405   0.02961677   -1.8009113   0.68686129   460158 
  506000    0.5917953   -1.8021262   -1.8021262   -1.1142644  0.032924732   -1.8021262   0.68786186   460147 
  507000   0.59204834   -1.8025393   -1.8025393   -1.1143654   0.03469485   -1.8025393   0.68817392   460135 
  508000   0.59140035   -1.8023091   -1.8023091   -1.1148704  0.031584173   -1.8023091   0.68743865   460123 
  509000   0.59096769   -1.8022974   -1.8022974   -1.1153438  0.033123455   -1.8022974   0.68695366   460111 
  510000   0.59051525   -1.8016733   -1.8016733   -1.1152277   0.03355389   -1.8016733   0.68644563   460099 
  511000   0.59036572   -1.8013992   -1.8013992    -1.115111  0.035096841   -1.8013992   0.68628821   460088 
  512000   0.58992448   -1.8007162   -1.8007162    -1.114923  0.035126097   -1.8007162   0.68579317   460076 
  513000   0.59024204   -1.8014073   -1.8014073    -1.115227   0.03620018   -1.8014073   0.68618024   460064 
  514000   0.59098897   -1.8020188   -1.8020188   -1.1149523  0.037594396   -1.8020188   0.68706649   460052 
  515000   0.59191912   -1.8019585   -1.8019585   -1.1137942  0.034004104   -1.8019585   0.68816431   460041 
  516000   0.59146777   -1.8020875   -1.8020875     -1.11443  0.038855125   -1.8020875   0.68765751   460029 
  517000   0.59219113   -1.8036393   -1.8036393   -1.1151228  0.035180781   -1.8036393   0.68851647   460017 
  518000   0.59173915   -1.8029209   -1.8029209    -1.114912  0.034231016   -1.8029209   0.68800892   460005 
  519000   0.59164199   -1.8028686   -1.8028686   -1.1149562  0.033935411   -1.8028686   0.68791241   459994 
  520000   0.59166029   -1.8025688   -1.8025688   -1.1146171  0.033079336   -1.8025688   0.68795162   459982 
  521000   0.59207453   -1.8029952   -1.8029952   -1.1145439  0.032592726   -1.8029952   0.68845124   459970 
  522000   0.59207558   -1.8030573   -1.8030573   -1.1145869  0.033158107   -1.8030573   0.68847042   459958 
  523000   0.59079497   -1.8029361   -1.8029361   -1.1159384  0.035420477   -1.8029361   0.68699775   459947 
  524000   0.59266794   -1.8041952   -1.8041952   -1.1150015  0.035662347   -1.8041952   0.68919369   459935 
  525000   0.59167698   -1.8032063   -1.8032063    -1.115147  0.033811215   -1.8032063   0.68805928   459923 
  526000   0.59160183   -1.8025954   -1.8025954   -1.1146055  0.037801419   -1.8025954   0.68798984   459911 
  527000   0.59122319   -1.8034387   -1.8034387   -1.1158712  0.029904033   -1.8034387   0.68756745   459899 
  528000   0.59028286   -1.8016341   -1.8016341   -1.1151438  0.035482565   -1.8016341   0.68649031   459888 
  529000   0.59113844   -1.8028684   -1.8028684   -1.1153651  0.035465345   -1.8028684   0.68750327   459876 
  530000   0.59181827   -1.8032256   -1.8032256   -1.1149138  0.035740501   -1.8032256   0.68831189   459864 
  531000   0.59115593   -1.8023879   -1.8023879   -1.1148284  0.033065534   -1.8023879    0.6875595   459852 
  532000   0.59163999   -1.8024647   -1.8024647   -1.1143258  0.031793952   -1.8024647   0.68813896   459841 
  533000   0.59079989   -1.8024567   -1.8024567    -1.115277  0.029455886   -1.8024567   0.68717977   459829 
  534000   0.59061869   -1.8021611   -1.8021611   -1.1151742  0.034689837   -1.8021611   0.68698694   459817 
  535000   0.59146965   -1.8030995   -1.8030995   -1.1151048  0.032036921   -1.8030995    0.6879947   459805 
  536000   0.59002991   -1.8011856   -1.8011856   -1.1148491  0.032167104   -1.8011856   0.68633642   459794 
  537000    0.5901213   -1.8014175   -1.8014175   -1.1149569  0.033268208   -1.8014175   0.68646064   459782 
  538000   0.58943558   -1.8002555   -1.8002555   -1.1145746  0.035813445   -1.8002555   0.68568087   459770 
  539000    0.5902424    -1.800865    -1.800865   -1.1142277  0.032846104    -1.800865   0.68663735   459758 
  540000   0.59081487   -1.8015449   -1.8015449   -1.1142251  0.036701724   -1.8015449   0.68731976   459747 
  541000   0.59162745   -1.8022395   -1.8022395   -1.1139564  0.033327924   -1.8022395   0.68828304   459735 
  542000   0.58952329   -1.7998441   -1.7998441   -1.1139911  0.037451089   -1.7998441   0.68585301   459723 
  543000   0.59056809   -1.8013625   -1.8013625    -1.114276  0.028614273   -1.8013625   0.68708648   459711 
  544000   0.59021872   -1.8017009   -1.8017009   -1.1150029  0.024210722   -1.8017009   0.68669793   459699 
  545000   0.59030528   -1.8019047   -1.8019047   -1.1150897  0.031031256   -1.8019047   0.68681507   459688 
  546000   0.59023337   -1.8018248   -1.8018248   -1.1150755  0.028828352   -1.8018248   0.68674933   459676 
  547000   0.59017115   -1.8024089   -1.8024089    -1.115714  0.030413756   -1.8024089   0.68669486   459664 
  548000   0.58904454   -1.8013084   -1.8013084   -1.1159065  0.031324788   -1.8013084   0.68540189   459652 
  549000   0.59007169   -1.8022897   -1.8022897   -1.1156762  0.031944789   -1.8022897   0.68661349   459641 
  550000   0.59064472   -1.8027419   -1.8027419   -1.1154437  0.030082512   -1.8027419   0.68729823   459629 
  551000   0.58952368   -1.8020432   -1.8020432   -1.1160316  0.033399425   -1.8020432   0.68601165   459617 
  552000   0.58934316    -1.801723    -1.801723   -1.1159035  0.034370887    -1.801723   0.68581949   459605 
  553000   0.59029363   -1.8023903   -1.8023903   -1.1154483  0.034377414   -1.8023903   0.68694198   459594 
  554000   0.59054994   -1.8029055   -1.8029055   -1.1156473  0.033891831   -1.8029055   0.68725821   459582 
  555000   0.59072988   -1.8035487   -1.8035487   -1.1160631  0.029130738   -1.8035487   0.68748557   459570 
  556000   0.59049302    -1.802866    -1.802866   -1.1156382  0.032885774    -1.802866   0.68722785   459558 
  557000   0.58902428   -1.8012285   -1.8012285   -1.1156935  0.034836192   -1.8012285   0.68553491   459547 
  558000   0.59122133   -1.8039104   -1.8039104   -1.1158004  0.028560756   -1.8039104   0.68810992   459535 
  559000   0.59122904    -1.803316    -1.803316   -1.1151792  0.031905651    -1.803316   0.68813685   459523 
  560000   0.59131129   -1.8036889   -1.8036889   -1.1154383  0.035104386   -1.8036889   0.68825057   459511 
  561000   0.59069565   -1.8031679   -1.8031679   -1.1156159  0.035721254   -1.8031679   0.68755195   459499 
  562000   0.59133055   -1.8031146   -1.8031146   -1.1148072  0.030302196   -1.8031146   0.68830744   459488 
  563000    0.5896661   -1.8024398   -1.8024398   -1.1160519  0.038371154   -1.8024398   0.68638794   459476 
  564000   0.59077295    -1.803752    -1.803752   -1.1160577   0.03458298    -1.803752   0.68769431   459464 
  565000   0.59053886   -1.8037881   -1.8037881   -1.1163483  0.029666839   -1.8037881   0.68743977   459452 
  566000   0.59037468   -1.8042093   -1.8042093   -1.1169442  0.034449185   -1.8042093    0.6872651   459441 
  567000   0.59059908   -1.8043411   -1.8043411   -1.1167968  0.034561066   -1.8043411   0.68754428   459429 
  568000   0.59041504   -1.8037227   -1.8037227   -1.1163747  0.035509272   -1.8037227   0.68734799   459417 
  569000   0.59015515   -1.8029959   -1.8029959   -1.1159325  0.032441711   -1.8029959   0.68706338   459405 
  570000   0.59055309   -1.8031221   -1.8031221   -1.1155789  0.034331516   -1.8031221   0.68754313   459394 
  571000   0.58967341   -1.8027329   -1.8027329    -1.116196  0.033216594   -1.8027329    0.6865369   459382 
  572000   0.59073886   -1.8033635   -1.8033635   -1.1155682  0.034804104   -1.8033635   0.68779534   459370 
  573000   0.59012974   -1.8024571   -1.8024571    -1.115353  0.033573522   -1.8024571   0.68710409   459358 
  574000   0.59098052   -1.8031838   -1.8031838   -1.1150726  0.026991742   -1.8031838   0.68811115   459347 
  575000   0.59038838   -1.8036055   -1.8036055   -1.1161658  0.035815446   -1.8036055   0.68743965   459335 
  576000   0.58905932   -1.8021706   -1.8021706   -1.1162605  0.037011767   -1.8021706   0.68591003   459323 
  577000   0.58966897   -1.8023624   -1.8023624   -1.1157245  0.031441125   -1.8023624   0.68663786   459311 
  578000   0.59017631   -1.8022317   -1.8022317   -1.1149851  0.034396677   -1.8022317   0.68724658   459299 
  579000   0.59009895      -1.8026      -1.8026    -1.115427   0.03014649      -1.8026   0.68717295   459288 
  580000   0.58913011   -1.8018708   -1.8018708   -1.1158081  0.033714819   -1.8018708   0.68606266   459276 
  581000   0.59049207    -1.803684    -1.803684   -1.1160173  0.032256411    -1.803684   0.68766668   459264 
  582000   0.58972406    -1.802179    -1.802179   -1.1153888  0.029971099    -1.802179   0.68679023   459252 
  583000   0.58899345   -1.8015321   -1.8015321   -1.1155763  0.034817225   -1.8015321   0.68595579   459241 
  584000   0.59050384    -1.803501    -1.803501   -1.1157682  0.035213296    -1.803501    0.6877328   459229 
  585000   0.58976083   -1.8025727   -1.8025727   -1.1156873  0.031668542   -1.8025727   0.68688539   459217 
  586000   0.58890668   -1.8015344   -1.8015344   -1.1156259  0.032812784   -1.8015344    0.6859085   459205 
  587000   0.58942559    -1.802613    -1.802613   -1.1160837   0.02964994    -1.802613   0.68652933   459194 
  588000    0.5890758   -1.8026877   -1.8026877   -1.1165478  0.034389406   -1.8026877   0.68613985   459182 
  589000   0.58906048   -1.8019359   -1.8019359    -1.115796    0.0273868   -1.8019359   0.68613994   459170 
  590000   0.58827552   -1.8017575   -1.8017575    -1.116514   0.03405299   -1.8017575   0.68524352   459158 
  591000   0.58896471   -1.8031277   -1.8031277    -1.117065  0.031232182   -1.8031277   0.68606275   459147 
  592000   0.58970694   -1.8035354   -1.8035354   -1.1165901  0.026980099   -1.8035354    0.6869453   459135 
  593000   0.58840721   -1.8024581   -1.8024581   -1.1170089  0.026600699   -1.8024581   0.68544917   459123 
  594000   0.58871597    -1.802477    -1.802477   -1.1166503  0.038029872    -1.802477   0.68582677   459111 
  595000   0.58882571   -1.8023178   -1.8023178   -1.1163453  0.033265442   -1.8023178   0.68597255   459099 
  596000   0.58847693   -1.8022826   -1.8022826      -1.1167  0.036296993   -1.8022826   0.68558265   459088 
  597000   0.58899364   -1.8028985   -1.8028985   -1.1166959  0.031229593   -1.8028985   0.68620256   459076 
  598000   0.58940951   -1.8034031   -1.8034031   -1.1166981  0.031889892   -1.8034031   0.68670502   459064 
  599000   0.58938067   -1.8030098   -1.8030098   -1.1163205  0.029906132   -1.8030098   0.68668936   459052 
  600000   0.59060176   -1.8044647   -1.8044647   -1.1163362  0.037427927   -1.8044647   0.68812855   459041 
  601000   0.59058981   -1.8044303   -1.8044303   -1.1162977  0.033173904   -1.8044303   0.68813261   459029 
  602000   0.58967802   -1.8039113   -1.8039113   -1.1168231  0.031347201   -1.8039113    0.6870882   459017 
  603000   0.58966974   -1.8046584   -1.8046584   -1.1175619  0.027535147   -1.8046584   0.68709651   459005 
  604000   0.58856106   -1.8043467   -1.8043467   -1.1185256  0.029684725   -1.8043467   0.68582109   458994 
  605000   0.58890046   -1.8047919   -1.8047919   -1.1185574  0.032708921   -1.8047919   0.68623451   458982 
  606000   0.58950969   -1.8051664   -1.8051664    -1.118204  0.032755888   -1.8051664    0.6869624   458970 
  607000    0.5889567   -1.8043817   -1.8043817   -1.1180458  0.037061457   -1.8043817   0.68633594   458958 
  608000   0.58972221   -1.8050206   -1.8050206   -1.1177761  0.031890658   -1.8050206   0.68724449   458947 
  609000   0.58986837   -1.8057328   -1.8057328      -1.1183  0.035721924   -1.8057328   0.68743279   458935 
  610000   0.58939985   -1.8046972   -1.8046972   -1.1177925  0.036913683   -1.8046972   0.68690474   458923 
  611000   0.58961549   -1.8044985   -1.8044985   -1.1173245  0.034565822   -1.8044985   0.68717403   458911 
  612000   0.58893928   -1.8043317   -1.8043317   -1.1179278    0.0380381   -1.8043317   0.68640387   458899 
  613000    0.5895303   -1.8049308   -1.8049308   -1.1178216  0.037474475   -1.8049308   0.68710918   458888 
  614000    0.5901914   -1.8049802   -1.8049802   -1.1170825  0.040265128   -1.8049802   0.68789769   458876 
  615000   0.59097833   -1.8059652   -1.8059652   -1.1171323  0.030411718   -1.8059652    0.6888329   458864 
  616000   0.58867645   -1.8041978   -1.8041978     -1.11803  0.034861739   -1.8041978   0.68616783   458852 
  617000    0.5896462   -1.8049855   -1.8049855   -1.1176708  0.034182635   -1.8049855   0.68731466   458841 
  618000   0.58991865   -1.8055575   -1.8055575   -1.1179073  0.036744676   -1.8055575   0.68765022   458829 
  619000   0.58942799   -1.8048411   -1.8048411   -1.1177449  0.035584642   -1.8048411   0.68709624   458817 
  620000   0.59008755   -1.8054031   -1.8054031     -1.11752  0.036041244   -1.8054031   0.68788308   458805 
  621000   0.58892789   -1.8040658   -1.8040658   -1.1175181  0.034591262   -1.8040658   0.68654768   458794 
  622000   0.58849475   -1.8044103   -1.8044103   -1.1183496  0.035694969   -1.8044103    0.6860607   458782 
  623000   0.58876263   -1.8039613   -1.8039613   -1.1175704  0.032595754   -1.8039613   0.68639094   458770 
  624000    0.5878957   -1.8032753   -1.8032753   -1.1178772  0.030420674   -1.8032753   0.68539818   458758 
  625000   0.58873739   -1.8035554   -1.8035554   -1.1171595  0.031873975   -1.8035554   0.68639592   458747 
  626000   0.58773246   -1.8029237   -1.8029237   -1.1176815  0.025253561   -1.8029237   0.68524223   458735 
  627000   0.58704504   -1.8028712   -1.8028712   -1.1184125  0.030613927   -1.8028712   0.68445867   458723 
  628000   0.58753723   -1.8027032   -1.8027032   -1.1176527  0.029762211   -1.8027032   0.68505044   458711 
  629000   0.58762462   -1.8032457   -1.8032457   -1.1180754  0.029507381   -1.8032457   0.68517026   458699 
  630000   0.58851146   -1.8033693   -1.8033693   -1.1171485  0.032053829   -1.8033693   0.68622078   458688 
  631000   0.58730366   -1.8022515   -1.8022515   -1.1174211  0.033571827   -1.8022515   0.68483036   458676 
  632000   0.58747239   -1.8018898   -1.8018898   -1.1168447  0.028385062   -1.8018898   0.68504504   458664 
  633000   0.58734203   -1.8017841   -1.8017841   -1.1168732  0.029543415   -1.8017841   0.68491095   458652 
  634000    0.5876725   -1.8026496   -1.8026496   -1.1173369  0.030777232   -1.8026496   0.68531274   458641 
  635000     0.587778   -1.8030492   -1.8030492   -1.1175955  0.033006996   -1.8030492   0.68545371   458629 
  636000   0.58645535    -1.801604    -1.801604   -1.1176749  0.033330519    -1.801604   0.68392916   458617 
  637000   0.58828794   -1.8031358   -1.8031358   -1.1170515  0.038049247   -1.8031358    0.6860843   458605 
  638000   0.58835224   -1.8028274   -1.8028274   -1.1166517  0.028983235   -1.8028274   0.68617574   458594 
  639000   0.58740271   -1.8017674   -1.8017674   -1.1166812   0.03125229   -1.8017674   0.68508626   458582 
  640000   0.58668287   -1.8011278   -1.8011278   -1.1168632  0.034841903   -1.8011278   0.68426462   458570 
  641000   0.58855156   -1.8035983   -1.8035983   -1.1171362  0.034357153   -1.8035983   0.68646208   458558 
  642000   0.58865597   -1.8030721   -1.8030721   -1.1164717    0.0318068   -1.8030721   0.68660034   458547 
  643000   0.58809683   -1.8031046   -1.8031046   -1.1171385  0.032266706   -1.8031046   0.68596611   458535 
  644000   0.58751393   -1.8024567   -1.8024567   -1.1171526  0.033005162   -1.8024567   0.68530415   458523 
  645000    0.5880178   -1.8028844   -1.8028844   -1.1169745  0.031781653   -1.8028844   0.68590983   458511 
  646000   0.58919457   -1.8045772   -1.8045772   -1.1172767  0.030699752   -1.8045772    0.6873005   458499 
  647000   0.58759996   -1.8024879   -1.8024879   -1.1170311   0.03306154   -1.8024879   0.68545682   458488 
  648000   0.58835137   -1.8030659   -1.8030659   -1.1167146  0.030400506   -1.8030659   0.68635133   458476 
  649000   0.58622429   -1.8011971   -1.8011971   -1.1173093  0.035310545   -1.8011971   0.68388785   458464 
  650000   0.58773636   -1.8032084   -1.8032084   -1.1175387  0.031930563   -1.8032084   0.68566977   458452 
  651000   0.58890096    -1.804735    -1.804735   -1.1176901  0.033096316    -1.804735   0.68704492   458441 
  652000   0.58972259   -1.8042321   -1.8042321   -1.1162106  0.034653224   -1.8042321   0.68802148   458429 
  653000   0.58965144   -1.8042015   -1.8042015    -1.116245  0.036700564   -1.8042015   0.68795648   458417 
  654000   0.58992958   -1.8042671   -1.8042671   -1.1159681  0.036462662   -1.8042671   0.68829901   458405 
  655000   0.58963776    -1.803769    -1.803769    -1.115794  0.033395494    -1.803769   0.68797504   458394 
  656000   0.58901151   -1.8031167   -1.8031167   -1.1158543  0.032539507   -1.8031167   0.68726233   458382 
  657000   0.58774147    -1.801993    -1.801993   -1.1161946  0.036621471    -1.801993   0.68579839   458370 
[...]
29833000 0.0079457895  -0.11563389  -0.11563389 -0.078719028 0.0015224806  -0.11563389  0.036914864   115123 
29834000 0.0079673062  -0.11585251  -0.11585251 -0.078833827 0.0026825571  -0.11585251  0.037018686   115111 
29835000 0.0080563408  -0.11601625  -0.11601625 -0.078579981 0.00022547909  -0.11601625  0.037436272   115099 
29836000 0.0078428651  -0.11540567  -0.11540567 -0.078957891 0.00047330758  -0.11540567  0.036447775   115088 
29837000  0.007935761  -0.11546535  -0.11546535 -0.078582014 0.0018512799  -0.11546535  0.036883331   115076 
29838000 0.0079030908  -0.11517778  -0.11517778 -0.078442457 0.00061690018  -0.11517778  0.036735319   115064 
29839000 0.0077849169  -0.11485753  -0.11485753 -0.078667733 0.0010520971  -0.11485753  0.036189795   115052 
29840000 0.0079131352  -0.11537591  -0.11537591 -0.078586547 0.0011512632  -0.11537591  0.036789362   115041 
29841000 0.0078773075  -0.11579138  -0.11579138 -0.079164765 0.00044722058  -0.11579138  0.036626614   115029 
29842000 0.0078136766  -0.11558898  -0.11558898 -0.079254437 -0.00070699279  -0.11558898  0.036334544   115017 
29843000  0.007818439  -0.11547555  -0.11547555 -0.079115062 0.0016849009  -0.11547555  0.036360483   115005 
29844000 0.0078170659  -0.11547741  -0.11547741 -0.079119838 0.0006111728  -0.11547741  0.036357575   114994 
29845000 0.0077450612  -0.11458697  -0.11458697 -0.078560531 0.0011968121  -0.11458697  0.036026437   114982 
29846000 0.0077851499  -0.11468362  -0.11468362 -0.078466932 0.0011330418  -0.11468362  0.036216691   114970 
29847000 0.0078486007  -0.11468157  -0.11468157 -0.078165891 0.0012451022  -0.11468157  0.036515677   114958 
29848000 0.0078089929  -0.11483859  -0.11483859 -0.078503709 0.0003551816  -0.11483859  0.036334878   114947 
29849000 0.0077187864  -0.11447181  -0.11447181 -0.078552905 0.00032894973  -0.11447181  0.035918901   114935 
29850000 0.0077531116  -0.11439681  -0.11439681 -0.078314411 0.0010042787  -0.11439681  0.036082398   114923 
29851000 0.0076531102  -0.11425575  -0.11425575 -0.078635033 0.0016782653  -0.11425575  0.035620719   114911 
29852000 0.0077052893  -0.11468683  -0.11468683 -0.078819504 7.3169876e-05  -0.11468683  0.035867327   114899 
29853000 0.0076337436  -0.11431187  -0.11431187 -0.078774174  0.001662126  -0.11431187  0.035537692   114888 
29854000 0.0076548351  -0.11427538  -0.11427538 -0.078635779 -0.00042629562  -0.11427538  0.035639602   114876 
29855000 0.0075034207  -0.11405478  -0.11405478 -0.079116483 -0.00078147577  -0.11405478  0.034938293   114864 
29856000  0.007573451  -0.11427336  -0.11427336 -0.079005297 0.0011757663  -0.11427336   0.03526806   114852 
29857000 0.0075499269  -0.11359934  -0.11359934 -0.078437461 -0.00035276976  -0.11359934  0.035161881   114841 
29858000 0.0075683013  -0.11391461  -0.11391461 -0.078663475 0.0012505049  -0.11391461  0.035251139   114829 
29859000 0.0075071407  -0.11371311  -0.11371311 -0.078743188 0.0012348473  -0.11371311  0.034969923   114817 
29860000 0.0075185464  -0.11397711  -0.11397711 -0.078950392 0.00032290889  -0.11397711  0.035026714   114805 
29861000 0.0073057506  -0.11296863  -0.11296863 -0.078930012 0.0019588495  -0.11296863  0.034038622   114794 
29862000 0.0073169076  -0.11318663  -0.11318663 -0.079092465 0.00075740745  -0.11318663  0.034094168   114782 
29863000 0.0074726705   -0.1139366   -0.1139366 -0.079112992 0.0031967989   -0.1139366  0.034823608   114770 
29864000 0.0073895153   -0.1137484   -0.1137484 -0.079308702 -0.0014337799   -0.1137484  0.034439695   114758 
29865000  0.007481145  -0.11404676  -0.11404676 -0.079176674 -0.00040623189  -0.11404676  0.034870088   114747 
29866000 0.0073552896  -0.11308473  -0.11308473 -0.078797677 0.00068719037  -0.11308473  0.034287054   114735 
29867000  0.007368388  -0.11324392  -0.11324392 -0.078892211 0.00063529465  -0.11324392  0.034351706   114723 
29868000 0.0072295388  -0.11299865  -0.11299865 -0.079290736  0.001075354  -0.11299865  0.033707911   114711 
29869000 0.0071963091  -0.11293811  -0.11293811 -0.079381623 0.0006060224  -0.11293811  0.033556488   114699 
29870000 0.0073376065  -0.11375981  -0.11375981 -0.079541165 0.00040274402  -0.11375981  0.034218641   114688 
29871000 0.0070587513   -0.1128268   -0.1128268 -0.079905146 0.0015045991   -0.1128268  0.032921655   114676 
29872000 0.0072315043  -0.11391211  -0.11391211 -0.080181216 0.00045920852  -0.11391211  0.033730896   114664 
29873000 0.0072615043  -0.11380005  -0.11380005 -0.079925675 0.0029715106  -0.11380005  0.033874374   114652 
29874000 0.0071612341   -0.1135067   -0.1135067 -0.080096877 0.00057221661   -0.1135067  0.033409826   114641 
29875000 0.0072205329  -0.11393185  -0.11393185 -0.080242435 -0.0011894821  -0.11393185  0.033689416   114631 
29876000 0.0070462727  -0.11277544  -0.11277544 -0.079895644 0.0011762493  -0.11277544  0.032879799   114619 
29877000 0.0073598636  -0.11393445  -0.11393445 -0.079587756 0.0021791309  -0.11393445  0.034346694   114607 
29878000 0.0071654118  -0.11323694  -0.11323694 -0.079794499 0.0019370407  -0.11323694  0.033442444   114596 
29879000 0.0071327558  -0.11294305  -0.11294305 -0.079649528 0.00050914465  -0.11294305  0.033293518   114584 
29880000 0.0070811207  -0.11265503  -0.11265503 -0.079599065 0.0012666663  -0.11265503  0.033055963   114572 
29881000 0.0069747155  -0.11245009  -0.11245009 -0.079887434 0.0016277331  -0.11245009  0.032562655   114560 
29882000 0.0071029238  -0.11277661  -0.11277661 -0.079612204 0.00032866471  -0.11277661  0.033164402   114549 
29883000 0.0070149618  -0.11224406  -0.11224406 -0.079486936   0.00152823  -0.11224406  0.032757129   114537 
29884000 0.0068949082  -0.11185863  -0.11185863 -0.079658735 -0.00017266435  -0.11185863  0.032199899   114525 
29885000 0.0069340452  -0.11177974  -0.11177974 -0.079393672 -0.0013839375  -0.11177974  0.032386066   114513 
29886000 0.0070428618  -0.11199406  -0.11199406 -0.079096311 0.0008037722  -0.11199406  0.032897751   114501 
29887000 0.0069496214  -0.11169206  -0.11169206 -0.079226722 0.0013039936  -0.11169206  0.032465336   114490 
29888000 0.0069136878  -0.11165712  -0.11165712 -0.079356268 -0.00065654388  -0.11165712  0.032300857   114478 
29889000 0.0069177546  -0.11150768  -0.11150768 -0.079184433 0.00086291978  -0.11150768  0.032323246   114466 
29890000 0.0068266306  -0.11084594  -0.11084594 -0.078945123 0.00039462385  -0.11084594  0.031900812   114454 
29891000 0.0068688548  -0.11131684  -0.11131684 -0.079215629 0.00026787131  -0.11131684  0.032101211   114443 
29892000 0.0068261319  -0.11137687  -0.11137687 -0.079471972 0.00050723133  -0.11137687  0.031904894   114431 
29893000 0.0068093108  -0.11123896  -0.11123896 -0.079409352 0.00040336773  -0.11123896  0.031829611   114419 
29894000 0.0066975039  -0.11124766  -0.11124766 -0.079937395 0.0010770674  -0.11124766  0.031310261   114407 
29895000 0.0067540464  -0.11123808  -0.11123808 -0.079660454 0.00037867739  -0.11123808  0.031577629   114396 
29896000  0.006643211  -0.11097597  -0.11097597  -0.07991328 0.0012790237  -0.11097597  0.031062692   114384 
29897000 0.0065995409  -0.11059322  -0.11059322 -0.079731485 0.0010256885  -0.11059322  0.030861734   114372 
29898000 0.0067075344  -0.11070691  -0.11070691 -0.079336874 0.00035277026  -0.11070691   0.03137004   114360 
29899000 0.0067256921  -0.11118401  -0.11118401 -0.079726026 0.0012323179  -0.11118401  0.031457987   114349 
29900000 0.0066064199  -0.11078867  -0.11078867 -0.079885312 0.0005639767  -0.11078867   0.03090336   114337 
29901000 0.0066936092  -0.11095155  -0.11095155   -0.0796376 0.00057351255  -0.11095155  0.031313951   114327 
29902000 0.0065319492    -0.110732    -0.110732 -0.080172191 0.0015366559    -0.110732  0.030559813   114319 
29903000 0.0065442037  -0.11055544  -0.11055544 -0.079935883 -0.00038655385  -0.11055544  0.030619557   114310 
29904000 0.0065635247  -0.11040334  -0.11040334 -0.079690424  0.001869093  -0.11040334  0.030712913   114299 
29905000 0.0064976866  -0.11047291  -0.11047291 -0.080064878 0.0001774303  -0.11047291  0.030408027   114287 
29906000 0.0065308623  -0.11028147  -0.11028147 -0.079714977 0.0009415979  -0.11028147  0.030566493   114275 
29907000 0.0063767376  -0.10985793  -0.10985793   -0.0800107 0.0019865473  -0.10985793   0.02984723   114267 
29908000 0.0064248403  -0.10995907  -0.10995907 -0.079885373 7.0413608e-05  -0.10995907  0.030073698   114262 
29909000 0.0065599156  -0.11090206  -0.11090206 -0.080194216 0.00013315469  -0.11090206  0.030707846   114255 
29910000 0.0065218986  -0.11095262  -0.11095262 -0.080419534 -0.00096108039  -0.11095262   0.03053309   114243 
29911000 0.0064712959  -0.11068369  -0.11068369 -0.080385378 -0.0002070664  -0.11068369  0.030298309   114235 
29912000 0.0063258973  -0.10991147  -0.10991147 -0.080291838 0.00012138877  -0.10991147  0.029619634   114227 
29913000 0.0064623104   -0.1106921   -0.1106921 -0.080431357 3.4019396e-08   -0.1106921  0.030260743   114218 
29914000 0.0064974902  -0.11077156  -0.11077156 -0.080344216 0.0011192866  -0.11077156  0.030427342   114211 
29915000 0.0063756561  -0.11066985  -0.11066985 -0.080809914 -0.00022307584  -0.11066985  0.029859938   114199 
29916000 0.0063813962   -0.1102746   -0.1102746 -0.080385419 0.0013991904   -0.1102746  0.029889177   114190 
29917000 0.0064425978  -0.11042616  -0.11042616 -0.080249004 0.00026007839  -0.11042616  0.030177154   114185 
29918000 0.0063630759  -0.11016591  -0.11016591 -0.080358886 0.0017201924  -0.11016591  0.029807023   114176 
29919000 0.0063680452   -0.1102106   -0.1102106 -0.080377168  0.001100788   -0.1102106  0.029833436   114164 
29920000 0.0063597921  -0.10988321  -0.10988321 -0.080085829 -0.0022514462  -0.10988321  0.029797381   114154 
29921000 0.0063740287  -0.11014266  -0.11014266 -0.080275955 0.0015973841  -0.11014266    0.0298667   114144 
29922000 0.0064068645  -0.10992726  -0.10992726 -0.079905127 0.0014119456  -0.10992726  0.030022137   114138 
29923000 0.0064460927  -0.11013288  -0.11013288 -0.079925602 0.0001115279  -0.11013288  0.030207281   114133 
29924000 0.0063041769  -0.10977373  -0.10977373 -0.080230196 0.0013776999  -0.10977373  0.029543538   114128 
29925000 0.0062326688  -0.10976119  -0.10976119  -0.08055097 -7.2067829e-06  -0.10976119  0.029210218   114121 
29926000 0.0064368713  -0.11023442  -0.11023442  -0.08006586 -0.0001071931  -0.11023442  0.030168561   114116 
29927000 0.0062962436  -0.10968865  -0.10968865 -0.080177895 2.5754712e-05  -0.10968865  0.029510756   114111 
29928000 0.0062716881  -0.10968054  -0.10968054 -0.080282555 -0.0016194408  -0.10968054  0.029397981   114102 
29929000 0.0062024597  -0.10924352  -0.10924352 -0.080168766  0.001896873  -0.10924352  0.029074754   114097 
29930000 0.0061247251  -0.10882714  -0.10882714 -0.080114767 -0.00051414923  -0.10882714  0.028712377   114089 
29931000 0.0062470973  -0.10934022  -0.10934022 -0.080051863 0.0011399285  -0.10934022  0.029288362   114080 
29932000 0.0062306956  -0.10927248  -0.10927248 -0.080058712 -6.5787935e-05  -0.10927248   0.02921377   114071 
29933000 0.0062924034   -0.1090461   -0.1090461 -0.079540676 0.0010524496   -0.1090461  0.029505426   114062 
29934000  0.006180688  -0.10848789  -0.10848789 -0.079505284 -0.00030211739  -0.10848789  0.028982603   114058 
29935000 0.0062444856  -0.10926197  -0.10926197 -0.079978152 0.0020432903  -0.10926197  0.029283818   114050 
29936000 0.0062126917  -0.10933136  -0.10933136 -0.080195622 0.0018951026  -0.10933136  0.029135741   114046 
29937000 0.0062624297  -0.10933941  -0.10933941 -0.079969642 -0.00064469576  -0.10933941   0.02936977   114043 
29938000  0.006255336  -0.10901169  -0.10901169 -0.079674676 0.0001276918  -0.10901169  0.029337016   114041 
29939000  0.006256739  -0.10933734  -0.10933734 -0.079992201 0.00091037171  -0.10933734   0.02934514   114035 
29940000 0.0062958026  -0.10944798  -0.10944798 -0.079918074 0.0008389317  -0.10944798  0.029529909   114029 
29941000 0.0061892859  -0.10902029  -0.10902029 -0.079988211 4.9944621e-06  -0.10902029  0.029032084   114022 
29942000 0.0061142889  -0.10878662  -0.10878662 -0.080103807 0.00084890998  -0.10878662  0.028682811   114012 
29943000 0.0062431285  -0.10901824  -0.10901824  -0.07972974 0.0027630089  -0.10901824  0.029288496   114007 
29944000 0.0061777688  -0.10886207  -0.10886207 -0.079878415  0.001237405  -0.10886207  0.028983653   114000 
29945000 0.0061383809  -0.10889686  -0.10889686 -0.080097246 0.00075365537  -0.10889686  0.028799618   113997 
29946000 0.0061701313  -0.10857129  -0.10857129 -0.079620673 -0.0006196351  -0.10857129  0.028950614   113989 
29947000 0.0060837192   -0.1083264   -0.1083264 -0.079779982 -0.00053915262   -0.1083264  0.028546416   113984 
29948000 0.0060748004  -0.10791622  -0.10791622   -0.0794104 0.0010098721  -0.10791622  0.028505816   113979 
29949000  0.006093314  -0.10821376  -0.10821376 -0.079619561 -0.00015326967  -0.10821376  0.028594196   113973 
29950000 0.0062316164  -0.10903604  -0.10903604 -0.079790779 6.3272196e-05  -0.10903604  0.029245263   113965 
29951000 0.0061977157   -0.1083263   -0.1083263  -0.07923758 0.0024170593   -0.1083263  0.029088718   113955 
29952000 0.0060515373  -0.10787173  -0.10787173 -0.079468594 -0.00036574496  -0.10787173  0.028403134   113953 
29953000 0.0060180466  -0.10761185  -0.10761185 -0.079364913 -0.00042645408  -0.10761185  0.028246936   113949 
29954000 0.0060873724  -0.10810363  -0.10810363 -0.079530798 -0.00063379415  -0.10810363  0.028572832   113947 
29955000 0.0060754468  -0.10824821  -0.10824821 -0.079729354 0.00089343262  -0.10824821  0.028518858   113939 
29956000  0.006009786  -0.10773992  -0.10773992 -0.079527792 0.00072397542  -0.10773992  0.028212124   113933 
29957000 0.0060147924  -0.10792751  -0.10792751 -0.079691145 0.00028208994  -0.10792751   0.02823637   113930 
29958000  0.005995245  -0.10783765  -0.10783765 -0.079691567 0.00097380479  -0.10783765  0.028146087   113924 
29959000 0.0058911135  -0.10722306  -0.10722306 -0.079564382 0.00063447343  -0.10722306  0.027658674   113918 
29960000 0.0059687287  -0.10714046  -0.10714046 -0.079116397 0.00049725606  -0.10714046   0.02802406   113914 
29961000  0.005964579  -0.10717949  -0.10717949 -0.079173682 0.0014689524  -0.10717949  0.028005806   113909 
29962000 0.0061332394  -0.10788625  -0.10788625  -0.07908675 -0.00018215708  -0.10788625  0.028799496   113902 
29963000 0.0060966302  -0.10735387  -0.10735387 -0.078724768 0.0010885897  -0.10735387    0.0286291   113896 
29964000 0.0059977964  -0.10708247  -0.10708247 -0.078916251 0.0015858631  -0.10708247  0.028166224   113891 
29965000 0.0059371816   -0.1068329   -0.1068329 -0.078949856 -0.001020584   -0.1068329   0.02788304   113885 
29966000 0.0060421748  -0.10733777  -0.10733777 -0.078960399 -0.00021391214  -0.10733777   0.02837737   113880 
29967000 0.0060085713  -0.10678996  -0.10678996 -0.078569662 0.00047667527  -0.10678996  0.028220293   113877 
29968000 0.0059092386  -0.10664904  -0.10664904  -0.07889357 0.0011781449  -0.10664904  0.027755466   113870 
29969000 0.0060457041  -0.10688619  -0.10688619 -0.078487502 0.0011787313  -0.10688619  0.028398684   113861 
29970000 0.0059099952   -0.1063323   -0.1063323 -0.078570112 -0.00030114664   -0.1063323  0.027762189   113857 
29971000 0.0059001867  -0.10635429  -0.10635429   -0.0786372   0.00104322  -0.10635429  0.027717087   113853 
29972000 0.0059206941  -0.10627709  -0.10627709 -0.078462195 -7.7944311e-05  -0.10627709   0.02781489   113847 
29973000  0.005920752  -0.10661535  -0.10661535 -0.078799206 0.0010776103  -0.10661535  0.027816139   113843 
29974000 0.0059012876  -0.10648817  -0.10648817 -0.078762989 0.00071320714  -0.10648817  0.027725181   113841 
29975000  0.005897223  -0.10668951  -0.10668951 -0.078981482 0.00067044021  -0.10668951  0.027708032   113833 
29976000 0.0058681598  -0.10591307  -0.10591307 -0.078341588 0.00094887876  -0.10591307  0.027571479   113833 
29977000 0.0058812937  -0.10627489  -0.10627489 -0.078639999 0.0010056751  -0.10627489  0.027634888   113826 
29978000  0.005826506  -0.10621112  -0.10621112 -0.078831739 0.00045025401  -0.10621112  0.027379377   113818 
29979000 0.0057826702  -0.10592003  -0.10592003 -0.078744974 0.0017629707  -0.10592003  0.027175059   113811 
29980000 0.0059084787   -0.1059402   -0.1059402 -0.078172944 0.0005782239   -0.1059402  0.027767259   113807 
29981000 0.0059079601  -0.10625287  -0.10625287 -0.078485854 0.00097824801  -0.10625287  0.027767018   113798 
29982000 0.0058070847   -0.1059026   -0.1059026 -0.078608487 -0.0006506228   -0.1059026   0.02729411   113793 
29983000  0.005879133  -0.10598187  -0.10598187 -0.078347908 -0.00029055231  -0.10598187  0.027633961   113788 
29984000 0.0057843495  -0.10586053  -0.10586053  -0.07867161 0.00076861469  -0.10586053  0.027188923   113786 
29985000 0.0058067881  -0.10604583  -0.10604583 -0.078749993 0.00053924352  -0.10604583  0.027295834   113780 
29986000 0.0058369758  -0.10618065  -0.10618065 -0.078740984 -4.4405312e-05  -0.10618065  0.027439666   113772 
29987000  0.005812559  -0.10607823  -0.10607823  -0.07875311 -0.00026393324  -0.10607823  0.027325122   113771 
29988000 0.0058631664  -0.10602209  -0.10602209 -0.078458332 0.00093469458  -0.10602209  0.027563757   113768 
29989000 0.0057493284  -0.10548291  -0.10548291 -0.078453375 0.0010702837  -0.10548291  0.027029535   113764 
29990000 0.0058289812  -0.10594728  -0.10594728 -0.078542309 0.00041040654  -0.10594728  0.027404973   113760 
29991000 0.0057257145  -0.10522621  -0.10522621 -0.078306034 0.00055441483  -0.10522621  0.026920175   113757 
29992000 0.0056240525  -0.10518571  -0.10518571 -0.078741651 -0.00077175653  -0.10518571  0.026444058   113749 
29993000 0.0057288718  -0.10552799  -0.10552799 -0.078589893 -7.2095859e-05  -0.10552799  0.026938098   113744 
29994000  0.005660862  -0.10513592  -0.10513592 -0.078516441 -0.00046969768  -0.10513592  0.026619475   113739 
29995000 0.0057037252  -0.10547755  -0.10547755  -0.07865628 -0.0005125085  -0.10547755  0.026821269   113738 
29996000 0.0057775172  -0.10563057  -0.10563057 -0.078460626   0.00171012  -0.10563057  0.027169941   113731 
29997000 0.0057549478   -0.1056591   -0.1056591 -0.078593868 0.0030080316   -0.1056591  0.027065232   113725 
29998000 0.0057368824    -0.105842    -0.105842 -0.078860775 0.0008583364    -0.105842   0.02698122   113721 
29999000   0.00571105  -0.10572995  -0.10572995 -0.078868806 0.00019037725  -0.10572995  0.026861145   113715 
30000000 0.0057443753  -0.10571117  -0.10571117 -0.078691616 0.00017059653  -0.10571117  0.027019549   113708 
Loop time of 69875.1 on 128 procs for 30000000 steps with 113708 atoms

Performance: 185473.818 tau/day, 429.338 timesteps/s
97.6% CPU use with 128 MPI tasks x 1 OpenMP threads

MPI task timing breakdown:
Section |  min time  |  avg time  |  max time  |%varavg|  %CPU | %total
-----------------------------------------------------------------------
Pair    | 2849.4     | 12606      | 20071      |3852.1 |  97.7 | 18.04
Bond    | 10.622     | 21.459     | 34.07      | 231.1 | 100.0 |  0.03
Neigh   | 3107.1     | 8622.4     | 11206      |1904.2 |  98.3 | 12.34
Comm    | 19942      | 30929      | 44140      |3240.7 |  97.1 | 44.26
Output  | 2197.9     | 2199.4     | 2201.4     |   2.3 |  99.5 |  3.15
Modify  | 11385      | 14258      | 18422      |1533.4 |  97.4 | 20.41
Other   |            | 1239       |            |       |       |  1.77

Nlocal:        888.344 ave        3503 max          33 min
Histogram: 13 25 53 32 3 1 0 0 0 1
Nghost:        5377.81 ave       10248 max        1430 min
Histogram: 4 11 17 25 25 16 9 13 7 1
Neighs:        754.117 ave        4838 max           0 min
Histogram: 63 32 9 9 10 4 0 0 0 1

Total # of neighbors = 96527
Ave neighs/atom = 0.84890245
Ave special neighs/atom = 0.0000000
Neighbor list builds = 3052012
Dangerous builds = 1542587

Total wall time: 19:25:01
