LAMMPS (29 Oct 2020)
  using 1 OpenMP thread(s) per MPI task
units           lj
atom_style      full
atom_modify     map array first cubes
dimension       3
boundary        p p f

variable        sigma           equal 1.0
variable        epsilon         equal 1.0

read_data       data.rigid
Reading data file ...
  orthogonal box = (0.0000000 0.0000000 0.0000000) to (20.000000 20.000000 20.000000)
  4 by 4 by 4 MPI processor grid
  reading atoms ...
  1143 atoms
Finding 1-2 1-3 1-4 neighbors ...
  special bond factors lj:    0.0      0.0      0.0     
  special bond factors coul:  0.0      0.0      0.0     
     0 = max # of 1-2 neighbors
     0 = max # of 1-3 neighbors
     0 = max # of 1-4 neighbors
     1 = max # of special neighbors
  special bonds CPU = 0.717 seconds
  read_data CPU = 0.832 seconds
replicate       8 8 8
Replicating atoms ...
WARNING: Replicating in a non-periodic dimension (src/replicate.cpp:75)
  orthogonal box = (0.0000000 0.0000000 0.0000000) to (160.00000 160.00000 160.00000)
  4 by 4 by 4 MPI processor grid
  585216 atoms
Finding 1-2 1-3 1-4 neighbors ...
  special bond factors lj:    0.0      0.0      0.0     
  special bond factors coul:  0.0      0.0      0.0     
     0 = max # of 1-2 neighbors
     0 = max # of 1-3 neighbors
     0 = max # of 1-4 neighbors
     1 = max # of special neighbors
  special bonds CPU = 0.017 seconds
  replicate CPU = 0.037 seconds
group           cubes type 2 3
585216 atoms in group cubes

velocity        cubes create 10.0 45345 loop geom

pair_style      soft 1.12
pair_coeff      1 1 0.0 0.0
pair_coeff      2 2 0.0
pair_coeff      3 3 0.0
pair_coeff      1 3 0.0 0.0
pair_coeff      2 3 0.0
pair_coeff      1 2 0.0 0.0

variable        prefactor equal ramp(0,60)
fix             soft all adapt 1 pair soft a * * v_prefactor

neighbor        0.3 bin
neigh_modify    delay 0 every 1 check yes


#fix             1     cubes rigid molecule

dump 		1 all movie 100 movie.avi type type

compute         tbig all temp
thermo_modify   temp tbig

thermo          100
run             1000
Neighbor list info ...
  update every 1 steps, delay 0 steps, check yes
  max neighbors/atom: 2000, page size: 100000
  master list distance cutoff = 1.42
  ghost atom cutoff = 1.42
  binsize = 0.71, bins = 226 226 226
  1 neighbor lists, perpetual/occasional/extra = 1 0 0
  (1) pair soft, perpetual
      attributes: half, newton on
      pair build: half/bin/newton
      stencil: half/bin/3d/newton
      bin: standard
Setting up Verlet run ...
  Unit style    : lj
  Current step  : 0
  Time step     : 0.005
Per MPI rank memory allocation (min/avg/max) = 9.893 | 9.893 | 9.893 Mbytes
Step Temp E_pair E_mol TotEng Press 
       0           10            0            0    14.999974    1.4287476 
     100           10   0.90670399            0    15.906678    2.1416359 
     200           10     1.813408            0    16.813382    2.8545243 
     300           10     2.720112            0    17.720086    3.5674126 
     400           10    3.6268159            0     18.62679     4.280301 
     500           10    4.5335199            0    19.533494    4.9931893 
     600           10    5.4402239            0    20.440198    5.7060776 
     700           10    6.3469279            0    21.346902     6.418966 
     800           10    7.2536319            0    22.253606    7.1318543 
     900           10    8.1603359            0     23.16031    7.8447427 
    1000           10    9.0670399            0    24.067014     8.557631 
Loop time of 2.21841 on 64 procs for 1000 steps with 585216 atoms

Performance: 194733.940 tau/day, 450.773 timesteps/s
99.9% CPU use with 64 MPI tasks x 1 OpenMP threads

MPI task timing breakdown:
Section |  min time  |  avg time  |  max time  |%varavg| %total
---------------------------------------------------------------
Pair    | 1.0572     | 1.1577     | 1.7614     |  20.2 | 52.19
Bond    | 9.1218e-05 | 0.00011845 | 0.00018347 |   0.0 |  0.01
Neigh   | 0          | 0          | 0          |   0.0 |  0.00
Comm    | 0.00038138 | 0.00054335 | 0.001059   |   0.0 |  0.02
Output  | 0.30996    | 0.31934    | 0.32093    |   0.6 | 14.39
Modify  | 0.001689   | 0.0023153  | 0.0060368  |   1.9 |  0.10
Other   |            | 0.7384     |            |       | 33.29

Nlocal:        9144.00 ave        9144 max        9144 min
Histogram: 64 0 0 0 0 0 0 0 0 0
Nghost:        0.00000 ave           0 max           0 min
Histogram: 64 0 0 0 0 0 0 0 0 0
Neighs:        70416.0 ave       70416 max       70416 min
Histogram: 64 0 0 0 0 0 0 0 0 0

Total # of neighbors = 4506624
Ave neighs/atom = 7.7007874
Ave special neighs/atom = 0.0000000
Neighbor list builds = 0
Dangerous builds = 0


unfix 		soft

reset_timestep 	0

pair_style	lj/cut/opt 2.5
pair_modify	shift yes

pair_coeff	1 1 0.0 0.0

pair_coeff	2 2 1.0 1.0

pair_coeff	1 2 0.0 0.0

pair_coeff	1 3 0.0 0.0

pair_coeff	2 3 0.0 0.0

pair_coeff	3 3 0.0 0.0

comm_modify	cutoff 6.93

fix 		1 cubes rigid/small molecule
  create bodies CPU = 0.018 seconds
  512 rigid bodies with 585216 atoms
  6.9282032 = max distance from body owner to body atom


####################### WALLS ###########################

variable       epsilonWall equal 2*${epsilon}
variable       epsilonWall equal 2*1

variable       cutoffTop   equal   0.7147*${sigma}
variable       cutoffTop   equal   0.7147*1

variable       cutoffLow   equal   3*${sigma}
variable       cutoffLow   equal   3*1

region         lowWall block EDGE EDGE EDGE EDGE EDGE 2

delete_atoms   region lowWall
WARNING: Ignoring 'compress yes' for molecular system (src/delete_atoms.cpp:125)
Deleted 0 atoms, new total = 585216



fix            topWall all wall/lj93 zhi EDGE                ${epsilonWall} ${sigma} ${cutoffTop} units box
fix            topWall all wall/lj93 zhi EDGE                2 ${sigma} ${cutoffTop} units box
fix            topWall all wall/lj93 zhi EDGE                2 1 ${cutoffTop} units box
fix            topWall all wall/lj93 zhi EDGE                2 1 0.7147 units box

fix            lowWall all wall/lj93 zlo EDGE                ${epsilonWall} ${sigma} ${cutoffLow} units box
fix            lowWall all wall/lj93 zlo EDGE                2 ${sigma} ${cutoffLow} units box
fix            lowWall all wall/lj93 zlo EDGE                2 1 ${cutoffLow} units box
fix            lowWall all wall/lj93 zlo EDGE                2 1 3 units box





velocity	all create ${temp} ${seed} loop geom
velocity	all create 10.0 ${seed} loop geom
velocity	all create 10.0 25860 loop geom
WARNING: Changing velocities of atoms in rigid bodies. This has no effect unless rigid bodies are rebuild (src/velocity.cpp:71)
WARNING: Cannot count rigid body degrees-of-freedom before bodies are fully initialized (src/RIGID/fix_rigid_small.cpp:1166)

dump 		2 all movie 100 movie_cubes.avi type type



run 		500000
Neighbor list info ...
  update every 1 steps, delay 0 steps, check yes
  max neighbors/atom: 2000, page size: 100000
  master list distance cutoff = 2.8
  ghost atom cutoff = 6.93
  binsize = 1.4, bins = 115 115 115
  1 neighbor lists, perpetual/occasional/extra = 1 0 0
  (1) pair lj/cut/opt, perpetual
      attributes: half, newton on
      pair build: half/bin/newton
      stencil: half/bin/3d/newton
      bin: standard
Setting up Verlet run ...
  Unit style    : lj
  Current step  : 0
  Time step     : 0.005
Per MPI rank memory allocation (min/avg/max) = 15.72 | 15.73 | 15.73 Mbytes
Step Temp E_pair E_mol TotEng Press 
       0    9.9461461  -0.36619638            0  -0.34011651  0.032633254 
     100    9.9461461  -0.36619638            0  -0.34011651 0.0012602091 
     200    9.9461461  -0.36619638            0  -0.34011651 0.0012602091 
     300    9.9461461  -0.36619638            0  -0.34011651 0.0012602091 
     400    9.9461461  -0.36619638            0  -0.34011651 0.0012602091 
     500    9.9461461  -0.36619638            0  -0.34011651 0.0012602091 
     600    9.9461461  -0.36619638            0  -0.34011651 0.0012602091 
     700    9.9461461  -0.36619638            0  -0.34011651 0.0012602091 
     800    9.9461461  -0.36619638            0  -0.34011651 0.0012602091 
     900    9.9461461  -0.36619638            0  -0.34011651 0.0012602091 
    1000    9.9461517  -0.36619638            0  -0.34011649 0.0012600835 
    1100    9.9462102  -0.36619638            0  -0.34011634 0.0012598433 
    1200     9.946391  -0.36619638            0  -0.34011586 0.0012591347 
    1300    9.9467581  -0.36619638            0   -0.3401149 0.0012580454 
    1400    9.9473446  -0.36619638            0  -0.34011336 0.0012568208 
    1500    9.9482831  -0.36619638            0   -0.3401109  0.001254954 
    1600    9.9496596  -0.36619638            0  -0.34010729 0.0012525788 
    1700     9.951665  -0.36619638            0  -0.34010204 0.0012490729 
    1800    9.9545113  -0.36619638            0  -0.34009457 0.0012444894 
    1900    9.9585924  -0.36619638            0  -0.34008387 0.0012378375 
    2000    9.9645093  -0.36619638            0  -0.34006836 0.0012287259 
    2100    9.9729179  -0.36619638            0  -0.34004631 0.0012189455 
    2200    9.9786058  -0.36619638            0  -0.34003139 0.0012908411 
    2300    9.9373904  -0.36619638            0  -0.34013947 0.0020638008 
    2400    9.9956425  -0.36619638            0  -0.33998672 0.0012466037 
    2500    9.9833725  -0.36619638            0   -0.3400189 0.0015814953 
    2600    9.9687478  -0.36619638            0  -0.34005724 0.0019629541 
    2700    9.9877706  -0.36619639            0  -0.34000737 0.0017395956 
    2800    10.019594   -0.3661964            0  -0.33992394 0.0013858231 
    2900    9.9873835  -0.36619655            0  -0.34000854  0.001988443 
    3000      9.98534  -0.36619713            0  -0.34001448 0.0021097751 
    3100    10.027063  -0.36619845            0   -0.3399064 0.0014256796 
    3200    10.041918  -0.36620111            0  -0.33987011 0.0011691821 
    3300    10.040063  -0.36620624            0  -0.33988011 0.0012397089 
    3400    10.045796  -0.36621552            0  -0.33987435  0.001337569 
    3500    10.061098  -0.36623211            0  -0.33985082 0.0014272895 
    3600     10.03816  -0.36626244            0  -0.33994129 0.0021867348 
    3700    10.070554  -0.36629543            0  -0.33988934 0.0021093357 
    3800    10.052931  -0.36616573            0  -0.33980585  0.003177547 
    3900    10.115111  -0.36631588            0  -0.33979296 0.0017884045 
    4000     10.09485   -0.3662819            0   -0.3398121 0.0020186964 
    4100    10.146858  -0.36636416            0  -0.33975799 0.00089333598 
    4200    10.139457  -0.36633947            0  -0.33975271 0.0014155487 
    4300    10.132311  -0.36637778            0  -0.33980976 0.0019151488 
    4400    10.138928  -0.36641634            0  -0.33983097 0.0021238219 
    4500    10.159271  -0.36645326            0  -0.33981455 0.0018722477 
    4600    10.166458   -0.3664432            0  -0.33978564 0.0021343604 
    4700    10.183355  -0.36648388            0  -0.33978201 0.0020573482 
    4800      10.2198  -0.36658686            0  -0.33978944 0.0019585831 
    4900    10.236277  -0.36663079            0  -0.33979016 0.0023839895 
    5000    10.280544  -0.36674042            0  -0.33978372 0.0027892523 
    5100    10.315597  -0.36672477            0  -0.33967616   0.00235229 
    5200    10.279305  -0.36671478            0  -0.33976132 0.0033309731 
    5300     10.30848   -0.3667761            0  -0.33974614 0.0029843848 
    5400    10.321121  -0.36672115            0  -0.33965805 0.0036753775 
    5500    10.289343  -0.36684833            0  -0.33986855 0.0024557559 
    5600     10.34413  -0.36677422            0  -0.33965078 0.0011600291 
    5700    10.319954  -0.36684006            0  -0.33978002 0.0011503144 
    5800    10.291627  -0.36675672            0  -0.33977095  0.002417848 
    5900    10.318393  -0.36683743            0  -0.33978148 0.0019539752 
    6000    10.318855  -0.36687346            0   -0.3398163 0.0018665218 
    6100    10.290259  -0.36682512            0  -0.33984294 0.0023823371 
    6200    10.299125  -0.36687089            0  -0.33986547 0.0021878318 
    6300    10.219797  -0.36668399            0  -0.33988657 0.0046808633 
    6400    10.327195  -0.36692057            0  -0.33984154  0.002292442 
    6500    10.317145  -0.36692019            0  -0.33986751 0.0023754825 
    6600    10.356051  -0.36701517            0  -0.33986047 0.0017275825 
    6700    10.362207  -0.36702263            0   -0.3398518 0.0022726512 
    6800    10.420332  -0.36712627            0  -0.33980303 0.0011089247 
    6900    10.390382  -0.36715425            0  -0.33990954 0.0022302158 
    7000     10.41796  -0.36711136            0  -0.33979433 0.0025249514 
    7100    10.454131  -0.36723988            0  -0.33982801 0.0011765244 
    7200    10.430896  -0.36725064            0   -0.3398997 0.0015328566 
    7300    10.468256  -0.36730436            0  -0.33985546 0.0012254508 
    7400    10.508491   -0.3674084            0  -0.33985399 0.0013372497 
    7500    10.500975  -0.36738645            0  -0.33985175 0.0031898754 
    7600    10.547368  -0.36750451            0  -0.33984816  0.002919694 
    7700    10.519914   -0.3674702            0  -0.33988584 0.0030621036 
    7800    10.534406  -0.36753653            0  -0.33991417 0.0023781945 
    7900    10.514931   -0.3674251            0   -0.3398538 0.0026710019 
    8000    10.589204  -0.36759516            0  -0.33982911 0.0004765437 
    8100    10.610085  -0.36764378            0  -0.33982298 0.00096742456 
    8200    10.653327  -0.36780321            0  -0.33986902 0.0014058833 
    8300    10.626546  -0.36771502            0  -0.33985107  0.004336668 
    8400    10.589265  -0.36767659            0  -0.33991039  0.005202323 
    8500    10.605918  -0.36765015            0  -0.33984028 0.0035604374 
    8600    10.577566  -0.36769621            0  -0.33996068 0.0022516649 
    8700    10.614133  -0.36773111            0   -0.3398997  0.001005707 
    8800    10.605523  -0.36764639            0  -0.33983755 0.0016659833 
    8900    10.567111  -0.36755822            0   -0.3398501 0.0033304867 
    9000    10.598135   -0.3677281            0  -0.33993864 0.0023886258 
    9100    10.650133  -0.36780891            0   -0.3398831 0.0020186419 
    9200    10.678807  -0.36788087            0  -0.33987987   0.00187586 
    9300    10.621475  -0.36773547            0  -0.33988481 0.0037629835 
    9400    10.710925  -0.36796659            0  -0.33988138 0.0014765078 
    9500    10.781834  -0.36813984            0   -0.3398687 0.00035725991 
    9600    10.757671  -0.36806446            0  -0.33985668 0.0022686696 
    9700    10.771454  -0.36811938            0  -0.33987546 0.0039337717 
    9800    10.838099  -0.36826991            0  -0.33985123  0.003633447 
    9900    10.809449  -0.36816092            0  -0.33981737 0.0038197662 
   10000    10.865728  -0.36830598            0  -0.33981486 0.0017147455 
   10100    10.874382  -0.36833989            0  -0.33982607 0.0019066673 
   10200    10.862203  -0.36829287            0  -0.33981099 0.0029747697 
   10300    10.840448  -0.36818352            0  -0.33975869 0.0040457056 
   10400     10.90336  -0.36835172            0  -0.33976192  0.002491748 
   10500    10.960404  -0.36848261            0  -0.33974324 0.0017849038 
   10600    10.925476  -0.36836486            0  -0.33971707 0.0034969468 
   10700    10.954518  -0.36845683            0  -0.33973289 0.0028903025 
   10800     10.97629  -0.36844048            0  -0.33965945 0.0023287337 
   10900    11.010509  -0.36846697            0  -0.33959622 0.00079408485 
   11000    10.924523  -0.36834197            0  -0.33969668 0.0017314362 
   11100    10.946306  -0.36841427            0  -0.33971186 0.0018418978 
   11200    10.930261  -0.36849149            0  -0.33983115 0.0036879484 
   11300    10.969188  -0.36858461            0  -0.33982221 0.0041508202 
   11400    11.041926  -0.36882202            0  -0.33986889 0.0028670404 
   11500    11.114827  -0.36902355            0  -0.33987926 0.0016423438 
   11600    11.076465  -0.36893608            0  -0.33989238  0.002845558 
   11700    11.020742  -0.36880086            0  -0.33990328 0.0044569606 
   11800    11.127191   -0.3690793            0  -0.33990259 0.0010755502 
   11900    11.042513  -0.36884775            0  -0.33989308 0.0025211023 
   12000    11.073503  -0.36890968            0  -0.33987375 0.0016031454 
   12100    11.042298  -0.36881137            0  -0.33985727 0.0018282229 
   12200    11.100789  -0.36897569            0  -0.33986821 0.0015546672 
   12300    11.074624  -0.36886863            0  -0.33982976 0.0026411493 
   12400    11.102921  -0.36898254            0  -0.33986948 0.00064225961 
   12500     10.99735   -0.3687094            0  -0.33987315 0.0033561758 
   12600    11.035887  -0.36873515            0  -0.33979785 0.0037769801 
   12700    11.006238  -0.36866835            0   -0.3398088 0.0050625258 
   12800    11.077749  -0.36888372            0  -0.33983666 0.0021430985 
   12900    11.036756  -0.36881019            0  -0.33987061 0.0026669509 
   13000    11.068084  -0.36885772            0  -0.33983601 0.0024634323 
   13100    11.021379  -0.36881451            0  -0.33991525 0.0018638476 
   13200    11.008618  -0.36869091            0  -0.33982512 0.0013657304 
   13300    10.873965   -0.3683887            0  -0.33987598 0.0029630387 
   13400    10.916953  -0.36847007            0  -0.33984463 0.0018654812 
   13500     10.95868   -0.3685495            0  -0.33981465 0.00040335826 
   13600    10.935594  -0.36849402            0   -0.3398197 0.0016301893 
   13700    10.926776  -0.36847519            0  -0.33982399 0.0033816462 
   13800    10.859837  -0.36833472            0  -0.33985905 0.0049065544 
   13900     10.99675  -0.36862996            0  -0.33979528 0.00015617072 
   14000    10.993235  -0.36860797            0  -0.33978251 0.00023761341 
   14100     10.91863  -0.36838415            0  -0.33975431 0.0037487178 
   14200    11.055555  -0.36871847            0   -0.3397296  0.001010775 
   14300    10.950528  -0.36861556            0  -0.33990209 0.0035464462 
   14400    11.093252  -0.36881117            0  -0.33972346   0.00271357 
   14500    11.084772  -0.36886899            0  -0.33980351 0.0018718077 
   14600    10.977477  -0.36855634            0   -0.3397722 0.0037235242 
   14700    11.031724  -0.36867813            0  -0.33975175 0.0030048838 
   14800    11.041661  -0.36877493            0   -0.3398225 0.0019610067 
   14900    11.096855  -0.36895061            0  -0.33985345 6.5669281e-05 
   15000    11.062636  -0.36880773            0   -0.3398003 0.0019574128 
   15100    11.030095  -0.36878821            0   -0.3398661 0.0029847338 
   15200    11.057877  -0.36889614            0  -0.33990119 0.0027624751 
   15300    11.174401  -0.36919974            0  -0.33989925 0.0014220194 
   15400    11.163077  -0.36917951            0  -0.33990871 0.0037850359 
   15500    11.168814  -0.36920298            0  -0.33991714 0.0036237081 
   15600    11.182332  -0.36924062            0  -0.33991933 0.0012948624 
   15700    11.089408  -0.36899086            0  -0.33991323  0.002103726 
   15800    11.118464  -0.36905391            0  -0.33990009 0.0010289109 
   15900    11.176738  -0.36921598            0  -0.33990936 -0.00072130693 
   16000    11.049728   -0.3689658            0  -0.33999221 0.0035877344 
   16100    11.137045  -0.36911278            0  -0.33991023 0.0027613957 
   16200    11.252804  -0.36940372            0  -0.33989764 0.0010127961 
   16300    11.345413  -0.36969001            0   -0.3399411 0.00033849581 
   16400    11.394246  -0.36978859            0  -0.33991164 0.0013805653 
   16500    11.370175  -0.36970747            0  -0.33989363 0.0037966111 
   16600    11.338741  -0.36967363            0  -0.33994221 0.0057036612 
   16700    11.488632  -0.37006627            0  -0.33994183 0.0029654923 
   16800    11.500698  -0.37013372            0  -0.33997764 0.0021134004 
   16900    11.376346  -0.36979532            0   -0.3399653 0.0037973169 
   17000     11.34504  -0.36970872            0  -0.33996079 0.0027471714 
   17100    11.427795     -0.36993            0  -0.33996508 0.00022718838 
   17200    11.425821  -0.36992294            0   -0.3399632   0.00237413 
   17300    11.477893  -0.37005168            0   -0.3399554 0.0019103089 
   17400    11.432491  -0.36992106            0  -0.33994383 0.0023038558 
   17500    11.395067  -0.36982349            0  -0.33994439 0.0025809862 
   17600    11.332854  -0.36968791            0  -0.33997193  0.003048003 
   17700    11.406014  -0.36985712            0  -0.33994931 0.00041498416 
   17800    11.403347  -0.36979972            0   -0.3398989 0.0011209403 
   17900    11.342402  -0.36962105            0  -0.33988004 0.0051330343 
   18000    11.362257  -0.36975702            0  -0.33996395  0.003733613 
   18100    11.463869  -0.36985936            0  -0.33979985 0.0015307253 
   18200    11.473329  -0.36990021            0  -0.33981589 0.0027012604 
   18300    11.401372  -0.36971917            0  -0.33982353 0.0058799592 
   18400    11.501343  -0.37010072            0  -0.33994295 0.00052272127 
   18500      11.3936   -0.3697805            0  -0.33990524 0.0027947913 
   18600    11.418752  -0.36987226            0  -0.33993105 0.0017973475 
   18700    11.428717  -0.36991393            0  -0.33994659 0.0011857764 
   18800    11.389398  -0.36983902            0  -0.33997478 0.0026346164 
   18900    11.439063  -0.36997859            0  -0.33998412 0.0015005359 
   19000    11.391627  -0.36984942            0  -0.33997934 0.0043000665 
   19100    11.370055  -0.36979386            0  -0.33998034 0.0043629816 
   19200    11.462045  -0.37005181            0  -0.33999708 0.00010964682 
   19300    11.366306  -0.36982587            0  -0.34002218 0.0029026461 
   19400    11.375253  -0.36982444            0  -0.33999729 0.0040750561 
   19500    11.513969  -0.37018628            0   -0.3399954 -0.00078256581 
   19600    11.538602  -0.37026119            0  -0.34000572 -0.00074637532 
   19700    11.387771  -0.36988182            0  -0.34002184 0.0054803641 
   19800    11.505299  -0.37019144            0  -0.34002329  0.003068037 
   19900    11.566168  -0.37033592            0  -0.34000817   0.00155869 
   20000     11.44228  -0.37001307            0  -0.34001017 0.0038770452 
   20100     11.41687  -0.36998715            0  -0.34005088 0.0033392859 
   20200    11.490496  -0.37014825            0  -0.34001892 0.0011731919 
   20300    11.376082  -0.36982895            0  -0.33999962 0.0043172263 
   20400    11.478003  -0.37007214            0  -0.33997557 0.00075773578 
   20500    11.474221  -0.37007958            0  -0.33999292  0.001743875 
   20600    11.431333  -0.36998937            0  -0.34001517 0.0035220048 
   20700       11.447  -0.36999738            0  -0.33998211 0.0025632259 
   20800    11.544242  -0.37026354            0  -0.33999328 0.0021393546 
   20900    11.629297  -0.37048488            0   -0.3399916 0.0017441955 
   21000    11.674766  -0.37059925            0  -0.33998674 -0.000396997 
   21100    11.715771  -0.37070512            0  -0.33998509 0.00066050729 
   21200    11.687479  -0.37062588            0  -0.33998004 0.0057393781 
   21300    11.784406  -0.37087653            0  -0.33997653 0.0029967709 
   21400    11.616102  -0.37050962            0  -0.34005094 0.0063419492 
   21500    11.615449  -0.37045252            0  -0.33999555 0.0043788511 
   21600     11.68932  -0.37063801            0  -0.33998734 0.00091562586 
   21700    11.643308  -0.37051721            0  -0.33998719 0.0022004564 
   21800    11.563054  -0.37030308            0   -0.3399835  0.005757644 
   21900    11.652322  -0.37054027            0  -0.33998662  0.002606865 
   22000    11.572496  -0.37039219            0  -0.34004785  0.001551689 
   22100    11.599226  -0.37042083            0   -0.3400064 0.00078855575 
   22200    11.635825  -0.37050057            0  -0.33999018  0.002296572 
   22300     11.65125  -0.37053822            0  -0.33998737 0.0012483821 
   22400    11.576275  -0.37034448            0  -0.33999023 0.0018327728 
   22500    11.623638  -0.37048426            0  -0.34000581 0.00090712292 
   22600    11.609799  -0.37045712            0  -0.34001496 0.0022589516 
   22700    11.629513  -0.37049452            0  -0.34000067 0.0030605607 
   22800    11.671343  -0.37059025            0  -0.33998672 0.0015854527 
   22900    11.703803  -0.37067751            0  -0.33998887 0.0016590351 
   23000    11.684527  -0.37064709            0  -0.34000899 0.0039392986 
   23100    11.713093  -0.37071049            0  -0.33999749 0.0049024478 
   23200    11.867597  -0.37111991            0  -0.34000179 0.0025964116 
   23300    11.791952  -0.37089171            0  -0.33997193 0.0047562359 
   23400    11.832239  -0.37099392            0   -0.3399685 0.00097811781 
   23500    11.858426  -0.37107499            0  -0.33998091 0.00096088459 
   23600    11.781767  -0.37088877            0   -0.3399957 0.0042554352 
   23700     11.80273  -0.37091991            0  -0.33997187 0.0044981904 
   23800    11.781555  -0.37084067            0  -0.33994815 0.0028720307 
   23900    11.671661  -0.37060261            0  -0.33999825 0.0014483051 
   24000    11.545409  -0.37023862            0   -0.3399653 0.0023385303 
   24100    11.568597  -0.37027737            0  -0.33994326 0.00070731617 
   24200    11.615428  -0.37042284            0  -0.33996593 0.00083663361 
   24300    11.648886  -0.37049061            0  -0.33994596 0.0011209628 
   24400     11.63615  -0.37041527            0  -0.33990402 0.0032164006 
   24500     11.73268  -0.37061328            0  -0.33984892 0.0020012231 
   24600    11.630527  -0.37049201            0   -0.3399955 0.0039299175 
   24700    11.689196   -0.3704706            0  -0.33982025 0.0030537802 
   24800    11.677237  -0.37046238            0  -0.33984339 0.0015770626 
   24900    11.701678  -0.37059763            0  -0.33991456 0.0020849802 
   25000    11.827696  -0.37091796            0  -0.33990446 0.0036553927 
   25100    11.872423  -0.37106266            0  -0.33993188  0.006578914 
   25200    11.936621  -0.37126711            0  -0.33996799 0.0032994815 
   25300    11.876583  -0.37113981            0  -0.33999812 0.0012209059 
   25400    11.797209  -0.37097548            0  -0.34004192  0.001561742 
   25500    11.785073  -0.37093574            0  -0.34003399 0.0036646151 
   25600    11.918602    -0.371269            0  -0.34001713 0.0031051015 
   25700    11.946183  -0.37134403            0  -0.34001983 0.0048206996 
   25800    11.912167   -0.3712552            0   -0.3400202 0.0031485953 
   25900    11.898924  -0.37121949            0  -0.34001922 0.0019405841 
   26000    11.831831  -0.37103894            0  -0.34001459  0.003220707 
   26100    11.846557  -0.37107224            0  -0.34000928 0.0042613812 
   26200    11.876542  -0.37119144            0  -0.34004986 0.00070681971 
   26300    11.773883  -0.37089039            0  -0.34001799  0.000961338 
   26400    11.742442  -0.37079056            0  -0.34000059 0.0024980275 
   26500    11.821933  -0.37098978            0  -0.33999138 0.00033672778 
   26600    11.734758  -0.37078598            0  -0.34001617 0.0028855521 
   26700    11.763736  -0.37090623            0  -0.34006044 0.0037386288 
   26800    11.846866   -0.3710621            0  -0.33999833 0.0022676463 
   26900    11.886701  -0.37118666            0  -0.34001843 0.0020160401 
   27000    11.910627  -0.37126959            0  -0.34003863 0.0022819576 
   27100    12.074343  -0.37168407            0  -0.34002383 0.00024896729 
   27200    11.947646  -0.37135443            0   -0.3400264 0.0064967712 
   27300    12.148425  -0.37188286            0  -0.34002837 0.00034170774 
   27400    12.021422  -0.37154973            0  -0.34002826  0.002869773 
   27500    12.050942  -0.37162515            0  -0.34002627 0.00048709427 
   27600    11.898891  -0.37122292            0  -0.34002274 0.0047782471 
   27700    11.963213  -0.37138942            0  -0.34002057 0.0021949732 
   27800    11.896301  -0.37121137            0  -0.34001798 0.0026922433 
   27900    11.969689  -0.37140132            0  -0.34001549 0.0019450959 
   28000     11.94691  -0.37135487            0  -0.34002878 0.0045917443 
   28100    12.046376  -0.37162509            0  -0.34003818 0.0024217676 
   28200    12.042057   -0.3715819            0  -0.34000632 0.0018316226 
   28300    12.039807  -0.37156761            0  -0.33999792  0.002220875 
   28400      12.0081  -0.37148628            0  -0.33999974 0.0022442456 
   28500    12.039188   -0.3715741            0  -0.34000604 0.0013528453 
   28600    12.048244  -0.37161236            0  -0.34002055 0.0019294038 
   28700    12.077244   -0.3716932            0  -0.34002536 0.0026771773 
   28800    12.139297  -0.37184583            0  -0.34001527 0.0013950008 
   28900    12.057767  -0.37163918            0  -0.34002241 0.0031084151 
   29000    12.063143  -0.37168308            0  -0.34005221 0.0024632473 
   29100    12.012891  -0.37151971            0  -0.34002061 0.0034995145 
   29200    12.068341   -0.3716685            0    -0.340024 0.0024725025 
   29300    12.158383  -0.37190643            0  -0.34002583 0.0015283641 
   29400    12.248991  -0.37214284            0  -0.34002466 0.0006126288 
   29500    12.266567  -0.37218675            0  -0.34002247 0.0013840327 
   29600    12.236889  -0.37210818            0  -0.34002173 0.0022851156 
   29700    12.337714  -0.37236878            0  -0.34001795   0.00255516 
   29800    12.431205   -0.3726079            0  -0.34001192   0.00378176 
   29900    12.293291  -0.37223927            0  -0.34000492 0.0065689583 
   30000    12.266305  -0.37215992            0  -0.33999634 -0.0011399062 
   30100    12.093346  -0.37169541            0  -0.33998534 0.0013012786 
   30200    12.048553  -0.37156361            0  -0.33997099 0.0040252392 
   30300    12.142292   -0.3717952            0  -0.33995679 0.0017332694 
   30400    12.100567  -0.37168379            0  -0.33995479 0.00064370415 
   30500     12.05257   -0.3715976            0  -0.33999445  0.001468047 
   30600    12.043772  -0.37156187            0  -0.33998179 0.0011432925 
   30700    12.078332  -0.37162955            0  -0.33995885 0.0038901478 
   30800    12.254392  -0.37207535            0    -0.339943 0.0021428638 
   30900    12.221353   -0.3719825            0  -0.33993679 0.0038903631 
   31000    12.340938  -0.37230586            0  -0.33994658 0.00018655243 
   31100    12.188023  -0.37191099            0  -0.33995266 0.0053644573 
   31200    12.342543  -0.37231673            0  -0.33995324 0.0013275608 
   31300    12.205668  -0.37195529            0   -0.3399507 0.0039378432 
   31400    12.172054  -0.37185955            0   -0.3399431 0.0019048685 
   31500    12.093959  -0.37164094            0  -0.33992926 0.0035115086 
   31600    12.141988  -0.37174371            0  -0.33990609 0.0018221784 
   31700    12.256208  -0.37200669            0  -0.33986958 0.00039546336 
   31800     12.20138  -0.37181651            0  -0.33982317 0.0030553235 
   31900    12.124803  -0.37155529            0  -0.33976273 0.0048025284 
   32000    12.126277  -0.37162032            0   -0.3398239 0.0012950014 
   32100    12.131677  -0.37156693            0  -0.33975636 0.0011790024 
   32200     12.20942  -0.37183356            0  -0.33981914 0.0016877012 
   32300    12.212227  -0.37188771            0  -0.33986592 0.0051927027 
   32400    12.255191  -0.37203575            0  -0.33990131 0.0025001501 
   32500    12.172988  -0.37180678            0  -0.33988788  0.001156114 
   32600     12.15597  -0.37173725            0  -0.33986298 -0.00016910356 
   32700     12.21152   -0.3719075            0  -0.33988757 0.00093198487 
   32800    12.274618  -0.37202535            0  -0.33983996 0.0037894987 
   32900    12.368099  -0.37227323            0  -0.33984273 0.0038003171 
   33000    12.300637  -0.37214517            0  -0.33989156 0.0041438205 
   33100    12.289432  -0.37201391            0  -0.33978969 0.0043267232 
   33200    12.283538   -0.3721924            0  -0.33998362 0.0019809556 
   33300    12.322944  -0.37208902            0  -0.33977692 0.0031035332 
   33400    12.327024  -0.37215769            0  -0.33983489 0.0014970347 
   33500    12.290155  -0.37208156            0  -0.33985544 -2.3404358e-05 
   33600    12.137488  -0.37172454            0  -0.33989873 0.0041438309 
   33700    12.289918  -0.37213496            0  -0.33990946 0.00085572766 
   33800    12.244396  -0.37200568            0  -0.33989954 0.0031890572 
   33900    12.374201   -0.3723672            0   -0.3399207 -0.0011419021 
   34000    12.312592  -0.37215678            0  -0.33987182 0.0023903061 
   34100    12.341587  -0.37228662            0  -0.33992564 0.0054068744 
   34200    12.330665  -0.37224884            0   -0.3399165 0.0050291795 
   34300    12.354543  -0.37232287            0  -0.33992791 0.0011765557 
   34400    12.352266  -0.37234364            0  -0.33995466 0.0040289518 
   34500    12.431846  -0.37257316            0  -0.33997551 0.0037167468 
   34600    12.422979   -0.3725641            0   -0.3399897 0.00051594006 
   34700    12.334416  -0.37234072            0  -0.33999854 0.0019780031 
   34800    12.463812  -0.37268426            0  -0.34000279  0.001114679 
   34900    12.361507  -0.37242001            0   -0.3400068 0.0038324763 
   35000     12.38607  -0.37248306            0  -0.34000543 -0.00029527386 
   35100    12.345515  -0.37236556            0  -0.33999427 0.0011843036 
   35200    12.247955  -0.37211669            0  -0.34000122 0.0037521431 
   35300    12.385429  -0.37253102            0  -0.34005508 0.0032721715 
   35400    12.441728  -0.37261004            0  -0.33998648 0.0030729111 
   35500    12.397509   -0.3724792            0  -0.33997158 0.0002304507 
   35600    12.553941  -0.37288343            0  -0.33996563 -0.0019243689 
   35700    12.586863  -0.37295824            0  -0.33995412 0.0026280737 
   35800    12.506112  -0.37275391            0  -0.33996152 0.0072591837 
   35900    12.725278  -0.37334581            0  -0.33997874 0.00048312002 
   36000    12.738903  -0.37333896            0  -0.33993617 0.0023087768 
   36100    12.788356  -0.37347647            0    -0.339944 0.0027394409 
   36200    12.667754  -0.37317942            0  -0.33996319 0.0041477342 
   36300    12.675701  -0.37320145            0  -0.33996439 0.0019375756 
   36400    12.536642  -0.37280513            0  -0.33993269 0.0040306962 
   36500    12.529605    -0.372771            0  -0.33991702 0.0013534645 
   36600    12.492066  -0.37265894            0  -0.33990338 0.0022636975 
   36700      12.4842  -0.37262712            0  -0.33989219 0.0021591181 
   36800    12.434093  -0.37245878            0  -0.33985524 0.0039747868 
   36900    12.437726  -0.37252003            0  -0.33990696 0.0018450405 
   37000    12.571074  -0.37273007            0  -0.33976735 -0.00096563198 
   37100     12.58001  -0.37282222            0  -0.33983606 0.0013651096 
   37200     12.54859  -0.37268719            0  -0.33978342 0.0030737428 
   37300    12.543882  -0.37265288            0  -0.33976146 0.0013838616 
   37400    12.509339  -0.37267678            0  -0.33987593 0.00030097916 
   37500    12.525317  -0.37265274            0     -0.33981 0.0044785396 
   37600    12.568196   -0.3728136            0  -0.33985842 0.0041788845 
   37700    12.651179  -0.37304434            0  -0.33987158 -0.0009754475 
   37800    12.645624  -0.37302756            0  -0.33986935 0.00088525096 
   37900    12.650433  -0.37305387            0  -0.33988306 0.0043481623 
   38000    12.647642  -0.37308044            0  -0.33991695 0.0038875148 
   38100    12.627216  -0.37298727            0  -0.33987734 0.0024957206 
   38200    12.737256  -0.37325695            0  -0.33985848 0.0027754878 
   38300    12.792789  -0.37339665            0  -0.33985257  0.006099632 
   38400    12.928133  -0.37375192            0  -0.33985294 0.0013267384 
   38500    12.805026  -0.37343357            0   -0.3398574 0.0032899706 
   38600     12.87193  -0.37362667            0  -0.33987507 0.0011698434 
   38700    12.749128  -0.37322749            0  -0.33979789 0.0048095675 
   38800     12.79266  -0.37337869            0  -0.33983495 0.0012699282 
   38900    12.698113   -0.3731155            0  -0.33981966 0.0029852339 
   39000    12.679217  -0.37306571            0  -0.33981942 0.0019578947 
   39100     12.66854   -0.3731602            0  -0.33994191 0.00034653987 
   39200    12.710843  -0.37320242            0   -0.3398732 -0.00010373758 
   39300    12.818742  -0.37346596            0  -0.33985382 0.0018681404 
   39400    12.863131  -0.37363131            0  -0.33990279 0.0033171718 
   39500    12.927835  -0.37382077            0  -0.33992258 0.0028463401 
   39600    12.901515  -0.37373956            0  -0.33991039 0.0036373064 
   39700    12.828327  -0.37355459            0  -0.33991732 0.0035093735 
   39800    12.964118  -0.37394145            0  -0.33994812 -0.00060227081 
   39900    13.021126  -0.37409629            0  -0.33995348 0.0021622919 
   40000    12.834052  -0.37358089            0  -0.33992861 0.0070027347 
   40100    12.910306  -0.37377937            0  -0.33992714 -0.00055999843 
   40200    12.687402  -0.37318832            0  -0.33992057 0.0037533713 
   40300    12.799727  -0.37346879            0  -0.33990651 0.0040362842 
   40400    12.909024  -0.37375459            0  -0.33990573 0.0027330925 
   40500    12.830882  -0.37365105            0  -0.34000708  0.002577906 
   40600     12.76455  -0.37337553            0  -0.33990549 0.0046335531 
   40700    12.727079  -0.37324417            0  -0.33987239 0.0036852733 
   40800    12.759523  -0.37333594            0  -0.33987909 -0.0008329047 
   40900    12.691015  -0.37318568            0  -0.33990846 0.00070290564 
   41000    12.782787  -0.37345055            0  -0.33993269 0.0008108861 
   41100    12.883535  -0.37364607            0  -0.33986404 0.0042936988 
   41200    12.912896  -0.37368283            0  -0.33982381  0.004965815 
   41300    12.916213  -0.37371459            0  -0.33984687 0.0031866359 
   41400    12.985634  -0.37386154            0   -0.3398118 0.0006126486 
   41500     12.91417  -0.37365801            0  -0.33979565 0.0037222789 
   41600    12.957023   -0.3737764            0  -0.33980168 0.0039221569 
   41700    12.936923  -0.37371383            0  -0.33979181 0.0020402983 
   41800    12.929819  -0.37378462            0  -0.33988123 0.00060849454 
   41900    12.893586  -0.37362823            0  -0.33981985  0.005002657 
   42000    12.954413  -0.37389401            0  -0.33992613 0.0022489531 
   42100    12.932971  -0.37383644            0  -0.33992478 0.0020929113 
   42200    12.882485  -0.37369161            0  -0.33991233 0.0020246458 
   42300    12.842965  -0.37357895            0   -0.3399033 0.0023548016 
   42400    12.780911  -0.37341851            0  -0.33990557 0.0050401583 
   42500    12.823286  -0.37352117            0  -0.33989711 0.0026969408 
   42600    12.791777  -0.37343947            0  -0.33989804 0.0026772173 
   42700    12.805058  -0.37351132            0  -0.33993507 0.0020446837 
   42800    12.885882  -0.37371361            0  -0.33992542 0.00085381202 
   42900    12.861796  -0.37364019            0  -0.33991516  0.001428607 
   43000    12.820987  -0.37358217            0  -0.33996415 0.0036714342 
   43100    12.729595   -0.3734179            0  -0.34003951 0.0062770344 
   43200    12.880785  -0.37369939            0  -0.33992457 0.0010764804 
   43300    12.862428  -0.37364494            0  -0.33991825  0.001682228 
   43400    12.911654  -0.37377246            0   -0.3399167 0.0007348797 
   43500    13.008244  -0.37413369            0  -0.34002466 0.0012132706 
   43600    13.023312  -0.37407814            0   -0.3399296 0.0056126625 
   43700    12.977953  -0.37396841            0  -0.33993881 0.0068909531 
   43800    13.128035  -0.37434634            0   -0.3399232 -0.00072851302 
   43900    13.075888  -0.37423348            0  -0.33994708 0.00029247301 
   44000    13.090302  -0.37428216            0  -0.33995797  0.002488533 
   44100     13.17481  -0.37449841            0  -0.33995263 0.0039354534 
   44200    13.251945  -0.37469038            0  -0.33994234 0.0030583688 
   44300    13.241211  -0.37464172            0  -0.33992182 0.0032141946 
   44400     13.38056  -0.37502138            0   -0.3399361 -0.0016690663 
   44500    13.250367  -0.37471298            0  -0.33996908 0.0045254358 
   44600    13.276456  -0.37476944            0  -0.33995712 0.0048390879 
   44700    13.152711   -0.3743781            0  -0.33989026 0.0047276472 
   44800    13.113184  -0.37428944            0  -0.33990525 0.0033607928 
   44900    13.146648  -0.37439497            0  -0.33992303 0.0029807241 
   45000     13.19518  -0.37453861            0  -0.33993941 0.0021358718 
   45100    13.228697  -0.37460683            0  -0.33991975 0.0022820868 
   45200    13.327083  -0.37484631            0  -0.33990125 0.0032298115 
   45300    13.301112  -0.37477503            0  -0.33989807 0.0047329209 
   45400    13.307135  -0.37486432            0  -0.33997157 0.0024706833 
   45500    13.316926  -0.37480025            0  -0.33988182 0.00034601385 
   45600    13.259829  -0.37464414            0  -0.33987543  0.003434626 
   45700    13.283063  -0.37471104            0   -0.3398814 0.0014806143 
   45800    13.088745  -0.37420393            0  -0.33988381 0.0060964635 
   45900    13.300642  -0.37480108            0  -0.33992535 -0.0018155536 
   46000    13.034803  -0.37405223            0  -0.33987356 0.0035310279 
   46100    13.158786  -0.37434661            0  -0.33984284 4.5834893e-05 
   46200    13.087811  -0.37416557            0  -0.33984791 0.0024193798 
   46300     13.21048  -0.37451844            0  -0.33987912 -0.00094513801 
   46400    13.213081  -0.37448325            0  -0.33983711 0.0043156168 
   46500    13.303519  -0.37474474            0  -0.33986146 0.0027427542 
   46600    13.133713  -0.37429474            0  -0.33985671 0.0062164756 
   46700    13.247152  -0.37463391            0  -0.33989843  0.002447508 
   46800    13.128266   -0.3743234            0  -0.33989965 0.0045628702 
   46900    13.135593  -0.37427207            0  -0.33982911 0.0025906269 
   47000    13.220131   -0.3744517            0  -0.33978708 7.2709759e-05 
   47100    13.251445   -0.3745148            0  -0.33976807 0.0026787763 
   47200    13.179952  -0.37445701            0  -0.33989774 0.0042506863 
   47300    13.239392  -0.37449341            0  -0.33977829  0.002671937 
   47400    13.127607  -0.37422633            0  -0.33980432 0.0038709808 
   47500     13.08184  -0.37413866            0  -0.33983665 0.00085653233 
   47600     12.97529  -0.37387331            0  -0.33985069 0.0004478226 
   47700    12.964081  -0.37386488            0  -0.33987165 0.0011357221 
   47800    12.882505  -0.37365294            0  -0.33987361 0.0039769245 
   47900     12.90384  -0.37362902            0  -0.33979375 0.0025243751 
   48000    12.980865  -0.37384943            0  -0.33981219 0.0016946333 
   48100    12.996413  -0.37382839            0  -0.33975039 0.0016449421 
   48200    13.035656  -0.37400614            0  -0.33982523 0.00021755468 
   48300    13.096594  -0.37412749            0   -0.3397868 0.0013420297 
   48400    13.144515   -0.3743701            0  -0.33990375 0.0031974198 
   48500    13.221495  -0.37449644            0  -0.33982824  0.003687961 
   48600    13.244655   -0.3745501            0  -0.33982117 0.0014042099 
   48700    13.137832  -0.37427354            0  -0.33982472 0.0029058467 
   48800    13.098533  -0.37416727            0  -0.33982149 0.0047251376 
   48900     13.09066  -0.37421869            0  -0.33989356 0.0021363326 
   49000    13.185495  -0.37439228            0  -0.33981847 -0.00027117739 
   49100    13.258162  -0.37456619            0  -0.33980185 0.0021735622 
   49200    13.302441  -0.37479846            0  -0.33991801 0.0048549717 
   49300     13.24918  -0.37455557            0  -0.33981478 0.0041148585 
   49400    13.249996  -0.37457639            0  -0.33983346 0.0030527234 
   49500    13.317483  -0.37475743            0  -0.33983754 0.0014544815 
   49600    13.259557  -0.37463426            0  -0.33986625 0.0017010985 
   49700    13.220491  -0.37447395            0  -0.33980838 0.0021896979 
   49800    13.163002  -0.37435051            0  -0.33983569 0.0021109354 
   49900    13.302783  -0.37469147            0  -0.33981013 -0.00062266958 
   50000    13.238605  -0.37445371            0  -0.33974065 0.0040971727 
   50100    13.318435   -0.3747474            0  -0.33982501  0.003130759 
   50200    13.272553  -0.37459443            0  -0.33979235 0.0036744742 
   50300    13.171803  -0.37434122            0  -0.33980332 0.0020437325 
   50400     13.11819  -0.37424152            0   -0.3398442 0.0007565253 
   50500    13.063518   -0.3741243            0  -0.33987034 0.0023999051 
   50600    13.052982  -0.37407614            0  -0.33984981 0.0047475976 
   50700    13.288143  -0.37469029            0  -0.33984733 -0.00071925239 
   50800    13.253881  -0.37458902            0  -0.33983591  0.002328306 
   50900    13.261543  -0.37458551            0   -0.3398123 0.0048787869 
   51000    13.240383  -0.37452661            0  -0.33980889 0.0051580345 
   51100    13.393755  -0.37487871            0  -0.33975882 0.00034798635 
   51200    13.330643   -0.3746551            0   -0.3397007 0.0031182908 
   51300    13.307958  -0.37473792            0    -0.339843 0.00027920149 
   51400    13.402888  -0.37484204            0  -0.33969821 0.0018314038 
   51500    13.351847  -0.37476267            0  -0.33975268 0.0070032937 
   51600    13.363338  -0.37484384            0  -0.33980371  0.003041905 
   51700    13.306999  -0.37466187            0  -0.33976947 0.0024901849 
   51800    13.233497  -0.37448053            0  -0.33978086 0.0031893463 
   51900    13.374716  -0.37486189            0  -0.33979193 0.00070342957 
   52000    13.461338  -0.37506955            0  -0.33977246 0.0021853221 
   52100    13.469978  -0.37503017            0  -0.33971042 0.0021531916 
   52200    13.388298  -0.37490016            0  -0.33979459 0.0043561014 
   52300    13.629566  -0.37540054            0  -0.33966233 0.0037351671 
   52400    13.574818  -0.37534316            0  -0.33974851 0.0071265517 
   52500    13.618226  -0.37535485            0  -0.33964638 0.0030150098 
   52600     13.61166  -0.37531777            0  -0.33962652  0.002289411 
   52700    13.535544   -0.3752321            0  -0.33974043  0.002098537 
   52800    13.428397  -0.37482121            0   -0.3396105  0.003825221 
   52900     13.53748  -0.37510981            0  -0.33961307 0.00050309235 
   53000    13.431944  -0.37488712            0   -0.3396671  0.003085766 
   53100    13.545103  -0.37517952            0  -0.33966279 -1.7803882e-05 
   53200    13.445694  -0.37497269            0  -0.33971661 0.0041978898 
   53300    13.495957  -0.37509694            0  -0.33970907 0.0046218483 
   53400    13.603106  -0.37539649            0  -0.33972767 0.0032738849 
   53500    13.578587  -0.37535337            0  -0.33974883 0.0031928231 
   53600    13.436433  -0.37496349            0   -0.3397317 0.0053153101 
   53700    13.521369  -0.37523685            0  -0.33978235 -0.00021992294 
   53800    13.503961  -0.37506411            0  -0.33965526 0.0021792025 
   53900     13.55629  -0.37526312            0  -0.33971706 0.0040816396 
   54000    13.596827  -0.37543389            0  -0.33978153 0.00064050712 
   54100    13.546585  -0.37532814            0  -0.33980752 0.0035783146 
   54200    13.555037  -0.37526943            0  -0.33972665 0.0041699554 
   54300    13.651483  -0.37550695            0  -0.33971128 -0.0021483297 
   54400     13.57823  -0.37530819            0   -0.3397046  0.003004624 
   54500     13.60553  -0.37537671            0  -0.33970153 0.0053306588 
   54600    13.831784  -0.37595305            0  -0.33968461 0.00038143457 
   54700    13.842831  -0.37597181            0   -0.3396744 0.00078595167 
   54800    13.637854   -0.3754145            0  -0.33965456 0.0054588085 
   54900    13.634487  -0.37532655            0  -0.33957545 0.0022867797 
   55000    13.466903  -0.37488232            0  -0.33957063 0.0054721208 
   55100    13.556095  -0.37531009            0  -0.33976454 0.0040639002 
   55200    13.610496   -0.3752599            0   -0.3395717 0.0021867601 
   55300    13.720789  -0.37559306            0  -0.33961566 -0.0026013934 
   55400    13.557309  -0.37523178            0  -0.33968304 0.0048230053 
   55500    13.656278  -0.37558948            0  -0.33978123 0.00092230258 
   55600    13.669717  -0.37562182            0  -0.33977834 0.0035510306 
   55700    13.665095  -0.37560656            0   -0.3397752 0.0037304975 
   55800    13.656899  -0.37559106            0  -0.33978118 0.0011870958 
   55900    13.541015  -0.37529094            0  -0.33978493 0.0042708372 
   56000    13.614838  -0.37551745            0  -0.33981786 0.0015116295 
   56100    13.371963  -0.37490795            0  -0.33984521 0.0050138107 
   56200    13.466314  -0.37516971            0  -0.33985957 0.0016540942 
   56300    13.561164  -0.37542105            0   -0.3398622 -0.00037575469 
   56400    13.529969  -0.37533682            0  -0.33985977 0.0018360695 
   56500    13.512842  -0.37530851            0  -0.33987637 0.0023520067 
   56600    13.488709  -0.37523341            0  -0.33986455 0.0022707347 
   56700    13.553206  -0.37537668            0   -0.3398387 0.00062738463 
   56800    13.392972  -0.37495473            0   -0.3398369 0.0045434999 
   56900    13.289263  -0.37473026            0  -0.33988437 0.0030647546 
   57000    13.249121  -0.37461505            0  -0.33987441  0.003728298 
   57100    13.289725  -0.37472883            0  -0.33988173 0.0076818625 
   57200    13.660052  -0.37568927            0  -0.33987113 0.0011006315 
   57300    13.605239  -0.37551929            0  -0.33984487 0.0064083144 
   57400    13.624128  -0.37562499            0  -0.33990104 0.0058467688 
   57500    13.656927  -0.37568778            0  -0.33987783 0.00091781762 
   57600     13.52986  -0.37536976            0    -0.339893 0.0017607477 
   57700    13.432644  -0.37514531            0  -0.33992346 0.0043504297 
   57800    13.445076  -0.37519735            0   -0.3399429 0.0030681266 
   57900    13.514969  -0.37538818            0  -0.33995047 -0.00038934886 
   58000    13.462994  -0.37525741            0  -0.33995597 0.0015163572 
   58100    13.434725   -0.3751858            0  -0.33995849 0.0019707519 
   58200    13.513926  -0.37538953            0  -0.33995455 0.0017440044 
   58300    13.491092  -0.37532184            0  -0.33994673 0.0028080695 
   58400    13.582376  -0.37556867            0   -0.3399542 -0.00070844372 
   58500    13.561561  -0.37553151            0  -0.33997162 0.0036731691 
   58600    13.637993   -0.3757178            0   -0.3399575 0.0062427633 
   58700    13.725372  -0.37597583            0  -0.33998641 0.0048394353 
   58800    13.800912  -0.37615447            0  -0.33996698 0.00023398071 
   58900    13.681279  -0.37583049            0  -0.33995669 0.0044587427 
   59000    13.585124  -0.37558402            0  -0.33996235 0.0054367077 
   59100    13.575369  -0.37554678            0  -0.33995068 -0.00049588175 
   59200    13.516588  -0.37538114            0  -0.33993918 -0.00035011789 
   59300    13.530674  -0.37540239            0  -0.33992349 0.0026342924 
   59400    13.520753   -0.3753744            0  -0.33992151 0.0052241106 
   59500     13.58801  -0.37562358            0  -0.33999434 0.00099944866 
   59600    13.532355  -0.37540539            0  -0.33992208 0.0035572307 
   59700    13.688632  -0.37580125            0  -0.33990816 0.0013605221 
   59800    13.498734  -0.37531076            0  -0.33991561 0.0059857064 
   59900    13.681625  -0.37579241            0  -0.33991771 0.0025909994 
   60000    13.657802  -0.37572712            0  -0.33991488 0.0031700123 
   60100    13.688836  -0.37583108            0  -0.33993746 0.0016515264 
   60200    13.674139   -0.3758244            0  -0.33996932 0.0041291444 
   60300    13.694724  -0.37581442            0  -0.33990536 0.0057298634 
   60400    13.722621  -0.37587593            0  -0.33989373 0.0025417466 
   60500    13.784904   -0.3760376            0  -0.33989209 -0.00041543296 
   60600    13.818744  -0.37615385            0   -0.3399196 6.929112e-05 
   60700    13.723417  -0.37591601            0  -0.33993172 0.0038010158 
   60800    13.720809  -0.37589518            0  -0.33991773 0.0012524335 
   60900    13.586235   -0.3755042            0  -0.33987962 0.0023359504 
   61000     13.62229  -0.37558747            0  -0.33986834 0.0037054497 
   61100    13.756433  -0.37594639            0  -0.33987553 0.0041721922 
   61200    13.983479  -0.37656133            0  -0.33989512 0.0025010058 
   61300    14.011899  -0.37663372            0    -0.339893 0.0067651424 
   61400    14.145822   -0.3769921            0  -0.33990021 0.0033078766 
   61500    14.121615  -0.37689464            0  -0.33986623 0.0026155713 
   61600    14.021844  -0.37662116            0  -0.33985436 0.0014918403 
   61700    13.912648  -0.37639884            0  -0.33991836 0.0026654847 
   61800    13.929589  -0.37636875            0  -0.33984385 0.0015629975 
   61900    13.810675  -0.37606644            0  -0.33985334  0.003245308 
   62000    13.928892  -0.37643529            0  -0.33991222 0.0012538306 
   62100    13.818864  -0.37611935            0  -0.33988479 0.0066691193 
   62200    13.971837  -0.37650536            0  -0.33986968 -0.0013902355 
   62300    13.848164  -0.37618825            0  -0.33987685 0.0007462656 
   62400    13.920452  -0.37637816            0  -0.33987722 0.0025658213 
   62500    14.039014  -0.37667593            0  -0.33986411 0.0026151737 
   62600    13.863874  -0.37621104            0  -0.33985845 0.0062138098 
   62700    13.831961  -0.37613369            0  -0.33986479 0.0018610677 
   62800     13.80782  -0.37606628            0  -0.33986067 -0.00012779169 
   62900    13.849715  -0.37618185            0  -0.33986639 0.0014849582 
   63000    13.837725  -0.37611835            0  -0.33983433 0.0040958139 
   63100    13.835571  -0.37609857            0   -0.3398202 0.0057284976 
   63200    13.939645  -0.37636927            0    -0.339818 0.0011149597 
   63300    13.845668  -0.37612954            0   -0.3398247 0.0015725054 
   63400    13.892842  -0.37622246            0  -0.33979391 0.0019700126 
   63500    14.011988   -0.3764499            0  -0.33970894 0.0026730381 
   63600    13.916451  -0.37633657            0  -0.33984612  0.005649088 
   63700    14.093259  -0.37673384            0  -0.33977979 0.0012124404 
   63800    14.191908  -0.37702643            0   -0.3398137 0.0047438294 
   63900    14.176948  -0.37696125            0  -0.33978775 0.0055476392 
   64000    14.147631  -0.37692305            0  -0.33982642 0.0035621164 
   64100    14.078848  -0.37673176            0   -0.3398155 0.0048752579 
   64200    13.976337  -0.37646404            0  -0.33981656 0.0018906662 
   64300    13.847994  -0.37613149            0  -0.33982055 0.00091335855 
   64400    13.854537  -0.37619358            0  -0.33986548 0.0044894573 
   64500    13.946865  -0.37647403            0  -0.33990384 0.0048402278 
   64600    13.943045  -0.37644523            0  -0.33988505 0.0037293143 
   64700    14.109098  -0.37683468            0  -0.33983909 -0.0021320038 
   64800     13.95499  -0.37645686            0  -0.33986536 0.0029187695 
   64900    14.008135  -0.37661837            0  -0.33988751 0.0023304537 
   65000    13.862758  -0.37624011            0  -0.33989045 0.0063519244 
   65100    13.971351  -0.37649928            0  -0.33986488 0.00063793957 
   65200    13.885002  -0.37623938            0   -0.3398314 0.0036254932 
   65300    13.903078  -0.37622922            0  -0.33977384 0.0049220693 
   65400    14.151161  -0.37685788            0    -0.339752  0.001014072 
   65500    14.019352  -0.37660731            0  -0.33984704 0.0050785417 
   65600    14.143031  -0.37673541            0  -0.33965085 -0.00025884791 
   65700    14.101615  -0.37666197            0    -0.339686 0.0011649832 
   65800    13.973961  -0.37635618            0  -0.33971494 0.0069555349 
   65900    14.123415  -0.37690743            0   -0.3398743 0.00049080121 
   66000    14.068994  -0.37667385            0  -0.33978341  0.004386025 
   66100    14.057047  -0.37663082            0  -0.33977171 0.0050588367 
   66200    14.190564  -0.37699734            0  -0.33978814 0.0010825906 
   66300    14.041783  -0.37660334            0  -0.33978426 0.0056712291 
   66400    14.101361  -0.37682297            0  -0.33984767 0.00051659155 
   66500    14.064686  -0.37668309            0  -0.33980396 -0.00064638621 
   66600    14.050434  -0.37666074            0  -0.33981898  0.001301491 
   66700      14.1577  -0.37696927            0  -0.33984624  0.002736744 
   66800    14.188866  -0.37705973            0  -0.33985498 0.0023897603 
   66900    14.191887  -0.37706096            0  -0.33984829 0.0024575981 
   67000    14.155687  -0.37694288            0  -0.33982513 0.0038981036 
   67100    14.308991  -0.37729991            0  -0.33978018 0.0017655298 
   67200    14.331949  -0.37729054            0  -0.33971061 0.0045275998 
   67300    14.454545  -0.37768559            0   -0.3397842 0.0029901714 
   67400    14.517559  -0.37773098            0  -0.33966436 0.0082638261 
   67500    14.686642  -0.37811907            0   -0.3396091 0.0020438967 
   67600    14.563991  -0.37776639            0  -0.33957802 -0.00048653893 
   67700    14.532045  -0.37763302            0  -0.33952842 0.0030951062 
   67800    14.500399  -0.37748701            0  -0.33946539 0.0066228648 
   67900    14.406002  -0.37746891            0  -0.33969481 0.0032448239 
   68000    14.354485  -0.37717105            0  -0.33953203 0.0033501353 
   68100    14.335416  -0.37725202            0    -0.339663 0.0039460634 
   68200    14.335625  -0.37726078            0  -0.33967122 0.0011670204 
   68300    14.352262  -0.37735321            0  -0.33972002 0.00094974004 
   68400    14.409821  -0.37755154            0  -0.33976742 0.0042258274 
   68500    14.509607  -0.37782166            0   -0.3397759 0.0040617256 
   68600    14.308408  -0.37730324            0  -0.33978504 0.0059627149 
   68700    14.234952    -0.377148            0  -0.33982241 -0.00044103942 
   68800    14.132418  -0.37685285            0  -0.33979611 0.00021896847 
   68900    14.080668  -0.37668512            0  -0.33976408 0.0033372717 
   69000    14.151023  -0.37690579            0  -0.33980027 0.00039770137 
   69100    14.110131   -0.3767844            0   -0.3397861 0.0025987939 
   69200    14.132035  -0.37682206            0  -0.33976633 0.0013592773 
   69300    14.139409  -0.37684896            0  -0.33977389 -0.00095071044 
   69400     13.96292  -0.37638948            0  -0.33977718 0.0027781232 
   69500    14.193808   -0.3770183            0  -0.33980059 -0.0016024338 
   69600    14.247676  -0.37723788            0  -0.33987892 0.0040235888 
   69700    14.359382  -0.37747506            0   -0.3398232 0.0052207298 
   69800    14.343494  -0.37742151            0  -0.33981131 0.0055008308 
   69900    14.460301  -0.37769932            0  -0.33978284  0.001008677 
   70000    14.577014  -0.37799683            0  -0.33977431 -0.001011397 
   70100    14.387811  -0.37753117            0  -0.33980477  0.008173594 
   70200    14.467399  -0.37772207            0  -0.33978698 0.0033070204 
   70300    14.498079  -0.37782405            0  -0.33980851 -0.00067613564 
   70400    14.515258  -0.37787418            0  -0.33981359 0.0025754841 
   70500    14.527265  -0.37791533            0  -0.33982326 0.0031552595 
   70600    14.324979  -0.37736511            0  -0.33980346 0.0027375925 
   70700    14.268816  -0.37719606            0  -0.33978168 0.0017273014 
   70800    14.296408  -0.37728497            0  -0.33979824 0.0023448085 
   70900    14.415905  -0.37755551            0  -0.33975544 0.0018664607 
   71000    14.570001  -0.37802571            0  -0.33982158 0.0017734814 
   71100    14.667918  -0.37824366            0  -0.33978279 0.0066144996 
   71200     14.70856   -0.3783265            0  -0.33975905 0.0047162562 
   71300    14.558904  -0.37800629            0  -0.33983126 0.0044830771 
   71400    14.604415  -0.37814019            0  -0.33984583 0.00037702742 
   71500    14.712784  -0.37836248            0  -0.33978396 0.00016797784 
   71600    14.582313  -0.37803158            0  -0.33979517 0.0066517353 
   71700    14.487804    -0.377819            0   -0.3398304 0.0064007874 
   71800    14.623618  -0.37813877            0  -0.33979405 0.00024352899 
   71900    14.703631  -0.37833545            0  -0.33978093 -2.5015563e-05 
   72000    14.664204  -0.37820749            0  -0.33975635 0.0048789473 
   72100    14.554127  -0.37795322            0  -0.33979072  0.004266176 
   72200    14.700424   -0.3782307            0  -0.33968459 -0.00052386252 
   72300    14.637058  -0.37803771            0  -0.33965775 0.0028524473 
   72400    14.732414  -0.37828846            0  -0.33965847 0.0041344375 
   72500    14.635926  -0.37814749            0   -0.3397705 0.0080570829 
   72600    14.720473  -0.37838351            0  -0.33978483 0.00062339992 
   72700    14.710752  -0.37827242            0  -0.33969923 0.0033264909 
   72800    14.610687  -0.37812594            0  -0.33981513 0.0065208641 
   72900    14.660855  -0.37823487            0  -0.33979252 5.2710864e-05 
   73000    14.556484  -0.37798554            0  -0.33981685 0.0035251186 
   73100    14.726513  -0.37846339            0  -0.33984887 0.0033584247 
   73200    14.584082  -0.37809725            0   -0.3398562 0.0067242422 
   73300    14.646824   -0.3782584            0  -0.33985284 0.0029768329 
   73400    14.655611  -0.37827966            0  -0.33985105 0.0012064135 
   73500    14.606339  -0.37814548            0  -0.33984607  0.001546832 
   73600    14.772977  -0.37857225            0   -0.3398359 -0.00050022015 
   73700    14.702048  -0.37836851            0  -0.33981815 0.0062170674 
   73800    14.888714  -0.37883439            0  -0.33979456 0.0028986074 
   73900    14.987287   -0.3790854            0  -0.33978711 0.00062532556 
   74000    14.964114  -0.37904585            0  -0.33980831 0.0036249113 
   74100    14.946584  -0.37896522            0  -0.33977366 0.0062608775 
   74200    15.061303  -0.37924189            0  -0.33974952 0.0012445253 
   74300     14.88642  -0.37879487            0  -0.33976106  0.006968105 
   74400    14.973761  -0.37908591            0  -0.33982308 0.0051314414 
   74500     15.08013  -0.37929009            0  -0.33974835 0.0029470522 
   74600    14.960962  -0.37895255            0  -0.33972328 0.0061189358 
   74700    15.074917  -0.37927524            0  -0.33974717 -0.0015714575 
   74800    14.975258  -0.37902454            0  -0.33975778 -0.00019189598 
   74900    14.993925  -0.37898946            0  -0.33967375 0.0042403252 
   75000    14.843672  -0.37856394            0  -0.33964221 0.0066566328 
   75100    14.790777  -0.37843987            0  -0.33965685 -0.00056693279 
   75200    14.705349  -0.37823929            0  -0.33968027 0.00061357058 
   75300    14.778625  -0.37847877            0  -0.33972761 0.0024257573 
   75400    14.800534  -0.37859683            0  -0.33978822 0.0035428024 
   75500    14.741475  -0.37846828            0  -0.33981453 0.0037003957 
   75600    14.820084  -0.37869002            0  -0.33983015  0.002031669 
   75700    14.867317  -0.37883382            0   -0.3398501  0.003117277 
   75800    14.964276  -0.37908869            0  -0.33985073 0.00086333781 
   75900    14.918355  -0.37896843            0  -0.33985088 0.0046028499 
   76000    14.873458  -0.37886131            0  -0.33986149  0.005013448 
   76100    14.853786  -0.37878268            0  -0.33983444 0.00047017537 
   76200    14.826802  -0.37869775            0  -0.33982026 7.986305e-05 
   76300    14.712157  -0.37841025            0  -0.33983337 0.0081241158 
   76400    15.027603  -0.37922759            0  -0.33982358 0.0038642599 
   76500    14.992145  -0.37909575            0  -0.33978472    0.0063922 
   76600    14.930272  -0.37890359            0  -0.33975479 0.0033474485 
   76700     14.90635  -0.37882779            0  -0.33974172 -0.00045658934 
   76800     14.80856  -0.37864674            0  -0.33981709 0.0051005002 
   76900    15.059083  -0.37917779            0  -0.33969124 0.0034421047 
   77000    14.947559  -0.37886828            0  -0.33967415 0.0082896374 
   77100    15.006668   -0.3790826            0  -0.33973348 0.0018641685 
   77200    15.067773  -0.37917763            0   -0.3396683 -0.0010293937 
   77300    14.948445  -0.37888258            0  -0.33968613 0.0049796808 
   77400    15.019991   -0.3791056            0  -0.33972155 0.0028871602 
   77500    15.003668  -0.37912508            0  -0.33978383 -0.00023483023 
   77600    14.935061   -0.3790127            0  -0.33985135 0.0036984556 
   77700    15.000082  -0.37923416            0  -0.33990231 0.0028795061 
   77800    15.095349  -0.37938737            0  -0.33980572 0.0022642513 
   77900    14.832641  -0.37869405            0  -0.33980125 0.0071483953 
   78000    15.032613  -0.37921445            0  -0.33979731 -0.00037695512 
   78100    14.980967  -0.37900069            0  -0.33971897 0.0035023298 
   78200    14.924452   -0.3788677            0  -0.33973416 0.0052555938 
   78300    14.963816  -0.37891616            0  -0.33967941   0.00301286 
   78400    14.920349  -0.37877714            0  -0.33965437 0.0022997187 
   78500    14.951958  -0.37885937            0  -0.33965371 -0.00052434513 
   78600    15.018003  -0.37902748            0  -0.33964864 0.0026747801 
   78700    15.353995  -0.37987117            0  -0.33961133 0.0032722749 
   78800    15.313816  -0.37983363            0  -0.33967914 0.0048451693 
   78900    15.315252  -0.37987292            0  -0.33971467 0.0026580303 
   79000    15.216447   -0.3796333            0  -0.33973412 0.0045177838 
   79100    15.197941  -0.37959454            0  -0.33974389 0.00077969738 
   79200    15.011663  -0.37913359            0  -0.33977138 0.0041148246 
   79300    15.034714  -0.37919667            0  -0.33977402 0.0027254609 
   79400    15.021755  -0.37915392            0  -0.33976524 0.0034946671 
   79500    15.233182  -0.37970521            0  -0.33976215  0.001571406 
   79600    15.224006  -0.37967654            0  -0.33975754 0.0057861673 
   79700    15.315794  -0.37992416            0  -0.33976448 0.0025769888 
   79800    15.072296  -0.37931138            0  -0.33979018 0.0056192772 
   79900    14.900474  -0.37885422            0  -0.33978356 0.0026152301 
   80000    14.945228  -0.37897524            0  -0.33978723 -0.0003415076 
   80100    15.048232  -0.37920888            0  -0.33975078 0.0018117801 
   80200    15.109797  -0.37937053            0    -0.339751 0.0007365138 
   80300    15.063883  -0.37925014            0    -0.339751 0.00035290169 
   80400    15.012753    -0.379161            0  -0.33979593 0.0017509865 
   80500    14.952231  -0.37898327            0   -0.3397769 0.0021528926 
   80600     14.93369  -0.37892591            0  -0.33976815 0.0024476989 
   80700    14.956647   -0.3789652            0  -0.33974725 0.0028402241 
   80800    14.926143  -0.37886733            0  -0.33972936 0.0056398109 
   80900    14.957541  -0.37898314            0  -0.33976284 0.0011779176 
   81000     14.89725  -0.37875108            0  -0.33968887 0.00074320511 
   81100    14.959027  -0.37890767            0  -0.33968347 0.0026992584 
   81200    14.985841  -0.37900385            0  -0.33970935 0.0035266082 
   81300    14.975272  -0.37893637            0  -0.33966958 0.00083016845 
   81400    14.921573  -0.37877571            0  -0.33964972 0.0028502221 
   81500    14.986405  -0.37896833            0  -0.33967235 0.0028432525 
   81600    15.087204  -0.37927442            0  -0.33971413 0.00037706352 
   81700    15.177021  -0.37947872            0  -0.33968292 0.0027160059 
   81800    15.156234   -0.3793838            0   -0.3396425 0.0076302824 
   81900    15.214102  -0.37948753            0   -0.3395945 0.0025169298 
   82000    15.195733  -0.37940888            0  -0.33956402 -0.00035166564 
   82100    15.211491  -0.37949826            0  -0.33961208 0.0041847679 
   82200    15.477438   -0.3801054            0  -0.33952187 0.00049223709 
   82300     15.26994  -0.37957526            0  -0.33953582 0.0047348379 
   82400    15.192424  -0.37939229            0   -0.3395561 0.0024108786 
   82500    15.212482  -0.37958327            0  -0.33969448 0.0054446614 
   82600    15.374086  -0.37993201            0  -0.33961949 0.0048510076 
   82700    15.286997   -0.3797061            0  -0.33962193 0.0034096254 
   82800    15.230872  -0.37960929            0  -0.33967229 -0.00037091715 
   82900     15.00142  -0.37902111            0  -0.33968576 0.0053796066 
   83000    15.050628   -0.3791534            0  -0.33968901 0.0020867723 
   83100     15.05331  -0.37918267            0  -0.33971125 0.0017631775 
   83200    15.014962  -0.37905923            0  -0.33968837 0.0070877268 
   83300    15.052806  -0.37912404            0  -0.33965395 0.0012160351 
   83400    14.996147  -0.37897195            0  -0.33965042 -0.0028934777 
   83500    15.020099  -0.37908818            0  -0.33970385 0.0030861283 
   83600    15.148541  -0.37928719            0  -0.33956607 0.0068754215 
   83700    15.233336   -0.3794958            0  -0.33955233 0.0028686341 
   83800     15.07958   -0.3790455            0   -0.3395052 0.0044016289 
   83900    15.185196  -0.37933681            0  -0.33951957 -0.00014666674 
   84000    15.249739  -0.37946909            0  -0.33948261 0.0024180602 
   84100    15.375783  -0.37980321            0  -0.33948624 0.0011649269 
   84200    15.315024  -0.37975044            0  -0.33959278 0.0039904134 
   84300    15.473524  -0.38016235            0  -0.33958909 0.0012691501 
   84400    15.453006  -0.38014782            0  -0.33962836 0.0018279173 
   84500    15.400047   -0.3800738            0   -0.3396932 0.0051638511 
   84600    15.574571    -0.380577            0  -0.33973878 0.0030367981 
   84700    15.532797  -0.38045242            0  -0.33972373 0.0039244768 
   84800    15.367113  -0.38002838            0  -0.33973414 0.0040387082 
   84900    15.208601  -0.37962305            0  -0.33974444 0.0017466173 
   85000     15.19249  -0.37958576            0   -0.3397494 9.6426415e-05 
   85100    15.215056  -0.37965426            0  -0.33975873 0.0048464112 
   85200    15.255621  -0.37979595            0  -0.33979405 0.0060946364 
   85300    15.186939  -0.37963307            0  -0.33981126 0.0024391689 
   85400    15.201818  -0.37960368            0  -0.33974286 -0.0010717948 
   85500    15.298668  -0.37986997            0   -0.3397552 0.0025651751 
   85600    15.485511  -0.38038294            0  -0.33977825 0.0028280922 
   85700    15.228272  -0.37968022            0  -0.33975004 0.0073034288 
   85800    15.236046  -0.37971067            0   -0.3397601 -0.0003397662 
   85900    15.174118  -0.37955994            0  -0.33977176 0.0021431718 
   86000    15.236047  -0.37973574            0  -0.33978517 0.0061998048 
   86100    15.531598  -0.38051513            0  -0.33978959 -0.00053726042 
   86200    15.232868  -0.37972917            0  -0.33978694 0.0078306982 
   86300    15.381182  -0.38011495            0  -0.33978382 -0.0009777513 
   86400    15.274331  -0.37985861            0  -0.33980765 0.00036211206 
   86500    15.312215  -0.37998509            0  -0.33983479  0.001050703 
   86600    15.210858  -0.37965542            0   -0.3397709 0.0071261214 
   86700    15.230522  -0.37967682            0  -0.33974073 0.0040046816 
   86800    15.211552  -0.37964333            0  -0.33975698 0.0019592887 
   86900    15.175997  -0.37951277            0  -0.33971966 0.0047535881 
   87000    14.964239    -0.379057            0  -0.33981914 0.0048925466 
   87100    14.856334  -0.37862871            0  -0.33967379 0.0025356904 
   87200     14.95204  -0.37890423            0  -0.33969836 -0.00058121609 
   87300    14.879267  -0.37873526            0  -0.33972021 0.0058833681 
   87400    15.028166  -0.37914352            0  -0.33973803 0.00057752689 
   87500    14.862326  -0.37872349            0  -0.33975286 0.0064701087 
   87600    14.940654  -0.37891323            0  -0.33973722 0.0051856317 
   87700     15.09114  -0.37928812            0  -0.33971751 0.0002438979 
   87800    14.991103  -0.37899517            0  -0.33968686 0.0023537407 
   87900    15.029145  -0.37906901            0  -0.33966096  0.001700766 
   88000     14.91451  -0.37881436            0  -0.33970689 0.0030374987 
   88100    15.019984  -0.37906774            0  -0.33968371 0.00087476945 
   88200    15.162597  -0.37946767            0  -0.33970969 0.0027959199 
   88300      15.1772  -0.37947645            0  -0.33968019 0.0042806546 
   88400    15.057147  -0.37916064            0  -0.33967917 0.0038263727 
   88500    14.893633  -0.37871691            0  -0.33966419 0.0033186209 
   88600    14.979981   -0.3789115            0  -0.33963236 -0.0008130118 
   88700    14.977378  -0.37886781            0  -0.33959549 0.0042617739 
   88800    15.116041  -0.37921528            0  -0.33957937  0.003851621 
   88900    15.187212  -0.37933001            0  -0.33950749  0.001255002 
   89000    15.063609  -0.37911322            0   -0.3396148 0.0041485392 
   89100    15.143358  -0.37928354            0  -0.33957601  0.002754474 
   89200    15.100367  -0.37924039            0  -0.33964559 0.0021069486 
   89300    14.894988  -0.37875794            0  -0.33970166 0.0045324291 
   89400    14.966283   -0.3789448            0  -0.33970158 0.0032284288 
   89500    14.926613  -0.37881382            0  -0.33967462 0.0065061751 
   89600    15.081328   -0.3792096            0  -0.33966472 0.0038778578 
   89700     15.02024  -0.37908948            0  -0.33970478 0.0058220433 
   89800    14.996281  -0.37896747            0  -0.33964559  0.005443989 
   89900     14.90012   -0.3787064            0  -0.33963666 0.0029195478 
   90000    14.737772   -0.3783248            0  -0.33968076 0.00091788221 
   90100    14.720662  -0.37831885            0  -0.33971967 0.0016143961 
   90200    14.868936  -0.37868322            0  -0.33969526 0.0022741245 
   90300    14.928887  -0.37880747            0  -0.33966231 0.0022380648 
   90400    14.878046  -0.37870697            0  -0.33969511 0.0020843339 
   90500    14.805874  -0.37855701            0   -0.3397344 0.0047912346 
   90600    14.934811  -0.37881708            0  -0.33965638 0.0041377516 
   90700      14.9832  -0.37893305            0  -0.33964547 0.0032342655 
   90800    15.026856  -0.37903641            0  -0.33963436   0.00187797 
   90900    15.049623  -0.37908593            0  -0.33962419 0.0024221153 
   91000    14.922422  -0.37883835            0  -0.33971013 0.0064527776 
   91100    15.034729  -0.37905961            0  -0.33963692 0.0040295314 
   91200    15.001984  -0.37897245            0  -0.33963562 0.0037912571 
   91300    14.986123  -0.37892668            0  -0.33963144 0.00082449363 
   91400    14.936555  -0.37877938            0  -0.33961411 0.0045700129 
   91500     15.07172  -0.37909688            0  -0.33957719 0.0013073355 
   91600    14.852961  -0.37858356            0  -0.33963748 0.0045823252 
   91700     14.85108  -0.37847465            0   -0.3395335 0.0022175913 
   91800    14.881779  -0.37855754            0  -0.33953589   0.00409479 
   91900    14.921221  -0.37863109            0  -0.33950603 0.0030811039 
   92000    15.005647  -0.37886728            0  -0.33952084 -0.0026642832 
   92100    14.914072  -0.37858828            0  -0.33948196 0.0046968026 
   92200    14.894133  -0.37848597            0  -0.33943193 0.0062459785 
   92300    14.759599  -0.37836677            0   -0.3396655 0.0085744454 
   92400    14.938191  -0.37869379            0  -0.33952423 0.0053131062 
   92500     15.03009  -0.37893585            0  -0.33952532 0.0035511697 
   92600    14.993081  -0.37889459            0   -0.3395811  0.001762559 
   92700    14.929009  -0.37878963            0  -0.33964415 0.0010444414 
   92800    14.852547  -0.37863339            0   -0.3396884  0.001469744 
   92900     14.86395  -0.37867183            0  -0.33969693 0.00047933477 
   93000    14.877527  -0.37868955            0  -0.33967905 0.0038532295 
   93100    14.950028  -0.37886758            0  -0.33966699  0.002737121 
   93200    15.015665  -0.37904025            0  -0.33966755 0.0021372475 
   93300    14.962775  -0.37890927            0  -0.33967525 0.0045315491 
   93400    14.989553  -0.37898991            0  -0.33968567 0.00050633939 
   93500     14.89124  -0.37877836            0   -0.3397319 0.0028218356 
   93600    14.947042  -0.37888717            0   -0.3396944 0.0045972551 
   93700    14.920754  -0.37887826            0  -0.33975442 0.0043679678 
   93800    14.831867  -0.37855682            0  -0.33966606 0.0046110613 
   93900    14.958742  -0.37888429            0  -0.33966084 0.0012466029 
   94000    15.004873  -0.37902878            0  -0.33968437 0.0011716211 
   94100    14.948762  -0.37890749            0  -0.33971021 0.0047880608 
   94200    14.844853  -0.37865328            0  -0.33972846  0.006087556 
   94300    14.816473  -0.37860767            0  -0.33975727 0.00061991143 
   94400    14.744132  -0.37841626            0  -0.33975554 0.0019052829 
   94500    14.940749  -0.37887343            0  -0.33969716 -0.00077263695 
   94600    14.962024  -0.37896036            0   -0.3397283 0.0021921671 
   94700    14.977537  -0.37910098            0  -0.33982825 0.0052522774 
   94800    15.286235  -0.37980769            0  -0.33972553 -0.00098256807 
   94900    15.081404  -0.37923892            0  -0.33969384 0.0084235727 
   95000    15.101513  -0.37932483            0  -0.33972702  0.002231254 
   95100    15.060732   -0.3791575            0  -0.33966662  0.002154463 
   95200     14.97339   -0.3789101            0  -0.33964824 0.0043159576 
   95300    15.021092  -0.37902403            0  -0.33963709 0.0018157834 
   95400     15.06275  -0.37919336            0  -0.33969719 0.0015184903 
   95500    14.892437  -0.37872593            0  -0.33967634  0.007281951 
   95600    15.016094  -0.37901388            0  -0.33964005 0.0012946959 
   95700    14.923445  -0.37880138            0  -0.33967049 0.0038617077 
   95800    14.872104   -0.3787159            0  -0.33971963 0.0059856526 
   95900    14.949632  -0.37889761            0  -0.33969805 0.0037719409 
   96000    15.016325  -0.37906022            0  -0.33968578 -0.00067222683 
   96100    14.961702  -0.37891412            0  -0.33968291 0.0035497033 
   96200    15.023488  -0.37912289            0  -0.33972967 0.0033940566 
   96300    14.966029  -0.37893575            0   -0.3396932 0.0041843504 
[...]
  475400    18.594388  -0.38535288            0  -0.33659637 0.0038365007 
  475500    18.717809   -0.3857716            0  -0.33669147 0.0029191185 
  475600    18.836378   -0.3863367            0  -0.33694567 0.0055371996 
  475700    18.960254  -0.38643275            0   -0.3367169  0.005606909 
  475800    18.762597  -0.38600583            0  -0.33680826 0.0060978728 
  475900    18.768123  -0.38604458            0  -0.33683252 0.0035078575 
  476000    18.862016  -0.38631602            0  -0.33685776 -0.0013208627 
  476100    18.705053  -0.38605924            0  -0.33701256 0.0057007346 
  476200    18.767075  -0.38616394            0  -0.33695463 0.0032317864 
  476300    18.634574  -0.38573171            0  -0.33686983 0.0042428503 
  476400    18.505525   -0.3854481            0   -0.3369246  0.004908679 
  476500    18.605549  -0.38579083            0  -0.33700506  0.001885847 
  476600    18.745665  -0.38602006            0  -0.33686688 0.0046318506 
  476700    18.758128   -0.3862185            0  -0.33703265 0.0051914266 
  476800    18.745416  -0.38584565            0  -0.33669313 0.0076383572 
  476900    19.013599  -0.38684174            0  -0.33698602 0.0016860689 
  477000     19.00572  -0.38651205            0  -0.33667699 0.0061223959 
  477100    18.830054  -0.38606348            0  -0.33668903 0.0059395755 
  477200    18.671966  -0.38552746            0  -0.33656753 0.0040911234 
  477300    18.629652  -0.38555606            0  -0.33670709 0.0010471089 
  477400    18.580436  -0.38550966            0  -0.33678973 0.0039455692 
  477500    18.564891  -0.38566072            0  -0.33698156 0.0065980745 
  477600    18.611386  -0.38579735            0  -0.33699627 0.0028629728 
  477700     18.61841  -0.38578168            0  -0.33696218 -0.00087670499 
  477800    18.404688   -0.3854144            0  -0.33715531 0.0047339886 
  477900    18.605527  -0.38568821            0  -0.33690249 0.0020762466 
  478000    18.694922  -0.38596019            0  -0.33694007 0.0011525165 
  478100    18.545809  -0.38538382            0   -0.3367547 0.0079499155 
  478200    18.578642  -0.38550731            0  -0.33679209 0.0038837143 
  478300    18.527101  -0.38534406            0  -0.33676399   0.00136431 
  478400    18.587139  -0.38531282            0  -0.33657532 0.0049098181 
  478500     18.53108  -0.38519351            0    -0.336603  0.007734131 
  478600    18.565785  -0.38549017            0  -0.33680867 0.0020443455 
  478700    18.652694  -0.38551958            0  -0.33661019 0.0036237128 
  478800    18.711828  -0.38570885            0  -0.33664441 0.0028085373 
  478900    18.600944  -0.38553696            0  -0.33676326  0.003746625 
  479000    18.787033  -0.38589458            0  -0.33663293 -0.00072734308 
  479100    18.531827   -0.3852043            0  -0.33661183  0.006369648 
  479200    18.642809  -0.38559524            0  -0.33671176 0.00088516538 
  479300    18.689194  -0.38589855            0  -0.33689345 0.0017961267 
  479400    18.576601  -0.38534343            0  -0.33663356 0.0067336941 
  479500     18.36657  -0.38488009            0  -0.33672095 0.0032042276 
  479600    18.653197  -0.38551504            0  -0.33660433 -0.0016353388 
  479700    18.558549  -0.38555969            0  -0.33689715  0.012553911 
  479800    18.937826  -0.38615269            0  -0.33649565 0.0051413865 
  479900    18.848434  -0.38584538            0  -0.33642274 0.0029459929 
  480000    18.853019  -0.38572517            0   -0.3362905 0.0039421105 
  480100    18.761895  -0.38589537            0  -0.33669964 0.0037163082 
  480200    18.942928  -0.38605296            0  -0.33638254 0.00099915843 
  480300    18.977901  -0.38634098            0  -0.33657887 0.0036943006 
  480400    19.015489  -0.38654828            0   -0.3366876 0.0042603302 
  480500    18.925524  -0.38647054            0  -0.33684576 0.0034370009 
  480600    18.866312  -0.38623229            0  -0.33676277  0.004569935 
  480700     18.82914  -0.38616917            0  -0.33679711  0.004539197 
  480800    18.749367  -0.38611953            0  -0.33695665 0.0021951769 
  480900    18.729962  -0.38597494            0  -0.33686294 0.0044229605 
  481000    18.807175  -0.38619591            0  -0.33688145 0.0044056782 
  481100    18.736523  -0.38598131            0   -0.3368521 0.0085489339 
  481200    18.654194  -0.38580244            0  -0.33688911 0.0046561826 
  481300    18.713855  -0.38578414            0  -0.33671438 -0.0022161254 
  481400    18.735065  -0.38587576            0  -0.33675038 0.0023157641 
  481500    18.637308  -0.38544715            0   -0.3365781  0.011828663 
  481600     18.77834  -0.38581577            0  -0.33657692 0.0066730894 
  481700    18.814118  -0.38567485            0  -0.33634219 0.0042901751 
  481800     18.82684  -0.38577202            0    -0.336406 0.00079397001 
  481900    18.826201  -0.38553051            0  -0.33616616 0.0018072885 
  482000    19.008656  -0.38600732            0  -0.33616456 0.0028839199 
  482100     18.75917  -0.38551085            0  -0.33632226  0.010513686 
  482200    18.841421  -0.38558529            0  -0.33618104 -0.0015515849 
  482300    18.808349  -0.38555892            0  -0.33624139 0.0030683302 
  482400    18.947431  -0.38610272            0  -0.33642049  0.008405421 
  482500    19.160596  -0.38667301            0  -0.33643185 0.0056264899 
  482600    19.159782  -0.38658455            0  -0.33634552  0.004875045 
  482700    18.923796  -0.38595032            0  -0.33633007 0.0089511256 
  482800    19.054994  -0.38641375            0  -0.33644948 -0.0025367977 
  482900    19.004694  -0.38626017            0  -0.33642779 0.00098942218 
  483000    18.977218  -0.38640536            0  -0.33664503  0.011129022 
  483100    19.137215  -0.38669278            0  -0.33651293  0.008507811 
  483200    19.067873  -0.38652087            0  -0.33652283 0.0025946531 
  483300    18.826349  -0.38611785            0  -0.33675312 0.0024558509 
  483400    18.689279  -0.38572824            0  -0.33672291 0.0029665009 
  483500    18.711301  -0.38572951            0  -0.33666645 -0.00087522347 
  483600    18.599593  -0.38568293            0  -0.33691277 0.0036295621 
  483700    18.676083  -0.38572288            0  -0.33675216 0.0074468205 
  483800    18.789772  -0.38585198            0  -0.33658315 0.0052122094 
  483900    18.757785   -0.3859253            0  -0.33674035 0.0053163599 
  484000     18.95546  -0.38618862            0  -0.33648534 0.0018438055 
  484100    18.803147  -0.38585047            0  -0.33654658 0.0056228468 
  484200    18.644349  -0.38546839            0  -0.33658088 0.0079072394 
  484300    18.801865  -0.38581429            0  -0.33651375 0.00049792952 
  484400    18.749809  -0.38571903            0  -0.33655499 0.0016730618 
  484500    18.648295  -0.38555769            0  -0.33665983 0.0051197931 
  484600    18.675768  -0.38566321            0  -0.33669332 0.0027803967 
  484700    18.584418  -0.38538467            0  -0.33665431 0.0066660465 
  484800    18.691595  -0.38572795            0  -0.33671656 0.0033531918 
  484900    18.531296  -0.38517438            0  -0.33658331 0.0051465269 
  485000    18.683071  -0.38544465            0   -0.3364556 -0.00056521579 
  485100    18.630619  -0.38529839            0  -0.33644688 0.0042395372 
  485200    18.779535  -0.38559114            0  -0.33634915 0.0020628828 
  485300    18.769769  -0.38550955            0  -0.33629318 0.0045258296 
  485400    18.903795  -0.38595403            0  -0.33638623 0.0021432022 
  485500     18.81325  -0.38565206            0  -0.33632168 0.0068094774 
  485600    18.826612  -0.38581171            0  -0.33644628 0.0031559772 
  485700    18.808758  -0.38587269            0  -0.33655408 0.0022991768 
  485800    18.896974  -0.38619488            0  -0.33664496  0.003429264 
  485900    18.791064  -0.38590064            0  -0.33662843 0.0031557751 
  486000    18.707992  -0.38554699            0   -0.3364926 2.017291e-05 
  486100    18.702752   -0.3854978            0  -0.33645715 0.0041199096 
  486200    18.722278   -0.3856599            0  -0.33656805 0.0045329168 
  486300    18.602618  -0.38514349            0  -0.33636541 0.0033438777 
  486400    18.661971  -0.38538703            0  -0.33645332 -0.00067555504 
  486500    18.611222  -0.38533503            0  -0.33653438 0.0082522256 
  486600    18.785367  -0.38588246            0  -0.33662519 0.0045764673 
  486700    18.776969  -0.38586327            0  -0.33662802 0.0016810803 
  486800    18.715009  -0.38581291            0  -0.33674012 0.0058266768 
  486900    18.632321  -0.38555241            0  -0.33669644  0.010438042 
  487000    18.730848  -0.38569653            0  -0.33658221 -0.0016118919 
  487100    18.511209  -0.38507162            0  -0.33653322 -0.00039079734 
  487200    18.354321  -0.38461726            0  -0.33649023 0.0067365976 
  487300    18.470003  -0.38486609            0  -0.33643573 0.0043969594 
  487400    18.494091  -0.38492034            0  -0.33642683 0.0035914287 
  487500    18.456199  -0.38476336            0   -0.3363692 0.0032264554 
  487600     18.50472  -0.38495766            0  -0.33643628 0.0030222572 
  487700    18.747541  -0.38549638            0  -0.33633828 0.0028319116 
  487800    18.648297  -0.38520773            0  -0.33630987 0.0076463587 
  487900    18.575675  -0.38520379            0  -0.33649635 0.0031534369 
  488000    18.656722  -0.38525068            0  -0.33633072 0.0014513678 
  488100    18.562413  -0.38504463            0  -0.33637196 0.0049202562 
  488200     18.57435  -0.38504736            0  -0.33634339 0.0041898351 
  488300    18.514791  -0.38491005            0  -0.33636225 0.0061285793 
  488400    18.625962  -0.38517575            0  -0.33633645 0.0015212434 
  488500    18.501657  -0.38478773            0  -0.33627437 0.0033046056 
  488600    18.549477  -0.38481824            0  -0.33617949 0.0019475933 
  488700    18.498573  -0.38476613            0  -0.33626086 0.0032284849 
  488800     18.70032  -0.38523656            0  -0.33620229 0.00078273962 
  488900    18.734379  -0.38539627            0  -0.33627269 0.0060620739 
  489000      18.7477  -0.38565714            0  -0.33649863 0.0042443599 
  489100    18.947341  -0.38625343            0  -0.33657144 7.7589412e-05 
  489200    18.663945   -0.3856084            0  -0.33666951 0.0088334519 
  489300    18.756192  -0.38582959            0  -0.33664881 0.0037249456 
  489400    18.589677  -0.38536309            0  -0.33661894 0.0043853002 
  489500    18.736652  -0.38562063            0   -0.3364911 0.0012936113 
  489600    18.701434  -0.38560495            0  -0.33656776 0.0073735577 
  489700    18.808041  -0.38573654            0  -0.33641981 0.0035180756 
  489800    18.769474  -0.38554515            0  -0.33632955 0.00060132637 
  489900    18.577448  -0.38520476            0  -0.33649267 0.0026910955 
  490000    18.731913  -0.38548368            0  -0.33636657 0.0013194361 
  490100    18.878137  -0.38587129            0  -0.33637077 0.0031268573 
  490200    18.731681  -0.38547369            0  -0.33635718  0.010442952 
  490300    18.870757  -0.38591032            0  -0.33642914 0.0023389287 
  490400    18.805441  -0.38561183            0  -0.33630191 0.0029830324 
  490500    18.707431  -0.38524361            0  -0.33619069 0.0045613929 
  490600    18.750363  -0.38532292            0  -0.33615743 0.00055980771 
  490700    18.602482  -0.38508532            0  -0.33630759 0.0045409821 
  490800        18.69  -0.38533983            0  -0.33633262 0.0015629684 
  490900    18.586285  -0.38510373            0  -0.33636847 0.0042568556 
  491000    18.646987  -0.38537127            0  -0.33647684 0.0041529038 
  491100    18.581682  -0.38526946            0  -0.33654627 0.0037238688 
  491200    18.636736  -0.38516144            0  -0.33629389   0.00179123 
  491300    18.589227  -0.38532323            0  -0.33658025 0.0045234677 
  491400    18.688949  -0.38542135            0  -0.33641689 0.0055731764 
  491500    18.686196  -0.38538165            0  -0.33638441 0.0065887735 
  491600    18.823141  -0.38570567            0  -0.33634935 -0.0013259756 
  491700    18.687771  -0.38541999            0  -0.33641863 0.0016747514 
  491800    18.785138  -0.38559937            0  -0.33634269 0.0049901922 
  491900    18.843079  -0.38577361            0  -0.33636501 0.0049800756 
  492000    18.753867  -0.38549714            0  -0.33632246 0.0059896033 
  492100    18.522008  -0.38504253            0  -0.33647581 0.0050788631 
  492200    18.370022   -0.3845357            0   -0.3363675 0.0041863769 
  492300    18.450766  -0.38472861            0  -0.33634869 0.0046411062 
  492400    18.567718  -0.38516275            0  -0.33647618 -0.00024653107 
  492500    18.683279  -0.38532827            0  -0.33633868 0.00058809758 
  492600    18.582367  -0.38512184            0  -0.33639685 0.0075095526 
  492700    18.733074    -0.385711            0  -0.33659084 0.0016048646 
  492800    18.505946  -0.38512697            0  -0.33660237  0.010084633 
  492900    18.595924  -0.38520453            0  -0.33644399 0.0086186263 
  493000    18.645154  -0.38533825            0  -0.33644863 0.0044257761 
  493100    18.649555   -0.3854055            0  -0.33650434 0.0040674554 
  493200    18.619123  -0.38535757            0  -0.33653621 0.0040990404 
  493300    18.612284  -0.38522418            0  -0.33642075 0.0036632997 
  493400     18.66968  -0.38546202            0  -0.33650809 -0.0011076508 
  493500    18.549341  -0.38508069            0   -0.3364423 0.0060464506 
  493600    18.602297  -0.38523914            0  -0.33646189 0.0057748376 
  493700    18.595807  -0.38506473            0   -0.3363045 0.0024347873 
  493800    18.565926    -0.384895            0  -0.33621312 0.0021214562 
  493900    18.568425  -0.38476074            0  -0.33607231 0.0012568298 
  494000    18.540132  -0.38487189            0  -0.33625764 0.0031621005 
  494100    18.724131  -0.38500083            0  -0.33590412 0.0049882686 
  494200    18.822332  -0.38525321            0  -0.33589901 0.0017536904 
  494300    18.620824  -0.38490559            0  -0.33607977 0.0068943935 
  494400     18.70076  -0.38523141            0  -0.33619598 0.0037364933 
  494500    18.760016  -0.38532454            0  -0.33613374 0.0030825497 
  494600    18.642615  -0.38499717            0   -0.3361142 0.0057299851 
  494700    18.721383  -0.38534362            0  -0.33625411 0.0046309735 
  494800    18.871807  -0.38551541            0  -0.33603147 0.0024383417 
  494900    18.655723  -0.38526969            0  -0.33635236 0.0060153772 
  495000    18.791353  -0.38534317            0   -0.3360702  0.005166672 
  495100    18.665202   -0.3851892            0  -0.33624701 0.0054513095 
  495200    18.698133  -0.38524781            0  -0.33621928 0.0021281614 
  495300    18.671738  -0.38523654            0  -0.33627721 0.0099106452 
  495400     18.52613  -0.38477336            0  -0.33619584  0.012156494 
  495500    18.425189  -0.38460725            0   -0.3362944 0.0010677123 
  495600    18.259575  -0.38395121            0  -0.33607262 0.0010141244 
  495700    18.450057  -0.38427398            0  -0.33589592 0.0011133209 
  495800    18.342918  -0.38432739            0  -0.33623026 0.0071710888 
  495900    18.437776  -0.38441124            0  -0.33606539 0.0012073687 
  496000    18.162256  -0.38374077            0  -0.33611737 0.0042841071 
  496100     17.98758   -0.3835516            0  -0.33638621  0.003777923 
  496200    18.252013  -0.38410575            0  -0.33624699 5.3971675e-05 
  496300    18.313172  -0.38428381            0  -0.33626468 0.0041494371 
  496400     18.23211   -0.3841256            0  -0.33631902 0.0055724377 
  496500    18.366697  -0.38431226            0  -0.33615279 0.0002569059 
  496600    18.427727  -0.38457741            0  -0.33625791 0.0025424239 
  496700    18.412903  -0.38462233            0  -0.33634169 0.0080271399 
  496800    18.592062  -0.38514623            0  -0.33639582 0.00089847235 
  496900    18.503994  -0.38502573            0  -0.33650624 0.0032979111 
  497000    18.577169  -0.38533086            0   -0.3366195 0.0045447262 
  497100    18.513652   -0.3851744            0  -0.33662959 0.0041325819 
  497200    18.324853  -0.38469902            0  -0.33664926  0.004990826 
  497300    18.450201  -0.38502526            0  -0.33664683 0.0011808807 
  497400    18.481543  -0.38518588            0  -0.33672526 0.0063916023 
  497500    18.442733  -0.38504386            0  -0.33668501 0.0074032549 
  497600    18.485202  -0.38509453            0  -0.33662432  0.001804378 
  497700     18.36636  -0.38462551            0  -0.33646691 0.0081970306 
  497800    18.471425  -0.38486503            0  -0.33643094  0.005948511 
  497900    18.432019  -0.38475586            0   -0.3364251 0.0048910199 
  498000    18.487503  -0.38476884            0  -0.33629259 -0.00082263472 
  498100    18.378597  -0.38461061            0  -0.33641993 0.0039413319 
  498200    18.426268  -0.38465307            0  -0.33633739 0.0032058704 
  498300     18.40157  -0.38467988            0  -0.33642897 0.0022423907 
  498400    18.385384  -0.38466454            0  -0.33645607 0.00061012195 
  498500     18.30028  -0.38453771            0  -0.33655238 0.0042542471 
  498600    18.461993  -0.38480096            0   -0.3363916 0.0084941545 
  498700     18.51893  -0.38505577            0  -0.33649712 0.0036322888 
  498800    18.253185  -0.38433054            0  -0.33646871 0.0054898752 
  498900    18.220169  -0.38435048            0  -0.33657521 -0.0014956002 
  499000    18.085142  -0.38401501            0   -0.3365938 0.0026123672 
  499100    18.210239  -0.38448228            0  -0.33673305 -0.0030490552 
  499200    18.190403   -0.3842973            0  -0.33660008 0.0019451526 
  499300    18.188848  -0.38428609            0  -0.33659296 0.0094059884 
  499400    18.333027  -0.38456865            0  -0.33649746 0.0048823267 
  499500    18.395551  -0.38455374            0  -0.33631861 0.0012779212 
  499600    18.187565  -0.38409826            0  -0.33640848 0.0062588671 
  499700    18.124372  -0.38394998            0  -0.33642591 0.0036289706 
  499800    18.179408  -0.38427916            0  -0.33661077 0.00086637338 
  499900    18.347087  -0.38450172            0  -0.33639367  0.005068482 
  500000     18.38364  -0.38468301            0  -0.33647911 0.0049628547 
Loop time of 5716.12 on 64 procs for 500000 steps with 585216 atoms

Performance: 37787.850 tau/day, 87.472 timesteps/s
98.9% CPU use with 64 MPI tasks x 1 OpenMP threads

MPI task timing breakdown:
Section |  min time  |  avg time  |  max time  |%varavg| %total
---------------------------------------------------------------
Pair    | 1375.3     | 1844.4     | 3154.9     | 885.5 | 32.27
Bond    | 0.082621   | 0.11102    | 0.19311    |   6.7 |  0.00
Neigh   | 215.1      | 280.18     | 438.35     | 258.5 |  4.90
Comm    | 1232       | 2626.7     | 3200.1     | 777.9 | 45.95
Output  | 254.08     | 255.22     | 255.62     |   1.7 |  4.46
Modify  | 434.45     | 525.97     | 659.36     | 309.7 |  9.20
Other   |            | 183.5      |            |       |  3.21

Nlocal:        9144.00 ave       12594 max        3952 min
Histogram: 1 2 2 9 7 12 9 8 8 6
Nghost:        11912.5 ave       19004 max        6349 min
Histogram: 2 7 8 17 5 12 5 4 2 2
Neighs:       282465.0 ave      390018 max      108532 min
Histogram: 1 2 1 10 5 12 6 13 6 8

Total # of neighbors = 18077741
Ave neighs/atom = 30.890716
Ave special neighs/atom = 0.0000000
Neighbor list builds = 16904
Dangerous builds = 0

write_data      data.cubes
System init for write_data ...
WARNING: Not all mixed pair coeffs generated from mixing. Use write_data with 'pair ij' option to store all pair coeffs. (src/write_data.cpp:312)
Total wall time: 1:35:25
