LAMMPS (24 Dec 2020)
OMP_NUM_THREADS environment is not set. Defaulting to 1 thread. (src/comm.cpp:94)
  using 1 OpenMP thread(s) per MPI task
#Read the equilibrated lj fluid and add nanocubes

units           lj
atom_style      full
atom_modify     map array first cubes
dimension       3
boundary        p p f
pair_style      lj/cut/opt 2.5

variable        sigma           equal 1.0
variable        epsilon         equal 1.0
read_restart	restart.dat.3000000
Reading restart file ...
  restart file = 24 Dec 2020, LAMMPS = 24 Dec 2020
WARNING: Restart file used different # of processors: 48 vs. 144 (src/read_restart.cpp:697)
  restoring atom style full from restart
  orthogonal box = (0.0000000 0.0000000 0.0000000) to (80.000000 80.000000 160.00000)
  4 by 4 by 9 MPI processor grid
  restoring pair style lj/cut/opt from restart
  439061 atoms
Finding 1-2 1-3 1-4 neighbors ...
  special bond factors lj:    0        0        0       
  special bond factors coul:  0        0        0       
     0 = max # of 1-2 neighbors
     0 = max # of 1-3 neighbors
     0 = max # of 1-4 neighbors
     1 = max # of special neighbors
  special bonds CPU = 0.927 seconds
  read_restart CPU = 1.155 seconds

group		solvent type 1
439061 atoms in group solvent

read_data	data.cubes_restart group cubes add append
Reading data file ...
  orthogonal box = (0.0000000 0.0000000 0.0000000) to (80.000000 80.000000 160.00000)
  4 by 4 by 9 MPI processor grid
  reading atoms ...
  288036 atoms
  reading velocities ...
  288036 velocities
Finding 1-2 1-3 1-4 neighbors ...
  special bond factors lj:    0        0        0       
  special bond factors coul:  0        0        0       
     0 = max # of 1-2 neighbors
     0 = max # of 1-3 neighbors
     0 = max # of 1-4 neighbors
     1 = max # of special neighbors
  special bonds CPU = 0.008 seconds
  read_data CPU = 0.589 seconds

group 		hull  type 2
112392 atoms in group hull
group 		dummy type 3
175644 atoms in group dummy

neighbor      0.4 bin
neigh_modify  exclude molecule/intra cubes


pair_modify   shift yes

pair_coeff    1 1 1.0 1.0 #solvent
pair_coeff    2 2 1.0 1.0 1.12 #np
pair_coeff    3 3 0.0 0.0 0.0 #dummy
pair_coeff    2 3 0.0 0.0 0.0 #np dummy
pair_coeff    1 2 ${sol} 1.0 #np solvent
pair_coeff    1 2 1.0 1.0 
pair_coeff    1 3 0.0 0.0 2.5 #dummy solvent

# delete solvent where the cubes are
delete_atoms  overlap 1.0 solvent cubes
System init for delete_atoms ...
Neighbor list info ...
  update every 1 steps, delay 10 steps, check yes
  max neighbors/atom: 2000, page size: 100000
  master list distance cutoff = 2.9
  ghost atom cutoff = 2.9
  binsize = 1.45, bins = 56 56 111
  2 neighbor lists, perpetual/occasional/extra = 1 1 0
  (1) command delete_atoms, occasional
      attributes: full, newton on
      pair build: full/bin
      stencil: full/bin/3d
      bin: standard
  (2) pair lj/cut/opt, perpetual
      attributes: half, newton on
      pair build: half/bin/newton
      stencil: half/bin/3d/newton
      bin: standard
WARNING: Delete_atoms cutoff > minimum neighbor cutoff (src/delete_atoms.cpp:307)
WARNING: Ignoring 'compress yes' for molecular system (src/delete_atoms.cpp:125)
Deleted 199012 atoms, new total = 528085



pair_coeff    1 1 1.0 1.0 #solvent
pair_coeff    2 2 1.0 1.0 1.12 #np
pair_coeff    3 3 0.0 0.0 0.0 #dummy
pair_coeff    2 3 0.0 0.0 0.0 #np dummy
pair_coeff    1 2 ${sol} 1.0 #np solvent
pair_coeff    1 2 1.0 1.0 
pair_coeff    1 3 0.0 0.0 0.0 #dummy solvent


comm_modify   mode multi cutoff/multi 1 2.5 cutoff/multi 2 2.5 cutoff/multi 3 7.21

reset_timestep 	0

balance 	1.05 shift z 10 1.05
Balancing ...
Neighbor list info ...
  update every 1 steps, delay 10 steps, check yes
  max neighbors/atom: 2000, page size: 100000
  master list distance cutoff = 2.9
  ghost atom cutoff = 7.21
  binsize = 1.45, bins = 56 56 111
  1 neighbor lists, perpetual/occasional/extra = 1 0 0
  (1) pair lj/cut/opt, perpetual
      attributes: half, newton on
      pair build: half/bin/newton
      stencil: half/bin/3d/newton
      bin: standard
 rebalancing time: 0.009 seconds
  iteration count = 4
  initial/final maximal load/proc = 5475.0000 4443.0000
  initial/final imbalance factor  = 1.4929415 1.2115322
  x cuts: 0.0000000 0.25000000 0.50000000 0.75000000 1.0000000
  y cuts: 0.0000000 0.25000000 0.50000000 0.75000000 1.0000000
  z cuts: 0.0000000 0.090277778 0.17361111 0.24305556 0.31944444 0.40277778 0.48611111 0.56944444 0.65972222 1.0000000

####################### WALLS ###########################

variable       epsilonWall equal 2*${epsilon}
variable       epsilonWall equal 2*1
variable       repulsive   equal   0.7147*${sigma}
variable       repulsive   equal   0.7147*1
variable       full	   equal   3*${sigma}
variable       full	   equal   3*1
region         lowWall block EDGE EDGE EDGE EDGE EDGE 2

fix            topWall all wall/lj93 zhi EDGE 	       ${epsilonWall} ${sigma} ${repulsive} units box
fix            topWall all wall/lj93 zhi EDGE 	       2 ${sigma} ${repulsive} units box
fix            topWall all wall/lj93 zhi EDGE 	       2 1 ${repulsive} units box
fix            topWall all wall/lj93 zhi EDGE 	       2 1 0.7147 units box
fix            lowSol solvent wall/lj93 zlo EDGE                ${epsilonWall} ${sigma} ${full} units box
fix            lowSol solvent wall/lj93 zlo EDGE                2 ${sigma} ${full} units box
fix            lowSol solvent wall/lj93 zlo EDGE                2 1 ${full} units box
fix            lowSol solvent wall/lj93 zlo EDGE                2 1 3 units box
fix 	       lowCub cubes wall/lj93 zlo EDGE                ${epsilonWall} ${sigma} ${repulsive} units box
fix 	       lowCub cubes wall/lj93 zlo EDGE                2 ${sigma} ${repulsive} units box
fix 	       lowCub cubes wall/lj93 zlo EDGE                2 1 ${repulsive} units box
fix 	       lowCub cubes wall/lj93 zlo EDGE                2 1 0.7147 units box


###################### COMPUTES ##########################

compute        bin1 solvent chunk/atom bin/1d z lower 1.0 units box


######################  FIXES ############################


fix             peclet solvent ave/chunk 10 10 10000 bin1 density/number norm                  none ave one file density.profile

fix              temp solvent ave/chunk 10 10 10000 bin1 temp norm                  none ave one file temp.profile

fix             1 cubes rigid/nve/small molecule
  create bodies CPU = 0.003 seconds
  252 rigid bodies with 288036 atoms
  7.2033327 = max distance from body owner to body atom

fix             2 solvent nve# temp ${temp} ${temp} 10


## Thermostat
region          regthermo block EDGE EDGE EDGE EDGE 0 15
group           thermo dynamic solvent region regthermo every 1000
dynamic group thermo defined
fix             3 thermo langevin ${temp} ${temp} 10 156453
fix             3 thermo langevin 1.0 ${temp} 10 156453
fix             3 thermo langevin 1.0 1.0 10 156453


#### Load balancing

fix             bal all balance 1000 1.05 shift z 10 1.05

############### Diagnostics and computes ###################

compute        	com cubes          rigid/local   1 mol x y z
compute        	quat cubes         rigid/local   1 mol quatw quati quatj quatk

compute 	cc2 cubes 	   chunk/atom 	 molecule
compute 	msd cubes 	   msd/chunk 	 cc2

fix 		msd all ave/time  1 1 10000 c_msd[*] file dump.msd ave one mode vector

dump            1 all custom 500000 dump.lammpstrj id mol type x y z
dump		cubetrj hull custom 500000 cubes.lammpstrj id mol type x y z
dump            com cubes local 10000 dump.*.xyz c_com[*]
dump	        xyz hull xyz 100000 cubes.xyz
dump            quat cubes      local 10000 dump.*.quat c_quat[*]
#dump		mol cubes molfile 10000 mol.xyz xyz


dump            2 all image 10000 image.*.png type type
dump_modify     2 pad 8
dump		image cubes image 10000 image_cubes.*.png type type
dump_modify	image pad 8
dump            3 all movie 5000 movie.avi type type
dump		4 cubes movie 5000 movie_cubes.avi type type


thermo          1000
thermo_style    custom step temp epair evdwl etotal press pe ke atoms

restart         1000000 restart.dat
timestep        0.005
timer           full
New timer settings: style=full  mode=nosync  timeout=off

run 		4000000
Per MPI rank memory allocation (min/avg/max) = 15.93 | 24.94 | 34.37 Mbytes
Step Temp E_pair E_vdwl TotEng Press PotEng KinEng Atoms 
       0    1.0693855   -1.3666691   -1.3666691  -0.63598321  -0.23944362   -1.3666691   0.73068585   528085 
    1000    1.1464532   -1.4263086   -1.4263086  -0.64296419   0.14017829   -1.4263086   0.78334436   528085 
    2000    1.1457846   -1.4332269   -1.4332269  -0.65033932   0.13380118   -1.4332269   0.78288754   528085 
    3000    1.1443362   -1.4377996   -1.4377996  -0.65590172   0.12273587   -1.4377996   0.78189789   528085 
    4000    1.1392467   -1.4405498   -1.4405498  -0.66212944   0.11731062   -1.4405498   0.77842032   528085 
    5000    1.1357722   -1.4436379   -1.4436379  -0.66759157   0.11452168   -1.4436379   0.77604629   528085 
    6000    1.1305457   -1.4453225   -1.4453225  -0.67284736   0.10087112   -1.4453225   0.77247517   528085 
    7000    1.1251697   -1.4460318   -1.4460318   -0.6772299   0.11057397   -1.4460318   0.76880186   528085 
    8000    1.1237086   -1.4496566   -1.4496566  -0.68185305  0.095010265   -1.4496566   0.76780353   528085 
    9000     1.118368   -1.4492472   -1.4492472  -0.68509281  0.095951752   -1.4492472   0.76415442   528085 
   10000    1.1153472   -1.4498504   -1.4498504  -0.68775999  0.090980093   -1.4498504   0.76209041   528085 
   11000    1.1114448   -1.4494089   -1.4494089  -0.68998498  0.085084675   -1.4494089   0.75942395   528085 
   12000    1.1088836   -1.4491689   -1.4491689  -0.69149496  0.079534915   -1.4491689   0.75767393   528085 
   13000    1.1053512   -1.4483556   -1.4483556  -0.69309518  0.083429628   -1.4483556   0.75526038   528085 
   14000    1.1077055   -1.4501586   -1.4501586  -0.69328965  0.075482162   -1.4501586   0.75686898   528085 
   15000    1.1020589    -1.448492    -1.448492  -0.69548121  0.074624152    -1.448492   0.75301079   528085 
   16000     1.103118   -1.4506788   -1.4506788  -0.69694437  0.080703363   -1.4506788   0.75373447   528085 
   17000    1.1019981   -1.4509834   -1.4509834  -0.69801412  0.079918952   -1.4509834   0.75296925   528085 
   18000    1.1010619   -1.4505813   -1.4505813  -0.69825176  0.074214387   -1.4505813   0.75232956   528085 
   19000    1.0996295   -1.4506909   -1.4506909  -0.69934002  0.080853623   -1.4506909   0.75135087   528085 
   20000    1.1001494   -1.4518382   -1.4518382   -0.7001321  0.072418565   -1.4518382   0.75170611   528085 
   21000    1.1012725   -1.4527032   -1.4527032  -0.70022973  0.072501281   -1.4527032   0.75247346   528085 
   22000    1.0997792   -1.4524071   -1.4524071  -0.70095394  0.085736301   -1.4524071   0.75145311   528085 
   23000    1.1009534    -1.453217    -1.453217  -0.70096159   0.08154351    -1.453217   0.75225546   528085 
   24000    1.1007781   -1.4545117   -1.4545117  -0.70237605  0.076266334   -1.4545117   0.75213569   528085 
   25000    1.1010353   -1.4546564   -1.4546564  -0.70234505  0.082197967   -1.4546564   0.75231139   528085 
   26000    1.1031219   -1.4570087   -1.4570087  -0.70327158  0.085196674   -1.4570087   0.75373713   528085 
   27000    1.1039252   -1.4580481   -1.4580481  -0.70376211  0.081699667   -1.4580481   0.75428603   528085 
   28000    1.1001114   -1.4574677   -1.4574677  -0.70578759  0.073842332   -1.4574677   0.75168013   528085 
   29000    1.1019086   -1.4594136   -1.4594136   -0.7065055  0.081658439   -1.4594136   0.75290813   528085 
   30000    1.1028906    -1.460754    -1.460754  -0.70717496  0.090404662    -1.460754   0.75357908   528085 
   31000    1.0992465   -1.4599141   -1.4599141  -0.70882497  0.074421662   -1.4599141   0.75108916   528085 
   32000    1.1016813   -1.4621313   -1.4621313  -0.70937851  0.074509058   -1.4621313   0.75275281   528085 
   33000    1.1011309   -1.4638175   -1.4638175  -0.71144072  0.075606698   -1.4638175   0.75237674   528085 
   34000    1.1026754   -1.4667269   -1.4667269   -0.7132948  0.087416232   -1.4667269   0.75343207   528085 
   35000    1.1014349   -1.4663685   -1.4663685  -0.71378411  0.080821776   -1.4663685   0.75258442   528085 
   36000    1.1034325   -1.4682485   -1.4682485   -0.7142992  0.080058814   -1.4682485   0.75394933   528085 
   37000    1.1039028   -1.4694782   -1.4694782  -0.71520755  0.086327381   -1.4694782   0.75427067   528085 
   38000    1.1036933   -1.4705718   -1.4705718  -0.71644421  0.098081422   -1.4705718   0.75412757   528085 
   39000    1.1042543   -1.4715911   -1.4715911  -0.71708018   0.10089397   -1.4715911   0.75451089   528085 
   40000    1.1034769   -1.4720059   -1.4720059  -0.71802621   0.08628402   -1.4720059   0.75397967   528085 
   41000    1.1032488   -1.4723963   -1.4723963  -0.71857244  0.094343324   -1.4723963   0.75382382   528085 
   42000    1.1053387   -1.4746382   -1.4746382  -0.71938645  0.095206278   -1.4746382   0.75525178   528085 
   43000    1.1039567   -1.4746934   -1.4746934  -0.72038583  0.085659223   -1.4746934   0.75430753   528085 
   44000    1.1071001   -1.4774356   -1.4774356  -0.72098021   0.09206974   -1.4774356   0.75645537   528085 
   45000    1.1066738   -1.4788815   -1.4788815  -0.72271739  0.076824307   -1.4788815   0.75616406   528085 
   46000    1.1066552   -1.4795093   -1.4795093  -0.72335791  0.087067534   -1.4795093   0.75615135   528085 
   47000    1.1075016    -1.480966    -1.480966  -0.72423634  0.096099203    -1.480966   0.75672969   528085 
   48000    1.1033656   -1.4789393   -1.4789393  -0.72503567  0.085853152   -1.4789393   0.75390361   528085 
   49000    1.1067943   -1.4818072   -1.4818072  -0.72556088    0.0964059   -1.4818072   0.75624636   528085 
   50000    1.1045729   -1.4817668   -1.4817668  -0.72703827  0.094038644   -1.4817668   0.75472855   528085 
   51000    1.1038692   -1.4830268   -1.4830268  -0.72877912  0.092827053   -1.4830268   0.75424772   528085 
   52000    1.1056887   -1.4843508   -1.4843508  -0.72885987  0.092735947   -1.4843508   0.75549094   528085 
   53000    1.1026914   -1.4826927   -1.4826927   -0.7292497   0.10152213   -1.4826927     0.753443   528085 
   54000    1.1037147   -1.4852373   -1.4852373  -0.73109518  0.088425144   -1.4852373   0.75414217   528085 
   55000    1.1046736   -1.4863305   -1.4863305  -0.73153311  0.094162111   -1.4863305   0.75479739   528085 
   56000    1.1077567   -1.4888438   -1.4888438  -0.73193988  0.087112602   -1.4888438   0.75690394   528085 
   57000    1.1048972   -1.4878079   -1.4878079  -0.73285775  0.088005844   -1.4878079   0.75495014   528085 
   58000    1.1077048   -1.4905819   -1.4905819  -0.73371346   0.09710276   -1.4905819   0.75686848   528085 
   59000    1.1059453   -1.4905221   -1.4905221  -0.73485576  0.097405251   -1.4905221    0.7556663   528085 
   60000    1.1064137   -1.4914631   -1.4914631  -0.73547675  0.092457372   -1.4914631   0.75598635   528085 
   61000    1.1015842   -1.4897869   -1.4897869   -0.7371005  0.093370602   -1.4897869   0.75268642   528085 
   62000    1.1038532   -1.4912412   -1.4912412  -0.73700444  0.082852348   -1.4912412   0.75423678   528085 
   63000    1.1038584   -1.4922794   -1.4922794  -0.73803911  0.096213815   -1.4922794   0.75424034   528085 
   64000     1.103572   -1.4928911   -1.4928911  -0.73884642  0.092956928   -1.4928911   0.75404464   528085 
   65000     1.102397   -1.4933872   -1.4933872  -0.74014537  0.082168886   -1.4933872   0.75324184   528085 
   66000    1.1003474   -1.4928146   -1.4928146  -0.74097322  0.099658517   -1.4928146   0.75184136   528085 
   67000    1.1011299    -1.493977    -1.493977  -0.74160094  0.099954955    -1.493977   0.75237605   528085 
   68000    1.0998221   -1.4936474   -1.4936474  -0.74216494  0.097735903   -1.4936474   0.75148246   528085 
   69000    1.0996925    -1.494508    -1.494508  -0.74311407  0.085972573    -1.494508    0.7513939   528085 
   70000    1.0989449   -1.4945604   -1.4945604  -0.74367733   0.09033535   -1.4945604    0.7508831   528085 
   71000    1.0988419    -1.495263    -1.495263  -0.74445034  0.095649943    -1.495263   0.75081267   528085 
   72000    1.0965071   -1.4936775   -1.4936775  -0.74446016  0.088354314   -1.4936775   0.74921738   528085 
   73000    1.0986621   -1.4946883   -1.4946883  -0.74399849   0.08930831   -1.4946883   0.75068984   528085 
   74000    1.0981801   -1.4943993   -1.4943993  -0.74403879  0.089364043   -1.4943993   0.75036054   528085 
   75000    1.1006914   -1.4971596   -1.4971596  -0.74508317  0.089343818   -1.4971596   0.75207643   528085 
   76000    1.0979886   -1.4957876   -1.4957876    -0.745558  0.085682594   -1.4957876   0.75022963   528085 
   77000    1.0990565   -1.4966094   -1.4966094  -0.74565004  0.092520418   -1.4966094   0.75095933   528085 
   78000    1.0999772   -1.4977382   -1.4977382   -0.7461498   0.08873555   -1.4977382   0.75158842   528085 
   79000     1.099648   -1.4986896   -1.4986896  -0.74732615  0.091236767   -1.4986896   0.75136349   528085 
   80000    1.0986594   -1.4983223   -1.4983223  -0.74763431   0.08970785   -1.4983223   0.75068801   528085 
   81000    1.0989693   -1.4988504   -1.4988504  -0.74795071    0.1016438   -1.4988504   0.75089972   528085 
   82000    1.0971253   -1.4977269   -1.4977269  -0.74808707  0.084220678   -1.4977269    0.7496398   528085 
   83000    1.0976674   -1.4980894   -1.4980894  -0.74807918  0.095379303   -1.4980894   0.75001022   528085 
   84000    1.0958377   -1.4985706   -1.4985706   -0.7498106   0.09089388   -1.4985706   0.74876002   528085 
   85000    1.0952511   -1.4988015   -1.4988015  -0.75044233   0.10487511   -1.4988015   0.74835916   528085 
   86000    1.0976078   -1.5014206   -1.5014206  -0.75145109   0.08281921   -1.5014206   0.74996947   528085 
   87000    1.0945882   -1.5000197   -1.5000197  -0.75211341  0.088246537   -1.5000197   0.74790627   528085 
   88000    1.0959975   -1.5018478   -1.5018478  -0.75297865  0.092146727   -1.5018478   0.74886916   528085 
   89000    1.0952983   -1.5005088   -1.5005088  -0.75211735  0.090429734   -1.5005088   0.74839145   528085 
   90000    1.0993159   -1.5037728   -1.5037728  -0.75263624    0.1041711   -1.5037728   0.75113655   528085 
   91000    1.0950306   -1.5024757   -1.5024757  -0.75426721    0.0881359   -1.5024757   0.74820852   528085 
   92000    1.0945422   -1.5011274   -1.5011274  -0.75325251  0.073349506   -1.5011274   0.74787485   528085 
   93000    1.0951595   -1.5025364   -1.5025364  -0.75423979  0.083590763   -1.5025364   0.74829657   528085 
   94000    1.0983891   -1.5054727   -1.5054727  -0.75496936  0.081561926   -1.5054727   0.75050334   528085 
   95000    1.0945238   -1.5040307   -1.5040307  -0.75616842  0.098712447   -1.5040307   0.74786227   528085 
   96000    1.0976338   -1.5058831   -1.5058831  -0.75589585  0.085727106   -1.5058831   0.74998722   528085 
   97000    1.0970634   -1.5049952   -1.5049952  -0.75539766  0.086624659   -1.5049952    0.7495975   528085 
   98000    1.0978641   -1.5067711   -1.5067711  -0.75662647  0.090254305   -1.5067711   0.75014459   528085 
   99000    1.0971622   -1.5074635   -1.5074635  -0.75779848   0.08154108   -1.5074635   0.74966498   528085 
  100000    1.0956562   -1.5065304   -1.5065304  -0.75789436   0.11219472   -1.5065304   0.74863599   528085 
  101000    1.0974518   -1.5079103   -1.5079103  -0.75804748  0.089480451   -1.5079103   0.74986286   528085 
  102000    1.0940567   -1.5060558   -1.5060558  -0.75851276  0.094313452   -1.5060558   0.74754308   528085 
  103000    1.0940729   -1.5071846   -1.5071846  -0.75963042   0.09322385   -1.5071846   0.74755419   528085 
  104000    1.0942071   -1.5078128   -1.5078128  -0.76016691  0.097044949   -1.5078128   0.74764586   528085 
  105000    1.0949406   -1.5091026   -1.5091026  -0.76095557    0.1097532   -1.5091026   0.74814704   528085 
  106000    1.0953051    -1.509681    -1.509681  -0.76128491  0.087042885    -1.509681   0.74839607   528085 
  107000    1.0970888   -1.5116505   -1.5116505  -0.76203568  0.090753227   -1.5116505   0.74961484   528085 
  108000    1.0939947   -1.5107173   -1.5107173  -0.76321655  0.089843189   -1.5107173   0.74750075   528085 
  109000    1.0969695    -1.513204    -1.513204  -0.76367061  0.091283922    -1.513204   0.74953336   528085 
  110000    1.0953964   -1.5128187   -1.5128187   -0.7643602   0.09524613   -1.5128187   0.74845845   528085 
  111000    1.0950806   -1.5130733   -1.5130733  -0.76483065  0.093030067   -1.5130733   0.74824268   528085 
  112000    1.0960032   -1.5130658   -1.5130658  -0.76419273   0.09330269   -1.5130658   0.74887311   528085 
  113000    1.0955467   -1.5130838   -1.5130838   -0.7645226   0.10076561   -1.5130838   0.74856115   528085 
  114000    1.0952862   -1.5137507   -1.5137507  -0.76536749  0.081330741   -1.5137507   0.74838318   528085 
  115000    1.0939288   -1.5138117   -1.5138117  -0.76635602  0.099061379   -1.5138117   0.74745569   528085 
  116000    1.0935055   -1.5148956   -1.5148956  -0.76772917  0.081680622   -1.5148956   0.74716644   528085 
  117000    1.0940057   -1.5154552   -1.5154552  -0.76794695  0.084679926   -1.5154552   0.74750825   528085 
  118000    1.0943957   -1.5163159   -1.5163159  -0.76854119  0.092364949   -1.5163159   0.74777468   528085 
  119000    1.0951978   -1.5171874   -1.5171874  -0.76886464    0.0743905   -1.5171874   0.74832274   528085 
  120000      1.09433   -1.5178409   -1.5178409  -0.77011108  0.099212751   -1.5178409   0.74772981   528085 
  121000    1.0922302   -1.5170741   -1.5170741  -0.77077906  0.094640078   -1.5170741   0.74629507   528085 
  122000    1.0940905   -1.5190689   -1.5190689  -0.77150269    0.1070083   -1.5190689   0.74756617   528085 
  123000    1.0958794   -1.5202912   -1.5202912  -0.77150278  0.096225875   -1.5202912   0.74878847   528085 
  124000    1.0932177    -1.519243    -1.519243  -0.77227324  0.095541332    -1.519243   0.74696979   528085 
  125000    1.0921699   -1.5197269   -1.5197269  -0.77347302   0.10657142   -1.5197269   0.74625388   528085 
  126000    1.0952573   -1.5201406   -1.5201406  -0.77177725  0.084989905   -1.5201406    0.7483634   528085 
  127000       1.0924   -1.5187983   -1.5187983  -0.77238719  0.088235516   -1.5187983   0.74641108   528085 
  128000    1.0920987   -1.5187362   -1.5187362  -0.77253097  0.098569393   -1.5187362   0.74620524   528085 
  129000    1.0915882   -1.5186589   -1.5186589  -0.77280254  0.090754524   -1.5186589   0.74585639   528085 
  130000    1.0919396    -1.520195    -1.520195  -0.77409845  0.094898377    -1.520195   0.74609653   528085 
  131000    1.0908649   -1.5200244   -1.5200244  -0.77466223     0.106577   -1.5200244    0.7453622   528085 
  132000    1.0922681   -1.5217394   -1.5217394  -0.77541846  0.089955645   -1.5217394   0.74632097   528085 
  133000    1.0923696   -1.5218889   -1.5218889   -0.7754986      0.10576   -1.5218889   0.74639034   528085 
  134000    1.0928797   -1.5224408   -1.5224408  -0.77570195  0.098061778   -1.5224408   0.74673887   528085 
  135000    1.0919854   -1.5220476   -1.5220476  -0.77591983  0.098915955   -1.5220476    0.7461278   528085 
  136000    1.0902916   -1.5208824   -1.5208824  -0.77591197  0.098921076   -1.5208824   0.74497047   528085 
  137000    1.0930234   -1.5239125   -1.5239125  -0.77707547  0.082135439   -1.5239125   0.74683708   528085 
  138000    1.0889101   -1.5211954   -1.5211954  -0.77716886  0.072817302   -1.5211954   0.74402654   528085 
  139000    1.0908609   -1.5228469   -1.5228469  -0.77748745  0.085792336   -1.5228469   0.74535946   528085 
  140000    1.0891304   -1.5232602   -1.5232602   -0.7790831  0.083664868   -1.5232602   0.74417708   528085 
  141000    1.0896294   -1.5234931   -1.5234931  -0.77897515  0.089794177   -1.5234931   0.74451799   528085 
  142000    1.0926172   -1.5249309   -1.5249309  -0.77837139  0.098424947   -1.5249309   0.74655953   528085 
  143000    1.0883437   -1.5217788   -1.5217788  -0.77813928  0.096054866   -1.5217788   0.74363954   528085 
  144000    1.0904842   -1.5236681   -1.5236681  -0.77856604  0.091467392   -1.5236681   0.74510208   528085 
  145000    1.0895045   -1.5235691   -1.5235691  -0.77913642  0.089187863   -1.5235691   0.74443268   528085 
  146000    1.0901102   -1.5242055   -1.5242055  -0.77935903  0.076601348   -1.5242055   0.74484652   528085 
  147000    1.0873385   -1.5227236   -1.5227236  -0.77977093  0.079214149   -1.5227236   0.74295269   528085 
  148000    1.0898252    -1.524728    -1.524728  -0.78007621  0.074127427    -1.524728   0.74465182   528085 
  149000    1.0902721   -1.5252451   -1.5252451  -0.78028794  0.098242195   -1.5252451   0.74495717   528085 
  150000    1.0931363   -1.5273997   -1.5273997   -0.7804855  0.094370984   -1.5273997   0.74691422   528085 
  151000    1.0890196    -1.525353    -1.525353   -0.7812517  0.093986217    -1.525353   0.74410134   528085 
  152000    1.0922049   -1.5263147   -1.5263147  -0.78003686  0.090451875   -1.5263147   0.74627783   528085 
  153000    1.0919489   -1.5273501   -1.5273501  -0.78124721  0.086035663   -1.5273501   0.74610288   528085 
  154000    1.0884332   -1.5242119   -1.5242119  -0.78051122  0.099924295   -1.5242119    0.7437007   528085 
  155000    1.0895231   -1.5251429   -1.5251429  -0.78069753  0.094457395   -1.5251429   0.74444539   528085 
  156000    1.0901831   -1.5260026   -1.5260026  -0.78110623  0.082945236   -1.5260026   0.74489633   528085 
  157000    1.0897045   -1.5259992   -1.5259992  -0.78142989  0.091540644   -1.5259992   0.74456933   528085 
  158000    1.0889278   -1.5256746   -1.5256746  -0.78163598  0.083852312   -1.5256746   0.74403863   528085 
  159000    1.0893635   -1.5269735   -1.5269735  -0.78263717   0.10313736   -1.5269735   0.74433631   528085 
  160000     1.088143   -1.5275442   -1.5275442  -0.78404182  0.096660816   -1.5275442   0.74350241   528085 
  161000    1.0892013   -1.5273927   -1.5273927  -0.78316719   0.10182443   -1.5273927   0.74422553   528085 
  162000    1.0876389   -1.5269385   -1.5269385  -0.78378053  0.098261262   -1.5269385   0.74315792   528085 
  163000    1.0892588    -1.528043    -1.528043  -0.78377818  0.089080572    -1.528043   0.74426478   528085 
  164000    1.0882919   -1.5279217   -1.5279217  -0.78431755  0.082668645   -1.5279217   0.74360417   528085 
  165000    1.0884325   -1.5290138   -1.5290138  -0.78531357  0.088420383   -1.5290138   0.74370019   528085 
  166000    1.0888986   -1.5295412   -1.5295412  -0.78552256  0.090970628   -1.5295412   0.74401869   528085 
  167000    1.0891451    -1.530933    -1.530933  -0.78674591  0.089703415    -1.530933   0.74418707   528085 
  168000    1.0899397   -1.5307812   -1.5307812  -0.78605116  0.080330863   -1.5307812   0.74473002   528085 
  169000    1.0862924   -1.5294509   -1.5294509  -0.78721297  0.096975297   -1.5294509   0.74223794   528085 
  170000    1.0860922   -1.5296712   -1.5296712  -0.78757003   0.10565557   -1.5296712   0.74210115   528085 
  171000    1.0867077   -1.5315577   -1.5315577    -0.789036  0.085120677   -1.5315577   0.74252171   528085 
  172000     1.089205      -1.5335      -1.5335   -0.7892719  0.094392191      -1.5335   0.74422806   528085 
  173000    1.0885332   -1.5331933   -1.5331933  -0.78942431   0.10904985   -1.5331933   0.74376902   528085 
  174000    1.0896478   -1.5338898   -1.5338898  -0.78935922  0.091900693   -1.5338898   0.74453058   528085 
  175000    1.0868685   -1.5326272   -1.5326272  -0.78999567   0.10898642   -1.5326272   0.74263154   528085 
  176000    1.0885542   -1.5335853   -1.5335853  -0.78980196  0.093528509   -1.5335853   0.74378333   528085 
  177000    1.0899083   -1.5350452   -1.5350452  -0.79033658   0.10795184   -1.5350452   0.74470861   528085 
  178000    1.0920679   -1.5370736   -1.5370736  -0.79088942  0.074681603   -1.5370736   0.74618419   528085 
  179000    1.0870374   -1.5335224   -1.5335224  -0.79077541   0.10358303   -1.5335224   0.74274697   528085 
  180000    1.0880434   -1.5335416   -1.5335416  -0.79010723  0.092872413   -1.5335416   0.74343434   528085 
  181000    1.0891628   -1.5346306   -1.5346306  -0.79043136  0.093508387   -1.5346306   0.74419922   528085 
  182000    1.0875352    -1.534072    -1.534072  -0.79098495  0.098292898    -1.534072   0.74308707   528085 
  183000    1.0873017   -1.5343672   -1.5343672  -0.79143969   0.10703969   -1.5343672   0.74292753   528085 
  184000    1.0903554   -1.5364557   -1.5364557  -0.79144155   0.10215182   -1.5364557    0.7450141   528085 
  185000    1.0870861   -1.5335836   -1.5335836  -0.79080341   0.08496452   -1.5335836   0.74278021   528085 
  186000    1.0857113   -1.5330413   -1.5330413  -0.79120047  0.086917987   -1.5330413   0.74184088   528085 
  187000    1.0868221    -1.534194    -1.534194  -0.79159411   0.08882217    -1.534194   0.74259985   528085 
  188000    1.0875782   -1.5345953   -1.5345953  -0.79147878  0.096598952   -1.5345953   0.74311651   528085 
  189000    1.0845603   -1.5341957   -1.5341957  -0.79314124  0.093224809   -1.5341957   0.74105444   528085 
  190000    1.0850347   -1.5345873   -1.5345873  -0.79320877  0.095048857   -1.5345873   0.74137857   528085 
  191000    1.0847022   -1.5351845   -1.5351845   -0.7940331  0.091596723   -1.5351845   0.74115135   528085 
  192000     1.089452   -1.5380867   -1.5380867  -0.79368994  0.099889918   -1.5380867   0.74439678   528085 
  193000    1.0863197    -1.536833    -1.536833  -0.79457644  0.081760599    -1.536833   0.74225654   528085 
  194000    1.0837313   -1.5360496   -1.5360496  -0.79556157   0.10484855   -1.5360496     0.740488   528085 
  195000    1.0856799   -1.5374885   -1.5374885  -0.79566907  0.080590772   -1.5374885   0.74181941   528085 
  196000    1.0853292    -1.537338    -1.537338  -0.79575819  0.086489739    -1.537338   0.74157979   528085 
  197000    1.0843413    -1.537492    -1.537492  -0.79658718  0.095483934    -1.537492   0.74090482   528085 
  198000    1.0849435   -1.5382894   -1.5382894  -0.79697315  0.086619508   -1.5382894   0.74131628   528085 
  199000    1.0838753   -1.5387197   -1.5387197  -0.79813332  0.084857886   -1.5387197   0.74058638   528085 
  200000    1.0835838   -1.5390404   -1.5390404  -0.79865318  0.085957616   -1.5390404    0.7403872   528085 
  201000    1.0856943   -1.5400629   -1.5400629  -0.79823361  0.099448542   -1.5400629   0.74182925   528085 
  202000    1.0848972   -1.5410191   -1.5410191   -0.7997345   0.09682124   -1.5410191   0.74128465   528085 
  203000     1.087054   -1.5424166   -1.5424166  -0.79965829  0.086563007   -1.5424166    0.7427583   528085 
  204000    1.0865404   -1.5416835   -1.5416835  -0.79927608  0.097699424   -1.5416835   0.74240739   528085 
  205000    1.0841578     -1.53989     -1.53989  -0.79911059   0.09522956     -1.53989   0.74077939   528085 
  206000    1.0888694   -1.5434126   -1.5434126  -0.79941391   0.10207912   -1.5434126   0.74399872   528085 
  207000    1.0888689   -1.5429479   -1.5429479  -0.79894955   0.10457558   -1.5429479   0.74399839   528085 
  208000     1.086791   -1.5423826   -1.5423826    -0.799804  0.090268863   -1.5423826   0.74257861   528085 
  209000    1.0852888    -1.541965    -1.541965  -0.80041277   0.10412795    -1.541965   0.74155221   528085 
  210000    1.0867326   -1.5437736   -1.5437736  -0.80123486  0.099325259   -1.5437736   0.74253869   528085 
  211000    1.0880307    -1.545953    -1.545953  -0.80252739   0.10817029    -1.545953   0.74342563   528085 
  212000    1.0860687   -1.5446568   -1.5446568  -0.80257179  0.082678112   -1.5446568   0.74208505   528085 
  213000    1.0854331   -1.5435045   -1.5435045  -0.80185367    0.1011734   -1.5435045   0.74165078   528085 
  214000    1.0877013   -1.5461446   -1.5461446  -0.80294406  0.097261329   -1.5461446   0.74320059   528085 
  215000    1.0872052   -1.5458001   -1.5458001  -0.80293847  0.090937183   -1.5458001   0.74286162   528085 
  216000    1.0837039   -1.5440083   -1.5440083  -0.80353903  0.099788845   -1.5440083   0.74046927   528085 
  217000     1.086847   -1.5461119   -1.5461119  -0.80349497   0.08794387   -1.5461119   0.74261689   528085 
  218000    1.0852665     -1.54577     -1.54577  -0.80423304  0.094734234     -1.54577   0.74153696   528085 
  219000    1.0854524    -1.545887    -1.545887  -0.80422306   0.10009329    -1.545887   0.74166394   528085 
  220000    1.0851707    -1.545706    -1.545706  -0.80423444   0.09687347    -1.545706   0.74147152   528085 
  221000    1.0849778   -1.5456932   -1.5456932  -0.80435353  0.096808313   -1.5456932   0.74133967   528085 
  222000    1.0848039    -1.546184    -1.546184  -0.80496318   0.10858369    -1.546184   0.74122084   528085 
  223000     1.085617   -1.5467964   -1.5467964  -0.80501992  0.090583195   -1.5467964   0.74177647   528085 
  224000    1.0825098   -1.5445642   -1.5445642  -0.80491079  0.097404873   -1.5445642   0.73965339   528085 
  225000    1.0839007   -1.5463589   -1.5463589  -0.80575518   0.10068493   -1.5463589   0.74060374   528085 
  226000    1.0822464   -1.5456375   -1.5456375  -0.80616415  0.091904005   -1.5456375   0.73947336   528085 
  227000    1.0840437   -1.5470727   -1.5470727  -0.80637126  0.094551833   -1.5470727   0.74070144   528085 
  228000    1.0840611   -1.5468351   -1.5468351  -0.80612176  0.091500126   -1.5468351   0.74071331   528085 
  229000    1.0853137   -1.5478238   -1.5478238  -0.80625458  0.079650356   -1.5478238   0.74156918   528085 
  230000    1.0845625   -1.5476502   -1.5476502  -0.80659421    0.0992256   -1.5476502   0.74105595   528085 
  231000    1.0853008   -1.5485903   -1.5485903  -0.80702998    0.0836382   -1.5485903   0.74156036   528085 
  232000     1.085626   -1.5492956   -1.5492956  -0.80751299  0.099055705   -1.5492956   0.74178257   528085 
  233000    1.0851256   -1.5488549   -1.5488549  -0.80741417  0.075124049   -1.5488549    0.7414407   528085 
  234000    1.0868978   -1.5513652   -1.5513652  -0.80871363  0.086317815   -1.5513652   0.74265158   528085 
  235000    1.0825193   -1.5498138   -1.5498138  -0.81015396  0.088758735   -1.5498138   0.73965982   528085 
  236000    1.0815802     -1.54943     -1.54943  -0.81041176  0.084863925     -1.54943   0.73901822   528085 
  237000    1.0832086   -1.5496394   -1.5496394  -0.80950861  0.088471634   -1.5496394   0.74013084   528085 
  238000    1.0875059   -1.5526539   -1.5526539  -0.80958682   0.11146377   -1.5526539   0.74306711   528085 
  239000    1.0831834   -1.5495012   -1.5495012  -0.80938763  0.091898666   -1.5495012   0.74011361   528085 
  240000    1.0839684   -1.5498413   -1.5498413  -0.80919134   0.08595167   -1.5498413   0.74064998   528085 
  241000    1.0807438   -1.5484564   -1.5484564  -0.81000973  0.091121898   -1.5484564   0.73844666   528085 
  242000    1.0821265    -1.550002    -1.550002   -0.8106106  0.087581084    -1.550002   0.73939143   528085 
  243000    1.0846134   -1.5525213   -1.5525213  -0.81143063  0.084004033   -1.5525213   0.74109071   528085 
  244000    1.0841893   -1.5527804   -1.5527804  -0.81197952  0.098228488   -1.5527804   0.74080092   528085 
  245000    1.0824534   -1.5511893   -1.5511893  -0.81157443  0.092083787   -1.5511893   0.73961482   528085 
  246000     1.084078   -1.5522119   -1.5522119  -0.81148702   0.08368398   -1.5522119   0.74072489   528085 
  247000    1.0832785   -1.5526802   -1.5526802   -0.8125016  0.088113644   -1.5526802   0.74017858   528085 
  248000    1.0843832   -1.5525313   -1.5525313  -0.81159784  0.088814466   -1.5525313   0.74093343   528085 
  249000    1.0839882   -1.5525144   -1.5525144  -0.81185088  0.084150965   -1.5525144   0.74066352   528085 
  250000    1.0830466   -1.5528753   -1.5528753  -0.81285509   0.10266328   -1.5528753   0.74002017   528085 
  251000    1.0824378   -1.5524086   -1.5524086  -0.81280444  0.088066236   -1.5524086   0.73960419   528085 
  252000    1.0832651   -1.5527342   -1.5527342  -0.81256478   0.10643253   -1.5527342   0.74016941   528085 
  253000    1.0854949   -1.5550138   -1.5550138  -0.81332078  0.098392983   -1.5550138   0.74169298   528085 
  254000    1.0851598   -1.5540672   -1.5540672  -0.81260319  0.098661624   -1.5540672   0.74146403   528085 
  255000    1.0835384   -1.5539778   -1.5539778  -0.81362159   0.10073901   -1.5539778   0.74035621   528085 
  256000    1.0837011   -1.5545219   -1.5545219  -0.81405454   0.09265327   -1.5545219   0.74046733   528085 
  257000     1.084134   -1.5549545   -1.5549545  -0.81419138   0.10458991   -1.5549545   0.74076314   528085 
  258000    1.0834321     -1.55502     -1.55502  -0.81473641  0.090460735     -1.55502   0.74028355   528085 
  259000    1.0811182    -1.553449    -1.553449  -0.81474647  0.094799654    -1.553449   0.73870248   528085 
  260000    1.0832394   -1.5549099   -1.5549099  -0.81475804  0.094771706   -1.5549099   0.74015188   528085 
  261000    1.0850539   -1.5572615   -1.5572615  -0.81586981  0.090343709   -1.5572615   0.74139169   528085 
  262000    1.0852398   -1.5574344   -1.5574344  -0.81591569   0.09198424   -1.5574344   0.74151874   528085 
  263000    1.0832216     -1.55622     -1.55622  -0.81608026   0.10033887     -1.55622   0.74013973   528085 
  264000    1.0822657    -1.555621    -1.555621  -0.81613444  0.086854056    -1.555621    0.7394866   528085 
  265000    1.0815271   -1.5550173   -1.5550173  -0.81603538  0.083583537   -1.5550173   0.73898192   528085 
  266000    1.0817605   -1.5560564   -1.5560564  -0.81691504   0.10362868   -1.5560564   0.73914136   528085 
  267000    1.0846587   -1.5580176   -1.5580176  -0.81689594  0.091653279   -1.5580176   0.74112163   528085 
  268000    1.0828265   -1.5571729   -1.5571729  -0.81730311  0.090909327   -1.5571729   0.73986976   528085 
  269000    1.0833613   -1.5577436   -1.5577436  -0.81750838   0.08867512   -1.5577436   0.74023517   528085 
  270000    1.0828746   -1.5576901   -1.5576901   -0.8177875  0.097537406   -1.5576901   0.73990261   528085 
  271000    1.0827268   -1.5570625   -1.5570625  -0.81726087   0.09927099   -1.5570625   0.73980166   528085 
  272000    1.0825143   -1.5575678   -1.5575678  -0.81791131   0.10257346   -1.5575678   0.73965644   528085 
  273000    1.0846084   -1.5580437   -1.5580437  -0.81695636  0.084278841   -1.5580437    0.7410873   528085 
  274000    1.0838612   -1.5576753   -1.5576753  -0.81709858  0.090787693   -1.5576753   0.74057675   528085 
  275000    1.0806945   -1.5559498   -1.5559498  -0.81753675   0.10503344   -1.5559498   0.73841301   528085 
  276000    1.0824874   -1.5574304   -1.5574304  -0.81779229  0.090961121   -1.5574304   0.73963809   528085 
  277000     1.080647   -1.5570108   -1.5570108  -0.81863031   0.10314384   -1.5570108   0.73838053   528085 
  278000    1.0821583   -1.5576749   -1.5576749  -0.81826171  0.093544208   -1.5576749   0.73941317   528085 
  279000    1.0824753   -1.5588171   -1.5588171  -0.81918727  0.080698673   -1.5588171   0.73962981   528085 
  280000    1.0818963    -1.558536    -1.558536  -0.81930181  0.097686968    -1.558536   0.73923416   528085 
  281000     1.081229   -1.5588339   -1.5588339  -0.82005565  0.083587533   -1.5588339   0.73877823   528085 
  282000    1.0807567   -1.5587875   -1.5587875  -0.82033198  0.085127727   -1.5587875   0.73845548   528085 
  283000    1.0798547   -1.5585866   -1.5585866  -0.82074739  0.099104143   -1.5585866   0.73783916   528085 
  284000    1.0807243   -1.5598637   -1.5598637  -0.82143034  0.081186493   -1.5598637   0.73843337   528085 
  285000    1.0828576   -1.5609423   -1.5609423  -0.82105133  0.087438322   -1.5609423   0.73989101   528085 
  286000    1.0833895   -1.5619264   -1.5619264  -0.82167201  0.085564948   -1.5619264   0.74025442   528085 
  287000     1.083754   -1.5623736   -1.5623736  -0.82187016  0.097214384   -1.5623736   0.74050348   528085 
  288000    1.0834484   -1.5632321   -1.5632321  -0.82293745  0.078514628   -1.5632321   0.74029467   528085 
  289000    1.0815305    -1.561572    -1.561572  -0.82258776  0.097244735    -1.561572    0.7389842   528085 
  290000    1.0832622   -1.5633966   -1.5633966  -0.82322915   0.09253111   -1.5633966   0.74016749   528085 
  291000    1.0810117   -1.5618473   -1.5618473  -0.82321751  0.084781041   -1.5618473   0.73862978   528085 
  292000     1.081393   -1.5628141   -1.5628141  -0.82392379    0.1022635   -1.5628141   0.73889027   528085 
  293000    1.0781961   -1.5606522   -1.5606522  -0.82394626  0.094629951   -1.5606522   0.73670593   528085 
  294000     1.079209   -1.5618397   -1.5618397  -0.82444165  0.091503069   -1.5618397   0.73739801   528085 
  295000    1.0782494   -1.5621323   -1.5621323  -0.82538993  0.090843129   -1.5621323   0.73674232   528085 
  296000    1.0786248   -1.5627969   -1.5627969   -0.8257981  0.091103479   -1.5627969   0.73699884   528085 
  297000     1.079594   -1.5629981   -1.5629981  -0.82533706  0.098217201   -1.5629981   0.73766105   528085 
  298000    1.0780245   -1.5625078   -1.5625078  -0.82591909  0.083173653   -1.5625078   0.73658868   528085 
  299000    1.0791591   -1.5639549   -1.5639549  -0.82659102  0.087821451   -1.5639549   0.73736391   528085 
  300000    1.0793903   -1.5630762   -1.5630762  -0.82555428  0.094313576   -1.5630762   0.73752188   528085 
  301000    1.0807488   -1.5639449   -1.5639449  -0.82549479   0.09923813   -1.5639449   0.73845008   528085 
  302000    1.0818451   -1.5655037   -1.5655037  -0.82630454  0.099436364   -1.5655037   0.73919918   528085 
  303000    1.0807146   -1.5649346   -1.5649346  -0.82650785  0.099625594   -1.5649346   0.73842676   528085 
  304000    1.0787213   -1.5637551   -1.5637551   -0.8266904   0.08900319   -1.5637551   0.73706474   528085 
  305000    1.0828928   -1.5664695   -1.5664695  -0.82655442  0.086844842   -1.5664695   0.73991506   528085 
  306000    1.0790317   -1.5638781   -1.5638781  -0.82660125  0.078407482   -1.5638781   0.73727688   528085 
  307000    1.0795059    -1.564402    -1.564402   -0.8268012   0.10226647    -1.564402   0.73760084   528085 
  308000     1.080222   -1.5649213   -1.5649213   -0.8268312  0.080302208   -1.5649213   0.73809013   528085 
  309000    1.0791101   -1.5643598   -1.5643598  -0.82702936  0.096491455   -1.5643598   0.73733045   528085 
  310000    1.0807372   -1.5657306   -1.5657306  -0.82728835  0.080050594   -1.5657306   0.73844222   528085 
  311000    1.0784533    -1.564289    -1.564289  -0.82740735  0.086041441    -1.564289   0.73688167   528085 
  312000    1.0789765   -1.5656813   -1.5656813  -0.82844211  0.095442997   -1.5656813   0.73723915   528085 
  313000    1.0800045   -1.5667854   -1.5667854  -0.82884389  0.088761036   -1.5667854   0.73794154   528085 
  314000    1.0793411   -1.5658265   -1.5658265  -0.82833826  0.093471019   -1.5658265   0.73748824   528085 
  315000    1.0811277   -1.5670947   -1.5670947  -0.82838568  0.095555937   -1.5670947   0.73870899   528085 
  316000    1.0827389   -1.5679692   -1.5679692  -0.82815929  0.096664131   -1.5679692    0.7398099   528085 
  317000    1.0818515   -1.5675513   -1.5675513  -0.82834769  0.095414208   -1.5675513   0.73920359   528085 
  318000    1.0792418   -1.5664353   -1.5664353  -0.82901489  0.098444126   -1.5664353   0.73742042   528085 
  319000    1.0794392   -1.5665572   -1.5665572  -0.82900187  0.090100372   -1.5665572   0.73755533   528085 
  320000    1.0795616   -1.5672743   -1.5672743  -0.82963539  0.085606439   -1.5672743   0.73763892   528085 
  321000    1.0798738   -1.5678941   -1.5678941  -0.83004186  0.087427502   -1.5678941   0.73785228   528085 
  322000    1.0800177   -1.5683116   -1.5683116  -0.83036103  0.082981548   -1.5683116   0.73795059   528085 
  323000     1.077199   -1.5671736   -1.5671736  -0.83114902  0.088278563   -1.5671736   0.73602459   528085 
  324000     1.078249   -1.5668979   -1.5668979  -0.83015589  0.095235389   -1.5668979   0.73674203   528085 
  325000    1.0795307   -1.5682868   -1.5682868  -0.83066903  0.098003761   -1.5682868   0.73761782   528085 
  326000    1.0773991    -1.568126    -1.568126  -0.83196462   0.10081971    -1.568126   0.73616136   528085 
  327000    1.0805439    -1.569844    -1.569844  -0.83153394  0.098727323    -1.569844   0.73831009   528085 
  328000    1.0767205   -1.5677447   -1.5677447  -0.83204702  0.094415257   -1.5677447   0.73569768   528085 
  329000    1.0762476   -1.5676793   -1.5676793  -0.83230471   0.10930187   -1.5676793   0.73537455   528085 
  330000    1.0789345   -1.5699922   -1.5699922  -0.83278177   0.10273811   -1.5699922   0.73721044   528085 
  331000    1.0791155   -1.5699261   -1.5699261    -0.832592   0.10100189   -1.5699261   0.73733413   528085 
  332000    1.0802902   -1.5713857   -1.5713857   -0.8332489   0.10285973   -1.5713857    0.7381368   528085 
  333000    1.0785881   -1.5711448   -1.5711448  -0.83417097   0.09614503   -1.5711448   0.73697379   528085 
  334000    1.0792407   -1.5715086   -1.5715086  -0.83408893  0.092438781   -1.5715086   0.73741965   528085 
  335000    1.0778489   -1.5705219   -1.5705219  -0.83405328   0.09495551   -1.5705219   0.73646865   528085 
  336000       1.0772   -1.5696953   -1.5696953  -0.83366993  0.096024822   -1.5696953   0.73602534   528085 
  337000    1.0791915   -1.5709713   -1.5709713   -0.8335853  0.097415831   -1.5709713   0.73738602   528085 
  338000    1.0794154   -1.5699657   -1.5699657  -0.83242669   0.10663054   -1.5699657   0.73753903   528085 
  339000    1.0796993   -1.5705845   -1.5705845  -0.83285149  0.073250515   -1.5705845   0.73773299   528085 
  340000    1.0777883   -1.5690178   -1.5690178  -0.83259047  0.097963496   -1.5690178    0.7364273   528085 
  341000    1.0792723   -1.5706562   -1.5706562  -0.83321494  0.081319088   -1.5706562   0.73744125   528085 
  342000    1.0796721   -1.5708355   -1.5708355  -0.83312102  0.091328982   -1.5708355   0.73771444   528085 
  343000    1.0758204   -1.5681709   -1.5681709  -0.83308821  0.080213802   -1.5681709   0.73508266   528085 
  344000     1.075473   -1.5691709   -1.5691709  -0.83432567  0.098860906   -1.5691709   0.73484527   528085 
  345000    1.0747735   -1.5688081   -1.5688081   -0.8344408  0.099111415   -1.5688081   0.73436733   528085 
  346000    1.0768132   -1.5712846   -1.5712846  -0.83552356  0.091131311   -1.5712846   0.73576103   528085 
  347000    1.0768587   -1.5712309   -1.5712309  -0.83543877   0.09113635   -1.5712309   0.73579212   528085 
  348000    1.0780653   -1.5719068   -1.5719068  -0.83529019  0.088925025   -1.5719068   0.73661657   528085 
  349000    1.0784853    -1.571612    -1.571612  -0.83470845  0.082751237    -1.571612   0.73690353   528085 
  350000    1.0777308   -1.5717237   -1.5717237  -0.83533568  0.076639708   -1.5717237   0.73638798   528085 
  351000    1.0775681   -1.5714032   -1.5714032  -0.83512637  0.086722728   -1.5714032   0.73627679   528085 
  352000    1.0811481    -1.572842    -1.572842  -0.83411903  0.092991623    -1.572842   0.73872295   528085 
  353000    1.0763023   -1.5706813   -1.5706813  -0.83526941  0.087628096   -1.5706813   0.73541193   528085 
  354000     1.080795   -1.5740288   -1.5740288  -0.83554714  0.090949762   -1.5740288   0.73848167   528085 
  355000    1.0780951   -1.5722437   -1.5722437   -0.8356068  0.093555352   -1.5722437   0.73663689   528085 
  356000    1.0790377   -1.5731564   -1.5731564  -0.83587548  0.081973424   -1.5731564   0.73728093   528085 
  357000    1.0799411    -1.574454    -1.574454  -0.83655581  0.092213592    -1.574454   0.73789823   528085 
  358000    1.0784206   -1.5742274   -1.5742274  -0.83736806  0.089322646   -1.5742274   0.73685933   528085 
  359000    1.0767138   -1.5742289   -1.5742289  -0.83853585   0.10012868   -1.5742289   0.73569307   528085 
  360000     1.077239   -1.5746076   -1.5746076  -0.83855564   0.10302994   -1.5746076   0.73605192   528085 
  361000    1.0777751   -1.5752529   -1.5752529  -0.83883465  0.088563121   -1.5752529   0.73641826   528085 
  362000    1.0786144   -1.5761277   -1.5761277  -0.83913593  0.095373797   -1.5761277   0.73699175   528085 
  363000    1.0769146   -1.5755491   -1.5755491  -0.83971886  0.098551832   -1.5755491   0.73583026   528085 
  364000    1.0769026   -1.5751104   -1.5751104  -0.83928834  0.089767248   -1.5751104   0.73582211   528085 
  365000    1.0762061   -1.5749895   -1.5749895  -0.83964333  0.091245429   -1.5749895    0.7353462   528085 
  366000    1.0765851   -1.5760766   -1.5760766  -0.84047146  0.093493629   -1.5760766   0.73560512   528085 
  367000    1.0770132   -1.5765218   -1.5765218  -0.84062412  0.087738957   -1.5765218   0.73589767   528085 
  368000     1.074772   -1.5745863   -1.5745863  -0.84021996  0.079517981   -1.5745863   0.73436634   528085 
  369000    1.0750628   -1.5756751   -1.5756751  -0.84111016  0.079892828   -1.5756751   0.73456498   528085 
  370000    1.0768403   -1.5763151   -1.5763151  -0.84053563  0.074382737   -1.5763151   0.73577951   528085 
  371000    1.0782704   -1.5767685   -1.5767685  -0.84001179  0.097421897   -1.5767685   0.73675666   528085 
  372000    1.0786411   -1.5774719   -1.5774719  -0.84046198  0.098322852   -1.5774719   0.73700995   528085 
  373000    1.0788734   -1.5779578   -1.5779578  -0.84078908   0.08659638   -1.5779578   0.73716871   528085 
  374000    1.0766908   -1.5767107   -1.5767107   -0.8410333   0.10230965   -1.5767107   0.73567738   528085 
  375000    1.0782691   -1.5776119   -1.5776119  -0.84085616  0.096940573   -1.5776119   0.73675576   528085 
  376000    1.0787142   -1.5774785   -1.5774785  -0.84041852  0.084488675   -1.5774785   0.73705995   528085 
  377000    1.0777655   -1.5774684   -1.5774684  -0.84105666  0.087237027   -1.5774684   0.73641169   528085 
  378000    1.0753208   -1.5762208   -1.5762208   -0.8414795   0.10071859   -1.5762208   0.73474126   528085 
  379000    1.0786154   -1.5786672   -1.5786672   -0.8416748  0.092596916   -1.5786672   0.73699239   528085 
  380000    1.0757656   -1.5768804   -1.5768804  -0.84183516  0.099466045   -1.5768804   0.73504523   528085 
  381000    1.0759187   -1.5769674   -1.5769674  -0.84181758  0.087730996   -1.5769674   0.73514983   528085 
  382000    1.0766892   -1.5772706   -1.5772706  -0.84159434  0.086356557   -1.5772706   0.73567629   528085 
  383000    1.0768287   -1.5783619   -1.5783619  -0.84259035  0.081523077   -1.5783619   0.73577159   528085 
  384000    1.0771796   -1.5788168   -1.5788168  -0.84280545  0.097735621   -1.5788168   0.73601137   528085 
  385000    1.0748945   -1.5781026   -1.5781026   -0.8436526  0.089649441   -1.5781026   0.73444998   528085 
  386000    1.0758851   -1.5791769   -1.5791769  -0.84405009  0.095871858   -1.5791769   0.73512683   528085 
  387000    1.0746019   -1.5789873   -1.5789873  -0.84473725  0.087654289   -1.5789873   0.73425008   528085 
  388000    1.0767618   -1.5798453   -1.5798453  -0.84411947  0.099985543   -1.5798453   0.73572587   528085 
  389000    1.0756276   -1.5803618   -1.5803618  -0.84541088  0.082676461   -1.5803618   0.73495094   528085 
  390000    1.0742392   -1.5792119   -1.5792119  -0.84520966  0.092310499   -1.5792119   0.73400227   528085 
  391000    1.0765935   -1.5809914   -1.5809914  -0.84538051  0.084896747   -1.5809914   0.73561086   528085 
  392000    1.0774563   -1.5815615   -1.5815615  -0.84536109  0.081590668   -1.5815615   0.73620041   528085 
  393000    1.0767862   -1.5821249   -1.5821249  -0.84638229   0.09756744   -1.5821249   0.73574259   528085 
  394000    1.0785065   -1.5844163   -1.5844163  -0.84749836  0.099680794   -1.5844163   0.73691797   528085 
  395000    1.0776065   -1.5830796   -1.5830796  -0.84677654  0.095770359   -1.5830796   0.73630307   528085 
  396000    1.0738763   -1.5816054   -1.5816054  -0.84785106   0.09553413   -1.5816054   0.73375431   528085 
  397000    1.0752204   -1.5826287   -1.5826287  -0.84795603   0.09196094   -1.5826287   0.73467268   528085 
  398000    1.0772354   -1.5836749   -1.5836749  -0.84762539  0.098311464   -1.5836749   0.73604948   528085 
  399000    1.0745309    -1.581828    -1.581828  -0.84762647  0.094451913    -1.581828   0.73420156   528085 
  400000    1.0742956   -1.5819673   -1.5819673  -0.84792645  0.097152124   -1.5819673   0.73404081   528085 
  401000    1.0752271   -1.5823341   -1.5823341  -0.84765686  0.085448406   -1.5823341   0.73467727   528085 
  402000    1.0747118   -1.5824363   -1.5824363  -0.84811109  0.083491709   -1.5824363   0.73432517   528085 
  403000    1.0765589   -1.5825557   -1.5825557  -0.84696842  0.092487821   -1.5825557   0.73558724   528085 
  404000    1.0749188   -1.5820812   -1.5820812   -0.8476146   0.08281543   -1.5820812   0.73446664   528085 
  405000    1.0758738   -1.5824027   -1.5824027  -0.84728355    0.0938885   -1.5824027   0.73511917   528085 
  406000    1.0749066   -1.5825533   -1.5825533  -0.84809505   0.10200921   -1.5825533   0.73445829   528085 
  407000    1.0766018   -1.5834474   -1.5834474  -0.84783086   0.08395193   -1.5834474   0.73561654   528085 
  408000    1.0750872   -1.5829545   -1.5829545  -0.84837284   0.08377432   -1.5829545   0.73458168   528085 
  409000    1.0749386   -1.5834082   -1.5834082  -0.84892808  0.098450865   -1.5834082   0.73448014   528085 
  410000    1.0764333   -1.5843898   -1.5843898   -0.8488884  0.093186959   -1.5843898   0.73550142   528085 
  411000    1.0768291   -1.5850707   -1.5850707   -0.8492989  0.097328971   -1.5850707   0.73577185   528085 
  412000    1.0764071   -1.5850948   -1.5850948  -0.84961132  0.087469095   -1.5850948   0.73548352   528085 
  413000      1.07484   -1.5845739   -1.5845739  -0.85016107  0.096543852   -1.5845739    0.7344128   528085 
  414000    1.0748514   -1.5848327   -1.5848327  -0.85041219  0.090876343   -1.5848327   0.73442053   528085 
  415000    1.0735087    -1.584326    -1.584326   -0.8508229  0.091530448    -1.584326   0.73350309   528085 
  416000    1.0714021   -1.5825329   -1.5825329  -0.85046917  0.098711881   -1.5825329   0.73206374   528085 
  417000    1.0750257   -1.5852683   -1.5852683  -0.85072865  0.080395395   -1.5852683   0.73453962   528085 
  418000     1.073873   -1.5847429   -1.5847429  -0.85099091  0.081819598   -1.5847429   0.73375202   528085 
  419000    1.0738987   -1.5842988   -1.5842988  -0.85052916  0.094327087   -1.5842988   0.73376959   528085 
  420000    1.0764871   -1.5860094   -1.5860094   -0.8504712  0.078006554   -1.5860094   0.73553817   528085 
  421000    1.0751128   -1.5855044   -1.5855044  -0.85090524  0.089054768   -1.5855044   0.73459914   528085 
  422000     1.076259   -1.5859209   -1.5859209  -0.85053855  0.097587877   -1.5859209   0.73538231   528085 
  423000    1.0748954   -1.5858226   -1.5858226  -0.85137199  0.091085705   -1.5858226   0.73445062   528085 
  424000    1.0711638   -1.5832742   -1.5832742  -0.85137329  0.091369288   -1.5832742   0.73190091   528085 
  425000     1.075133   -1.5850252   -1.5850252  -0.85041217  0.092954716   -1.5850252   0.73461299   528085 
  426000    1.0739412   -1.5848487   -1.5848487  -0.85105001  0.083397502   -1.5848487   0.73379867   528085 
  427000    1.0753131   -1.5860547   -1.5860547  -0.85131871    0.1004491   -1.5860547     0.734736   528085 
  428000    1.0733008   -1.5835837   -1.5835837  -0.85022264  0.086622451   -1.5835837   0.73336104   528085 
  429000    1.0752528   -1.5857346   -1.5857346  -0.85103975   0.10152198   -1.5857346   0.73469485   528085 
  430000     1.074776   -1.5864027   -1.5864027   -0.8520337  0.092822153   -1.5864027   0.73436901   528085 
  431000    1.0729354   -1.5859029   -1.5859029  -0.85279149   0.09051633   -1.5859029   0.73311138   528085 
  432000    1.0768935   -1.5886343   -1.5886343  -0.85281835  0.097423577   -1.5886343    0.7358159   528085 
  433000    1.0758207   -1.5875803   -1.5875803  -0.85249742   0.10220593   -1.5875803   0.73508286   528085 
  434000    1.0732488   -1.5860562   -1.5860562  -0.85273069  0.096219195   -1.5860562   0.73332552   528085 
  435000    1.0758917   -1.5878113   -1.5878113   -0.8526799  0.090429503   -1.5878113   0.73513137   528085 
  436000    1.0746892    -1.587248    -1.587248  -0.85293825  0.091924266    -1.587248   0.73430976   528085 
  437000    1.0718378    -1.585776    -1.585776  -0.85341462  0.099109435    -1.585776   0.73236142   528085 
  438000    1.0743215   -1.5875929   -1.5875929  -0.85353443  0.082670809   -1.5875929   0.73405848   528085 
  439000    1.0754144   -1.5883565   -1.5883565  -0.85355121  0.097884225   -1.5883565   0.73480526   528085 
  440000    1.0755499   -1.5880192   -1.5880192  -0.85312142  0.085885921   -1.5880192   0.73489782   528085 
  441000    1.0746986   -1.5880744   -1.5880744  -0.85375823  0.075588525   -1.5880744   0.73431617   528085 
  442000    1.0710648   -1.5860531   -1.5860531  -0.85421978  0.090729088   -1.5860531    0.7318333   528085 
  443000    1.0708763   -1.5863794   -1.5863794  -0.85467492  0.085435801   -1.5863794    0.7317045   528085 
  444000    1.0724197   -1.5873091   -1.5873091  -0.85455002  0.084299098   -1.5873091   0.73275903   528085 
  445000    1.0757065   -1.5898025   -1.5898025  -0.85479767  0.099143328   -1.5898025   0.73500484   528085 
  446000    1.0765838   -1.5907032   -1.5907032  -0.85509891  0.092555634   -1.5907032   0.73560426   528085 
  447000    1.0722253   -1.5874613   -1.5874613  -0.85483508  0.088352854   -1.5874613   0.73262623   528085 
  448000    1.0764737   -1.5906867   -1.5906867  -0.85515769  0.092329199   -1.5906867   0.73552903   528085 
  449000    1.0757422   -1.5906224   -1.5906224  -0.85559317   0.10314731   -1.5906224   0.73502925   528085 
  450000    1.0756675   -1.5910717   -1.5910717   -0.8560935  0.081570046   -1.5910717    0.7349782   528085 
  451000     1.076133   -1.5912913   -1.5912913  -0.85599504  0.094723127   -1.5912913   0.73529627   528085 
  452000    1.0753644   -1.5914707   -1.5914707  -0.85669959   0.10267324   -1.5914707   0.73477109   528085 
  453000    1.0741289   -1.5904953   -1.5904953  -0.85656839   0.09493279   -1.5904953   0.73392687   528085 
  454000    1.0756898   -1.5911333   -1.5911333   -0.8561399  0.092506771   -1.5911333   0.73499343   528085 
  455000    1.0744803   -1.5913151   -1.5913151  -0.85714805   0.08174653   -1.5913151   0.73416701   528085 
  456000    1.0745171   -1.5909625   -1.5909625  -0.85677036  0.094994851   -1.5909625   0.73419214   528085 
  457000    1.0734762   -1.5897089   -1.5897089  -0.85622798  0.084134956   -1.5897089   0.73348093   528085 
  458000    1.0772302   -1.5926041   -1.5926041  -0.85655818  0.089315766   -1.5926041   0.73604595   528085 
  459000    1.0708802   -1.5886209   -1.5886209  -0.85691373  0.091600977   -1.5886209   0.73170714   528085 
  460000     1.072565   -1.5889342   -1.5889342  -0.85607586  0.086636649   -1.5889342   0.73285832   528085 
  461000    1.0716662    -1.588176    -1.588176  -0.85593183   0.11410766    -1.588176   0.73224419   528085 
  462000    1.0736598   -1.5896163   -1.5896163  -0.85600994  0.084374923   -1.5896163   0.73360638   528085 
  463000    1.0715594   -1.5883298   -1.5883298  -0.85615855    0.1034107   -1.5883298    0.7321712   528085 
  464000    1.0738938   -1.5899272   -1.5899272    -0.856161    0.1011677   -1.5899272   0.73376625   528085 
  465000    1.0708603   -1.5885262   -1.5885262  -0.85683268  0.086463343   -1.5885262    0.7316935   528085 
  466000    1.0730703   -1.5896519   -1.5896519  -0.85644832  0.096646179   -1.5896519   0.73320357   528085 
  467000    1.0728555   -1.5898272   -1.5898272  -0.85677046  0.087444591   -1.5898272   0.73305679   528085 
  468000    1.0726252   -1.5894603   -1.5894603  -0.85656086  0.084847967   -1.5894603   0.73289944   528085 
  469000    1.0730222   -1.5902295   -1.5902295  -0.85705886  0.090870456   -1.5902295   0.73317069   528085 
  470000    1.0750011   -1.5919022   -1.5919022  -0.85737936  0.089316179   -1.5919022   0.73452283   528085 
  471000    1.0734082   -1.5908318   -1.5908318  -0.85739735  0.096695305   -1.5908318   0.73343449   528085 
  472000    1.0717667    -1.590115    -1.590115  -0.85780216   0.10181978    -1.590115   0.73231283   528085 
  473000    1.0735369   -1.5921666   -1.5921666  -0.85864421  0.093380854   -1.5921666    0.7335224   528085 
  474000    1.0734805   -1.5920369   -1.5920369  -0.85855306  0.092410079   -1.5920369   0.73348389   528085 
  475000      1.07422   -1.5925573   -1.5925573  -0.85856816  0.095092185   -1.5925573   0.73398914   528085 
  476000    1.0724388   -1.5914358   -1.5914358  -0.85866373   0.10098348   -1.5914358   0.73277209   528085 
  477000    1.0745795   -1.5929464   -1.5929464  -0.85871158  0.096614193   -1.5929464   0.73423479   528085 
  478000    1.0750708   -1.5929027   -1.5929027  -0.85833224   0.09410189   -1.5929027   0.73457049   528085 
  479000    1.0736628   -1.5924218   -1.5924218  -0.85881342  0.086947991   -1.5924218   0.73360841   528085 
  480000    1.0716392   -1.5915496   -1.5915496   -0.8593238    0.1053131   -1.5915496   0.73222576   528085 
  481000    1.0743939   -1.5938984   -1.5938984  -0.85979048  0.082633928   -1.5938984   0.73410794   528085 
  482000    1.0750219   -1.5939212   -1.5939212  -0.85938417    0.1050944   -1.5939212   0.73453706   528085 
  483000    1.0744109   -1.5936345   -1.5936345  -0.85951488  0.084704188   -1.5936345    0.7341196   528085 
  484000    1.0753204   -1.5938712   -1.5938712  -0.85913024  0.099667142   -1.5938712     0.734741   528085 
  485000    1.0723532   -1.5932225   -1.5932225  -0.86050893  0.096417501   -1.5932225    0.7327136   528085 
  486000    1.0729623   -1.5934741   -1.5934741  -0.86034439  0.093011398   -1.5934741   0.73312975   528085 
  487000    1.0730857   -1.5943276   -1.5943276  -0.86111347  0.096919058   -1.5943276    0.7332141   528085 
  488000    1.0747327   -1.5953514   -1.5953514  -0.86101188  0.090517561   -1.5953514   0.73433947   528085 
  489000     1.074742   -1.5953531   -1.5953531  -0.86100722  0.090629358   -1.5953531   0.73434583   528085 
  490000    1.0747339   -1.5965105   -1.5965105  -0.86217026   0.09264076   -1.5965105   0.73434027   528085 
  491000    1.0737015    -1.596448    -1.596448  -0.86281313  0.088554833    -1.596448   0.73363486   528085 
  492000    1.0733603   -1.5958318   -1.5958318  -0.86243008  0.098285874   -1.5958318    0.7334017   528085 
  493000    1.0736933   -1.5966146   -1.5966146  -0.86298535  0.093053545   -1.5966146   0.73362924   528085 
  494000    1.0721598   -1.5960193   -1.5960193  -0.86343782  0.093376082   -1.5960193   0.73258147   528085 
  495000     1.074041   -1.5970149   -1.5970149  -0.86314802  0.084323406   -1.5970149   0.73386683   528085 
  496000     1.074558   -1.5968465   -1.5968465  -0.86262639  0.094895013   -1.5968465    0.7342201   528085 
  497000    1.0721608   -1.5971389   -1.5971389  -0.86455674  0.088748533   -1.5971389   0.73258214   528085 
  498000    1.0711971   -1.5955764   -1.5955764   -0.8636527  0.095268428   -1.5955764   0.73192367   528085 
  499000    1.0717593   -1.5966517   -1.5966517  -0.86434397   0.08593217   -1.5966517   0.73230777   528085 
  500000    1.0720392   -1.5969958   -1.5969958  -0.86449682   0.09931859   -1.5969958   0.73249902   528085 
  501000    1.0729706    -1.597436    -1.597436  -0.86430057  0.082902171    -1.597436   0.73313547   528085 
  502000    1.0727904   -1.5976842   -1.5976842  -0.86467191  0.099108739   -1.5976842    0.7330123   528085 
  503000    1.0709636   -1.5955014   -1.5955014  -0.86373723   0.07822436   -1.5955014   0.73176413   528085 
  504000    1.0725093   -1.5963755   -1.5963755  -0.86355521   0.10225445   -1.5963755   0.73282025   528085 
  505000    1.0720709   -1.5970516   -1.5970516   -0.8645309  0.086781037   -1.5970516   0.73252074   528085 
  506000    1.0719418   -1.5967692   -1.5967692   -0.8643367  0.096122978   -1.5967692   0.73243248   528085 
  507000    1.0692839    -1.595734    -1.595734  -0.86511756  0.091134026    -1.595734    0.7306164   528085 
  508000    1.0694352    -1.595698    -1.595698  -0.86497825  0.083997213    -1.595698   0.73071977   528085 
  509000     1.070755   -1.5962773   -1.5962773   -0.8646557  0.089927295   -1.5962773   0.73162158   528085 
  510000    1.0708809   -1.5961482   -1.5961482   -0.8644406  0.088234558   -1.5961482    0.7317076   528085 
  511000    1.0732239   -1.5971575   -1.5971575  -0.86384893  0.090698464   -1.5971575   0.73330856   528085 
  512000    1.0753732   -1.5986835   -1.5986835  -0.86390637   0.09160866   -1.5986835   0.73477709   528085 
  513000    1.0744007   -1.5982597   -1.5982597  -0.86414709    0.1025998   -1.5982597    0.7341126   528085 
  514000    1.0743889   -1.5982817   -1.5982817  -0.86417713  0.096000522   -1.5982817   0.73410452   528085 
  515000    1.0749049   -1.5988267   -1.5988267  -0.86436961   0.09645624   -1.5988267    0.7344571   528085 
  516000    1.0738752   -1.5978225   -1.5978225  -0.86406898   0.09818402   -1.5978225   0.73375357   528085 
  517000    1.0740383   -1.5985122   -1.5985122  -0.86464724   0.10151405   -1.5985122   0.73386498   528085 
  518000    1.0745886   -1.5991658   -1.5991658  -0.86492488   0.08071979   -1.5991658   0.73424096   528085 
  519000    1.0727534   -1.5976644   -1.5976644  -0.86467737  0.089419945   -1.5976644   0.73298702   528085 
  520000    1.0746329   -1.5986428   -1.5986428   -0.8643715  0.083733986   -1.5986428   0.73427129   528085 
  521000      1.07245   -1.5972572   -1.5972572  -0.86447748   0.09749182   -1.5972572   0.73277972   528085 
  522000    1.0740165   -1.5979063   -1.5979063  -0.86405613  0.093613424   -1.5979063   0.73385012   528085 
  523000    1.0736219   -1.5985588   -1.5985588  -0.86497835  0.098382669   -1.5985588   0.73358045   528085 
  524000    1.0754641   -1.5999036   -1.5999036  -0.86506434   0.10973387   -1.5999036   0.73483922   528085 
  525000    1.0746057    -1.599628    -1.599628  -0.86537535   0.08446169    -1.599628   0.73425266   528085 
  526000    1.0719182   -1.5976408   -1.5976408  -0.86522448  0.094025076   -1.5976408   0.73241636   528085 
  527000    1.0731842   -1.5985435   -1.5985435  -0.86526207  0.087729378   -1.5985435   0.73328142   528085 
  528000    1.0739227   -1.5996267   -1.5996267  -0.86584074  0.098417166   -1.5996267   0.73378599   528085 
  529000    1.0728476   -1.5991042   -1.5991042  -0.86605285  0.093025867   -1.5991042   0.73305138   528085 
  530000    1.0725601   -1.5985172   -1.5985172  -0.86566221  0.091294588   -1.5985172   0.73285497   528085 
  531000    1.0723956   -1.5996807   -1.5996807  -0.86693817  0.087757179   -1.5996807   0.73274256   528085 
  532000    1.0722742   -1.5990942   -1.5990942  -0.86643462  0.085212247   -1.5990942   0.73265961   528085 
  533000    1.0716928   -1.5987336   -1.5987336  -0.86647118  0.086333945   -1.5987336   0.73226239   528085 
  534000    1.0734779   -1.5997648   -1.5997648  -0.86628271   0.10136021   -1.5997648   0.73348206   528085 
  535000    1.0734866   -1.6011651   -1.6011651  -0.86767708  0.091446076   -1.6011651   0.73348802   528085 
  536000    1.0739709   -1.6020062   -1.6020062  -0.86818732  0.092190057   -1.6020062   0.73381892   528085 
  537000    1.0726074    -1.601059    -1.601059  -0.86817171  0.096344464    -1.601059   0.73288732   528085 
  538000    1.0743002   -1.6022267   -1.6022267  -0.86818278  0.096621511   -1.6022267   0.73404393   528085 
  539000    1.0706852   -1.5998069   -1.5998069  -0.86823296  0.098328184   -1.5998069   0.73157391   528085 
  540000    1.0738138    -1.601863    -1.601863  -0.86815141  0.096959481    -1.601863   0.73371162   528085 
  541000    1.0725157   -1.6013661   -1.6013661  -0.86854148   0.08262748   -1.6013661   0.73282463   528085 
  542000    1.0710152   -1.6007559   -1.6007559   -0.8689565  0.089220826   -1.6007559   0.73179937   528085 
  543000    1.0733567   -1.6018157   -1.6018157  -0.86841638   0.10573648   -1.6018157   0.73339928   528085 
  544000    1.0675181   -1.5991711   -1.5991711  -0.86976127   0.10418629   -1.5991711   0.72940988   528085 
  545000    1.0718677   -1.6017832   -1.6017832  -0.86940135  0.094017563   -1.6017832   0.73238185   528085 
  546000    1.0710762   -1.6017641   -1.6017641   -0.8699231  0.094163671   -1.6017641   0.73184104   528085 
  547000    1.0741014   -1.6031554   -1.6031554  -0.86924736  0.088509612   -1.6031554   0.73390807   528085 
  548000    1.0729303   -1.6023699   -1.6023699    -0.869262  0.088040332   -1.6023699   0.73310794   528085 
  549000    1.0693946   -1.6001093   -1.6001093  -0.86941722  0.074590456   -1.6001093   0.73069205   528085 
  550000    1.0709386   -1.6026495   -1.6026495  -0.87090244  0.086287546   -1.6026495   0.73174704   528085 
  551000    1.0704767    -1.602456    -1.602456  -0.87102454  0.096442857    -1.602456   0.73143143   528085 
  552000    1.0721434   -1.6034216   -1.6034216  -0.87085134   0.10268467   -1.6034216   0.73257025   528085 
  553000    1.0721222    -1.603433    -1.603433  -0.87087721  0.087281349    -1.603433   0.73255575   528085 
  554000    1.0720061   -1.6035204   -1.6035204  -0.87104394  0.089087287   -1.6035204   0.73247641   528085 
  555000    1.0733765   -1.6038371   -1.6038371  -0.87042429  0.083745422   -1.6038371   0.73341278   528085 
  556000     1.072291   -1.6031027   -1.6031027  -0.87043158  0.092812523   -1.6031027   0.73267111   528085 
  557000    1.0725456   -1.6034712   -1.6034712  -0.87062616  0.097323535   -1.6034712   0.73284503   528085 
  558000    1.0737631    -1.604177    -1.604177  -0.87050008  0.092624014    -1.604177   0.73367696   528085 
  559000    1.0716017   -1.6034411   -1.6034411  -0.87124095  0.090451565   -1.6034411   0.73220013   528085 
  560000    1.0711411   -1.6039133   -1.6039133   -0.8720279  0.092919506   -1.6039133   0.73188542   528085 
  561000    1.0706047   -1.6033026   -1.6033026  -0.87178371  0.085991365   -1.6033026   0.73151887   528085 
  562000    1.0711079   -1.6038159   -1.6038159  -0.87195316   0.07840139   -1.6038159   0.73186274   528085 
  563000    1.0727065   -1.6049749   -1.6049749  -0.87201989  0.085740746   -1.6049749   0.73295503   528085 
  564000    1.0711517   -1.6040608   -1.6040608  -0.87216811     0.105819   -1.6040608   0.73189265   528085 
  565000    1.0708583   -1.6043117   -1.6043117  -0.87261957   0.10403753   -1.6043117   0.73169217   528085 
  566000    1.0722423   -1.6058547   -1.6058547  -0.87321685   0.10214973   -1.6058547   0.73263781   528085 
  567000    1.0736254   -1.6074939   -1.6074939  -0.87391101   0.09915455   -1.6074939   0.73358288   528085 
  568000    1.0716603   -1.6064243   -1.6064243  -0.87418414   0.10215345   -1.6064243   0.73224017   528085 
  569000     1.072198   -1.6065431   -1.6065431  -0.87393552  0.087875106   -1.6065431   0.73260754   528085 
  570000    1.0722248   -1.6074977   -1.6074977  -0.87487187  0.089973428   -1.6074977   0.73262584   528085 
  571000    1.0698936   -1.6063197   -1.6063197   -0.8752867   0.10437063   -1.6063197   0.73103299   528085 
  572000    1.0704584   -1.6068252   -1.6068252  -0.87540626  0.098644166   -1.6068252   0.73141892   528085 
  573000    1.0685493   -1.6061308   -1.6061308  -0.87601627  0.077360429   -1.6061308   0.73011449   528085 
  574000    1.0705461   -1.6074437   -1.6074437  -0.87596483  0.086971085   -1.6074437   0.73147884   528085 
  575000    1.0690223   -1.6061317   -1.6061317  -0.87569405  0.095113344   -1.6061317   0.73043767   528085 
  576000    1.0691442   -1.6063175   -1.6063175   -0.8757966  0.089589354   -1.6063175   0.73052093   528085 
  577000    1.0695878   -1.6063541   -1.6063541  -0.87553005  0.088709017   -1.6063541   0.73082406   528085 
  578000    1.0702763   -1.6071153   -1.6071153  -0.87582082  0.087755248   -1.6071153   0.73129448   528085 
  579000    1.0680604    -1.605437    -1.605437  -0.87565652   0.09452684    -1.605437   0.72978045   528085 
  580000    1.0686483   -1.6060256   -1.6060256  -0.87584349  0.097203849   -1.6060256   0.73018213   528085 
  581000     1.068532   -1.6060572   -1.6060572  -0.87595458  0.078909904   -1.6060572   0.73010267   528085 
  582000    1.0716968    -1.607717    -1.607717  -0.87545193   0.07653779    -1.607717   0.73226509   528085 
  583000    1.0698747   -1.6071919   -1.6071919  -0.87617178  0.080994909   -1.6071919   0.73102011   528085 
  584000    1.0704216    -1.606932    -1.606932  -0.87553818  0.090289597    -1.606932   0.73139381   528085 
  585000     1.069846    -1.606907    -1.606907   -0.8759065  0.085038139    -1.606907    0.7310005   528085 
  586000     1.070166   -1.6075779   -1.6075779  -0.87635872  0.082492756   -1.6075779   0.73121916   528085 
  587000    1.0683575   -1.6064621   -1.6064621  -0.87647867    0.1023686   -1.6064621   0.72998346   528085 
  588000    1.0700832   -1.6072108   -1.6072108  -0.87604826  0.097363406   -1.6072108   0.73116254   528085 
  589000    1.0696797   -1.6075548   -1.6075548  -0.87666796  0.082059468   -1.6075548   0.73088683   528085 
  590000     1.068642   -1.6070621   -1.6070621  -0.87688426  0.097857154   -1.6070621   0.73017784   528085 
  591000    1.0705145   -1.6086811   -1.6086811  -0.87722382   0.08443509   -1.6086811   0.73145728   528085 
  592000    1.0717339   -1.6098713   -1.6098713  -0.87758089  0.089902563   -1.6098713   0.73229042   528085 
  593000    1.0698014   -1.6091102   -1.6091102  -0.87814022     0.093545   -1.6091102   0.73096999   528085 
  594000    1.0726024   -1.6103033   -1.6103033  -0.87741947  0.093048642   -1.6103033   0.73288384   528085 
  595000    1.0738921   -1.6117055   -1.6117055  -0.87794035  0.090644193   -1.6117055   0.73376513   528085 
  596000    1.0732977   -1.6112492   -1.6112492  -0.87789023   0.10099508   -1.6112492   0.73335896   528085 
  597000    1.0721739   -1.6104456   -1.6104456  -0.87785457   0.11069934   -1.6104456   0.73259107   528085 
  598000    1.0704351   -1.6096657   -1.6096657  -0.87826272  0.080811038   -1.6096657   0.73140302   528085 
  599000     1.070883   -1.6111462   -1.6111462  -0.87943713   0.07855619   -1.6111462   0.73170908   528085 
  600000    1.0695695   -1.6095179   -1.6095179  -0.87870638  0.088155641   -1.6095179   0.73081153   528085 
  601000    1.0703778   -1.6097975   -1.6097975  -0.87843361   0.09417815   -1.6097975   0.73136386   528085 
  602000    1.0707648    -1.609837    -1.609837  -0.87820866  0.085187947    -1.609837    0.7316283   528085 
  603000    1.0674482   -1.6082729   -1.6082729  -0.87891074  0.086365868   -1.6082729   0.72936213   528085 
  604000    1.0701398    -1.609461    -1.609461  -0.87825977  0.085070955    -1.609461   0.73120125   528085 
  605000    1.0680829    -1.608666    -1.608666  -0.87887023  0.082327728    -1.608666    0.7297958   528085 
  606000    1.0687474   -1.6103469   -1.6103469  -0.88009713  0.089814479   -1.6103469   0.73024982   528085 
  607000    1.0695702   -1.6101903   -1.6101903  -0.87937826   0.10677508   -1.6101903   0.73081204   528085 
  608000     1.069855   -1.6104269   -1.6104269  -0.87942026  0.083260194   -1.6104269   0.73100667   528085 
  609000    1.0702657   -1.6112553   -1.6112553  -0.87996809   0.10068304   -1.6112553   0.73128724   528085 
  610000    1.0702855   -1.6117009   -1.6117009  -0.88040014  0.082340172   -1.6117009   0.73130076   528085 
  611000    1.0706364   -1.6112966   -1.6112966  -0.87975606   0.08134187   -1.6112966   0.73154057   528085 
  612000    1.0707018    -1.611769    -1.611769  -0.88018378   0.11694048    -1.611769   0.73158525   528085 
  613000    1.0683686    -1.610472    -1.610472  -0.88048099   0.10184122    -1.610472   0.72999101   528085 
  614000    1.0712333   -1.6123154   -1.6123154  -0.88036705  0.093405271   -1.6123154    0.7319484   528085 
  615000    1.0692593   -1.6117831   -1.6117831  -0.88118355   0.10044295   -1.6117831   0.73059958   528085 
  616000    1.0675484    -1.610666    -1.610666  -0.88123538  0.096321074    -1.610666   0.72943058   528085 
  617000    1.0684752   -1.6115438   -1.6115438  -0.88147991   0.10034074   -1.6115438   0.73006386   528085 
  618000    1.0670435   -1.6108917   -1.6108917  -0.88180611  0.091463877   -1.6108917   0.72908563   528085 
  619000    1.0700251   -1.6130269   -1.6130269  -0.88190407  0.096853211   -1.6130269   0.73112287   528085 
  620000     1.066706   -1.6108071   -1.6108071  -0.88195208   0.10081091   -1.6108071   0.72885498   528085 
  621000    1.0689818   -1.6114782   -1.6114782   -0.8810682  0.078866683   -1.6114782   0.73040997   528085 
  622000    1.0711011   -1.6125034   -1.6125034   -0.8806453  0.087829514   -1.6125034   0.73185808   528085 
  623000    1.0699891   -1.6123244   -1.6123244  -0.88122615  0.085928102   -1.6123244   0.73109824   528085 
  624000    1.0697041   -1.6115181   -1.6115181  -0.88061459  0.092503451   -1.6115181    0.7309035   528085 
  625000    1.0702076   -1.6127255   -1.6127255  -0.88147793  0.086832154   -1.6127255   0.73124754   528085 
  626000    1.0704403   -1.6129961   -1.6129961  -0.88158949  0.082742275   -1.6129961   0.73140656   528085 
  627000     1.070023     -1.61285     -1.61285  -0.88172858   0.10619478     -1.61285   0.73112145   528085 
  628000    1.0669873   -1.6111578   -1.6111578  -0.88211061  0.084381141   -1.6111578   0.72904717   528085 
  629000    1.0669465   -1.6115672   -1.6115672  -0.88254779  0.086146022   -1.6115672   0.72901936   528085 
  630000    1.0679226   -1.6133389   -1.6133389  -0.88365259  0.078533184   -1.6133389    0.7296863   528085 
  631000     1.068496    -1.614098    -1.614098  -0.88401991  0.094687942    -1.614098   0.73007807   528085 
  632000     1.066928   -1.6128834   -1.6128834  -0.88387673  0.096769175   -1.6128834   0.72900668   528085 
  633000    1.0686256   -1.6144023   -1.6144023  -0.88423571  0.092353314   -1.6144023   0.73016661   528085 
  634000    1.0698061    -1.615676    -1.615676  -0.88470274   0.09312273    -1.615676   0.73097325   528085 
  635000    1.0672214   -1.6136274   -1.6136274  -0.88442022   0.10590996   -1.6136274   0.72920717   528085 
  636000    1.0686009   -1.6150896   -1.6150896  -0.88493991  0.078612543   -1.6150896   0.73014974   528085 
  637000    1.0679455   -1.6144321   -1.6144321  -0.88473017  0.083281488   -1.6144321   0.72970192   528085 
  638000     1.068601   -1.6143421   -1.6143421  -0.88419231  0.074686849   -1.6143421    0.7301498   528085 
  639000    1.0680516   -1.6133224   -1.6133224  -0.88354799  0.096243187   -1.6133224   0.72977445   528085 
  640000    1.0698739   -1.6141151   -1.6141151  -0.88309557  0.078821939   -1.6141151   0.73101953   528085 
  641000    1.0685534   -1.6136465   -1.6136465  -0.88352916  0.092677468   -1.6136465   0.73011731   528085 
  642000    1.0687876   -1.6144137   -1.6144137   -0.8841364  0.084147702   -1.6144137   0.73027734   528085 
  643000    1.0681951   -1.6134745   -1.6134745  -0.88360205   0.07989533   -1.6134745   0.72987248   528085 
  644000    1.0656595    -1.611746    -1.611746   -0.8836061  0.092658863    -1.611746   0.72813992   528085 
  645000    1.0676145   -1.6138096   -1.6138096  -0.88433382  0.082595415   -1.6138096   0.72947579   528085 
  646000    1.0695553   -1.6151583   -1.6151583  -0.88435648   0.10499353   -1.6151583   0.73080185   528085 
  647000    1.0680791   -1.6130097   -1.6130097  -0.88321649   0.10872126   -1.6130097    0.7297932   528085 
  648000    1.0700046   -1.6145917   -1.6145917  -0.88348278  0.083160052   -1.6145917   0.73110887   528085 
  649000    1.0680855   -1.6139904   -1.6139904  -0.88419277   0.10090199   -1.6139904   0.72979761   528085 
  650000     1.068516   -1.6141024   -1.6141024   -0.8840106   0.09245535   -1.6141024   0.73009175   528085 
[...]
 2275000    1.0383803   -1.7084152   -1.7084152  -0.99891445  0.081815424   -1.7084152   0.70950071   528085 
 2276000      1.03952   -1.7092169   -1.7092169   -0.9989375  0.074279817   -1.7092169   0.71027945   528085 
 2277000    1.0368703   -1.7081318   -1.7081318  -0.99966284    0.0813263   -1.7081318   0.70846895   528085 
 2278000    1.0365774   -1.7070726   -1.7070726  -0.99880382  0.079808075   -1.7070726   0.70826881   528085 
 2279000    1.0385707   -1.7073585   -1.7073585  -0.99772765  0.083408948   -1.7073585   0.70963084   528085 
 2280000    1.0388814   -1.7067536   -1.7067536  -0.99691055  0.088750619   -1.7067536   0.70984308   528085 
 2281000    1.0386245   -1.7067034   -1.7067034  -0.99703583  0.085438093   -1.7067034   0.70966755   528085 
 2282000    1.0405078   -1.7078818   -1.7078818  -0.99692746  0.079040538   -1.7078818   0.71095438   528085 
 2283000    1.0370359   -1.7053192   -1.7053192  -0.99673705  0.073637837   -1.7053192    0.7085821   528085 
 2284000    1.0385893   -1.7065957   -1.7065957  -0.99695215  0.072578234   -1.7065957   0.70964353   528085 
 2285000    1.0371633   -1.7063411   -1.7063411  -0.99767189  0.060689383   -1.7063411   0.70866917   528085 
 2286000    1.0386537   -1.7074774   -1.7074774  -0.99778988  0.080809463   -1.7074774   0.70968753   528085 
 2287000     1.036456   -1.7067978   -1.7067978  -0.99861185  0.070471335   -1.7067978   0.70818592   528085 
 2288000    1.0361609   -1.7064076   -1.7064076  -0.99842333   0.07980737   -1.7064076   0.70798427   528085 
 2289000    1.0382474   -1.7078656   -1.7078656  -0.99845568  0.076608619   -1.7078656   0.70940989   528085 
 2290000    1.0413274   -1.7092342   -1.7092342  -0.99771975  0.065114192   -1.7092342   0.71151442   528085 
 2291000    1.0393852   -1.7083921   -1.7083921  -0.99820474  0.067362029   -1.7083921   0.71018735   528085 
 2292000    1.0382243    -1.707221    -1.707221  -0.99782685  0.081526348    -1.707221   0.70939412   528085 
 2293000     1.038798   -1.7081698   -1.7081698  -0.99838369    0.0802691   -1.7081698   0.70978614   528085 
 2294000    1.0379506   -1.7074374   -1.7074374  -0.99823025   0.08076671   -1.7074374   0.70920712   528085 
 2295000    1.0400292    -1.709571    -1.709571  -0.99894358  0.088612246    -1.709571   0.71062737   528085 
 2296000    1.0392401   -1.7095614   -1.7095614  -0.99947319  0.067135879   -1.7095614   0.71008817   528085 
 2297000    1.0394292   -1.7093352   -1.7093352  -0.99911782  0.094036019   -1.7093352   0.71021738   528085 
 2298000    1.0383647   -1.7088392   -1.7088392  -0.99934918  0.069981332   -1.7088392   0.70949007   528085 
 2299000    1.0348789   -1.7071963   -1.7071963    -1.000088  0.074640873   -1.7071963   0.70710828   528085 
 2300000    1.0382345   -1.7093235   -1.7093235  -0.99992241   0.07855202   -1.7093235   0.70940111   528085 
 2301000    1.0381973   -1.7081297   -1.7081297  -0.99875405  0.083811583   -1.7081297   0.70937568   528085 
 2302000    1.0370751   -1.7086461   -1.7086461   -1.0000372  0.071906137   -1.7086461   0.70860888   528085 
 2303000    1.0373161   -1.7083397   -1.7083397  -0.99956615  0.077538532   -1.7083397   0.70877355   528085 
 2304000    1.0389347   -1.7093338   -1.7093338  -0.99945434  0.077896775   -1.7093338   0.70987951   528085 
 2305000     1.034815   -1.7076384   -1.7076384   -1.0005738  0.081953113   -1.7076384   0.70706464   528085 
 2306000    1.0397296   -1.7097365   -1.7097365  -0.99931385  0.072718824   -1.7097365   0.71042265   528085 
 2307000    1.0393376   -1.7091939   -1.7091939  -0.99903909  0.078729671   -1.7091939   0.71015484   528085 
 2308000    1.0383471   -1.7082478   -1.7082478  -0.99876978  0.068558989   -1.7082478   0.70947801   528085 
 2309000    1.0374804   -1.7080871   -1.7080871  -0.99920124  0.086983594   -1.7080871   0.70888584   528085 
 2310000    1.0378489   -1.7083436   -1.7083436    -0.999206  0.073535602   -1.7083436   0.70913761   528085 
 2311000    1.0361934   -1.7079006   -1.7079006  -0.99989414  0.080285745   -1.7079006   0.70800646   528085 
 2312000     1.037067   -1.7088762   -1.7088762   -1.0002728  0.073798616   -1.7088762   0.70860339   528085 
 2313000     1.036216    -1.709041    -1.709041   -1.0010192  0.075158783    -1.709041   0.70802187   528085 
 2314000    1.0367824   -1.7091314   -1.7091314   -1.0007225  0.063561071   -1.7091314   0.70840889   528085 
 2315000    1.0353656   -1.7082635   -1.7082635   -1.0008227  0.081311122   -1.7082635   0.70744084   528085 
 2316000    1.0361196   -1.7086868   -1.7086868   -1.0007308  0.084379042   -1.7086868   0.70795604   528085 
 2317000    1.0375869   -1.7095529   -1.7095529   -1.0005943   0.08186301   -1.7095529   0.70895857   528085 
 2318000    1.0377911   -1.7100415   -1.7100415   -1.0009434  0.073847879   -1.7100415   0.70909811   528085 
 2319000    1.0369309   -1.7098212   -1.7098212   -1.0013108  0.085510393   -1.7098212   0.70851037   528085 
 2320000    1.0380331   -1.7101494   -1.7101494   -1.0008859   0.07633964   -1.7101494   0.70926348   528085 
 2321000    1.0393737   -1.7120769   -1.7120769   -1.0018974   0.08207229   -1.7120769   0.71017947   528085 
 2322000    1.0373442   -1.7111895   -1.7111895   -1.0023968  0.069671432   -1.7111895   0.70879275   528085 
 2323000    1.0371147   -1.7108369   -1.7108369    -1.002201  0.080318388   -1.7108369   0.70863599   528085 
 2324000    1.0369725   -1.7111664   -1.7111664   -1.0026276  0.075347491   -1.7111664   0.70853881   528085 
 2325000    1.0362284   -1.7105807   -1.7105807   -1.0025503  0.088434121   -1.7105807   0.70803039   528085 
 2326000     1.035023   -1.7099319   -1.7099319   -1.0027252  0.071019256   -1.7099319   0.70720674   528085 
 2327000    1.0372523   -1.7115756   -1.7115756   -1.0028456  0.065286954   -1.7115756   0.70872998   528085 
 2328000    1.0376724   -1.7120963   -1.7120963   -1.0030793  0.074673061   -1.7120963   0.70901703   528085 
 2329000    1.0364042   -1.7106184   -1.7106184   -1.0024679  0.073473279   -1.7106184   0.70815048   528085 
 2330000    1.0366112   -1.7106287   -1.7106287   -1.0023368  0.084644531   -1.7106287   0.70829192   528085 
 2331000    1.0394852   -1.7122684   -1.7122684   -1.0020127  0.090433111   -1.7122684    0.7102557   528085 
 2332000    1.0385101   -1.7111861   -1.7111861   -1.0015966  0.079194962   -1.7111861   0.70958943   528085 
 2333000    1.0396455   -1.7113803   -1.7113803   -1.0010151  0.084631359   -1.7113803    0.7103652   528085 
 2334000     1.039795    -1.710752    -1.710752   -1.0002847  0.086704819    -1.710752   0.71046733   528085 
 2335000    1.0396998   -1.7117888   -1.7117888   -1.0013865  0.078605894   -1.7117888    0.7104023   528085 
 2336000     1.036247   -1.7106638   -1.7106638   -1.0026208  0.077655104   -1.7106638   0.70804305   528085 
 2337000    1.0388056   -1.7111909   -1.7111909   -1.0013996  0.087882466   -1.7111909    0.7097913   528085 
 2338000    1.0377537   -1.7099784   -1.7099784   -1.0009058  0.079401583   -1.7099784   0.70907255   528085 
 2339000    1.0352453   -1.7090484   -1.7090484   -1.0016898  0.080626415   -1.7090484   0.70735862   528085 
 2340000    1.0368184   -1.7101495   -1.7101495    -1.001716  0.070222488   -1.7101495   0.70843349   528085 
 2341000     1.035239   -1.7102238   -1.7102238   -1.0028695  0.061306634   -1.7102238   0.70735432   528085 
 2342000    1.0351067   -1.7096068   -1.7096068   -1.0023428   0.07486991   -1.7096068   0.70726391   528085 
 2343000    1.0352514   -1.7094046   -1.7094046   -1.0020418  0.071686914   -1.7094046   0.70736279   528085 
 2344000    1.0339697   -1.7087138   -1.7087138   -1.0022267  0.071791657   -1.7087138   0.70648707   528085 
 2345000    1.0330296   -1.7081263   -1.7081263   -1.0022816  0.067577882   -1.7081263   0.70584473   528085 
 2346000    1.0351386   -1.7097242   -1.7097242   -1.0024385  0.081667765   -1.7097242   0.70728572   528085 
 2347000    1.0331437   -1.7087802   -1.7087802   -1.0028575  0.083045018   -1.7087802   0.70592271   528085 
 2348000    1.0359945   -1.7099905   -1.7099905     -1.00212  0.080966911   -1.7099905   0.70787054   528085 
 2349000     1.037594   -1.7108769   -1.7108769   -1.0019135  0.089571316   -1.7108769   0.70896344   528085 
 2350000    1.0359093   -1.7097029   -1.7097029   -1.0018906  0.090007961   -1.7097029   0.70781231   528085 
 2351000    1.0361569    -1.710331    -1.710331   -1.0023495   0.07771453    -1.710331    0.7079815   528085 
 2352000    1.0381444   -1.7125396   -1.7125396   -1.0032001  0.074537025   -1.7125396   0.70933953   528085 
 2353000    1.0386617   -1.7126156   -1.7126156   -1.0029226    0.0884794   -1.7126156   0.70969301   528085 
 2354000    1.0374175   -1.7115358   -1.7115358    -1.002693  0.087155565   -1.7115358   0.70884283   528085 
 2355000    1.0387821   -1.7126082   -1.7126082   -1.0028329  0.083648468   -1.7126082   0.70977528   528085 
 2356000    1.0368586   -1.7119444   -1.7119444   -1.0034835  0.086116865   -1.7119444   0.70846095   528085 
 2357000    1.0379606   -1.7125129   -1.7125129   -1.0032989  0.070634286   -1.7125129   0.70921395   528085 
 2358000    1.0387299   -1.7127295   -1.7127295   -1.0029899  0.080760671   -1.7127295   0.70973959   528085 
 2359000    1.0395207   -1.7136081   -1.7136081   -1.0033281  0.090845672   -1.7136081   0.71027995   528085 
 2360000    1.0375738   -1.7127232   -1.7127232   -1.0037736  0.087016465   -1.7127232   0.70894966   528085 
 2361000    1.0384035   -1.7138762   -1.7138762   -1.0043596   0.09011832   -1.7138762   0.70951659   528085 
 2362000    1.0362959   -1.7121993   -1.7121993   -1.0041228  0.081392516   -1.7121993   0.70807651   528085 
 2363000    1.0357147   -1.7117918   -1.7117918   -1.0041124  0.066548934   -1.7117918   0.70767937   528085 
 2364000    1.0351483   -1.7116562   -1.7116562   -1.0043639  0.056220606   -1.7116562   0.70729234   528085 
 2365000    1.0340925   -1.7111606   -1.7111606   -1.0045896    0.0704838   -1.7111606   0.70657098   528085 
 2366000    1.0341787   -1.7115051   -1.7115051   -1.0048752  0.069094488   -1.7115051   0.70662988   528085 
 2367000    1.0333153   -1.7106423   -1.7106423   -1.0046024  0.072733229   -1.7106423   0.70603991   528085 
 2368000    1.0348206   -1.7115378   -1.7115378   -1.0044693  0.067345997   -1.7115378   0.70706846   528085 
 2369000    1.0355083   -1.7118129   -1.7118129   -1.0042745  0.076560034   -1.7118129   0.70753833   528085 
 2370000    1.0356275   -1.7115604   -1.7115604   -1.0039407  0.091148987   -1.7115604   0.70761979   528085 
 2371000    1.0338065   -1.7110095   -1.7110095    -1.004634  0.075234127   -1.7110095   0.70637555   528085 
 2372000    1.0358736   -1.7117452   -1.7117452   -1.0039572  0.080583711   -1.7117452   0.70778798   528085 
 2373000    1.0357398   -1.7122537   -1.7122537   -1.0045571  0.077313954   -1.7122537   0.70769651   528085 
 2374000    1.0359197   -1.7131298   -1.7131298   -1.0053104  0.091528158   -1.7131298   0.70781943   528085 
 2375000    1.0368635   -1.7137053   -1.7137053   -1.0052409  0.070269659   -1.7137053   0.70846435   528085 
 2376000    1.0359038   -1.7136641   -1.7136641   -1.0058556  0.080754484   -1.7136641   0.70780857   528085 
 2377000    1.0356633   -1.7133443   -1.7133443      -1.0057  0.081426967   -1.7133443   0.70764424   528085 
 2378000    1.0355977   -1.7127694   -1.7127694     -1.00517  0.081602086   -1.7127694    0.7075994   528085 
 2379000    1.0357797   -1.7128131   -1.7128131   -1.0050894  0.075688124   -1.7128131   0.70772379   528085 
 2380000    1.0348619   -1.7126432   -1.7126432   -1.0055466  0.082252451   -1.7126432   0.70709668   528085 
 2381000    1.0370192   -1.7135253   -1.7135253   -1.0049546  0.078526581   -1.7135253   0.70857071   528085 
 2382000    1.0365029   -1.7135756   -1.7135756   -1.0053576  0.080700367   -1.7135756   0.70821795   528085 
 2383000    1.0385902   -1.7151756   -1.7151756   -1.0055315  0.075898397   -1.7151756   0.70964413   528085 
 2384000    1.0384386   -1.7148151   -1.7148151   -1.0052745  0.077795813   -1.7148151   0.70954059   528085 
 2385000    1.0381575   -1.7139025   -1.7139025    -1.004554  0.071342809   -1.7139025   0.70934851   528085 
 2386000    1.0375137   -1.7136496   -1.7136496    -1.004741  0.072260451   -1.7136496   0.70890857   528085 
 2387000    1.0369522   -1.7138006   -1.7138006   -1.0052756  0.082778716   -1.7138006   0.70852496   528085 
 2388000    1.0389979   -1.7151918   -1.7151918   -1.0052691  0.087246706   -1.7151918    0.7099227   528085 
 2389000    1.0380947   -1.7144873   -1.7144873   -1.0051817  0.085242002   -1.7144873   0.70930556   528085 
 2390000    1.0362713   -1.7133468   -1.7133468   -1.0052871  0.093141574   -1.7133468    0.7080597   528085 
 2391000    1.0348001   -1.7131148   -1.7131148   -1.0060604  0.070530915   -1.7131148   0.70705448   528085 
 2392000    1.0337537   -1.7121131   -1.7121131   -1.0057737  0.080314104   -1.7121131   0.70633945   528085 
 2393000    1.0345662    -1.711599    -1.711599   -1.0047044  0.072926294    -1.711599   0.70689461   528085 
 2394000    1.0380215   -1.7141238   -1.7141238   -1.0048683  0.067892069   -1.7141238   0.70925553   528085 
 2395000    1.0350677   -1.7120217   -1.7120217   -1.0047844  0.072658294   -1.7120217   0.70723729   528085 
 2396000    1.0339031   -1.7116377   -1.7116377   -1.0051962  0.070461622   -1.7116377   0.70644153   528085 
 2397000    1.0346178   -1.7113036   -1.7113036   -1.0043738  0.081322462   -1.7113036   0.70692989   528085 
 2398000     1.037758   -1.7130128   -1.7130128   -1.0039373  0.076341188   -1.7130128   0.70907552   528085 
 2399000     1.037347   -1.7135923   -1.7135923   -1.0047976  0.079425686   -1.7135923   0.70879468   528085 
 2400000    1.0368271   -1.7124948   -1.7124948   -1.0040554  0.082873964   -1.7124948   0.70843942   528085 
 2401000    1.0378219   -1.7137421   -1.7137421    -1.004623  0.075147464   -1.7137421   0.70911917   528085 
 2402000    1.0366327   -1.7136509   -1.7136509   -1.0053442  0.087501321   -1.7136509   0.70830666   528085 
 2403000    1.0357368   -1.7135076   -1.7135076   -1.0058131  0.084045922   -1.7135076   0.70769446   528085 
 2404000    1.0348242   -1.7138435   -1.7138435   -1.0067726  0.074618757   -1.7138435    0.7070709   528085 
 2405000    1.0352423   -1.7144692   -1.7144692   -1.0071126  0.085800765   -1.7144692    0.7073566   528085 
 2406000    1.0366945     -1.71539     -1.71539   -1.0070411  0.074398496     -1.71539   0.70834886   528085 
 2407000    1.0384012     -1.71539     -1.71539    -1.005875  0.086693909     -1.71539   0.70951498   528085 
 2408000    1.0376884   -1.7148492   -1.7148492   -1.0058212  0.079144855   -1.7148492   0.70902794   528085 
 2409000    1.0362472   -1.7148687   -1.7148687   -1.0068255   0.08629287   -1.7148687   0.70804321   528085 
 2410000    1.0363981   -1.7153375   -1.7153375   -1.0071911  0.076483317   -1.7153375   0.70814634   528085 
 2411000    1.0345104   -1.7144614   -1.7144614   -1.0076049  0.072440535   -1.7144614   0.70685652   528085 
 2412000    1.0372027   -1.7162507   -1.7162507   -1.0075546   0.06736865   -1.7162507   0.70869611   528085 
 2413000    1.0353781   -1.7156904   -1.7156904    -1.008241  0.076314675   -1.7156904   0.70744937   528085 
 2414000    1.0365197   -1.7169323   -1.7169323   -1.0087029  0.069615268   -1.7169323    0.7082294   528085 
 2415000    1.0362835   -1.7160385   -1.7160385   -1.0079705  0.082383494   -1.7160385   0.70806802   528085 
 2416000    1.0362726   -1.7163067   -1.7163067   -1.0082462  0.086278374   -1.7163067   0.70806057   528085 
 2417000     1.036008    -1.715587    -1.715587   -1.0077072  0.081811514    -1.715587   0.70787981   528085 
 2418000    1.0369795    -1.715865    -1.715865   -1.0073214  0.085207235    -1.715865    0.7085436   528085 
 2419000    1.0388812   -1.7166011   -1.7166011   -1.0067581   0.06434511   -1.7166011   0.70984299   528085 
 2420000    1.0355039   -1.7151037   -1.7151037   -1.0075684  0.060222872   -1.7151037   0.70753534   528085 
 2421000     1.036801   -1.7160777   -1.7160777   -1.0076561  0.079853722   -1.7160777    0.7084216   528085 
 2422000    1.0374353   -1.7168401   -1.7168401   -1.0079851  0.078746739   -1.7168401   0.70885502   528085 
 2423000    1.0368347   -1.7164284   -1.7164284   -1.0079838  0.077633675   -1.7164284   0.70844466   528085 
 2424000    1.0365204   -1.7165986   -1.7165986   -1.0083687  0.072660584   -1.7165986   0.70822988   528085 
 2425000    1.0350746   -1.7151772   -1.7151772   -1.0079352  0.071349802   -1.7151772   0.70724199   528085 
 2426000    1.0352299   -1.7154038   -1.7154038   -1.0080557  0.080083386   -1.7154038   0.70734815   528085 
 2427000    1.0356541   -1.7159477   -1.7159477   -1.0083097  0.070068556   -1.7159477   0.70763797   528085 
 2428000    1.0357462   -1.7150511   -1.7150511   -1.0073502  0.076276416   -1.7150511   0.70770093   528085 
 2429000    1.0366956   -1.7149881   -1.7149881   -1.0066385  0.090831735   -1.7149881    0.7083496   528085 
 2430000    1.0337725   -1.7139439   -1.7139439   -1.0075916  0.079806574   -1.7139439   0.70635234   528085 
 2431000    1.0349947   -1.7152303   -1.7152303   -1.0080429  0.063503595   -1.7152303   0.70718742   528085 
 2432000    1.0360666   -1.7155833   -1.7155833   -1.0076635  0.080801335   -1.7155833   0.70791984   528085 
 2433000    1.0368384   -1.7159632   -1.7159632    -1.007516  0.068327399   -1.7159632   0.70844721   528085 
 2434000     1.034658   -1.7146758   -1.7146758   -1.0077185  0.087678177   -1.7146758   0.70695735   528085 
 2435000    1.0353269   -1.7158044   -1.7158044     -1.00839  0.078578437   -1.7158044   0.70741442   528085 
 2436000      1.03696   -1.7172503   -1.7172503     -1.00872   0.10088721   -1.7172503   0.70853028   528085 
 2437000    1.0385429    -1.717651    -1.717651   -1.0080392  0.085766541    -1.717651   0.70961181   528085 
 2438000    1.0368754   -1.7165122   -1.7165122   -1.0080398  0.087309779   -1.7165122   0.70847243   528085 
 2439000     1.037176   -1.7177771   -1.7177771   -1.0090993  0.085982641   -1.7177771   0.70867784   528085 
 2440000    1.0364804   -1.7172749   -1.7172749   -1.0090723   0.07594121   -1.7172749   0.70820256   528085 
 2441000    1.0372669   -1.7172907   -1.7172907   -1.0085507  0.072224519   -1.7172907   0.70873997   528085 
 2442000    1.0381146   -1.7181111   -1.7181111    -1.008792  0.072687323   -1.7181111   0.70931914   528085 
 2443000    1.0368013   -1.7167084   -1.7167084   -1.0082865  0.067987112   -1.7167084   0.70842184   528085 
 2444000    1.0364132   -1.7166165   -1.7166165   -1.0084598  0.070515333   -1.7166165   0.70815665   528085 
 2445000    1.0379342   -1.7170675   -1.7170675   -1.0078716  0.082980415   -1.7170675   0.70919588   528085 
 2446000      1.03634   -1.7161034   -1.7161034   -1.0079968  0.073284926   -1.7161034   0.70810662   528085 
 2447000    1.0370574   -1.7165147   -1.7165147   -1.0079179   0.07192444   -1.7165147   0.70859682   528085 
 2448000    1.0347461   -1.7159631   -1.7159631   -1.0089455  0.079698702   -1.7159631   0.70701757   528085 
 2449000    1.0329242   -1.7152556   -1.7152556   -1.0094829  0.077445942   -1.7152556    0.7057727   528085 
 2450000    1.0369453   -1.7177685   -1.7177685   -1.0092483  0.082073396   -1.7177685   0.70852019   528085 
 2451000    1.0363401   -1.7170835   -1.7170835   -1.0089768  0.074586972   -1.7170835   0.70810669   528085 
 2452000    1.0359506   -1.7172184   -1.7172184   -1.0093778  0.068969013   -1.7172184   0.70784057   528085 
 2453000    1.0327478   -1.7150618   -1.7150618   -1.0094096  0.095607233   -1.7150618    0.7056522   528085 
 2454000    1.0329065   -1.7151118   -1.7151118   -1.0093513  0.087945707   -1.7151118   0.70576057   528085 
 2455000    1.0336239   -1.7155982   -1.7155982   -1.0093474  0.077027691   -1.7155982   0.70625077   528085 
 24