LAMMPS (29 Oct 2020)
  using 1 OpenMP thread(s) per MPI task
Reading data file ...
  orthogonal box = (0.0000000 0.0000000 0.0000000) to (20.000000 20.000000 20.000000)
  4 by 4 by 4 MPI processor grid
  reading atoms ...
  1143 atoms
Finding 1-2 1-3 1-4 neighbors ...
  special bond factors lj:    0.0      0.0      0.0     
  special bond factors coul:  0.0      0.0      0.0     
     0 = max # of 1-2 neighbors
     0 = max # of 1-3 neighbors
     0 = max # of 1-4 neighbors
     1 = max # of special neighbors
  special bonds CPU = 7.648 seconds
  read_data CPU = 7.850 seconds
Replicating atoms ...
WARNING: Replicating in a non-periodic dimension (src/replicate.cpp:75)
  orthogonal box = (0.0000000 0.0000000 0.0000000) to (160.00000 160.00000 160.00000)
  4 by 4 by 4 MPI processor grid
  585216 atoms
Finding 1-2 1-3 1-4 neighbors ...
  special bond factors lj:    0.0      0.0      0.0     
  special bond factors coul:  0.0      0.0      0.0     
     0 = max # of 1-2 neighbors
     0 = max # of 1-3 neighbors
     0 = max # of 1-4 neighbors
     1 = max # of special neighbors
  special bonds CPU = 0.016 seconds
  replicate CPU = 0.036 seconds
585216 atoms in group cubes
Neighbor list info ...
  update every 1 steps, delay 0 steps, check yes
  max neighbors/atom: 2000, page size: 100000
  master list distance cutoff = 1.42
  ghost atom cutoff = 1.42
  binsize = 0.71, bins = 226 226 226
  1 neighbor lists, perpetual/occasional/extra = 1 0 0
  (1) pair soft, perpetual
      attributes: half, newton on
      pair build: half/bin/newton
      stencil: half/bin/3d/newton
      bin: standard
Per MPI rank memory allocation (min/avg/max) = 9.893 | 9.893 | 9.893 Mbytes
Step Temp E_pair E_mol TotEng Press 
       0           10            0            0    14.999974    1.4287476 
     100           10   0.90670399            0    15.906678    2.1416359 
     200           10     1.813408            0    16.813382    2.8545243 
     300           10     2.720112            0    17.720086    3.5674126 
     400           10    3.6268159            0     18.62679     4.280301 
     500           10    4.5335199            0    19.533494    4.9931893 
     600           10    5.4402239            0    20.440198    5.7060776 
     700           10    6.3469279            0    21.346902     6.418966 
     800           10    7.2536319            0    22.253606    7.1318543 
     900           10    8.1603359            0     23.16031    7.8447427 
    1000           10    9.0670399            0    24.067014     8.557631 
Loop time of 2.25331 on 64 procs for 1000 steps with 585216 atoms

Performance: 191717.669 tau/day, 443.791 timesteps/s
99.9% CPU use with 64 MPI tasks x 1 OpenMP threads

MPI task timing breakdown:
Section |  min time  |  avg time  |  max time  |%varavg| %total
---------------------------------------------------------------
Pair    | 0.82976    | 1.1154     | 1.7917     |  27.7 | 49.50
Bond    | 7.9017e-05 | 0.00011608 | 0.00023702 |   0.0 |  0.01
Neigh   | 0          | 0          | 0          |   0.0 |  0.00
Comm    | 0.00034779 | 0.00049993 | 0.00089302 |   0.0 |  0.02
Output  | 0.31109    | 0.32186    | 0.32622    |   0.8 | 14.28
Modify  | 0.0016141  | 0.0023036  | 0.0060041  |   2.0 |  0.10
Other   |            | 0.8131     |            |       | 36.09

Nlocal:        9144.00 ave        9144 max        9144 min
Histogram: 64 0 0 0 0 0 0 0 0 0
Nghost:        0.00000 ave           0 max           0 min
Histogram: 64 0 0 0 0 0 0 0 0 0
Neighs:        70416.0 ave       70416 max       70416 min
Histogram: 64 0 0 0 0 0 0 0 0 0

Total # of neighbors = 4506624
Ave neighs/atom = 7.7007874
Ave special neighs/atom = 0.0000000
Neighbor list builds = 0
Dangerous builds = 0
  create bodies CPU = 0.014 seconds
  512 rigid bodies with 585216 atoms
  6.9282032 = max distance from body owner to body atom
WARNING: Ignoring 'compress yes' for molecular system (src/delete_atoms.cpp:125)
Deleted 0 atoms, new total = 585216
WARNING: Changing velocities of atoms in rigid bodies. This has no effect unless rigid bodies are rebuild (src/velocity.cpp:71)
WARNING: Cannot count rigid body degrees-of-freedom before bodies are fully initialized (src/RIGID/fix_rigid_small.cpp:1166)
Neighbor list info ...
  update every 1 steps, delay 0 steps, check yes
  max neighbors/atom: 2000, page size: 100000
  master list distance cutoff = 2.8
  ghost atom cutoff = 6.93
  binsize = 1.4, bins = 115 115 115
  1 neighbor lists, perpetual/occasional/extra = 1 0 0
  (1) pair lj/cut/opt, perpetual
      attributes: half, newton on
      pair build: half/bin/newton
      stencil: half/bin/3d/newton
      bin: standard
Per MPI rank memory allocation (min/avg/max) = 15.72 | 15.73 | 15.73 Mbytes
Step Temp E_pair E_mol TotEng Press 
       0    10.493554  -0.36619638            0  -0.33868114   0.32938424 
     100    10.493554  -0.36619638            0  -0.33868114 0.0012493087 
     200    10.493554  -0.36619638            0  -0.33868114 0.0012493087 
     300    10.493554  -0.36619638            0  -0.33868114 0.0012493087 
     400    10.493554  -0.36619638            0  -0.33868114 0.0012493087 
     500    10.493554  -0.36619638            0  -0.33868114 0.0012493087 
     600    10.493554  -0.36619638            0  -0.33868114 0.0012493087 
     700    10.493554  -0.36619638            0  -0.33868114 0.0012493087 
     800    10.493554  -0.36619638            0  -0.33868114 0.0012493087 
     900    10.493554  -0.36619638            0  -0.33868114 0.0012493087 
    1000    10.493554  -0.36619638            0  -0.33868114 0.0012493087 
    1100    10.493554  -0.36619638            0  -0.33868114 0.0012493087 
    1200    10.493554  -0.36619638            0  -0.33868114 0.0012493087 
    1300    10.493562  -0.36619638            0  -0.33868112 0.0012490829 
    1400    10.493621  -0.36619638            0  -0.33868097 0.0012488717 
    1500    10.493747  -0.36619638            0  -0.33868064 0.0012483526 
    1600    10.493938  -0.36619638            0  -0.33868014 0.0012479712 
    1700    10.494226  -0.36619638            0  -0.33867938 0.0012472127 
    1800    10.494648  -0.36619638            0  -0.33867828 0.0012462155 
    1900    10.495288  -0.36619638            0   -0.3386766 0.0012445871 
    2000    10.496202  -0.36619638            0   -0.3386742 0.0012425129 
    2100    10.497461  -0.36619638            0   -0.3386709 0.0012402966 
    2200     10.49914  -0.36619638            0   -0.3386665 0.0012371855 
    2300    10.501393  -0.36619638            0  -0.33866059 0.0012334056 
    2400    10.504357  -0.36619638            0  -0.33865282 0.0012285625 
    2500    10.508277  -0.36619638            0  -0.33864254  0.001222735 
    2600    10.513558  -0.36619647            0  -0.33862877 0.0012141629 
    2700    10.520911  -0.36619705            0  -0.33861008 0.0012021093 
    2800    10.530505   -0.3661989            0  -0.33858677 0.0011983317 
    2900    10.528483  -0.36620345            0  -0.33859662 0.0014292874 
    3000    10.515444  -0.36621453            0   -0.3386419 0.0018537932 
    3100    10.543057  -0.36623659            0  -0.33859155 0.0016280195 
    3200    10.516105  -0.36617268            0  -0.33859831 0.0024374761 
    3300    10.555703  -0.36622919            0  -0.33855099 0.0017447982 
    3400     10.58202  -0.36624673            0  -0.33849952 0.0010685284 
    3500    10.593838  -0.36625184            0  -0.33847365 0.0010204268 
    3600    10.600336  -0.36624188            0  -0.33844665 0.0015167633 
    3700    10.593644  -0.36626773            0  -0.33849004  0.002060225 
    3800    10.583914  -0.36624404            0  -0.33849186 0.0025793986 
    3900     10.61542  -0.36628601            0  -0.33845122 0.0019970603 
    4000     10.63623  -0.36629192            0  -0.33840257 0.0017703592 
    4100    10.631371  -0.36626877            0  -0.33839216 0.0020086324 
    4200    10.601587  -0.36625656            0  -0.33845805 0.0024801386 
    4300    10.671579  -0.36639758            0  -0.33841554 0.0010497786 
    4400     10.65017  -0.36636966            0  -0.33844375 0.0018625342 
    4500    10.642859  -0.36639196            0  -0.33848522 0.0026061237 
    4600    10.637436  -0.36637603            0  -0.33848351 0.0032155624 
    4700    10.703331  -0.36653685            0  -0.33847155 0.0020933624 
    4800    10.781735  -0.36671405            0  -0.33844317 0.00077192099 
    4900    10.706981  -0.36651586            0  -0.33844099 0.0036740215 
    5000    10.809818  -0.36677531            0   -0.3384308 0.0017229957 
    5100    10.799101   -0.3667456            0  -0.33842918 0.0020715509 
    5200    10.784286  -0.36677609            0  -0.33849852 0.0021573035 
    5300    10.848796   -0.3669243            0  -0.33847758 0.0010611048 
    5400    10.862623  -0.36690828            0   -0.3384253 0.0019342118 
    5500    10.834147  -0.36683015            0  -0.33842184 0.0031982987 
    5600    10.883363  -0.36698122            0  -0.33844386 0.0026561884 
    5700    10.857966  -0.36699522            0  -0.33852445 0.0032414089 
    5800    10.862776  -0.36696993            0  -0.33848655 0.0032410018 
    5900    10.868884   -0.3670543            0   -0.3385549 0.0024738554 
    6000    10.824122  -0.36685843            0   -0.3384764 0.0036668277 
    6100    10.918607  -0.36711801            0  -0.33848823 0.0013549712 
    6200    10.923949  -0.36714896            0  -0.33850518 0.0015049526 
    6300     10.89954  -0.36709895            0  -0.33851917 0.0023804645 
    6400    10.883714  -0.36704894            0  -0.33851066 0.0030114474 
    6500    10.936982  -0.36723554            0  -0.33855758 0.0015053968 
    6600    10.867501  -0.36713719            0  -0.33864142 0.0031036292 
    6700    10.932409  -0.36720785            0  -0.33854188 0.0023653269 
    6800    11.021158  -0.36744358            0  -0.33854491 0.0011675584 
    6900    11.078712  -0.36761275            0  -0.33856317 0.0019993479 
    7000    10.961516  -0.36731961            0  -0.33857733 0.0062738985 
    7100    11.074923  -0.36762587            0  -0.33858622 0.0024704989 
    7200    10.948857  -0.36730041            0  -0.33859132 0.0034427807 
    7300    10.951404  -0.36731492            0  -0.33859915 0.0020070912 
    7400    10.973186  -0.36737978            0  -0.33860689 0.0011739449 
    7500    11.026101   -0.3675071            0  -0.33859546 0.00055424857 
    7600     11.01737  -0.36746982            0  -0.33858108  0.002505315 
    7700    11.010111  -0.36743259            0  -0.33856288 0.0028522904 
    7800    11.041047  -0.36749372            0  -0.33854289 0.0017990521 
    7900    11.056711  -0.36752059            0  -0.33852869 0.0013264943 
    8000    11.044991  -0.36754097            0  -0.33857981  0.002108571 
    8100    10.994782  -0.36739732            0  -0.33856781 0.0048015824 
    8200    11.140576  -0.36773953            0  -0.33852773 0.0011718779 
    8300    11.109695  -0.36764394            0  -0.33851311 0.0020361514 
    8400    11.112511  -0.36765396            0  -0.33851575 0.0024812698 
    8500    11.145609  -0.36774994            0  -0.33852494 0.0022120368 
    8600    11.207681  -0.36794659            0  -0.33855883 0.0020730422 
    8700    11.280958  -0.36812321            0  -0.33854331 0.0034526738 
    8800    11.334673  -0.36823148            0  -0.33851074 0.0032950065 
    8900    11.335524  -0.36822447            0   -0.3385015  0.002311749 
    9000    11.339176  -0.36823096            0  -0.33849841 0.00075343719 
    9100    11.303625  -0.36816334            0  -0.33852401 0.0017223143 
    9200    11.240057  -0.36800824            0  -0.33853559 0.0035598399 
    9300    11.331443  -0.36821016            0  -0.33849788 0.0013680152 
    9400    11.288019  -0.36810819            0  -0.33850978 0.0029605273 
    9500    11.288475   -0.3681352            0  -0.33853559 0.0018053895 
    9600    11.255863  -0.36801943            0  -0.33850534  0.001652603 
    9700    11.231544   -0.3679453            0  -0.33849497 0.0020338348 
    9800    11.294707  -0.36810563            0  -0.33848968 0.0014545807 
    9900    11.246824  -0.36797202            0  -0.33848163 0.0031466271 
   10000    11.246342  -0.36793911            0  -0.33844998 0.0031287266 
   10100     11.33798  -0.36808717            0  -0.33835776 0.00086946281 
   10200     11.20174  -0.36795727            0  -0.33858509 0.0028306156 
   10300    11.238987  -0.36781506            0  -0.33834521 0.0028726909 
   10400    11.202643  -0.36781961            0  -0.33844506 0.0030541703 
   10500    11.146681  -0.36772626            0  -0.33849845 0.0031587015 
   10600    11.211368  -0.36792081            0  -0.33852338 0.00096153101 
   10700    11.115073   -0.3676779            0  -0.33853297 0.0034616382 
   10800    11.193266  -0.36788973            0  -0.33853977 0.0017530818 
   10900     11.12888  -0.36778766            0  -0.33860653 0.0029931392 
   11000    11.121301  -0.36775317            0  -0.33859191 0.0039368662 
   11100    11.137776   -0.3677677            0  -0.33856324 0.0038627389 
   11200    11.166393  -0.36784108            0  -0.33856158  0.003327289 
   11300    11.152959  -0.36780996            0  -0.33856569 0.0033612541 
   11400    11.195097  -0.36793538            0  -0.33858062 0.0012965885 
   11500    11.174507  -0.36788347            0   -0.3385827 0.0011338122 
   11600    11.168806   -0.3678624            0  -0.33857658 0.0018860678 
   11700    11.234271  -0.36802916            0  -0.33857168 0.00039952965 
   11800    11.243434   -0.3680473            0  -0.33856579 0.00080236782 
   11900    11.148254  -0.36779644            0  -0.33856451 0.0039943994 
   12000    11.202786  -0.36795832            0   -0.3385834 0.0030662258 
   12100    11.214304  -0.36800261            0  -0.33859749  0.002984922 
   12200    11.240881  -0.36803446            0  -0.33855965 0.0024894705 
   12300    11.306496  -0.36819719            0  -0.33855033  0.001252279 
   12400    11.234639  -0.36801637            0  -0.33855792 0.0037807277 
   12500    11.272027  -0.36813583            0  -0.33857935  0.002622744 
   12600    11.324372  -0.36825249            0  -0.33855876 0.00076014271 
   12700     11.24011  -0.36801204            0  -0.33853925 0.0030941813 
   12800    11.242601  -0.36801976            0  -0.33854044 0.0027883758 
   12900    11.187781  -0.36791689            0  -0.33858132 0.0035928995 
   13000    11.214808  -0.36796704            0   -0.3385606 0.0023115291 
   13100    11.236452  -0.36800132            0  -0.33853812 0.0014021982 
   13200    11.244418  -0.36802384            0  -0.33853976 0.00070070178 
   13300    11.271307  -0.36809445            0  -0.33853986 0.00037389117 
   13400    11.166761  -0.36781503            0  -0.33853457 0.0036770247 
   13500    11.155384  -0.36777423            0   -0.3385236 0.0041731131 
   13600    11.247956  -0.36801209            0  -0.33851872 0.0015467846 
   13700      11.2302  -0.36795132            0  -0.33850451 0.0019432059 
   13800     11.21704  -0.36787926            0  -0.33846696 0.0031807327 
   13900    11.246126   -0.3679496            0  -0.33846103 0.0030220638 
   14000    11.260213  -0.36795356            0  -0.33842806 0.0031241974 
   14100     11.27075  -0.36803998            0  -0.33848685 0.0024647481 
   14200    11.368992  -0.36808999            0  -0.33827926 0.00082387078 
   14300    11.381405  -0.36810747            0  -0.33826419 0.0012001195 
   14400    11.365564  -0.36812353            0  -0.33832178 0.0024464283 
   14500    11.385576   -0.3681798            0  -0.33832558 0.0025635476 
   14600    11.339331  -0.36823086            0   -0.3384979 0.0027136908 
   14700     11.30323   -0.3680994            0  -0.33846111 0.0024485169 
   14800    11.432277  -0.36840907            0   -0.3384324 -0.00050942268 
   14900    11.386757  -0.36833216            0  -0.33847485 0.0017001694 
   15000    11.318253  -0.36816204            0  -0.33848435  0.004523136 
   15100     11.39485   -0.3683631            0  -0.33848456 0.0030253035 
   15200    11.466737  -0.36857179            0  -0.33850476  0.001585425 
   15300    11.435743   -0.3685275            0  -0.33854174 0.0033323433 
   15400    11.420538  -0.36845811            0  -0.33851222 0.0043166145 
   15500    11.551813  -0.36878908            0  -0.33849897 0.0017456091 
   15600    11.533252  -0.36874443            0  -0.33850299 0.0022689339 
   15700    11.602997   -0.3689219            0  -0.33849758 0.0014109548 
   15800    11.556474  -0.36878313            0   -0.3384808 0.0043952888 
   15900    11.628576  -0.36897238            0  -0.33848099 0.0036498307 
   16000    11.655485  -0.36907593            0  -0.33851399 0.0034377162 
   16100    11.675899  -0.36907207            0  -0.33845659 0.0035787628 
   16200    11.570242  -0.36876871            0  -0.33843028 0.0054145383 
   16300     11.67219  -0.36908884            0  -0.33848309 0.0015511612 
   16400    11.617136  -0.36892724            0  -0.33846585 0.0013183601 
   16500    11.556431   -0.3687899            0  -0.33848768  0.002152247 
   16600    11.551625  -0.36876608            0  -0.33847646 0.0021252951 
   16700    11.557448  -0.36876403            0  -0.33845915 0.0027026966 
   16800    11.486987  -0.36860019            0  -0.33848006 0.0046973634 
   16900     11.58648  -0.36889329            0  -0.33851228 0.0019206693 
   17000    11.585193  -0.36886342            0  -0.33848578 0.0022744684 
   17100    11.604951  -0.36890714            0   -0.3384777 0.0026423448 
   17200    11.558838  -0.36879396            0  -0.33848543 0.0020441297 
   17300    11.545981  -0.36877502            0  -0.33850021 7.9270955e-05 
   17400    11.490187    -0.368611            0  -0.33848248 0.0011908547 
   17500    11.424733  -0.36843089            0    -0.338474 0.0038715981 
   17600     11.48864  -0.36863852            0  -0.33851406 0.0022803204 
   17700    11.499571  -0.36864476            0  -0.33849164  0.002577244 
   17800    11.472843  -0.36855962            0  -0.33847658 0.0042400553 
   17900     11.45957  -0.36854724            0    -0.338499 0.0038505839 
   18000    11.521636  -0.36874908            0   -0.3385381 0.0004920571 
   18100    11.443418   -0.3685293            0  -0.33852341 0.0023692873 
   18200    11.526306   -0.3687246            0  -0.33850137 0.0009859412 
   18300    11.497024  -0.36864668            0  -0.33850024  0.003516116 
   18400    11.596636   -0.3689184            0  -0.33851076 0.0028818717 
   18500    11.625871   -0.3689622            0  -0.33847791 0.0031448445 
   18600    11.675175  -0.36905313            0  -0.33843955 0.0014479982 
   18700    11.668154  -0.36907195            0  -0.33847678  0.001830771 
   18800    11.543597  -0.36873376            0   -0.3384652 0.0038139497 
   18900    11.642388  -0.36890616            0  -0.33837855 0.00039578403 
   19000     11.64795  -0.36888336            0  -0.33834117 0.00066710539 
   19100    11.659554  -0.36906265            0  -0.33849003 0.0015270878 
   19200    11.750192  -0.36918026            0  -0.33836998 0.0019969963 
   19300    11.723658  -0.36916885            0  -0.33842814 0.0049744756 
   19400    11.847178  -0.36953091            0  -0.33846632 0.00050164061 
   19500    11.754973   -0.3693067            0  -0.33848389  0.001110625 
   19600    11.714128  -0.36920919            0  -0.33849347 0.0028344303 
   19700     11.80133  -0.36947571            0  -0.33853134 0.0015925161 
   19800    11.681445   -0.3691565            0  -0.33852648 0.0058059246 
   19900    11.818156  -0.36951008            0  -0.33852159 0.00056327593 
   20000    11.744121  -0.36932897            0  -0.33853461 0.0020850262 
   20100    11.711097  -0.36924912            0  -0.33854135 0.0027962989 
   20200    11.722899  -0.36928069            0  -0.33854197 0.0022268646 
   20300    11.686139   -0.3691814            0  -0.33853907 0.0025707517 
   20400    11.754948  -0.36935513            0  -0.33853238 0.00035128017 
   20500     11.78789  -0.36943036            0  -0.33852123 0.00024327952 
   20600    11.730109  -0.36926606            0  -0.33850844 0.0036284827 
   20700    11.789831  -0.36941532            0   -0.3385011  0.001790236 
   20800    11.823703  -0.36950074            0   -0.3384977 -0.00065987493 
   20900    11.763988  -0.36932152            0  -0.33847506 0.0019308701 
   21000    11.735935  -0.36928765            0  -0.33851475 0.0047703216 
   21100    11.720557  -0.36923908            0  -0.33850651 0.0048217101 
   21200      11.8056   -0.3694282            0  -0.33847264 -1.9548573e-05 
   21300    11.710007   -0.3691597            0  -0.33845479 0.0016063675 
   21400    11.726511  -0.36919279            0   -0.3384446  0.001698497 
   21500    11.745686  -0.36924941            0  -0.33845094 0.0029435632 
   21600     11.72246  -0.36916445            0  -0.33842689  0.004808229 
   21700    11.862782  -0.36949439            0  -0.33838889 0.00057330855 
   21800    11.885797  -0.36952935            0  -0.33836349 -3.7602265e-07 
   21900    11.857188  -0.36947867            0  -0.33838783 0.0026312464 
   22000    11.809303  -0.36940828            0    -0.338443 0.0042677482 
   22100    11.832565  -0.36940199            0  -0.33837572 0.0038400482 
   22200    11.913998  -0.36958996            0  -0.33835017 0.0013610886 
   22300    11.918263  -0.36958988            0   -0.3383389 0.0016243142 
   22400    11.906917  -0.36954395            0  -0.33832272 0.0017944608 
   22500    11.911899  -0.36956186            0  -0.33832757 0.0016455276 
   22600     11.87222  -0.36945076            0  -0.33832051 0.0037756816 
   22700    11.818558  -0.36928519            0  -0.33829565 0.0054993404 
   22800    11.914466  -0.36952943            0   -0.3382884 0.0015735703 
   22900    11.888073  -0.36947482            0    -0.338303 0.00039751881 
   23000    11.844168  -0.36929204            0  -0.33823534 0.0016443126 
   23100    11.815379  -0.36917544            0  -0.33819423 0.0032992453 
   23200    11.817755  -0.36918733            0   -0.3381999  0.005019065 
   23300    11.941177   -0.3694777            0  -0.33816663 0.0033358413 
   23400    12.024044  -0.36964027            0  -0.33811192 0.0027999693 
   23500     12.12848   -0.3697456            0  -0.33794341 0.0017615249 
   23600    12.044807  -0.36945542            0  -0.33787263  0.005167494 
   23700    12.080404  -0.36955316            0  -0.33787703 0.0047582768 
   23800    12.162521  -0.36976394            0  -0.33787249 0.0021964357 
   23900    12.074644  -0.36960589            0  -0.33794486 0.0023675883 
   24000    12.159465  -0.36982857            0  -0.33794513 3.8405565e-05 
   24100    12.151092  -0.36987198            0   -0.3380105  0.002001385 
   24200    12.042075    -0.369723            0  -0.33814737 0.0051515646 
   24300    12.119546  -0.36991702            0  -0.33813825 0.0024744083 
   24400    12.053984  -0.36976704            0  -0.33816018 0.0042261133 
   24500    12.134985  -0.36997728            0  -0.33815803 0.0026085985 
   24600    12.102145  -0.36988587            0  -0.33815273 0.0034952603 
   24700    12.160972  -0.37004477            0  -0.33815738 0.0019254307 
   24800    12.092894  -0.36988301            0  -0.33817413 0.0038334229 
   24900    12.139215  -0.37004359            0  -0.33821325 0.0016114677 
   25000    12.086194  -0.36987881            0  -0.33818749 0.0025311371 
   25100     12.08858  -0.36985389            0  -0.33815632 0.0011985226 
   25200    12.086159   -0.3698573            0  -0.33816608 0.0014905179 
   25300    12.083359  -0.36990146            0  -0.33821758 0.0022177892 
   25400    12.107808  -0.36993576            0  -0.33818777 0.0019412103 
   25500    12.047159  -0.36980153            0  -0.33821257 0.0026297163 
   25600    12.083522  -0.36993198            0  -0.33824767 0.0019516629 
   25700     12.17478  -0.37015505            0  -0.33823145 0.00025628844 
   25800    12.127034  -0.37002017            0  -0.33822176 0.0026489796 
   25900    12.012711   -0.3697071            0  -0.33820847 0.0054780356 
   26000    12.102487   -0.3699303            0  -0.33819626 0.00082836602 
   26100    12.062668  -0.36984184            0  -0.33821221 0.00062200139 
   26200    12.071423  -0.36989788            0  -0.33824529 0.0015120729 
   26300    11.998351  -0.36968079            0  -0.33821981 0.0043102688 
   26400    12.074435   -0.3698639            0  -0.33820341 0.0023648526 
   26500    12.055272  -0.36984967            0  -0.33823943 0.0025359745 
   26600    12.133786  -0.37001974            0  -0.33820364  0.001536882 
   26700    12.107247   -0.3699461            0  -0.33819958 0.0039510214 
   26800    12.184744  -0.37011009            0  -0.33816037 0.0025807017 
   26900    12.277677  -0.37032965            0  -0.33813625 0.0010345486 
   27000    12.139115  -0.36995266            0  -0.33812258 0.0054857796 
   27100    12.293657  -0.37031389            0  -0.33807859  0.001972333 
   27200    12.282487  -0.37025114            0  -0.33804512 0.0032708413 
   27300    12.273907  -0.37036333            0  -0.33817981 0.0044576956 
   27400    12.396036  -0.37051192            0  -0.33800816 0.0030562954 
   27500    12.382675  -0.37056018            0  -0.33809146 0.0025380508 
   27600    12.371017  -0.37051555            0   -0.3380774 0.0021944924 
   27700    12.464257  -0.37079659            0  -0.33811395 -1.3939067e-06 
   27800    12.482467  -0.37084539            0    -0.338115  0.002166254 
   27900    12.358835  -0.37049173            0  -0.33808552 0.0071894964 
   28000    12.541452  -0.37098116            0  -0.33809611 0.0013795567 
   28100    12.453419  -0.37082053            0  -0.33816631 0.0012183018 
   28200    12.447961  -0.37070164            0  -0.33806173 0.0035845834 
   28300    12.567007  -0.37101223            0  -0.33806017 0.0033387072 
   28400    12.538744  -0.37097001            0  -0.33809206  0.002909716 
   28500    12.558181  -0.37100439            0  -0.33807548 0.0018914562 
   28600    12.407949  -0.37061025            0  -0.33807526 0.0068276173 
   28700    12.574647  -0.37101374            0  -0.33804164 0.0016106438 
   28800    12.500681  -0.37080254            0  -0.33802439 0.0015260996 
   28900    12.483916  -0.37074506            0  -0.33801087 0.0022179994 
   29000    12.564072  -0.37097032            0  -0.33802596 0.0010331746 
   29100    12.599478  -0.37106876            0  -0.33803156 0.0023220742 
   29200    12.561457  -0.37098425            0  -0.33804675 0.0044526884 
   29300    12.522533  -0.37083267            0  -0.33799723 0.0036766294 
   29400    12.564826  -0.37092605            0  -0.33797971 -0.00021442868 
   29500    12.419544  -0.37061433            0  -0.33804894 0.0021807915 
   29600    12.458013  -0.37068943            0  -0.33802316 0.0021541286 
   29700    12.437195  -0.37061796            0  -0.33800628 0.0028542236 
   29800    12.349976  -0.37045942            0  -0.33807644  0.003207169 
   29900    12.358811  -0.37041114            0    -0.338005 0.0019300655 
   30000    12.348666  -0.37041755            0    -0.338038 0.0018155317 
   30100    12.313549   -0.3703631            0  -0.33807563 0.0028152041 
   30200    12.311684  -0.37037719            0  -0.33809461 0.0011256021 
   30300    12.387332  -0.37062488            0  -0.33814394 0.0010740867 
   30400    12.431573  -0.37067586            0  -0.33807892 0.0060773614 
   30500    12.396137  -0.37059964            0  -0.33809562 0.0059080617 
   30600    12.392416   -0.3705626            0  -0.33806833 0.0013116495 
   30700    12.429115  -0.37071675            0  -0.33812626 -0.00058796007 
   30800    12.435617  -0.37067986            0  -0.33807232 0.0039494361 
   30900    12.505002  -0.37083378            0   -0.3380443 0.0036351211 
   31000    12.456506  -0.37071064            0  -0.33804833 0.0041315139 
   31100    12.498499  -0.37084849            0  -0.33807606 0.0023046641 
   31200    12.427498  -0.37064237            0  -0.33805612  0.002669826 
   31300    12.464275  -0.37072648            0   -0.3380438 0.00067609207 
   31400    12.414217  -0.37069678            0  -0.33814535 0.0030854746 
   31500     12.41867  -0.37064592            0  -0.33808282 0.0029318527 
   31600    12.440697   -0.3706863            0  -0.33806544 0.0012641366 
   31700    12.533786   -0.3709114            0  -0.33804645 -8.1574364e-05 
   31800    12.475327  -0.37074609            0  -0.33803443 0.0047667797 
   31900    12.505777  -0.37089853            0  -0.33810703 0.0042469041 
   32000    12.534528  -0.37091532            0  -0.33804843 0.0030990111 
   32100    12.544795  -0.37093567            0  -0.33804185 0.0018529292 
   32200    12.476477  -0.37076875            0  -0.33805408 0.0028027278 
   32300    12.460329  -0.37072394            0   -0.3380516  0.004862104 
   32400    12.510355  -0.37087291            0  -0.33806939 0.0034022307 
   32500    12.475778  -0.37074433            0  -0.33803149 0.0025562115 
   32600    12.463278  -0.37064794            0  -0.33796787 0.0010707681 
   32700    12.462299  -0.37068452            0  -0.33800702 0.00040361663 
   32800    12.408041  -0.37063084            0  -0.33809561  0.002286673 
   32900    12.438896   -0.3707036            0  -0.33808746 0.0037802308 
   33000    12.413799   -0.3705915            0  -0.33804117 0.0064810225 
   33100    12.517114  -0.37083941            0  -0.33801818 0.0010358252 
   33200    12.466257  -0.37067981            0  -0.33799192  0.002604022 
   33300    12.427738  -0.37055173            0  -0.33796485 0.0035449841 
   33400    12.374325  -0.37031794            0  -0.33787111   0.00355708 
   33500    12.403921  -0.37059881            0  -0.33807438 0.0019873704 
   33600    12.512383  -0.37069938            0  -0.33789055 0.00066242748 
   33700    12.505431   -0.3707367            0   -0.3379461 0.0021965485 
   33800    12.472569  -0.37063849            0  -0.33793406 0.0053881389 
   33900    12.544693  -0.37086769            0  -0.33797414 0.0031202724 
   34000    12.558424  -0.37089813            0  -0.33796857 0.0024161419 
   34100    12.396809  -0.37050356            0  -0.33799778 0.0055406859 
   34200    12.512747  -0.37085611            0  -0.33804632 8.8036725e-05 
   34300    12.399634  -0.37056003            0  -0.33804684 0.0016517105 
   34400    12.341716  -0.37043656            0  -0.33807523  0.003484286 
   34500    12.336434  -0.37041776            0  -0.33807029 0.0019706022 
   34600    12.389179  -0.37055886            0  -0.33807309 -0.00092489308 
   34700    12.400894   -0.3706138            0  -0.33809731 0.0006039676 
   34800    12.464176  -0.37076709            0  -0.33808466 0.0019944944 
   34900    12.400193  -0.37063407            0  -0.33811941 0.0039268597 
   35000    12.416716  -0.37068483            0  -0.33812685 0.0028106872 
   35100    12.420843  -0.37075411            0  -0.33818531 0.0025649902 
   35200    12.553467  -0.37110551            0  -0.33818895 0.0025514779 
   35300     12.63285  -0.37128463            0  -0.33815993 0.0050906458 
   35400    12.777769  -0.37162609            0  -0.33812139 0.0031112973 
   35500    12.663976  -0.37133844            0  -0.33813212 0.0053684795 
   35600    12.665094  -0.37134691            0  -0.33813766 0.0022556132 
   35700    12.636541  -0.37130565            0  -0.33817126 0.0020365248 
   35800    12.647402  -0.37128695            0  -0.33812408 0.0033691732 
   35900    12.662511  -0.37130191            0  -0.33809943 0.0031574245 
   36000    12.696921  -0.37137212            0  -0.33807942 0.0034937776 
   36100    12.698593  -0.37145971            0  -0.33816262 0.0029113196 
   36200    12.560952  -0.37104679            0  -0.33811061 0.0047744545 
   36300     12.61431  -0.37121147            0  -0.33813538  0.002265666 
   36400    12.666511  -0.37134662            0  -0.33813365 0.0012809499 
   36500    12.654909   -0.3713109            0  -0.33812835 0.0026898619 
   36600    12.718148  -0.37148549            0  -0.33813712 0.00082279777 
   36700    12.451528  -0.37079806            0  -0.33814879 0.0068262043 
   36800    12.601467  -0.37119358            0  -0.33815116 0.0013212684 
   36900    12.518137  -0.37096557            0  -0.33814165 0.0034126642 
   37000    12.587186  -0.37110222            0  -0.33809725 0.0014442397 
   37100    12.590655  -0.37108444            0  -0.33807037 0.0014457011 
   37200     12.61793  -0.37124928            0  -0.33816369 0.00064994674 
   37300    12.611207  -0.37125785            0  -0.33818989 0.0014525213 
   37400    12.636319    -0.371196            0   -0.3380622 0.0030666026 
   37500    12.631839  -0.37116255            0   -0.3380405 0.0030670913 
   37600    12.651814  -0.37126657            0  -0.33809214 0.00081542748 
   37700    12.703615   -0.3714339            0  -0.33812364 0.0011026566 
   37800    12.712972  -0.37141398            0  -0.33807919  0.004909481 
   37900    12.707175  -0.37145605            0  -0.33813646 0.0039728233 
   38000    12.670294  -0.37136838            0  -0.33814549 0.0022785517 
   38100       12.646  -0.37131483            0  -0.33815564 0.0018557509 
   38200     12.68907  -0.37139006            0  -0.33811794 0.0017264056 
   38300    12.660835  -0.37128841            0  -0.33809032  0.005095036 
   38400    12.734391  -0.37148679            0  -0.33809583 0.0021772219 
   38500    12.698607  -0.37142143            0   -0.3381243 0.00087169761 
   38600    12.714935  -0.37149332            0  -0.33815338 0.0013998673 
   38700     12.84301  -0.37177292            0  -0.33809716 0.0027446607 
   38800    12.847012  -0.37172046            0  -0.33803419 0.0064870375 
   38900    12.896231  -0.37182607            0  -0.33801074 0.0038321799 
   39000    12.850412  -0.37180285            0  -0.33810767 0.0030766833 
   39100    12.924021  -0.37191919            0  -0.33803101 0.0020795737 
   39200    12.970634   -0.3720785            0  -0.33806809 0.0058581806 
   39300    13.096142  -0.37244575            0  -0.33810624 0.0038804556 
   39400    13.159568  -0.37258465            0  -0.33807884 0.00047823377 
   39500    13.103123  -0.37241791            0  -0.33806009 0.0035390611 
   39600     13.08329  -0.37236159            0  -0.33805578 0.0032333981 
   39700    12.962716  -0.37211371            0  -0.33812406 0.0025048722 
   39800    12.996655   -0.3720934            0  -0.33801476 0.0019460776 
   39900    12.985707  -0.37207802            0  -0.33802809 0.0027423989 
   40000    12.986628  -0.37213627            0  -0.33808392 0.0022912583 
   40100     13.03402  -0.37225275            0  -0.33807614 0.0025843309 
   40200    13.049934   -0.3722127            0  -0.33799435 0.0045935916 
   40300    13.131638  -0.37238325            0  -0.33795066 0.0029609526 
   40400    13.141805  -0.37243243            0  -0.33797319 0.0024896831 
   40500    13.194202  -0.37252628            0  -0.33792964 0.0023711602 
   40600    13.021118  -0.37209217            0  -0.33794938 0.0069227186 
   40700    13.071836  -0.37217499            0  -0.33789922 0.0030946433 
   40800    13.095972  -0.37221123            0  -0.33787217 0.0013941208 
   40900    13.103643  -0.37219958            0   -0.3378404 0.0015111498 
   41000    13.141397  -0.37225165            0  -0.33779348 0.0024446396 
   41100    13.140351  -0.37226733            0   -0.3378119  0.001217441 
   41200    13.016603  -0.37197763            0  -0.33784668 0.0033073096 
   41300    12.989216  -0.37181575            0  -0.33775661 0.0020404891 
   41400    13.031236  -0.37185796            0  -0.33768864 -0.0002097088 
   41500    12.930174  -0.37168427            0  -0.33777995 0.0030706915 
   41600     12.97532   -0.3717664            0   -0.3377437 0.0027235439 
   41700    13.032338  -0.37195563            0  -0.33778343 0.0026309309 
   41800    13.025135  -0.37196164            0  -0.33780832 0.0055913264 
   41900    13.161008  -0.37234445            0  -0.33783486 0.0024525602 
   42000    13.195159  -0.37238373            0  -0.33778459 0.0027825391 
   42100    13.339212  -0.37260806            0  -0.33763119 0.0033869176 
   42200    13.312958  -0.37275505            0  -0.33784702 0.0035928258 
   42300    13.326165   -0.3726569            0  -0.33771425 0.0051681892 
   42400     13.24091  -0.37252971            0   -0.3378106 0.0061109696 
   42500    13.261205  -0.37262211            0  -0.33784979 0.00051562761 
   42600     13.12399  -0.37229581            0  -0.33788329  0.001337976 
   42700    13.239071  -0.37262341            0  -0.33790912 0.00025255383 
   42800    13.277244  -0.37274192            0  -0.33792754 0.0048587142 
   42900    13.387558  -0.37303502            0  -0.33793139 0.0051509975 
   43000    13.389125  -0.37315399            0  -0.33804624 0.0040509465 
   43100    13.303777  -0.37286111            0  -0.33797716   0.00507668 
   43200    13.323971  -0.37294838            0  -0.33801148 0.0010226799 
   43300    13.272161  -0.37281484            0  -0.33801379 0.0019485386 
   43400    13.369946  -0.37308539            0  -0.33802794 -0.00034638431 
   43500    13.282342  -0.37286714            0   -0.3380394  0.003337697 
   43600    13.342781  -0.37301944            0  -0.33803322 0.0030982528 
   43700    13.409498  -0.37320034            0  -0.33803918 0.0010604281 
   43800    13.413018  -0.37316953            0  -0.33799913 0.00044428785 
   43900    13.128613  -0.37244729            0  -0.33802264 0.0068636204 
   44000     13.26339  -0.37275746            0  -0.33797941 0.00050164026 
   44100    13.260542  -0.37275485            0  -0.33798427 0.00085116797 
   44200    13.211659  -0.37268644            0  -0.33804404 0.0012661746 
   44300    12.970684  -0.37205667            0  -0.33804612  0.006014064 
   44400    13.092676  -0.37232631            0  -0.33799589 0.0016233911 
   44500    13.113582  -0.37239951            0  -0.33801427 0.0022878244 
   44600    13.159901  -0.37254075            0  -0.33803406 0.0047967146 
   44700    13.181486  -0.37261255            0  -0.33804926 0.0035262252 
   44800    13.019612   -0.3721724            0  -0.33803356 0.0032743648 
   44900    12.930007  -0.37193032            0  -0.33802643 0.0033824096 
   45000    13.003345  -0.37210831            0  -0.33801212 0.0010769575 
   45100    12.961042  -0.37199294            0  -0.33800768 0.0026587105 
   45200    12.975823  -0.37203981            0   -0.3380158 0.0012673379 
   45300    12.990898  -0.37208143            0  -0.33801789 0.0020705108 
   45400     13.03446  -0.37218057            0   -0.3380028 0.0037978378 
   45500     12.96746  -0.37195992            0  -0.33795783 0.0038768054 
   45600     13.00698  -0.37209339            0  -0.33798768 0.00053205451 
   45700    12.913342  -0.37185224            0  -0.33799206 0.0010025766 
   45800    12.984426  -0.37203904            0  -0.33799246 0.00018951978 
   45900    13.068277  -0.37228225            0  -0.33801581 0.0014232699 
   46000    13.030188  -0.37219719            0  -0.33803061 0.0052263916 
   46100    13.188702  -0.37262534            0  -0.33804313 -0.00016498221 
   46200    13.008114  -0.37216624            0  -0.33805754 0.0039849883 
   46300    13.114082  -0.37244983            0  -0.33806328 0.0007705551 
   46400    13.059909  -0.37227619            0  -0.33803169 0.0023988967 
   46500    13.117566  -0.37240979            0  -0.33801411 0.0030748558 
   46600    13.169743  -0.37253676            0  -0.33800426 0.0029303552 
   46700     13.11595  -0.37240061            0  -0.33800916 0.0045957305 
   46800    13.137262  -0.37242267            0  -0.33797534 0.0045781136 
   46900    13.130565   -0.3723386            0  -0.33790883 0.0014771045 
   47000    13.165018   -0.3723845            0  -0.33786439 -0.00074227611 
   47100    13.245766  -0.37255836            0  -0.33782652 0.0019169031 
   47200    13.387854  -0.37290695            0  -0.33780254 0.0022345163 
   47300    13.319687   -0.3728146            0  -0.33788894 0.0033529315 
   47400    13.278326  -0.37268185            0  -0.33786464 0.0049491508 
   47500    13.458832  -0.37322312            0   -0.3379326 -0.00047958348 
   47600    13.333133  -0.37292137            0  -0.33796044  0.003785163 
   47700    13.175794  -0.37254898            0  -0.33800061 0.0081957003 
   47800    13.446437  -0.37327678            0  -0.33801876 0.0015084614 
   47900    13.326395  -0.37296451            0  -0.33802126 0.0042992805 
   48000    13.354578   -0.3730243            0  -0.33800715 0.0020479795 
   48100    13.310432  -0.37289797            0  -0.33799657 0.0019432999 
   48200    13.349241  -0.37300456            0   -0.3380014 0.0020514062 
   48300    13.416535  -0.37317863            0  -0.33799902 0.00089286242 
   48400    13.437485  -0.37321346            0  -0.33797891 0.0024727881 
   48500    13.467442  -0.37324011            0  -0.33792701 0.0026031551 
   48600    13.462582   -0.3732017            0  -0.33790135   0.00495461 
   48700    13.527557  -0.37336132            0  -0.33789059  0.005547702 
   48800    13.605062  -0.37349746            0  -0.33782351 0.0031210526 
   48900    13.522685  -0.37329445            0   -0.3378365 0.0022989915 
   49000    13.569669  -0.37339734            0   -0.3378162 -0.00012440461 
   49100    13.487666  -0.37319106            0  -0.33782494 0.00087350538 
   49200    13.569933  -0.37335788            0  -0.33777604 0.0017614596 
   49300    13.675217  -0.37363914            0  -0.33778124 0.0011934227 
   49400    13.669192  -0.37374084            0  -0.33789873 0.0013640461 
   49500    13.701366  -0.37384233            0  -0.33791586 0.0034873428 
   49600    13.800318  -0.37408454            0   -0.3378986 0.0034057293 
   49700    13.769163  -0.37404963            0  -0.33794539 0.0062149835 
   49800    13.825293  -0.37425861            0  -0.33800719 0.0035185023 
   49900    13.852623  -0.37429591            0  -0.33797283 0.0024087589 
   50000    13.801404  -0.37410232            0  -0.33791354 0.0030492035 
   50100    13.796739  -0.37408177            0  -0.33790522 -0.0010090044 
   50200    13.731737  -0.37389116            0  -0.33788506 0.0020583452 
   50300    13.785702  -0.37404456            0  -0.33789695  0.003233347 
   50400    13.717111  -0.37392668            0  -0.33795892 0.0052165678 
   50500    13.895381  -0.37422362            0  -0.33778842 0.00070268275 
   50600    13.795519  -0.37396404            0  -0.33779069 0.0017937018 
   50700    13.761959  -0.37388761            0  -0.33780225  0.001988328 
   50800    13.823956  -0.37401402            0   -0.3377661 0.0023526687 
   50900    13.891328  -0.37416536            0  -0.33774079 0.0028792148 
   51000      13.8716  -0.37406723            0  -0.33769438 0.0036717802 
   51100    13.780786  -0.37384871            0  -0.33771399 0.0051042568 
   51200    13.712894  -0.37367697            0  -0.33772027  0.004661364 
   51300    13.777691  -0.37382282            0  -0.33769621 0.0018885746 
   51400    13.830877  -0.37387265            0  -0.33760659 0.0032878167 
   51500     13.87576  -0.37393835            0   -0.3375546 0.0032642769 
   51600    13.777743  -0.37375538            0  -0.33762864 0.0042899569 
   51700    13.747226  -0.37368289            0  -0.33763617 0.0019287085 
   51800    13.761546  -0.37367722            0  -0.33759295 0.0010895381 
   51900    13.714889  -0.37361126            0  -0.33764933 0.0022697277 
   52000     13.61317  -0.37340456            0  -0.33770935 0.0017218579 
   52100    13.562098  -0.37331422            0  -0.33775293 -0.00066992367 
   52200    13.512301  -0.37324039            0  -0.33780967 0.0016571606 
   52300    13.602665  -0.37349631            0  -0.33782864 0.0030198428 
   52400    13.642699   -0.3736289            0  -0.33785626 0.0042507277 
   52500    13.635051   -0.3736511            0  -0.33789851 0.0031286845 
   52600    13.539464   -0.3733912            0  -0.33788925 0.0056273016 
   52700    13.606111  -0.37361828            0  -0.33794158 0.0026031912 
   52800    13.653399  -0.37369558            0  -0.33789488 0.00078422574 
   52900    13.490048  -0.37327019            0  -0.33789782 0.0051806769 
   53000     13.56195  -0.37344996            0  -0.33788906 0.0016617745 
   53100    13.600492  -0.37351334            0  -0.33785137 0.0018993387 
   53200    13.716439  -0.37394018            0  -0.33797418 0.0025528689 
   53300    13.823774  -0.37408564            0   -0.3378382 0.0041763874 
   53400    13.844234  -0.37413325            0  -0.33783216 0.0034326115 
   53500    13.903416  -0.37429578            0  -0.33783951 0.0029091305 
   53600    13.887114  -0.37425697            0  -0.33784344 0.0022617791 
   53700    13.754698   -0.3739539            0  -0.33788758 0.0034149812 
   53800     13.66291  -0.37366542            0  -0.33783978 0.0035385574 
   53900    13.725197  -0.37382111            0  -0.33783215 -0.00068164192 
   54000    13.617404  -0.37348429            0  -0.33777798 0.0032062118 
   54100    13.707079  -0.37369978            0  -0.33775833 0.0037048959 
   54200      13.7775  -0.37391475            0  -0.33778864 0.0032404066 
   54300    13.812008  -0.37392786            0  -0.33771127 0.0019033141 
   54400    13.767763  -0.37385278            0  -0.33775221 0.0021200524 
   54500    13.683233  -0.37356329            0  -0.33768437 0.0042974551 
   54600    13.777263  -0.37379042            0  -0.33766494  0.001691045 
   54700    13.810594  -0.37393328            0   -0.3377204 0.0014711641 
   54800    13.747379  -0.37381878            0  -0.33777166 0.0070904537 
   54900    13.881524  -0.37415142            0  -0.33775255 0.0032533416 
   55000    13.872781   -0.3740823            0  -0.33770636 0.0024335723 
   55100    13.912849    -0.374202            0    -0.337721 -0.00061917859 
   55200    13.859794  -0.37410575            0  -0.33776387 0.00053318282 
   55300    13.755669  -0.37381456            0   -0.3377457 0.0049361922 
   55400    13.921483  -0.37422185            0  -0.33771821 0.0013532229 
   55500    13.973561  -0.37435226            0  -0.33771206 0.00044237918 
   55600    14.022748  -0.37443585            0  -0.33766668 0.0016657173 
   55700    13.997626  -0.37437948            0  -0.33767618 0.0060911437 
   55800     14.14446  -0.37470111            0  -0.33761279 0.00081600451 
   55900    14.141326  -0.37463017            0  -0.33755008  0.002054474 
   56000    14.065654  -0.37457988            0  -0.33769821 0.0049004041 
   56100    14.169166  -0.37486733            0  -0.33771424 0.0051098329 
   56200    14.197716    -0.374856            0  -0.33762804 0.0040318775 
   56300    14.166762  -0.37482981            0  -0.33768302 0.0030570721 
   56400    14.155565   -0.3747865            0  -0.33766907 0.0039910444 
   56500    14.330922  -0.37523722            0  -0.33765998 0.0013216178 
   56600    14.297731  -0.37514836            0  -0.33765816 0.0059004777 
   56700    14.325956  -0.37536296            0  -0.33779875  0.002287205 
   56800    14.313041  -0.37518801            0  -0.33765766 0.0033635059 
   56900    14.263341  -0.37507646            0  -0.33767643 0.0060698853 
   57000    14.254523  -0.37508565            0  -0.33770874 0.0013156853 
   57100    14.163333  -0.37484977            0  -0.33771197 0.0011260037 
   57200    14.373658  -0.37536387            0  -0.33767457 -0.00024713588 
   57300    14.349112  -0.37526362            0  -0.33763869 0.0052098456 
   57400    14.338806  -0.37517543            0  -0.33757753 0.0023239415 
   57500     14.15998  -0.37483417            0  -0.33770516 0.0058475345 
   57600     14.25089  -0.37495951            0  -0.33759213 0.0046181587 
   57700    14.306865  -0.37511456            0   -0.3376004 0.0021860795 
   57800    14.271175  -0.37501856            0  -0.33759798 0.0031769348 
   57900    14.265382  -0.37503434            0  -0.33762896 0.0039408434 
   58000    14.374596  -0.37517504            0  -0.33748328 0.0026021911 
   58100    14.219622    -0.374806            0   -0.3375206 0.0037092965 
   58200    14.239579   -0.3748932            0  -0.33755548 0.0010963292 
   58300    14.271721  -0.37480287            0  -0.33738086 0.0015407216 
   58400    14.190763  -0.37478374            0  -0.33757402 0.0010599195 
   58500    14.085719  -0.37440556            0  -0.33747127 0.0033705767 
   58600    14.052253  -0.37444991            0  -0.33760337 0.0032859908 
   58700    14.015247  -0.37447316            0  -0.33772365 0.0037967062 
   58800    14.074093  -0.37466504            0  -0.33776124 0.00031147588 
   58900    14.017203  -0.37456878            0  -0.33781415 0.0011555334 
   59000    13.988636  -0.37451142            0   -0.3378317 0.0055013913 
   59100    14.139381  -0.37487277            0  -0.33779777 0.0031136018 
   59200    13.985978  -0.37448863            0  -0.33781588 0.0054196389 
   59300    13.977227  -0.37449376            0  -0.33784395 0.0018150704 
   59400    14.019814  -0.37448222            0  -0.33772075 -0.000123232 
   59500    13.979184  -0.37435603            0  -0.33770109 0.0042806973 
   59600    14.158874  -0.37482671            0   -0.3377006 0.0014829882 
   59700    14.204361  -0.37510672            0  -0.33786134 0.0006479589 
   59800    14.215739  -0.37495041            0   -0.3376752 0.0029404168 
   59900     14.15808  -0.37486123            0  -0.33773721 0.0023683547 
   60000    14.040397  -0.37460162            0  -0.33778617 0.0025713696 
   60100     14.06692  -0.37470288            0  -0.33781788 0.0019953395 
   60200    14.086781   -0.3747808            0  -0.33784373 0.0034576255 
   60300    14.161079   -0.3749371            0  -0.33780521 0.0036979176 
   60400    14.108817  -0.37478126            0  -0.33778641 0.0066965689 
   60500    14.177131  -0.37493521            0  -0.33776123 0.0014514715 
   60600    14.193288  -0.37493982            0  -0.33772347 0.00054583059 
   60700    14.139302  -0.37478803            0  -0.33771325  0.005831333 
   60800    14.240732  -0.37504604            0  -0.33770529 0.0021538654 
   60900    14.017147  -0.37446074            0  -0.33770626 0.0065914764 
   61000    14.178065  -0.37480171            0  -0.33762528 0.00084938302 
   61100    14.203228  -0.37486299            0  -0.33762058 0.0030109996 
   61200    14.228317  -0.37490141            0  -0.33759321 0.0042530362 
   61300    14.286566  -0.37501325            0  -0.33755232 0.0035930222 
   61400    14.475988  -0.37547164            0  -0.33751403 0.0014755851 
   61500    14.440399  -0.37533988            0  -0.33747558 0.0056079036 
   61600    14.422075  -0.37528354            0  -0.33746729 0.0054533414 
   61700    14.413353  -0.37520178            0  -0.33740841 0.0019889061 
   61800     14.43205  -0.37527527            0  -0.33743286 -0.00047215769 
   61900    14.336323  -0.37488752            0  -0.33729612 0.0045417996 
   62000    14.350401   -0.3748552            0  -0.33722689 0.0038341959 
   62100     14.24993  -0.37453519            0  -0.33717032 0.0027843712 
   62200    14.278003  -0.37451865            0  -0.33708018 -3.833675e-06 
   62300    14.338502  -0.37460566            0  -0.33700855 0.0019910087 
   62400    14.376853  -0.37465257            0   -0.3369549  0.008187985 
   62500    14.206527  -0.37436944            0  -0.33711838 0.0097315919 
   62600    14.308972  -0.37466158            0   -0.3371419 0.00067908795 
   62700    14.277215  -0.37464748            0  -0.33721108 0.00087910077 
   62800    14.245899  -0.37466148            0  -0.33730719 0.0050799578 
   62900    14.378525  -0.37505081            0  -0.33734875 0.0023269116 
   63000    14.355407  -0.37498359            0  -0.33734215 0.0038987908 
   63100    14.377232  -0.37512949            0  -0.33743083 0.0039645467 
   63200    14.404629  -0.37520941            0  -0.33743891  0.005484907 
   63300    14.420484  -0.37525553            0  -0.33744345 0.0037379052 
   63400    14.338358  -0.37501007            0  -0.33741334 0.0012751887 
   63500    14.306886  -0.37483369            0  -0.33731948  0.000165438 
   63600    14.161577  -0.37459211            0  -0.33745892 0.0078354098 
   63700    14.400397  -0.37503885            0  -0.33727944 0.0027358705 
   63800    14.396324  -0.37506395            0  -0.33731522 -0.00048939543 
   63900     14.35561  -0.37502214            0  -0.33738017 0.0035388539 
   64000    14.371575  -0.37509813            0   -0.3374143 0.0062946359 
   64100    14.346494  -0.37515408            0  -0.33753601 0.0033745252 
   64200    14.308738  -0.37496676            0   -0.3374477 0.0034186084 
   64300    14.247113  -0.37481746            0  -0.33745998 0.0039184317 
   64400    14.304722  -0.37500395            0  -0.33749541 0.0016358004 
   64500    14.264919  -0.37501907            0   -0.3376149 0.0023839334 
   64600    14.241439  -0.37497867            0  -0.33763606 0.0046698717 
   64700    14.346679  -0.37512392            0  -0.33750537 0.0033826792 
   64800    14.193594  -0.37482267            0  -0.33760552 0.0020023177 
   64900    14.206418   -0.3748979            0  -0.33764713 -0.00060550024 
   65000    14.103113  -0.37463581            0  -0.33765592 0.0044776513 
   65100    14.289283  -0.37505746            0   -0.3375894 3.8562275e-05 
   65200     14.37487  -0.37524638            0  -0.33755391 -0.001334688 
   65300    14.257355  -0.37499448            0  -0.33761014 0.0049841842 
   65400    14.345626  -0.37511579            0      -0.3375 0.0040358468 
   65500    14.314567  -0.37505712            0  -0.33752277 0.0030131772 
   65600    14.289291  -0.37488656            0  -0.33741848 0.0033456407 
   65700    14.347348    -0.374951            0  -0.33733069 -0.0010672972 
   65800    14.314305  -0.37494735            0  -0.33741369 0.0022507941 
   65900    14.602503  -0.37562353            0  -0.33733418 0.0020416515 
   66000    14.549276  -0.37552498            0   -0.3373752 0.0068768819 
   66100    14.711883  -0.37594729            0  -0.33737113 0.00053733607 
   66200    14.444416  -0.37523023            0   -0.3373554 0.0052189525 
   66300    14.438912  -0.37521576            0  -0.33735536 0.00067855733 
   66400    14.427349  -0.37508967            0  -0.33725959 0.00052582804 
   66500    14.479658  -0.37519952            0  -0.33723229 0.0016783379 
   66600    14.503799  -0.37525431            0  -0.33722377 0.00034164421 
   66700    14.496203  -0.37504921            0  -0.33703859 0.0032785037 
   66800    14.543346  -0.37516995            0  -0.33703571 0.0075645526 
   66900    14.692381  -0.37561706            0  -0.33709203  0.002924833 
   67000    14.727544  -0.37569451            0  -0.33707728 0.0052778323 
   67100    14.656808  -0.37568285            0  -0.33725111   0.00421938 
   67200    14.578367  -0.37559543            0  -0.33736937 0.0010344322 
   67300    14.569735  -0.37568767            0  -0.33748424 0.0013327603 
   67400    14.500426  -0.37555085            0  -0.33752915 0.0066601059 
   67500    14.623581  -0.37590899            0  -0.33756437 0.0030756983 
   67600    14.588473  -0.37575491            0  -0.33750235 0.0028752778 
   67700    14.576294  -0.37569097            0  -0.33747034 0.0020698645 
   67800    14.598188  -0.37576992            0  -0.33749188 0.0038244673 
   67900    14.527247  -0.37566303            0  -0.33757101  0.010891463 
   68000    14.795105  -0.37634187            0   -0.3375475 0.0033359273 
   68100    14.611852  -0.37586089            0  -0.33754702 0.0033185092 
   68200    14.618259  -0.37592483            0  -0.33759417 0.00073532009 
   68300    14.591986  -0.37579188            0  -0.33753011 0.0056875304 
   68400    14.552173  -0.37556958            0   -0.3374122 0.0059918972 
   68500    14.575924  -0.37579121            0  -0.33757155 0.00023263792 
   68600    14.534034  -0.37560231            0  -0.33749249 0.0024996465 
   68700    14.582277  -0.37569114            0  -0.33745483 0.0037525283 
   68800    14.581286  -0.37577671            0  -0.33754299 0.0020656891 
   68900    14.474968  -0.37546116            0  -0.33750622 0.0035905656 
   69000    14.503018  -0.37546216            0  -0.33743367 0.0026423098 
   69100    14.550456  -0.37558053            0  -0.33742765 0.0024487761 
   69200    14.625444   -0.3757695            0     -0.33742 0.0032833901 
   69300     14.55168  -0.37569104            0  -0.33753496  0.002358509 
   69400    14.614175  -0.37563335            0  -0.33731339 -0.00036384677 
   69500    14.682064  -0.37582234            0  -0.33732437 0.0022105226 
   69600    14.804462  -0.37600731            0   -0.3371884 0.0040838791 
   69700    14.768596  -0.37608486            0  -0.33735999 0.0050637399 
   69800    14.864581     -0.37614            0  -0.33716346 0.0030598505 
   69900    14.780284  -0.37602597            0  -0.33727046 0.0019621013 
   70000    14.719638  -0.37601863            0  -0.33742214 0.00043949223 
   70100    14.701071  -0.37598869            0  -0.33744088 0.0052143153 
   70200    14.797647   -0.3763867            0  -0.33758566 0.0044844124 
   70300    14.737529  -0.37604733            0  -0.33740393 0.0055010286 
   70400    14.824311  -0.37622964            0  -0.33735868 0.0024281652 
   70500    14.718263  -0.37618604            0  -0.33759315 0.0040502623 
   70600    14.854787  -0.37626374            0  -0.33731288 0.0024089354 
   70700    14.722944   -0.3761098            0  -0.33750464 0.0064775344 
   70800    14.779297  -0.37618749            0  -0.33743456 0.0035368076 
   70900     14.69341  -0.37598959            0  -0.33746187 0.0045304273 
   71000    14.645728   -0.3759112            0  -0.33750851 0.0033024196 
   71100    14.615262   -0.3758789            0   -0.3375561 0.0010628796 
   71200    14.550667  -0.37569855            0  -0.33754512 0.0061792513 
   71300    14.550535  -0.37585463            0  -0.33770155  0.002225157 
   71400     14.48306  -0.37570243            0  -0.33772627 0.0018938015 
   71500    14.510639  -0.37571697            0  -0.33766849 0.0051014272 
   71600     14.37486  -0.37544945            0  -0.33775701 0.0086827371 
   71700    14.515022  -0.37568429            0  -0.33762432 0.0019834015 
   71800    14.387111  -0.37533428            0  -0.33760971  0.004411701 
   71900    14.513073  -0.37561597            0  -0.33756111 0.0010753669 
   72000    14.703002  -0.37607483            0  -0.33752196 0.00039749109 
   72100    14.781451  -0.37625368            0  -0.33749511 0.0011873468 
   72200    14.606164   -0.3757963            0  -0.33749734 0.0061275476 
   72300    14.692703  -0.37613923            0  -0.33761337 0.0036816457 
   72400    14.859301  -0.37648543            0  -0.33752272 0.0017999068 
   72500    14.817115    -0.376236            0  -0.33738392 0.00085849032 
   72600    14.711873  -0.37591658            0  -0.33734045 0.0028622863 
   72700    14.965499  -0.37653496            0   -0.3372938 0.00017002516 
   72800    14.961674  -0.37663169            0  -0.33740056 0.0044250833 
   72900    15.143596   -0.3770115            0  -0.33730334 -0.00072522608 
   73000    14.968608  -0.37669529            0  -0.33744597 0.0069405793 
   73100    14.936494  -0.37660697            0  -0.33744186 0.0059930742 
   73200    14.940735  -0.37661986            0  -0.33744362 -0.0027172061 
   73300     14.66746  -0.37594739            0  -0.33748771 0.0027579502 
   73400     14.69424  -0.37603655            0  -0.33750666 0.0029217623 
   73500    14.625564  -0.37589789            0  -0.33754807 0.0041079672 
   73600    14.712698  -0.37602243            0  -0.33744414 0.0023674674 
   73700    14.715189  -0.37590037            0  -0.33731555 0.0027397885 
   73800    14.709668  -0.37572955            0   -0.3371592 0.0051742993 
   73900    14.898881  -0.37618352            0  -0.33711703 0.0047437674 
   74000    15.063382  -0.37636761            0  -0.33686978  0.003995864 
   74100    15.031267  -0.37641403            0  -0.33700041 0.0038437558 
   74200    15.150102  -0.37649064            0  -0.33676543 0.0022550828 
   74300    14.950309  -0.37611345            0  -0.33691212 0.0075229618 
   74400    14.785545  -0.37573465            0  -0.33696534 0.0079868127 
   74500    15.081915  -0.37623687            0  -0.33669045 -0.00038503869 
   74600     14.89544    -0.375931            0  -0.33687354 0.0065272418 
   74700    15.067136  -0.37630665            0  -0.33679898 0.0019481573 
   74800    14.897003  -0.37596937            0   -0.3369078 0.0033881407 
   74900    14.964088  -0.37608575            0  -0.33684829  0.000588783 
   75000    14.684019  -0.37548234            0  -0.33697925 0.0056895912 
   75100    14.777648   -0.3756673            0   -0.3369187 0.00032674856 
   75200    14.753957  -0.37564075            0  -0.33695427 0.00054637486 
   75300    14.749013  -0.37580543            0  -0.33713192 0.0041273311 
   75400    14.892091  -0.37602494            0  -0.33697625  0.003056548 
   75500    15.001705  -0.37633637            0  -0.33700027 0.0016475672 
   75600    15.118976  -0.37655824            0  -0.33691464   0.00273242 
   75700    15.135281  -0.37669004            0  -0.33700369 0.0071059054 
   75800    15.116804  -0.37675634            0  -0.33711843 0.0041683804 
   75900    14.886001  -0.37638014            0  -0.33734742 0.0017614357 
   76000    14.790398  -0.37604963            0  -0.33726759 0.0010292607 
   76100    14.837966  -0.37624931            0  -0.33734255 -0.00030391668 
   76200    14.747862  -0.37606726            0  -0.33739676 0.0048815027 
   76300    14.840233  -0.37630282            0  -0.33739012  0.003757745 
   76400    14.827181  -0.37627374            0  -0.33739526 0.0026674258 
   76500    14.771276  -0.37609877            0  -0.33736687 0.0068076237 
   76600    14.862596   -0.3763349            0  -0.33736356 0.0031155428 
   76700    14.981785   -0.3764532            0  -0.33716933 0.00071372308 
   76800    15.203869  -0.37704778            0  -0.33718158 -0.0010146845 
   76900    15.127149  -0.37682756            0  -0.33716253 0.0051613625 
   77000    15.120404  -0.37692955            0   -0.3372822 0.0051003041 
   77100    15.042867  -0.37658103            0    -0.337137 0.0086041293 
   77200    15.226726   -0.3769741            0  -0.33704797 0.0023777781 
   77300    15.167203  -0.37687187            0  -0.33710181 0.0036595422 
   77400    15.254907    -0.377012            0  -0.33701197 0.0035080732 
   77500    15.138614  -0.37677146            0  -0.33707637 0.0061621084 
   77600    15.151532  -0.37683503            0  -0.33710607 0.0028267074 
   77700     15.16936  -0.37681323            0  -0.33703752 3.0253935e-05 
   77800    14.966487  -0.37635849            0  -0.33711473 0.0062647644 
   77900    15.001303  -0.37675478            0  -0.33741973 0.0036432997 
   78000    15.123871  -0.37680431            0  -0.33714787 0.0023975614 
   78100    15.051066  -0.37672891            0  -0.33726337 0.0060213263 
   78200    15.187473  -0.37704584            0  -0.33722263 0.0026983165 
   78300    15.231973   -0.3771212            0  -0.33718131  0.001254311 
   78400    15.067812  -0.37673427            0  -0.33722482 0.0023911041 
   78500     14.89393  -0.37632416            0  -0.33727066 0.0048506704 
   78600    14.884981  -0.37625528            0  -0.33722525  0.002116399 
   78700    14.777704  -0.37591357            0  -0.33716482 0.0045555937 
   78800    14.923712  -0.37642715            0  -0.33729556 0.0014593783 
   78900    14.989816  -0.37647773            0   -0.3371728 0.0019741107 
   79000    15.004306  -0.37670694            0  -0.33736401 0.0028815788 
   79100    15.221484  -0.37718729            0   -0.3372749  0.000479387 
   79200    15.032139  -0.37672511            0  -0.33730921 0.0086235067 
   79300    15.180702  -0.37714369            0  -0.33733824 0.0020532975 
   79400    15.019059   -0.3767525            0  -0.33737089 0.00066503466 
   79500    14.967635  -0.37665856            0  -0.33741179 0.0018280141 
   79600       15.016  -0.37671626            0  -0.33734267  0.003916324 
   79700    15.044394  -0.37677803            0  -0.33732999  0.003768016 
   79800    15.100829  -0.37691172            0   -0.3373157 0.0014946673 
   79900    14.931152  -0.37638651            0   -0.3372354 0.0052071531 
   80000    15.060355  -0.37679062            0  -0.33730073 0.0018819067 
   80100    14.954881  -0.37644482            0   -0.3372315 0.0084961909 
   80200    15.113813  -0.37684667            0  -0.33721661 0.0052460549 
   80300    15.194189  -0.37697556            0  -0.33713474 0.00056243461 
   80400    15.096009   -0.3767325            0  -0.33714912 0.0050093776 
   80500    15.065885   -0.3767372            0  -0.33723282 0.0043791728 
   80600    14.981627  -0.37651273            0  -0.33722928 0.0040927537 
   80700    15.072161  -0.37676158            0  -0.33724073 0.00069154824 
   80800    14.992363  -0.37654597            0  -0.33723436 0.0052902691 
   80900    15.169751  -0.37692068            0  -0.33714395 0.0027666287 
   81000    15.111848  -0.37686951            0   -0.3372446 0.0068371417 
   81100    15.177255  -0.37684445            0  -0.33704803  0.001858035 
   81200    15.130176  -0.37672182            0  -0.33704886 0.0035322798 
   81300    15.113679    -0.376689            0  -0.33705929 0.0063913146 
   81400    14.925698  -0.37647741            0  -0.33734061 0.0057539898 
   81500    14.934709  -0.37631087            0  -0.33715044 0.0018494141 
   81600    14.856715  -0.37614396            0  -0.33718804 0.0049235302 
   81700    15.072306  -0.37669341            0  -0.33717218 0.00088899477 
   81800    14.973128  -0.37641905            0  -0.33715789 0.0048202779 
   81900    15.024536   -0.3765068            0  -0.33711083 0.0028315439 
   82000    15.080998  -0.37673996            0  -0.33719594 0.0020598873 
   82100    15.105728  -0.37669627            0  -0.33708741 0.0018392618 
   82200    14.957005  -0.37644149            0   -0.3372226 0.0036527382 
   82300    14.884648     -0.37613            0  -0.33710083  0.006588515 
   82400    15.132932  -0.37678107            0  -0.33710088  0.003018422 
   82500    15.123775  -0.37686484            0  -0.33720865  0.005926885 
   82600    15.161852  -0.37686728            0  -0.33711125 0.0040130937 
   82700    15.167142  -0.37678553            0  -0.33701564 -0.0014068947 
   82800    15.094731  -0.37650368            0  -0.33692365 0.0027531632 
   82900     15.10784  -0.37667372            0  -0.33705932 0.0062972975 
   83000    15.262512  -0.37702951            0  -0.33700954 0.0051181889 
   83100    15.298148  -0.37704254            0  -0.33692913 0.0034213712 
   83200    15.276856  -0.37697442            0  -0.33691684 0.0047155479 
   83300    15.435591  -0.37738452            0  -0.33691072 0.00025135593 
   83400    15.293656  -0.37711175            0  -0.33701012 0.0061035846 
   83500    15.483916  -0.37767001            0   -0.3370695 0.0032379505 
   83600     15.37269  -0.37731515            0  -0.33700629 0.0061844585 
   83700    15.455761  -0.37747177            0  -0.33694509 -0.00096414704 
   83800    15.327103  -0.37710235            0  -0.33691302 0.0031004173 
   83900     15.35427  -0.37720237            0  -0.33694181 0.0056084785 
   84000    15.304701  -0.37691457            0  -0.33678398 0.0058447002 
   84100    15.235861  -0.37701758            0  -0.33706749 0.0021044314 
   84200    15.112038  -0.37643537            0  -0.33680996 0.0040380751 
   84300     15.21433  -0.37684838            0  -0.33695475 0.00099964342 
   84400    15.412783  -0.37733396            0  -0.33691997 0.00076828396 
   84500      15.4174  -0.37755475            0  -0.33712865 0.0068365322 
   84600    15.609382  -0.37802847            0  -0.33709897 0.0018904254 
   84700    15.476119  -0.37772009            0  -0.33714002 0.00077481747 
   84800    15.284439  -0.37733469            0  -0.33725723 0.0010286783 
   84900    15.110866  -0.37693013            0   -0.3373078 0.0073180923 
   85000    15.113573  -0.37691767            0  -0.33728824 0.0052903753 
   85100    15.143612  -0.37692759            0   -0.3372194  0.001454779 
   85200    15.049436  -0.37661505            0  -0.33715379  0.002569217 
   85300    15.208849   -0.3769282            0  -0.33704894 0.00054896935 
   85400    15.189544  -0.37692689            0  -0.33709825 0.0057924142 
   85500    15.250961  -0.37710334            0  -0.33711366 0.0058293275 
   85600    15.271834  -0.37702093            0  -0.33697652  0.002140707 
   85700      15.2727  -0.37707896            0  -0.33703228 0.0018797762 
   85800    15.116959  -0.37671703            0  -0.33707872  0.007238918 
   85900    15.167641  -0.37685843            0  -0.33708722 0.0010106751 
   86000    15.161394   -0.3767875            0  -0.33703268 0.00078294109 
   86100    15.069675  -0.37652693            0  -0.33701261 0.0042225133 
   86200    15.131195  -0.37677661            0  -0.33710097 0.0032828864 
   86300    15.229089  -0.37693059            0  -0.33699826 0.0033523276 
   86400    15.241883  -0.37703922            0  -0.33707335 0.0031696647 
   86500    15.173701   -0.3769911            0    -0.337204 0.0037072891 
   86600    15.125251  -0.37670938            0  -0.33704933 0.0049728832 
   86700    15.266101  -0.37705266            0  -0.33702328 0.0004965983 
   86800    15.154945  -0.37691687            0  -0.33717896 0.0072124022 
   86900    15.306009  -0.37721939            0  -0.33708537 0.0021690173 
   87000    15.176986  -0.37690816            0  -0.33711245 0.0027316213 
   87100    15.222215  -0.37702009            0  -0.33710579 0.0018337416 
   87200    15.110742  -0.37678076            0  -0.33715875 0.0045586526 
   87300    15.136959  -0.37695661            0  -0.33726586 0.0053347624 
   87400    15.214375  -0.37699066            0  -0.33709692 0.0044918441 
   87500    15.313099  -0.37722303            0  -0.33707042 -0.00010008176 
   87600    15.468947  -0.37765295            0  -0.33709169 -0.00037402957 
   87700    15.493783   -0.3776491            0  -0.33702272 0.0069493298 
   87800    15.498698  -0.37777426            0  -0.33713499 0.0044759354 
   87900    15.537817  -0.37769086            0  -0.33694901 0.0010859347 
   88000    15.350849  -0.37740905            0  -0.33715745 0.0057764166 
   88100    15.405667   -0.3775191            0  -0.33712376  0.002168023 
   88200    15.277466   -0.3773424            0  -0.33728322 0.0017143335 
   88300    15.308162  -0.37749822            0  -0.33735855 0.00095799751 
   88400    15.258107   -0.3774485            0  -0.33744008  0.001142552 
   88500    15.164224   -0.3772475            0  -0.33748525  0.003718096 
   88600    15.381046  -0.37778524            0  -0.33745447 0.00017459701 
   88700    15.259394  -0.37760681            0  -0.33759502 0.0062496673 
   88800    15.482801   -0.3780352            0  -0.33743762 -3.5377786e-05 
   88900    15.299934  -0.37760311            0  -0.33748502 0.0030672028 
   89000    15.095227  -0.37709996            0  -0.33751863 0.0048784951 
   89100    14.935415  -0.37665865            0  -0.33749637 0.0049728716 
   89200    15.170302   -0.3772137            0  -0.33743552 0.00022158944 
   89300    15.070861  -0.37689089            0  -0.33737345 0.0053835482 
   89400    15.043357  -0.37670339            0  -0.33725807 0.0030323604 
   89500    15.275458  -0.37716355            0  -0.33710964 -0.0015290435 
   89600     15.19984  -0.37683102            0  -0.33697538 0.0045742389 
   89700     15.21099  -0.37684779            0  -0.33696292 0.0019631524 
   89800    15.146805  -0.37673281            0  -0.33701624 0.0047015862 
   89900    15.250438  -0.37676317            0  -0.33677487 0.0053553534 
   90000    15.275364  -0.37683321            0  -0.33677955 0.0042788945 
   90100    15.185647  -0.37689699            0  -0.33707857 0.0064342272 
   90200    15.484146  -0.37739746            0  -0.33679635 -0.00048941531 
   90300    15.448559  -0.37729681            0  -0.33678901 0.0061416876 
   90400    15.434586  -0.37738821            0  -0.33691705 0.0080487941 
   90500    15.409092  -0.37748021            0   -0.3370759 0.0054332894 
   90600     15.44253  -0.37751883            0  -0.33702683 0.0024821509 
   90700    15.457946  -0.37758093            0  -0.33704852 0.0024075143 
   90800     15.36195  -0.37759371            0    -0.337313 0.0034641415 
   90900    15.490919  -0.37773445            0  -0.33711558 -0.00011634126 
   91000    15.395409  -0.37745207            0  -0.33708364 0.0043674301 
   91100    15.361142  -0.37737658            0    -0.337098 0.0049463425 
   91200    15.246302  -0.37705919            0  -0.33708173 0.0052322228 
   91300    15.296874  -0.37715755            0  -0.33704749 -5.9818131e-05 
   91400    15.235551  -0.37687517            0   -0.3369259 2.658742e-05 
   91500    15.206847  -0.37682962            0  -0.33695561 -0.0008596773 
   91600    15.294584  -0.37706206            0  -0.33695799 0.0024279717 
   91700    15.238773  -0.37694155            0  -0.33698383 0.0095329699 
   91800    15.486639  -0.37744716            0  -0.33683951 0.0023804588 
   91900    15.377983  -0.37727127            0  -0.33694853 0.0012216927 
   92000    15.167678   -0.3767216            0   -0.3369503 0.0033792518 
   92100    15.166961  -0.37671297            0  -0.33694355 0.0026814107 
   92200     15.25555  -0.37700419            0  -0.33700248 0.0038644228 
   92300    15.322168   -0.3771104            0  -0.33693401 0.0041706514 
   92400    15.360475  -0.37731335            0  -0.33703651 0.0018124842 
   92500    15.343894   -0.3772484            0  -0.33701504 0.0027274212 
   92600     15.37248  -0.37750566            0  -0.33719735 0.0015503558 
   92700    15.344629  -0.37738793            0  -0.33715264 0.0027049906 
   92800    15.497367  -0.37775101            0  -0.33711523 -0.00010065488 
   92900    15.477221  -0.37774596            0  -0.33716301 0.0022623893 
   93000    15.541245  -0.37783972            0  -0.33708889 0.0021320401 
   93100    15.458745   -0.3777336            0  -0.33719909 0.0017238239 
   93200      15.4623  -0.37757675            0  -0.33703292 0.0013682531 
   93300    15.564959  -0.37787967            0  -0.33706665 0.0046560492 
   93400     15.70859  -0.37831308            0  -0.33712345 0.0046679366 
   93500     15.66524  -0.37825955            0  -0.33718358 0.0057392006 
   93600    15.511408  -0.37773691            0  -0.33706431 0.0062453165 
   93700     15.32797  -0.37741294            0  -0.33722133 0.0052358517 
   93800    15.414875  -0.37762914            0  -0.33720966 0.0011456395 
   93900    15.325495   -0.3773838            0  -0.33719868  0.003376263 
   94000    15.297206   -0.3773482            0  -0.33723726 0.0021488418 
   94100    15.314022  -0.37746741            0  -0.33731238 0.0017492139 
   94200    15.327035  -0.37745086            0  -0.33726171 0.0061348397 
   94300    15.475477  -0.37780383            0  -0.33722545 0.0021782255 
   94400    15.389345  -0.37755237            0  -0.33719983 0.0058957318 
   94500    15.442122  -0.37771486            0  -0.33722394  0.004096363 
   94600    15.389009  -0.37745448            0  -0.33710283 0.0061075155 
   94700    15.395031  -0.37757583            0  -0.33720839 0.00053547762 
   94800    15.294616  -0.37737051            0  -0.33726636 0.0013117264 
   94900    15.204877  -0.37720808            0  -0.33733924 0.0040449724 
   95000    15.303989  -0.37741794            0  -0.33728922 0.0014372527 
   95100    15.319607  -0.37753382            0  -0.33736414 -0.00093717982 
   95200     15.37369  -0.37769874            0  -0.33738725 0.0012427301 
   95300    15.349804  -0.37758548            0  -0.33733663 0.0070098129 
   95400    15.526895  -0.37800477            0  -0.33729157 0.0033387298 
   95500    15.581982  -0.37804404            0  -0.33718639 0.0034630346 
   95600    15.515744  -0.37777599            0  -0.33709203 0.0033614042 
   95700    15.532777  -0.37774475            0  -0.33701612 -0.00070235389 
   95800     15.34211  -0.37725465            0  -0.33702597 0.0045207247 
   95900    15.541448    -0.377641            0  -0.33688963 0.0027016169 
   96000    15.463778  -0.37762938            0  -0.33708167 0.0041921993 
   96100    15.522461  -0.37779247            0  -0.33709089 0.0027354925 
   96200    15.481639  -0.37767666            0  -0.33708212 0.0027985563 
   96300    15.272917   -0.3773353            0  -0.33728805 0.0072979839 
   96400    15.317863  -0.37736594            0  -0.33720084 0.00077994003 
   96500    15.100579    -0.376857            0  -0.33726164 0.0037187351 
   96600    15.157765  -0.37699521            0   -0.3372499 0.0033605465 
   96700    15.243585   -0.3772496            0  -0.33727927 0.0025150516 
   96800    15.255273  -0.37727648            0   -0.3372755 0.0022336296 
   96900    15.370031  -0.37751871            0  -0.33721682 0.0020685071 
   97000    15.262472  -0.37719602            0  -0.33717616 0.0055685025 
   97100    15.131182  -0.37685678            0  -0.33718117 0.0039403656 
   97200    14.998684  -0.37654675            0  -0.33721857 -0.00015041819 
   97300    15.053847  -0.37658864            0  -0.33711581 -0.00019758954 
   97400    15.100868  -0.37676507            0  -0.33716895 0.0029297216 
   97500     15.29499  -0.37719211            0  -0.33708698  0.004217205 
   97600    15.266381  -0.37730459            0  -0.33727448 0.0086302141 
   97700    15.301829  -0.37732417            0  -0.33720112 0.0029031488 
   97800    15.299795  -0.37725956            0  -0.33714183 -0.0014146432 
   97900    15.206456  -0.37718791            0  -0.33731493 0.0034430849 
   98000    15.294406  -0.37734645            0  -0.33724285 0.0050373594 
   98100    15.378447  -0.37761532            0  -0.33729136 0.0020638218 
   98200    15.186259  -0.37720019            0  -0.33738016 0.0054707984 
   98300    15.315726  -0.37747627            0  -0.33731677 0.00057634329 
   98400    15.113238  -0.37704692            0  -0.33741836 0.0054358817 
   98500    15.181316  -0.37711822            0  -0.33731116 0.0024849236 
   98600    15.294256  -0.37740137            0  -0.33729817 0.00051860462 
   98700    15.241122  -0.37727562            0  -0.33731174 0.0058557548 
   98800    15.430157  -0.37768226            0  -0.33722271 0.00068534572 
   98900    15.361712  -0.37756608            0    -0.337286 0.0026836599 
   99000     15.56128  -0.37795773            0  -0.33715436 0.0032872371 
   99100    15.618597  -0.37814795            0  -0.33719429 0.0064216402 
   99200    15.666662  -0.37828269            0  -0.33720299 0.0067664093 
   99300    15.662119  -0.37821567            0   -0.3371479 0.0061115668 
   99400    15.530244  -0.37793301            0  -0.33721102 0.0051426427 
   99500     15.54784   -0.3779361            0  -0.33716797 0.0011849621 
   99600    15.290934  -0.37737621            0  -0.33728172  0.003174417 
   99700    15.363949  -0.37746618            0  -0.33718023 -0.0012893372 
   99800    15.328102  -0.37730916            0  -0.33711721 0.0016642955 
   99900    15.395572  -0.37736582            0  -0.33699695 0.0046342453 
[...]
  475400    18.679935  -0.38503002            0   -0.3360492 0.0086731745 
  475500    18.683914  -0.38495721            0  -0.33596595 0.0011649408 
  475600    18.664415  -0.38492694            0  -0.33598682 0.00054013347 
  475700     18.60987  -0.38494249            0  -0.33614539 0.0038641609 
  475800    18.826622  -0.38549054            0  -0.33612509 0.0026971775 
  475900    18.750414  -0.38533204            0  -0.33616642 0.0094927295 
  476000    18.900122  -0.38591646            0  -0.33635828 0.0049779538 
  476100    18.868548  -0.38568327            0  -0.33620788 0.0037453169 
  476200    18.695413  -0.38527136            0  -0.33624995 0.0067194661 
  476300    18.605655  -0.38503161            0  -0.33624556 0.0053631578 
  476400    18.561038  -0.38474895            0  -0.33607989 0.0053072568 
  476500    18.731571  -0.38520712            0  -0.33609091 0.0019266805 
  476600    18.764786  -0.38520268            0  -0.33599937 0.0040602621 
  476700    18.854011  -0.38530796            0   -0.3358707 0.0015678491 
  476800    18.783326  -0.38512028            0  -0.33586836 0.0010048939 
  476900    18.603358   -0.3847991            0  -0.33601907 0.0037306079 
  477000    18.701311  -0.38500901            0  -0.33597214  0.006076224 
  477100    18.782526  -0.38514004            0  -0.33589022 0.0011615255 
  477200    18.687674  -0.38489984            0  -0.33589873 0.0028380967 
  477300    18.755081  -0.38497433            0  -0.33579647 0.0017937514 
  477400    18.772619  -0.38497903            0  -0.33575518 0.0029994262 
  477500    18.734329  -0.38484152            0  -0.33571807 0.0073228445 
  477600      18.9373  -0.38530664            0  -0.33565098 0.0041735221 
  477700     19.05035   -0.3853768            0  -0.33542471 -2.0400436e-06 
  477800    18.886177  -0.38519352            0  -0.33567191 0.0055979531 
  477900    18.856656  -0.38517884            0  -0.33573464 0.0067098854 
  478000     18.80216    -0.385267            0  -0.33596569 0.00052243661 
  478100    18.688467  -0.38510757            0  -0.33610437 0.0030106576 
  478200    18.601049  -0.38493828            0  -0.33616431 0.0054353323 
  478300    18.593347  -0.38494098            0   -0.3361872 -0.00070006038 
  478400    18.478042  -0.38462879            0  -0.33617736 0.0023658312 
  478500    18.568228  -0.38481147            0  -0.33612356 -0.0014716216 
  478600    18.561832  -0.38467003            0  -0.33599889 0.0021298498 
  478700    18.670325  -0.38502312            0  -0.33606749 0.0065527596 
  478800    18.774063  -0.38531654            0   -0.3360889 0.0041012685 
  478900     18.69693  -0.38501349            0  -0.33598811  0.005387833 
  479000    18.612752  -0.38483774            0  -0.33603308 0.0044858456 
  479100    18.595811  -0.38476142            0  -0.33600118 -0.0026256878 
  479200    18.369629   -0.3843291            0  -0.33616193 0.0048232385 
  479300    18.577081  -0.38481208            0  -0.33610095 0.0044729904 
  479400    18.508182  -0.38461942            0  -0.33608895 0.0064959099 
  479500    18.597084  -0.38482813            0  -0.33606456 0.0012132303 
  479600    18.545219  -0.38454821            0  -0.33592063  0.001113923 
  479700     18.57362  -0.38465714            0  -0.33595509 0.0026368088 
  479800    18.654925  -0.38506337            0  -0.33614813 0.0050648522 
  479900    18.768972   -0.3852181            0  -0.33600381 0.0057710164 
  480000    18.590801  -0.38484232            0  -0.33609522 0.0061155916 
  480100    18.490025    -0.384745            0  -0.33626214 0.0035488732 
  480200    18.442675  -0.38456992            0  -0.33621122 0.00098330842 
  480300    18.537596  -0.38477157            0  -0.33616398 0.00048173141 
  480400    18.617904  -0.38483713            0  -0.33601896 0.0041990445 
  480500    18.789349  -0.38528044            0  -0.33601272 0.0022605966 
  480600    18.774078  -0.38503595            0  -0.33580828 0.0062925362 
  480700    18.889619  -0.38534333            0   -0.3358127 0.0019491049 
  480800     18.77184  -0.38512565            0  -0.33590385 0.0078623687 
  480900    18.808409  -0.38522978            0  -0.33591209 0.0041600785 
  481000    18.662205  -0.38487457            0  -0.33594024 0.0023625157 
  481100    18.690965  -0.38503218            0  -0.33602244 0.0013909466 
  481200    18.875138  -0.38561337            0   -0.3361207 0.0020380899 
  481300    18.820336  -0.38542584            0  -0.33607688 0.0068185449 
  481400    18.683449   -0.3849395            0  -0.33594946 0.0056417919 
  481500    18.663676  -0.38501867            0  -0.33608048 0.0025479914 
  481600    18.763011  -0.38511788            0  -0.33591922 0.0010325803 
  481700    18.680869  -0.38488488            0  -0.33590161 0.0069068046 
  481800    18.665129  -0.38476254            0  -0.33582054 0.0026617921 
  481900    18.660284   -0.3847393            0  -0.33581001 0.0021036963 
  482000     18.56747  -0.38480453            0  -0.33611861 0.0083089364 
  482100    18.903611  -0.38555631            0  -0.33598899 0.0012682784 
  482200    18.829293  -0.38541044            0  -0.33603799 0.0042925808 
  482300    18.866096  -0.38535908            0  -0.33589013 0.0048070397 
  482400    18.803917  -0.38524909            0  -0.33594317 0.0053669542 
  482500    18.904339  -0.38531597            0  -0.33574674  0.002309821 
  482600    18.946811  -0.38531851            0  -0.33563791 0.0032098003 
  482700     18.78516    -0.384971            0  -0.33571427 0.0076288264 
  482800    18.766313   -0.3846741            0  -0.33546679 0.0049852587 
  482900    18.678316  -0.38472302            0  -0.33574644 0.0035684131 
  483000    18.723236  -0.38464662            0  -0.33555226 -0.00031370043 
  483100     18.45107  -0.38433576            0  -0.33595505 0.0048608457 
  483200    18.518399  -0.38432773            0  -0.33577048 0.0059005394 
  483300    18.294344  -0.38390819            0  -0.33593843 0.0052769323 
  483400    18.408042  -0.38430067            0  -0.33603278 -0.002868131 
  483500    18.451257  -0.38446008            0  -0.33607887  0.004180756 
  483600    18.634485   -0.3850286            0  -0.33616695  0.007485026 
  483700    18.571292  -0.38479605            0  -0.33610011 0.0068335375 
  483800    18.613824  -0.38493474            0  -0.33612727 -0.0011318115 
  483900     18.38568  -0.38418666            0   -0.3359774 0.0056952004 
  484000    18.432274   -0.3844219            0  -0.33609047 0.0036212556 
  484100    18.431143  -0.38428505            0  -0.33595659 0.0030154963 
  484200     18.38888  -0.38418662            0  -0.33596897 0.0051558257 
  484300    18.491181  -0.38438414            0  -0.33589825 0.00084454055 
  484400    18.314438  -0.38397565            0  -0.33595321 0.0042881518 
  484500     18.60648  -0.38440805            0  -0.33561983 -0.0012343394 
  484600    18.368361  -0.38382869            0  -0.33566485  0.011876474 
  484700    18.714573  -0.38491119            0  -0.33583955  0.010243396 
  484800    18.789977  -0.38509779            0  -0.33582842 0.0069225187 
  484900    18.555755  -0.38464908            0  -0.33599387 0.0029104602 
  485000    18.248617  -0.38391244            0  -0.33606258 0.0016260995 
  485100    18.101193  -0.38376635            0  -0.33630306 0.0011889142 
  485200    18.286197  -0.38411453            0  -0.33616613 0.0022458637 
  485300    18.272405  -0.38400996            0  -0.33609773 0.0031772236 
  485400    18.365562  -0.38430111            0  -0.33614461 0.00044926706 
  485500    18.404602  -0.38430917            0   -0.3360503 0.0030409937 
  485600    18.208686  -0.38382756            0   -0.3360824  0.009417192 
  485700    18.340405  -0.38427424            0   -0.3361837 0.0012087119 
  485800    18.196912  -0.38392994            0  -0.33621566 0.0038956519 
  485900     18.21635  -0.38386927            0  -0.33610402 0.0045438345 
  486000    18.168275  -0.38371638            0  -0.33607718 0.0079210056 
  486100     18.22104  -0.38392923            0  -0.33615168 0.0062854761 
  486200    18.282824  -0.38396115            0  -0.33602159 0.0014473752 
  486300     18.36584  -0.38404326            0  -0.33588603 -0.00027217618 
  486400    18.448006  -0.38412651            0  -0.33575383 0.0072738923 
  486500    18.537406  -0.38419085            0  -0.33558376  0.004111825 
  486600    18.390689  -0.38385687            0  -0.33563448 -0.0017583341 
  486700    18.229263  -0.38343859            0  -0.33563948 0.0055111482 
  486800    18.545617  -0.38419704            0  -0.33556841 0.0088616932 
  486900    18.712207  -0.38471389            0  -0.33564845 0.0061322298 
  487000    18.569599  -0.38457443            0  -0.33588292 0.0023747884 
  487100    18.354245  -0.38398265            0  -0.33585583 0.0058037614 
  487200    18.420009  -0.38421681            0  -0.33591754 0.00077310311 
  487300    18.228351  -0.38372743            0  -0.33593071 0.0042863983 
  487400    18.252434  -0.38381549            0  -0.33595562 0.0045001404 
  487500    18.385559  -0.38403406            0  -0.33582512 0.0069636425 
  487600    18.349848  -0.38403696            0  -0.33592166 0.0058002673 
  487700    18.397798  -0.38405296            0  -0.33581193 0.0010881115 
  487800    18.310374  -0.38385812            0  -0.33584633  0.004520103 
  487900    18.413602  -0.38400854            0  -0.33572607 0.0015087521 
  488000    18.237297  -0.38362077            0   -0.3358006  0.001960467 
  488100    18.205373  -0.38344743            0  -0.33571096 0.0023095072 
  488200    18.253098  -0.38342158            0  -0.33555997 0.0043888819 
  488300    18.336447  -0.38362731            0  -0.33554716  0.004063542 
  488400     18.55231    -0.384118            0  -0.33547183 0.0028057458 
  488500    18.596989  -0.38412832            0  -0.33536499 0.0011761459 
  488600    18.537237  -0.38394691            0  -0.33534026 0.0029096812 
  488700    18.572094  -0.38408771            0  -0.33538966 0.0067353824 
  488800    18.567226  -0.38415246            0  -0.33546717  0.003285963 
  488900    18.567992   -0.3840729            0  -0.33538561 0.0021057073 
  489000    18.499659   -0.3841064            0  -0.33559828 0.0059608447 
  489100    18.310426  -0.38368644            0  -0.33567452 0.0067480155 
  489200    18.452203   -0.3841869            0  -0.33580321 -0.0006475632 
  489300    18.408272  -0.38399504            0  -0.33572655 0.0044428439 
  489400    18.374098  -0.38404691            0  -0.33586803 0.0047621883 
  489500    18.370563  -0.38395639            0  -0.33578678 0.0033151935 
  489600    18.462391  -0.38433712            0  -0.33592672 0.0022560977 
  489700    18.394296   -0.3842144            0  -0.33598256 0.0074501384 
  489800    18.335856  -0.38397084            0  -0.33589223 0.0058734038 
  489900    18.381281  -0.38409946            0  -0.33590174 0.00023848968 
  490000    18.196102   -0.3835137            0  -0.33580154 0.0035044533 
  490100    18.110631  -0.38326267            0  -0.33577463  0.004735122 
  490200    18.242455   -0.3835478            0   -0.3357141 0.00031251426 
  490300    18.317275  -0.38367037            0  -0.33564049 0.0032294468 
  490400    18.349769  -0.38367335            0  -0.33555826 0.0051497978 
  490500    18.451263  -0.38390372            0  -0.33552251 0.0023190403 
  490600    18.372284  -0.38375459            0  -0.33558047 0.0041219872 
  490700    18.295496  -0.38350829            0  -0.33553551  0.002919175 
  490800    18.157954  -0.38334378            0  -0.33573165 0.0033062449 
  490900     18.26399  -0.38331215            0  -0.33542198 0.0029775388 
  491000    18.075348  -0.38295399            0  -0.33555846 0.0073806608 
  491100    18.212084   -0.3834424            0  -0.33568834 0.00042592905 
  491200    18.051193  -0.38308168            0  -0.33574949  0.004144329 
  491300    18.080802  -0.38325854            0  -0.33584872 0.00045545732 
  491400    18.190052  -0.38369567            0  -0.33599938 0.0038397419 
  491500    18.106111  -0.38350082            0  -0.33602463  0.009610801 
  491600    18.043361  -0.38327346            0  -0.33596181 0.0026225698 
  491700    18.111719  -0.38345363            0  -0.33596273 -0.0015109187 
  491800    18.153424  -0.38358627            0  -0.33598602 0.0064852877 
  491900    18.459603  -0.38422528            0   -0.3358222 0.0031446216 
  492000    18.501855  -0.38431737            0   -0.3358035 0.0033695249 
  492100    18.350503  -0.38384366            0  -0.33572664 0.0055220023 
  492200     18.37165  -0.38388171            0  -0.33570925 -0.00075849601 
  492300    18.311489  -0.38390217            0  -0.33588745 0.0014244133 
  492400    18.525908  -0.38423674            0   -0.3356598 0.0090934468 
  492500    18.711615  -0.38483653            0  -0.33577264 0.0059726848 
  492600    18.823844  -0.38496172            0  -0.33560355 0.00023513038 
  492700    18.850725   -0.3850165            0  -0.33558785 0.0046340502 
  492800    18.911033  -0.38480142            0  -0.33521463 0.0063815823 
  492900     19.00384  -0.38519928            0  -0.33536914 0.0020974339 
  493000    18.900969  -0.38482423            0  -0.33526383 0.0083491085 
  493100    18.850945   -0.3848647            0  -0.33543547 0.0047292601 
  493200    18.764554  -0.38459304            0  -0.33539034 -0.0010080477 
  493300    18.601955  -0.38443743            0  -0.33566108 0.0043802466 
  493400    18.618606  -0.38448788            0  -0.33566787 0.0064176383 
  493500    18.553707  -0.38437376            0  -0.33572392 -0.00094500507 
  493600    18.301019  -0.38372719            0  -0.33573993 -3.9157507e-06 
  493700    18.460804  -0.38414173            0   -0.3357355 0.0016914758 
  493800    18.342389  -0.38394753            0  -0.33585179 0.0080419591 
  493900    18.404565  -0.38389642            0  -0.33563765 0.0027477914 
  494000    18.391196  -0.38374943            0  -0.33552572 0.0024977444 
  494100    18.374301  -0.38386229            0  -0.33568287 0.0065393771 
  494200    18.563264  -0.38423527            0  -0.33556037 0.0049507876 
  494300    18.676891  -0.38463538            0  -0.33566254 0.0018957108 
  494400    18.468619  -0.38417011            0  -0.33574338 0.0050926636 
  494500    18.178311  -0.38337814            0  -0.33571263  0.009857587 
  494600    18.205642   -0.3834125            0  -0.33567533 0.0045761724 
  494700    18.298373  -0.38364063            0  -0.33566031 -0.00022128205 
  494800    18.130897  -0.38327158            0   -0.3357304 0.0068840495 
  494900    18.197699   -0.3833105            0  -0.33559415 0.0050689969 
  495000    18.210268  -0.38347917            0  -0.33572987 -0.00063405635 
  495100    18.301348  -0.38380951            0  -0.33582139 -0.0010955066 
  495200    18.254588  -0.38368792            0  -0.33582241 0.0093306053 
  495300    18.547687  -0.38434647            0  -0.33571242 0.0014035946 
  495400    18.357149  -0.38396389            0  -0.33582945 -0.00019137832 
  495500    18.171219  -0.38339368            0  -0.33574677  0.005868897 
  495600    18.384904  -0.38386419            0  -0.33565697 0.0021416463 
  495700    18.474024  -0.38413076            0  -0.33568986 0.00011182783 
  495800    18.272176  -0.38364846            0  -0.33573683 0.0069620345 
  495900    18.156265  -0.38338369            0  -0.33577599 0.0057630345 
  496000     18.31894  -0.38366468            0  -0.33563042 0.0045447368 
  496100     18.16682  -0.38334624            0  -0.33571087 0.0089463455 
  496200    18.335606  -0.38375687            0  -0.33567892 0.00096588555 
  496300    18.251319  -0.38354073            0  -0.33568379 0.0052939668 
  496400    18.454583  -0.38404265            0  -0.33565273  0.004184162 
  496500    18.534857   -0.3842605            0  -0.33566009 0.0057186264 
  496600     18.52738  -0.38407012            0  -0.33548931 0.0030397202 
  496700    18.319871  -0.38345416            0  -0.33541747 0.0028898834 
  496800    18.344714  -0.38378025            0  -0.33567841 0.0010401937 
  496900    18.371679  -0.38393668            0  -0.33576413 0.0053734997 
  497000    18.509105  -0.38431242            0  -0.33577954 0.0040210046 
  497100    18.344289  -0.38397854            0  -0.33587782 0.0048127744 
  497200    18.297669  -0.38394356            0  -0.33596508 0.0014233786 
  497300    18.129664  -0.38350927            0  -0.33597132 0.0029874556 
  497400    18.216325  -0.38354032            0  -0.33577514 0.0024922098 
  497500     18.22304  -0.38387371            0  -0.33609092 0.0067306158 
  497600     18.41673   -0.3840768            0  -0.33578613 0.0059236964 
  497700    18.322991  -0.38381885            0  -0.33577397 0.0045207605 
  497800    17.934319  -0.38306089            0  -0.33603516 0.0046428797 
  497900    17.956982   -0.3829926            0  -0.33590744 0.0042975615 
  498000    18.139088  -0.38341311            0  -0.33585045 0.0033949417 
  498100    18.133986  -0.38342194            0  -0.33587266 0.0022355415 
  498200    18.183822  -0.38354394            0  -0.33586398 0.0031590378 
  498300    18.172826  -0.38354827            0  -0.33589714 0.0027096574 
  498400    18.120231  -0.38337547            0  -0.33586226 0.0011139674 
  498500    18.237303  -0.38365158            0  -0.33583139 0.0010562846 
  498600    18.190514  -0.38363016            0  -0.33593265 0.0076291161 
  498700    18.364808  -0.38415442            0  -0.33599989 0.0012070739 
  498800    18.197334   -0.3836372            0  -0.33592181  0.004309716 
  498900    18.243784  -0.38386402            0  -0.33602683 0.0020041881 
  499000    18.214318  -0.38390482            0   -0.3361449 0.0033740188 
  499100    18.147084  -0.38361801            0  -0.33603438 0.0059705164 
  499200     18.38637  -0.38426958            0  -0.33605852 -0.00050980157 
  499300    18.115105  -0.38350255            0  -0.33600277  0.010578141 
  499400    18.388694  -0.38420985            0  -0.33599269 -0.00068351926 
  499500    18.278435    -0.383873            0  -0.33594496 0.0052321059 
  499600    18.381059  -0.38413541            0  -0.33593828  0.010584807 
  499700    18.249265  -0.38402399            0  -0.33617243 0.0066436099 
  499800    18.262797  -0.38393458            0  -0.33604754 -0.0020403014 
  499900    18.255467  -0.38391402            0   -0.3360462 0.0031068193 
  500000    18.200025  -0.38376536            0  -0.33604292 0.0031717452 
Loop time of 7154.14 on 64 procs for 500000 steps with 585216 atoms

Performance: 30192.310 tau/day, 69.890 timesteps/s
99.2% CPU use with 64 MPI tasks x 1 OpenMP threads

MPI task timing breakdown:
Section |  min time  |  avg time  |  max time  |%varavg| %total
---------------------------------------------------------------
Pair    | 1176.2     | 2045.5     | 4241.8     |1621.2 | 28.59
Bond    | 0.0688     | 0.12219    | 0.22846    |  11.1 |  0.00
Neigh   | 172        | 287.03     | 543.79     | 494.0 |  4.01
Comm    | 1539.9     | 3920.7     | 4898.1     |1281.6 | 54.80
Output  | 228.37     | 229.28     | 229.73     |   2.1 |  3.20
Modify  | 421.44     | 492.68     | 575.92     | 190.3 |  6.89
Other   |            | 178.8      |            |       |  2.50

Nlocal:        9144.00 ave       13329 max        4434 min
Histogram: 3 3 4 9 11 6 10 10 3 5
Nghost:        12463.4 ave       18888 max        6377 min
Histogram: 2 5 4 15 11 4 11 2 8 2
Neighs:       282356.0 ave      413888 max      133881 min
Histogram: 3 3 5 9 9 6 12 8 4 5

Total # of neighbors = 18070806
Ave neighs/atom = 30.878865
Ave special neighs/atom = 0.0000000
Neighbor list builds = 16204
Dangerous builds = 0
System init for write_data ...
WARNING: Not all mixed pair coeffs generated from mixing. Use write_data with 'pair ij' option to store all pair coeffs. (src/write_data.cpp:312)
Total wall time: 1:59:26
