LAMMPS (24 Dec 2020)
OMP_NUM_THREADS environment is not set. Defaulting to 1 thread. (src/comm.cpp:94)
  using 1 OpenMP thread(s) per MPI task
#Read the equilibrated lj fluid and add nanocubes

units           lj
atom_style      full
#atom_modify     map array first cubes
dimension       3
boundary        p p f
pair_style      lj/cut/opt 2.5

variable        sigma           equal 1.0
variable        epsilon         equal 1.0

read_restart	restart.dat.1000000
Reading restart file ...
  restart file = 24 Dec 2020, LAMMPS = 24 Dec 2020
  restoring atom style full from restart
  orthogonal box = (0.0000000 0.0000000 0.0000000) to (160.00000 160.00000 320.00000)
  5 by 4 by 12 MPI processor grid
  restoring pair style lj/cut/opt from restart
  4233413 atoms
Finding 1-2 1-3 1-4 neighbors ...
  special bond factors lj:    0        0        0       
  special bond factors coul:  0        0        0       
     0 = max # of 1-2 neighbors
     0 = max # of 1-3 neighbors
     0 = max # of 1-4 neighbors
     1 = max # of special neighbors
  special bonds CPU = 1.919 seconds
  read_restart CPU = 3.650 seconds

neighbor      0.4 bin
neigh_modify  exclude molecule/intra cubes


pair_modify   shift yes

pair_coeff    1 1 1.0 1.0 #solvent
pair_coeff    2 2 0.6 1.0 #np
pair_coeff    3 3 0.0 0.0 0.0 #dummy
pair_coeff    2 3 0.0 0.0 0.0 #np dummy
pair_coeff    1 2 0.8 1.0 #np solvent
pair_coeff    1 3 0.0 0.0 0.0 #dummy solvent


comm_modify   mode multi cutoff/multi 1 2.5 cutoff/multi 2 2.5 cutoff/multi 3 6.95

reset_timestep 	0

balance 	1.05 shift z 10 1.05
Balancing ...
Unused restart file global fix info:
  fix style: STORE, fix ID: msd_COMPUTE_STORE
Neighbor list info ...
  update every 1 steps, delay 10 steps, check yes
  max neighbors/atom: 2000, page size: 100000
  master list distance cutoff = 2.9
  ghost atom cutoff = 6.95
  binsize = 1.45, bins = 111 111 221
  1 neighbor lists, perpetual/occasional/extra = 1 0 0
  (1) pair lj/cut/opt, perpetual
      attributes: half, newton on
      pair build: half/bin/newton
      stencil: half/bin/3d/newton
      bin: standard
 rebalancing time: 0.066 seconds
  iteration count = 4
  initial/final maximal load/proc = 30442.000 25144.000
  initial/final imbalance factor  = 1.7258132 1.4254598
  x cuts: 0.0000000 0.20000000 0.40000000 0.60000000 0.80000000 1.0000000
  y cuts: 0.0000000 0.25000000 0.50000000 0.75000000 1.0000000
  z cuts: 0.0000000 0.057291667 0.10937500 0.15625000 0.21875000 0.26041667 0.32812500 0.38020833 0.43229167 0.47916667 0.52083333 0.60416667 1.0000000

####################### WALLS ###########################

variable       epsilonWall equal 2*${epsilon}
variable       epsilonWall equal 2*1

variable       cutoffTop   equal   0.7147*${sigma}
variable       cutoffTop   equal   0.7147*1

variable       cutoffLow   equal   3*${sigma}
variable       cutoffLow   equal   3*1

region         lowWall block EDGE EDGE EDGE EDGE EDGE 2


fix            topWall all wall/lj93 zhi EDGE 	       ${epsilonWall} ${sigma} ${cutoffTop} units box
fix            topWall all wall/lj93 zhi EDGE 	       2 ${sigma} ${cutoffTop} units box
fix            topWall all wall/lj93 zhi EDGE 	       2 1 ${cutoffTop} units box
fix            topWall all wall/lj93 zhi EDGE 	       2 1 0.7147 units box

fix            lowWall all wall/lj93 zlo EDGE                ${epsilonWall} ${sigma} ${cutoffLow} units box
fix            lowWall all wall/lj93 zlo EDGE                2 ${sigma} ${cutoffLow} units box
fix            lowWall all wall/lj93 zlo EDGE                2 1 ${cutoffLow} units box
fix            lowWall all wall/lj93 zlo EDGE                2 1 3 units box


######################  FIXES ############################


fix             1 cubes rigid/nve/small molecule #temp 1.0 1.0 0.25
  create bodies CPU = 0.028 seconds
  512 rigid bodies with 585216 atoms
  6.9282032 = max distance from body owner to body atom

fix             2 solvent nve


## Thermostat

region          regthermo block EDGE EDGE EDGE EDGE 0 20
group           thermo dynamic solvent region regthermo every 1000
dynamic group thermo defined
fix             3 thermo langevin ${startTemp} ${temp} 0.1 156453
fix             3 thermo langevin 0.8 ${temp} 0.1 156453
fix             3 thermo langevin 0.8 0.8 0.1 156453


## Evaporation

region		regevap block EDGE EDGE EDGE EDGE 140 EDGE
fix 		evap solvent evaporate ${Nevap} 1 regevap 156455
fix 		evap solvent evaporate 15 1 regevap 156455


## Load balancing

fix             bal all balance 1000 1.05 shift z 10 1.05


############### Diagnostics and computes ###################

compute        com cubes          rigid/local   1 mol x y z
compute        quat cubes         rigid/local   1 mol quatw quati quatj quatk
compute 	cc2 cubes chunk/atom molecule

compute 	msd cubes msd/chunk cc2


thermo          1000
thermo_style    custom step temp epair evdwl etotal press pe ke vol


dump            1 all custom 100000 dump.lammpstrj id mol type x y z
dump            2 all image 10000 image.*.png type type
dump_modify     2 pad 8


dump		image cubes image 10000 image_cubes.*.png type type
dump_modify	image pad 8


dump            3 all movie 5000 movie.avi type type
dump           com cubes local 1000 dump.*.xyz c_com[*]
dump           quat cubes      local 1000 dump.*.quat c_quat[*]


restart         1000000 restart.dat
timestep        0.005
timer           full
New timer settings: style=full  mode=nosync  timeout=off

run            10000000
Per MPI rank memory allocation (min/avg/max) = 43.08 | 54.57 | 59.51 Mbytes
Step Temp E_pair E_vdwl TotEng Press PotEng KinEng Volume 
       0   0.79763102   -3.8689716   -3.8689716   -2.8376296  0.023395161   -3.8689716     1.031342      8192000 
    1000   0.79714889   -3.8684928   -3.8684928   -2.8377581  0.026810293   -3.8684928    1.0307347      8192000 
    2000   0.79708639   -3.8682978   -3.8682978   -2.8376277  0.028187745   -3.8682978    1.0306702      8192000 
    3000   0.79752217   -3.8683962   -3.8683962   -2.8371462  0.023513649   -3.8683962      1.03125      8192000 
    4000   0.79698746    -3.867664    -3.867664   -2.8370894   0.02651616    -3.867664    1.0305746      8192000 
    5000   0.79725057   -3.8679016   -3.8679016   -2.8369704  0.023767612   -3.8679016    1.0309312      8192000 
    6000   0.79674957   -3.8673598   -3.8673598   -2.8370602  0.025870535   -3.8673598    1.0302996      8192000 
    7000    0.7971234    -3.867323    -3.867323   -2.8365239  0.024767751    -3.867323    1.0307991      8192000 
    8000    0.7970783   -3.8674832   -3.8674832   -2.8367261    0.0258477   -3.8674832    1.0307571      8192000 
    9000   0.79709169   -3.8672972   -3.8672972   -2.8365065  0.026686846   -3.8672972    1.0307907      8192000 
   10000   0.79726948   -3.8674653   -3.8674653   -2.8364286  0.027216947   -3.8674653    1.0310367      8192000 
   11000   0.79749558   -3.8675618   -3.8675618   -2.8362164  0.025796336   -3.8675618    1.0313454      8192000 
   12000   0.79758167    -3.867837    -3.867837   -2.8363639  0.024469742    -3.867837    1.0314731      8192000 
   13000   0.79661391   -3.8662574   -3.8662574   -2.8360198  0.026703662   -3.8662574    1.0302376      8192000 
   14000   0.79673697   -3.8666005   -3.8666005   -2.8361874  0.025873678   -3.8666005    1.0304131      8192000 
   15000   0.79658369   -3.8665728   -3.8665728   -2.8363417  0.026348403   -3.8665728    1.0302311      8192000 
   16000   0.79704711   -3.8666083   -3.8666083   -2.8357617  0.025118364   -3.8666083    1.0308466      8192000 
   17000   0.79700193    -3.866792    -3.866792   -2.8359875  0.024696141    -3.866792    1.0308045      8192000 
   18000    0.7970043   -3.8666253   -3.8666253   -2.8358014  0.029345922   -3.8666253    1.0308238      8192000 
   19000   0.79705732   -3.8666223   -3.8666223   -2.8357138  0.027873685   -3.8666223    1.0309085      8192000 
   20000   0.79699894   -3.8668291   -3.8668291   -2.8359798  0.026781659   -3.8668291    1.0308493      8192000 
   21000   0.79754958   -3.8669708   -3.8669708   -2.8353929  0.026301969   -3.8669708    1.0315778      8192000 
   22000   0.79717628   -3.8665783   -3.8665783   -2.8354672  0.027127944   -3.8665783    1.0311111      8192000 
   23000   0.79706323   -3.8661628   -3.8661628   -2.8351816  0.030871657   -3.8661628    1.0309812      8192000 
   24000   0.79699637   -3.8664484   -3.8664484   -2.8355374  0.029429684   -3.8664484     1.030911      8192000 
   25000   0.79756368   -3.8670924   -3.8670924   -2.8354314  0.028218459   -3.8670924    1.0316609      8192000 
   26000   0.79726952   -3.8669044   -3.8669044   -2.8356076  0.028981903   -3.8669044    1.0312968      8192000 
   27000   0.79743321   -3.8666371   -3.8666371   -2.8351123  0.027963982   -3.8666371    1.0315248      8192000 
   28000   0.79786133   -3.8670154   -3.8670154   -2.8349207  0.028047281   -3.8670154    1.0320947      8192000 
   29000   0.79732453   -3.8663245   -3.8663245   -2.8349079   0.03036883   -3.8663245    1.0314166      8192000 
   30000   0.79734615   -3.8664815   -3.8664815   -2.8350205  0.026021487   -3.8664815    1.0314609      8192000 
   31000   0.79720432   -3.8662151   -3.8662151   -2.8349215  0.030583782   -3.8662151    1.0312936      8192000 
   32000   0.79743985   -3.8663599   -3.8663599   -2.8347453  0.031236585   -3.8663599    1.0316146      8192000 
   33000    0.7974954   -3.8659694   -3.8659694   -2.8342666  0.031478424   -3.8659694    1.0317028      8192000 
   34000   0.79824686   -3.8670863   -3.8670863   -2.8343952   0.02876824   -3.8670863     1.032691      8192000 
   35000   0.79708793   -3.8660975   -3.8660975   -2.8348895   0.02779891   -3.8660975    1.0312081      8192000 
   36000   0.79710238   -3.8659273   -3.8659273   -2.8346842  0.027183735   -3.8659273    1.0312431      8192000 
   37000   0.79687427     -3.86589     -3.86589   -2.8349259  0.027641169     -3.86589    1.0309641      8192000 
   38000   0.79705273   -3.8658257   -3.8658257   -2.8346145  0.027340235   -3.8658257    1.0312113      8192000 
   39000   0.79685656   -3.8651045   -3.8651045   -2.8341307  0.027090689   -3.8651045    1.0309738      8192000 
   40000   0.79675468   -3.8654971   -3.8654971   -2.8346391  0.025277726   -3.8654971    1.0308581      8192000 
   41000    0.7965919   -3.8649507   -3.8649507   -2.8342869  0.025012124   -3.8649507    1.0306638      8192000 
   42000   0.79655028   -3.8650601   -3.8650601   -2.8344339  0.023845868   -3.8650601    1.0306262      8192000 
   43000    0.7966138   -3.8650815   -3.8650815    -2.834357  0.028386002   -3.8650815    1.0307245      8192000 
   44000   0.79703579   -3.8655495   -3.8655495   -2.8342627  0.029099396   -3.8655495    1.0312869      8192000 
   45000   0.79716102   -3.8656232   -3.8656232   -2.8341579  0.026971414   -3.8656232    1.0314652      8192000 
   46000   0.79721081   -3.8656101   -3.8656101   -2.8340644  0.025324626   -3.8656101    1.0315457      8192000 
   47000   0.79704471   -3.8653347   -3.8653347   -2.8339876  0.026000754   -3.8653347    1.0313472      8192000 
   48000   0.79700348   -3.8654545   -3.8654545   -2.8341443  0.026822064   -3.8654545    1.0313101      8192000 
   49000   0.79734961   -3.8656267   -3.8656267   -2.8338526  0.026773215   -3.8656267    1.0317741      8192000 
   50000   0.79696092   -3.8652157   -3.8652157   -2.8339282  0.026893315   -3.8652157    1.0312875      8192000 
   51000   0.79747243   -3.8656065   -3.8656065   -2.8336407   0.02957453   -3.8656065    1.0319657      8192000 
   52000   0.79737036   -3.8657204   -3.8657204   -2.8338706  0.028065432   -3.8657204    1.0318498      8192000 
   53000   0.79714447   -3.8653367   -3.8653367   -2.8337629  0.029484954   -3.8653367    1.0315738      8192000 
   54000   0.79715539   -3.8651477   -3.8651477   -2.8335434  0.030101063   -3.8651477    1.0316043      8192000 
   55000   0.79682256   -3.8648592   -3.8648592   -2.8336696  0.027431823   -3.8648592    1.0311896      8192000 
   56000   0.79737677   -3.8653437   -3.8653437   -2.8334205   0.02831271   -3.8653437    1.0319232      8192000 
   57000   0.79720018    -3.864738    -3.864738    -2.833027  0.029279749    -3.864738     1.031711      8192000 
   58000   0.79795696   -3.8659973   -3.8659973   -2.8332908  0.026911613   -3.8659973    1.0327065      8192000 
   59000   0.79750263    -3.865211    -3.865211   -2.8330761  0.026426385    -3.865211    1.0321349      8192000 
   60000   0.79715764   -3.8649629   -3.8649629   -2.8332582  0.027570703   -3.8649629    1.0317047      8192000 
   61000   0.79733754   -3.8649742   -3.8649742   -2.8330206   0.03033944   -3.8649742    1.0319537      8192000 
   62000   0.79746985   -3.8651177   -3.8651177   -2.8329765  0.028490858   -3.8651177    1.0321413      8192000 
   63000   0.79711491   -3.8647964   -3.8647964   -2.8330981  0.029765609   -3.8647964    1.0316982      8192000 
   64000    0.7969389   -3.8642066   -3.8642066   -2.8327201  0.027512358   -3.8642066    1.0314865      8192000 
   65000   0.79740615   -3.8652115   -3.8652115   -2.8331039  0.027957762   -3.8652115    1.0321076      8192000 
   66000   0.79699997   -3.8645331   -3.8645331   -2.8329349  0.027914913   -3.8645331    1.0315982      8192000 
   67000   0.79690369   -3.8642714   -3.8642714   -2.8327816  0.027323314   -3.8642714    1.0314897      8192000 
   68000   0.79685458   -3.8642652   -3.8642652   -2.8328227  0.025278342   -3.8642652    1.0314425      8192000 
   69000   0.79737991   -3.8647565   -3.8647565   -2.8326177  0.025016284   -3.8647565    1.0321388      8192000 
   70000    0.7971733   -3.8645118   -3.8645118   -2.8326243  0.026138738   -3.8645118    1.0318875      8192000 
   71000   0.79688107   -3.8639367   -3.8639367   -2.8324112   0.02727107   -3.8639367    1.0315256      8192000 
   72000   0.79695086   -3.8637336   -3.8637336   -2.8321014   0.02846944   -3.8637336    1.0316322      8192000 
   73000   0.79707949   -3.8640902   -3.8640902   -2.8322754  0.025806036   -3.8640902    1.0318149      8192000 
   74000   0.79709799   -3.8641856   -3.8641856   -2.8323305  0.025183189   -3.8641856    1.0318552      8192000 
   75000   0.79760275   -3.8641789   -3.8641789   -2.8316539  0.025768862   -3.8641789    1.0325249      8192000 
   76000   0.79719696   -3.8639217   -3.8639217   -2.8319059  0.027211588   -3.8639217    1.0320157      8192000 
   77000    0.7970015   -3.8636726   -3.8636726   -2.8318936  0.030843324   -3.8636726     1.031779      8192000 
   78000   0.79722559   -3.8639495   -3.8639495    -2.831864  0.026810144   -3.8639495    1.0320855      8192000 
   79000   0.79758319   -3.8640672   -3.8640672   -2.8315027  0.028447196   -3.8640672    1.0325646      8192000 
   80000   0.79751374    -3.864112    -3.864112    -2.831621  0.026575402    -3.864112     1.032491      8192000 
   81000   0.79705428   -3.8636656   -3.8636656   -2.8317531  0.027875965   -3.8636656    1.0319125      8192000 
   82000   0.79728715   -3.8635239   -3.8635239   -2.8312937  0.027666791   -3.8635239    1.0322301      8192000 
   83000    0.7974052   -3.8634135   -3.8634135   -2.8310142  0.028622854   -3.8634135    1.0323993      8192000 
   84000   0.79715049   -3.8633735   -3.8633735   -2.8312876  0.026100929   -3.8633735    1.0320859      8192000 
   85000   0.79655362   -3.8629444   -3.8629444   -2.8316152  0.028327273   -3.8629444    1.0313292      8192000 
   86000    0.7970276   -3.8634547   -3.8634547   -2.8314954  0.028104627   -3.8634547    1.0319593      8192000 
   87000   0.79703297   -3.8632624   -3.8632624   -2.8312798  0.029289592   -3.8632624    1.0319826      8192000 
   88000   0.79723275    -3.863291    -3.863291   -2.8310336  0.029774273    -3.863291    1.0322574      8192000 
   89000   0.79723613    -3.863361    -3.863361   -2.8310829  0.027475285    -3.863361    1.0322781      8192000 
   90000   0.79723248   -3.8631513   -3.8631513   -2.8308616  0.027496567   -3.8631513    1.0322897      8192000 
   91000   0.79687682   -3.8628233   -3.8628233   -2.8309779  0.024816974   -3.8628233    1.0318453      8192000 
   92000     0.796768   -3.8628816   -3.8628816   -2.8311609  0.027778135   -3.8628816    1.0317208      8192000 
   93000   0.79725022   -3.8632469   -3.8632469   -2.8308853  0.028293331   -3.8632469    1.0323616      8192000 
   94000   0.79771532   -3.8635116   -3.8635116   -2.8305316  0.027348518   -3.8635116    1.0329799      8192000 
   95000   0.79762669   -3.8629818   -3.8629818   -2.8301002  0.029677505   -3.8629818    1.0328815      8192000 
   96000   0.79752856   -3.8629558   -3.8629558   -2.8301849  0.026985077   -3.8629558    1.0327708      8192000 
   97000   0.79755176   -3.8628109   -3.8628109   -2.8299939   0.02757193   -3.8628109     1.032817      8192000 
   98000   0.79782401   -3.8632842   -3.8632842   -2.8300982  0.027187083   -3.8632842    1.0331859      8192000 
   99000   0.79757996   -3.8626519   -3.8626519   -2.8297656  0.028902564   -3.8626519    1.0328863      8192000 
  100000   0.79738037   -3.8624057   -3.8624057   -2.8297618  0.027615626   -3.8624057    1.0326439      8192000 
  101000   0.79685419   -3.8617072   -3.8617072   -2.8297283   0.02710997   -3.8617072    1.0319789      8192000 
  102000     0.797256   -3.8620773   -3.8620773   -2.8295617  0.028919757   -3.8620773    1.0325156      8192000 
  103000   0.79710244   -3.8616859   -3.8616859    -2.829353  0.026231261   -3.8616859    1.0323328      8192000 
  104000   0.79729149   -3.8618408   -3.8618408   -2.8292468  0.027930577   -3.8618408     1.032594      8192000 
  105000   0.79710852   -3.8618438   -3.8618438   -2.8294704  0.027232903   -3.8618438    1.0323734      8192000 
  106000   0.79696211   -3.8612189   -3.8612189   -2.8290189  0.027994763   -3.8612189    1.0321999      8192000 
  107000   0.79771696   -3.8621521   -3.8621521   -2.8289581  0.026168235   -3.8621521     1.033194      8192000 
  108000   0.79705543   -3.8616016   -3.8616016    -2.829248  0.026344461   -3.8616016    1.0323535      8192000 
  109000   0.79687645   -3.8614603   -3.8614603   -2.8293224  0.025657608   -3.8614603    1.0321378      8192000 
  110000   0.79713876   -3.8613392   -3.8613392   -2.8288452  0.025197713   -3.8613392     1.032494      8192000 
  111000   0.79693988   -3.8610978   -3.8610978   -2.8288451  0.026281093   -3.8610978    1.0322527      8192000 
  112000   0.79690803   -3.8608736   -3.8608736    -2.828646  0.025806598   -3.8608736    1.0322276      8192000 
  113000   0.79694593   -3.8608143   -3.8608143   -2.8285213  0.028530133   -3.8608143     1.032293      8192000 
  114000   0.79689434   -3.8606193   -3.8606193   -2.8283767  0.027999787   -3.8606193    1.0322426      8192000 
  115000   0.79715544   -3.8609096   -3.8609096   -2.8283127   0.02654212   -3.8609096    1.0325969      8192000 
  116000   0.79705124   -3.8610651   -3.8610651   -2.8285868  0.027150564   -3.8610651    1.0324783      8192000 
  117000   0.79727062   -3.8610425   -3.8610425   -2.8282636  0.026166644   -3.8610425    1.0327789      8192000 
  118000   0.79694522     -3.86084     -3.86084   -2.8284665  0.028203897     -3.86084    1.0323735      8192000 
  119000   0.79755098   -3.8616838   -3.8616838   -2.8285092  0.028026196   -3.8616838    1.0331746      8192000 
  120000   0.79725283   -3.8612944   -3.8612944   -2.8284896  0.026063405   -3.8612944    1.0328047      8192000 
  121000   0.79715692   -3.8607666   -3.8607666     -2.82807  0.028370652   -3.8607666    1.0326966      8192000 
  122000   0.79724449   -3.8610053   -3.8610053   -2.8281789  0.026666215   -3.8610053    1.0328264      8192000 
  123000   0.79729932   -3.8609194   -3.8609194   -2.8280055  0.027969982   -3.8609194    1.0329138      8192000 
  124000   0.79687156   -3.8604931   -3.8604931   -2.8281173  0.026809945   -3.8604931    1.0323758      8192000 
  125000    0.7973284   -3.8608061   -3.8608061   -2.8278221  0.028100869   -3.8608061     1.032984      8192000 
  126000   0.79710501   -3.8607542   -3.8607542   -2.8280432  0.026059939   -3.8607542     1.032711      8192000 
  127000   0.79773053   -3.8613724   -3.8613724   -2.8278349  0.025680898   -3.8613724    1.0335375      8192000 
  128000     0.797427   -3.8610513   -3.8610513   -2.8278906  0.028782297   -3.8610513    1.0331607      8192000 
  129000   0.79732406   -3.8607317   -3.8607317   -2.8276881  0.027766101   -3.8607317    1.0330437      8192000 
  130000   0.79749168   -3.8608625   -3.8608625   -2.8275855  0.026186152   -3.8608625     1.033277      8192000 
  131000   0.79715791   -3.8602913   -3.8602913   -2.8274304  0.027289869   -3.8602913    1.0328609      8192000 
  132000   0.79747186   -3.8607082   -3.8607082   -2.8274241  0.028791183   -3.8607082    1.0332841      8192000 
  133000    0.7975091   -3.8611258   -3.8611258   -2.8277773  0.029478029   -3.8611258    1.0333485      8192000 
  134000   0.79757278   -3.8609088   -3.8609088   -2.8274614  0.028328276   -3.8609088    1.0334474      8192000 
  135000   0.79701305   -3.8602897   -3.8602897   -2.8275512  0.029526177   -3.8602897    1.0327385      8192000 
  136000   0.79705286   -3.8605786   -3.8605786   -2.8277724  0.029700483   -3.8605786    1.0328062      8192000 
  137000   0.79688935   -3.8602533   -3.8602533   -2.8276426  0.027895206   -3.8602533    1.0326107      8192000 
  138000   0.79712269    -3.860143    -3.860143   -2.8272135  0.029196801    -3.860143    1.0329295      8192000 
  139000   0.79725043    -3.860285    -3.860285   -2.8271739  0.029073032    -3.860285    1.0331111      8192000 
  140000   0.79735571   -3.8600562   -3.8600562   -2.8267922  0.029338854   -3.8600562     1.033264      8192000 
  141000   0.79735692   -3.8599431   -3.8599431   -2.8266612  0.028762112   -3.8599431    1.0332819      8192000 
  142000   0.79769488      -3.8605      -3.8605    -2.826764  0.028649693      -3.8605     1.033736      8192000 
  143000   0.79768001   -3.8603301   -3.8603301    -2.826597  0.028744594   -3.8603301    1.0337331      8192000 
  144000   0.79748917   -3.8600397   -3.8600397   -2.8265375  0.028999702   -3.8600397    1.0335022      8192000 
  145000    0.7975294   -3.8601668   -3.8601668   -2.8265963  0.028594412   -3.8601668    1.0335705      8192000 
  146000   0.79727554   -3.8599246   -3.8599246   -2.8266667  0.027412666   -3.8599246    1.0332579      8192000 
  147000   0.79727352   -3.8598202   -3.8598202   -2.8265485  0.030683659   -3.8598202    1.0332717      8192000 
  148000   0.79718085    -3.859649    -3.859649   -2.8264813   0.02730242    -3.859649    1.0331677      8192000 
  149000   0.79699117   -3.8591376   -3.8591376   -2.8261994  0.029820823   -3.8591376    1.0329383      8192000 
  150000   0.79700833   -3.8587136   -3.8587136   -2.8257366  0.028180223   -3.8587136    1.0329769      8192000 
  151000   0.79687469   -3.8584841   -3.8584841   -2.8256642  0.028598547   -3.8584841    1.0328198      8192000 
  152000   0.79758537   -3.8594734   -3.8594734   -2.8257161  0.025235893   -3.8594734    1.0337574      8192000 
  153000   0.79691536   -3.8584589   -3.8584589   -2.8255536  0.027223061   -3.8584589    1.0329053      8192000 
  154000   0.79692119   -3.8586061   -3.8586061    -2.825677  0.026612587   -3.8586061     1.032929      8192000 
  155000   0.79689753    -3.858873    -3.858873   -2.8259583  0.026727155    -3.858873    1.0329147      8192000 
  156000   0.79696735   -3.8589856   -3.8589856    -2.825964  0.025927087   -3.8589856    1.0330216      8192000 
  157000    0.7968654   -3.8585016   -3.8585016   -2.8255959  0.026238945   -3.8585016    1.0329056      8192000 
  158000   0.79714458   -3.8584288   -3.8584288    -2.825145  0.025908688   -3.8584288    1.0332839      8192000 
  159000   0.79689097   -3.8582447   -3.8582447   -2.8252731  0.026832333   -3.8582447    1.0329715      8192000 
  160000   0.79694296   -3.8583814   -3.8583814   -2.8253263  0.027769812   -3.8583814    1.0330551      8192000 
  161000   0.79736552   -3.8584952   -3.8584952    -2.824876  0.025008933   -3.8584952    1.0336192      8192000 
  162000   0.79660147   -3.8577077   -3.8577077   -2.8250625  0.027340039   -3.8577077    1.0326452      8192000 
  163000   0.79704771   -3.8579756   -3.8579756   -2.8247357  0.025158469   -3.8579756    1.0332398      8192000 
  164000   0.79661731   -3.8575667   -3.8575667   -2.8248684  0.028441536   -3.8575667    1.0326983      8192000 
  165000   0.79693109   -3.8578112   -3.8578112   -2.8246897  0.028387094   -3.8578112    1.0331214      8192000 
  166000   0.79697131   -3.8584034   -3.8584034   -2.8252137  0.025005207   -3.8584034    1.0331897      8192000 
  167000   0.79701456   -3.8579375   -3.8579375   -2.8246753  0.026392921   -3.8579375    1.0332622      8192000 
  168000   0.79657855   -3.8573557   -3.8573557   -2.8246424  0.030414132   -3.8573557    1.0327133      8192000 
  169000   0.79710675   -3.8581515   -3.8581515   -2.8247373   0.02832635   -3.8581515    1.0334142      8192000 
  170000   0.79728124   -3.8576723   -3.8576723   -2.8240154  0.029442314   -3.8576723    1.0336569      8192000 
  171000   0.79694057   -3.8575195   -3.8575195   -2.8242879  0.026383724   -3.8575195    1.0332316      8192000 
  172000   0.79727382   -3.8576834   -3.8576834   -2.8240036  0.026633724   -3.8576834    1.0336798      8192000 
  173000   0.79701634   -3.8574928   -3.8574928   -2.8241304  0.030605495   -3.8574928    1.0333624      8192000 
  174000   0.79711081   -3.8576792   -3.8576792   -2.8241779  0.028412105   -3.8576792    1.0335013      8192000 
  175000   0.79686093   -3.8575655   -3.8575655    -2.824372  0.027749808   -3.8575655    1.0331934      8192000 
  176000   0.79734933   -3.8576552   -3.8576552   -2.8238121  0.028922783   -3.8576552    1.0338431      8192000 
  177000   0.79729057   -3.8577936   -3.8577936   -2.8240103   0.03049069   -3.8577936    1.0337833      8192000 
  178000    0.7972546   -3.8578237   -3.8578237   -2.8240709  0.026817035   -3.8578237    1.0337528      8192000 
  179000   0.79755866   -3.8581998   -3.8581998   -2.8240363  0.027902413   -3.8581998    1.0341635      8192000 
  180000   0.79749585   -3.8580284   -3.8580284   -2.8239299  0.028631736   -3.8580284    1.0340985      8192000 
  181000   0.79703059   -3.8574886   -3.8574886   -2.8239773  0.029678195   -3.8574886    1.0335113      8192000 
  182000   0.79721385   -3.8578144   -3.8578144   -2.8240491    0.0298026   -3.8578144    1.0337654      8192000 
  183000   0.79713037    -3.857065    -3.857065   -2.8233915  0.028184109    -3.857065    1.0336735      8192000 
  184000   0.79725974   -3.8574422   -3.8574422   -2.8235848  0.027519984   -3.8574422    1.0338574      8192000 
  185000   0.79701638   -3.8571879   -3.8571879   -2.8236297  0.025743017   -3.8571879    1.0335583      8192000 
  186000   0.79690255   -3.8564584   -3.8564584   -2.8230313  0.030759329   -3.8564584    1.0334271      8192000 
  187000   0.79719595   -3.8570868   -3.8570868   -2.8232631   0.02838684   -3.8570868    1.0338237      8192000 
  188000   0.79751379   -3.8571569   -3.8571569   -2.8229046  0.027062451   -3.8571569    1.0342523      8192000 
  189000   0.79729096   -3.8570022   -3.8570022   -2.8230224  0.027259935   -3.8570022    1.0339797      8192000 
  190000   0.79652999   -3.8565998   -3.8565998   -2.8235907  0.026072235   -3.8565998     1.033009      8192000 
  191000   0.79715348   -3.8568765   -3.8568765   -2.8230424  0.028210581   -3.8568765     1.033834      8192000 
  192000   0.79683905    -3.856338    -3.856338   -2.8228953  0.030672358    -3.856338    1.0334427      8192000 
  193000   0.79700874   -3.8564729   -3.8564729    -2.822794   0.02991839   -3.8564729    1.0336789      8192000 
  194000   0.79690515   -3.8559177   -3.8559177   -2.8223567  0.028232333   -3.8559177    1.0335609      8192000 
  195000   0.79719762   -3.8560974   -3.8560974   -2.8221407  0.028013259   -3.8560974    1.0339567      8192000 
  196000    0.7969228   -3.8563486   -3.8563486   -2.8227322  0.028182666   -3.8563486    1.0336164      8192000 
  197000   0.79657401   -3.8555157   -3.8555157   -2.8223353  0.028638827   -3.8555157    1.0331804      8192000 
  198000   0.79668422   -3.8555385   -3.8555385   -2.8221987  0.028602664   -3.8555385    1.0333398      8192000 
  199000   0.79702585   -3.8558841   -3.8558841   -2.8220851  0.028676788   -3.8558841    1.0337991      8192000 
  200000    0.7975053    -3.856293    -3.856293   -2.8218556  0.030284767    -3.856293    1.0344374      8192000 
  201000    0.7969312   -3.8559466   -3.8559466   -2.8222374  0.027669462   -3.8559466    1.0337091      8192000 
  202000   0.79732437   -3.8560823   -3.8560823    -2.821847  0.027419877   -3.8560823    1.0342353      8192000 
  203000   0.79672599   -3.8553234   -3.8553234   -2.8218479  0.027440307   -3.8553234    1.0334755      8192000 
  204000   0.79709904   -3.8554652   -3.8554652   -2.8214894  0.028421493   -3.8554652    1.0339758      8192000 
  205000   0.79729371   -3.8555454   -3.8555454   -2.8213009  0.028673183   -3.8555454    1.0342445      8192000 
  206000   0.79679081   -3.8553676   -3.8553676   -2.8217591  0.028611127   -3.8553676    1.0336086      8192000 
  207000   0.79700941   -3.8555292   -3.8555292   -2.8216206  0.027049774   -3.8555292    1.0339086      8192000 
  208000   0.79648893   -3.8552625   -3.8552625   -2.8220129  0.025647586   -3.8552625    1.0332495      8192000 
  209000   0.79659031    -3.854973    -3.854973   -2.8215755  0.029537176    -3.854973    1.0333975      8192000 
  210000   0.79676755   -3.8555876   -3.8555876   -2.8219437  0.027691562   -3.8555876    1.0336438      8192000 
  211000   0.79653365   -3.8547948   -3.8547948   -2.8214383  0.029373535   -3.8547948    1.0333565      8192000 
  212000   0.79671232   -3.8547458   -3.8547458   -2.8211411   0.02666781   -3.8547458    1.0336047      8192000 
  213000   0.79690949   -3.8552611   -3.8552611   -2.8213841  0.030118729   -3.8552611     1.033877      8192000 
  214000   0.79730866   -3.8558434   -3.8558434   -2.8214324   0.02469704   -3.8558434     1.034411      8192000 
  215000   0.79662094   -3.8550892   -3.8550892    -2.821554  0.028974905   -3.8550892    1.0335352      8192000 
  216000   0.79713878   -3.8554043   -3.8554043   -2.8211809  0.030125991   -3.8554043    1.0342235      8192000 
  217000     0.797212   -3.8550487   -3.8550487   -2.8207141  0.027219597   -3.8550487    1.0343346      8192000 
  218000   0.79708929   -3.8551379   -3.8551379   -2.8209461  0.025349786   -3.8551379    1.0341918      8192000 
  219000   0.79688777   -3.8549781   -3.8549781   -2.8210313  0.028430073   -3.8549781    1.0339468      8192000 
  220000    0.7978189   -3.8560139   -3.8560139   -2.8208427   0.02567779   -3.8560139    1.0351711      8192000 
  221000   0.79706155   -3.8553369   -3.8553369    -2.821132  0.026133569   -3.8553369    1.0342049      8192000 
  222000   0.79667581   -3.8543506   -3.8543506   -2.8206298  0.032331605   -3.8543506    1.0337208      8192000 
  223000   0.79727862   -3.8547905   -3.8547905   -2.8202713  0.030327973   -3.8547905    1.0345191      8192000 
  224000   0.79727477   -3.8551422   -3.8551422   -2.8206116   0.02890084   -3.8551422    1.0345306      8192000 
  225000   0.79735969   -3.8547327   -3.8547327   -2.8200755  0.029177936   -3.8547327    1.0346572      8192000 
  226000   0.79725754   -3.8553239   -3.8553239    -2.820783  0.026980881   -3.8553239    1.0345408      8192000 
  227000    0.7968119   -3.8544786   -3.8544786   -2.8204996  0.029560493   -3.8544786     1.033979      8192000 
  228000   0.79718798   -3.8547483   -3.8547483   -2.8202649  0.028981429   -3.8547483    1.0344834      8192000 
  229000   0.79665121   -3.8542166   -3.8542166   -2.8204136  0.028320768   -3.8542166    1.0338031      8192000 
  230000   0.79663618   -3.8538025   -3.8538025   -2.8200025  0.031389648   -3.8538025       1.0338      8192000 
  231000   0.79679467   -3.8543218   -3.8543218   -2.8202998  0.029581295   -3.8543218    1.0340221      8192000 
  232000   0.79748394   -3.8549574   -3.8549574   -2.8200246   0.02920569   -3.8549574    1.0349328      8192000 
  233000   0.79689555   -3.8543728   -3.8543728   -2.8201872  0.027900874   -3.8543728    1.0341856      8192000 
  234000   0.79708214   -3.8543533   -3.8543533   -2.8199092  0.027601886   -3.8543533    1.0344442      8192000 
  235000   0.79726735   -3.8546691   -3.8546691   -2.8199684  0.025888238   -3.8546691    1.0347007      8192000 
  236000   0.79711229   -3.8543496   -3.8543496   -2.8198336   0.02810334   -3.8543496    1.0345159      8192000 
  237000   0.79688874   -3.8540165   -3.8540165   -2.8197742  0.028926094   -3.8540165    1.0342422      8192000 
  238000   0.79718799   -3.8541155   -3.8541155   -2.8194687   0.03269132   -3.8541155    1.0346468      8192000 
  239000    0.7972276   -3.8541294   -3.8541294   -2.8194147  0.026595731   -3.8541294    1.0347147      8192000 
  240000    0.7973021    -3.854097    -3.854097   -2.8192692  0.028742964    -3.854097    1.0348278      8192000 
  241000   0.79697229   -3.8536196   -3.8536196   -2.8192037  0.030796412   -3.8536196    1.0344159      8192000 
  242000   0.79653735   -3.8528918   -3.8528918    -2.819024  0.029402398   -3.8528918    1.0338678      8192000 
  243000   0.79689025   -3.8535673   -3.8535673    -2.819225  0.026804847   -3.8535673    1.0343423      8192000 
  244000   0.79758327   -3.8539961   -3.8539961   -2.8187381  0.028091289   -3.8539961     1.035258      8192000 
  245000   0.79730854   -3.8535297   -3.8535297   -2.8186118    0.0283722   -3.8535297    1.0349179      8192000 
  246000   0.79691992   -3.8532225   -3.8532225   -2.8187927  0.028762405   -3.8532225    1.0344299      8192000 
  247000   0.79694684   -3.8529082   -3.8529082   -2.8184272  0.029293575   -3.8529082     1.034481      8192000 
  248000   0.79686395   -3.8530525   -3.8530525   -2.8186627  0.027861661   -3.8530525    1.0343898      8192000 
  249000   0.79693245   -3.8530424   -3.8530424   -2.8185472  0.027241145   -3.8530424    1.0344952      8192000 
  250000   0.79725511   -3.8532345   -3.8532345   -2.8183043    0.0288229   -3.8532345    1.0349302      8192000 
  251000   0.79683875   -3.8529284   -3.8529284   -2.8185222  0.026312857   -3.8529284    1.0344062      8192000 
  252000   0.79704308   -3.8528253   -3.8528253   -2.8181374  0.023538509   -3.8528253    1.0346879      8192000 
  253000     0.796604   -3.8524615   -3.8524615   -2.8183275  0.025246834   -3.8524615    1.0341341      8192000 
  254000   0.79678778    -3.852736    -3.852736   -2.8183469  0.025606581    -3.852736    1.0343891      8192000 
  255000   0.79607134   -3.8517714   -3.8517714    -2.818296  0.029775175   -3.8517714    1.0334754      8192000 
  256000   0.79653061   -3.8522355   -3.8522355   -2.8181477  0.029793981   -3.8522355    1.0340878      8192000 
  257000   0.79652209   -3.8520328   -3.8520328   -2.8179396  0.031116261   -3.8520328    1.0340932      8192000 
  258000   0.79686457   -3.8524462   -3.8524462   -2.8178919  0.026172018   -3.8524462    1.0345543      8192000 
  259000   0.79695106   -3.8525891   -3.8525891   -2.8179063  0.025716993   -3.8525891    1.0346828      8192000 
  260000   0.79716457   -3.8524057   -3.8524057   -2.8174293  0.027868905   -3.8524057    1.0349764      8192000 
  261000    0.7964985   -3.8521563   -3.8521563   -2.8180282  0.030861344   -3.8521563    1.0341281      8192000 
  262000   0.79675031   -3.8521932   -3.8521932    -2.817722  0.026605336   -3.8521932    1.0344712      8192000 
  263000   0.79707047   -3.8521588   -3.8521588   -2.8172555     0.029326   -3.8521588    1.0349033      8192000 
  264000   0.79691706   -3.8518735   -3.8518735   -2.8171529  0.030173265   -3.8518735    1.0347206      8192000 
  265000   0.79654098   -3.8515862   -3.8515862   -2.8173377  0.029485884   -3.8515862    1.0342485      8192000 
  266000   0.79686061   -3.8518507   -3.8518507   -2.8171708  0.029308144   -3.8518507    1.0346799      8192000 
  267000   0.79692273   -3.8517806   -3.8517806   -2.8170035  0.029685317   -3.8517806     1.034777      8192000 
  268000   0.79699647   -3.8520988   -3.8520988   -2.8172098  0.028569719   -3.8520988     1.034889      8192000 
  269000   0.79671838   -3.8516447   -3.8516447   -2.8171003   0.02869725   -3.8516447    1.0345443      8192000 
  270000   0.79658983   -3.8512675   -3.8512675   -2.8168737  0.029684594   -3.8512675    1.0343939      8192000 
  271000   0.79704167   -3.8520623   -3.8520623   -2.8170655  0.030245169   -3.8520623    1.0349968      8192000 
  272000   0.79739793   -3.8524093   -3.8524093   -2.8169334  0.028308994   -3.8524093    1.0354759      8192000 
  273000   0.79661975    -3.851412    -3.851412   -2.8169302  0.031337487    -3.851412    1.0344818      8192000 
  274000   0.79721825   -3.8520146   -3.8520146   -2.8167394  0.029013877   -3.8520146    1.0352752      8192000 
  275000   0.79667392   -3.8513153   -3.8513153   -2.8167305  0.031113214   -3.8513153    1.0345848      8192000 
  276000   0.79727536   -3.8520684   -3.8520684   -2.8166861  0.027755879   -3.8520684    1.0353823      8192000 
  277000   0.79704325   -3.8515946   -3.8515946   -2.8164975  0.028986495   -3.8515946    1.0350971      8192000 
  278000   0.79644111   -3.8512946   -3.8512946    -2.816963  0.028600604   -3.8512946    1.0343315      8192000 
  279000   0.79667467   -3.8514223   -3.8514223    -2.816771  0.028335703   -3.8514223    1.0346513      8192000 
  280000    0.7965876   -3.8513526   -3.8513526   -2.8167982  0.028908877   -3.8513526    1.0345544      8192000 
  281000   0.79691862   -3.8517222   -3.8517222   -2.8167214  0.027386512   -3.8517222    1.0350008      8192000 
  282000   0.79718549   -3.8516147   -3.8516147   -2.8162508  0.029508471   -3.8516147    1.0353638      8192000 
  283000   0.79708102   -3.8516727   -3.8516727   -2.8164283  0.029734104   -3.8516727    1.0352444      8192000 
  284000   0.79682417   -3.8513992   -3.8513992    -2.816472  0.027840984   -3.8513992    1.0349272      8192000 
  285000   0.79694443   -3.8511893   -3.8511893   -2.8160894  0.029295524   -3.8511893    1.0350999      8192000 
  286000   0.79677063    -3.850832    -3.850832   -2.8159417  0.030100025    -3.850832    1.0348903      8192000 
  287000   0.79720922   -3.8512988   -3.8512988   -2.8158224   0.03014042   -3.8512988    1.0354765      8192000 
  288000   0.79673327    -3.850828    -3.850828   -2.8159533  0.030268635    -3.850828    1.0348747      8192000 
  289000   0.79652621   -3.8507848   -3.8507848   -2.8161629  0.027051506   -3.8507848     1.034622      8192000 
  290000   0.79635768   -3.8504783   -3.8504783   -2.8160588  0.028844832   -3.8504783    1.0344195      8192000 
  291000   0.79631931   -3.8502129   -3.8502129   -2.8158268  0.028606419   -3.8502129    1.0343861      8192000 
  292000   0.79648054   -3.8503969   -3.8503969   -2.8157851  0.028062445   -3.8503969    1.0346117      8192000 
  293000   0.79716133   -3.8511367   -3.8511367   -2.8156242   0.02766639   -3.8511367    1.0355125      8192000 
  294000    0.7970296   -3.8504839   -3.8504839    -2.815126  0.029421238   -3.8504839    1.0353579      8192000 
  295000   0.79678921   -3.8503595   -3.8503595   -2.8152977  0.028131135   -3.8503595    1.0350618      8192000 
  296000   0.79663186   -3.8501424   -3.8501424   -2.8152685  0.028341222   -3.8501424    1.0348739      8192000 
  297000   0.79676942   -3.8502164   -3.8502164   -2.8151473  0.029139829   -3.8502164     1.035069      8192000 
  298000   0.79645377   -3.8499876   -3.8499876   -2.8153124  0.029902857   -3.8499876    1.0346752      8192000 
  299000   0.79722416   -3.8508334   -3.8508334    -2.815141  0.028729782   -3.8508334    1.0356925      8192000 
  300000   0.79684961   -3.8503031   -3.8503031   -2.8150807  0.026965171   -3.8503031    1.0352224      8192000 
  301000   0.79633054   -3.8494026   -3.8494026   -2.8148384  0.029556439   -3.8494026    1.0345642      8192000 
  302000   0.79639591   -3.8497179   -3.8497179   -2.8150523  0.028147984   -3.8497179    1.0346656      8192000 
  303000    0.7965814   -3.8495922   -3.8495922   -2.8146692    0.0296588   -3.8495922     1.034923      8192000 
  304000    0.7967587   -3.8501376   -3.8501376    -2.814968  0.026608437   -3.8501376    1.0351696      8192000 
  305000   0.79650239   -3.8492968   -3.8492968   -2.8144437  0.030575443   -3.8492968    1.0348531      8192000 
  306000   0.79666266   -3.8495917   -3.8495917    -2.814514  0.027948871   -3.8495917    1.0350777      8192000 
  307000   0.79695335   -3.8500557   -3.8500557    -2.814584  0.028476502   -3.8500557    1.0354716      8192000 
  308000   0.79692066   -3.8494749   -3.8494749   -2.8140293  0.029898367   -3.8494749    1.0354456      8192000 
  309000   0.79645327   -3.8492355   -3.8492355   -2.8143807  0.026568284   -3.8492355    1.0348548      8192000 
  310000   0.79711077   -3.8494804   -3.8494804   -2.8137551  0.029234461   -3.8494804    1.0357253      8192000 
  311000   0.79722074   -3.8495276   -3.8495276   -2.8136429  0.028661575   -3.8495276    1.0358847      8192000 
  312000   0.79633993   -3.8488881   -3.8488881   -2.8141314  0.029952837   -3.8488881    1.0347567      8192000 
  313000   0.79675137   -3.8491085   -3.8491085    -2.813801  0.030506307   -3.8491085    1.0353075      8192000 
  314000   0.79664225   -3.8494121   -3.8494121   -2.8142299  0.028102152   -3.8494121    1.0351822      8192000 
  315000   0.79705652   -3.8494861   -3.8494861   -2.8137491  0.029360528   -3.8494861     1.035737      8192000 
  316000   0.79668998   -3.8487884   -3.8487884   -2.8135115  0.027329115   -3.8487884    1.0352769      8192000 
  317000    0.7963874      -3.8484      -3.8484   -2.8134998  0.028203738      -3.8484    1.0349002      8192000 
  318000   0.79611912   -3.8482725   -3.8482725   -2.8137046  0.029255853   -3.8482725     1.034568      8192000 
  319000   0.79669823    -3.848828    -3.848828   -2.8134912  0.029395474    -3.848828    1.0353368      8192000 
  320000   0.79656416   -3.8486971   -3.8486971   -2.8135181  0.028996248   -3.8486971     1.035179      8192000 
  321000   0.79683492   -3.8491635   -3.8491635   -2.8136162  0.024966919   -3.8491635    1.0355473      8192000 
  322000   0.79652762   -3.8486739   -3.8486739   -2.8135097  0.029058102   -3.8486739    1.0351642      8192000 
  323000   0.79635521   -3.8485628   -3.8485628   -2.8136062  0.029201896   -3.8485628    1.0349566      8192000 
  324000   0.79667535   -3.8487718   -3.8487718   -2.8133826  0.029344867   -3.8487718    1.0353891      8192000 
  325000   0.79696191    -3.848728    -3.848728   -2.8129502  0.026800301    -3.848728    1.0357778      8192000 
  326000   0.79678193   -3.8484491   -3.8484491   -2.8128888  0.030914965   -3.8484491    1.0355604      8192000 
  327000   0.79696949   -3.8482502   -3.8482502   -2.8124296  0.030900069   -3.8482502    1.0358206      8192000 
  328000   0.79702695    -3.848268    -3.848268   -2.8123564  0.028739637    -3.848268    1.0359115      8192000 
  329000   0.79682566   -3.8482623   -3.8482623   -2.8125959  0.030363189   -3.8482623    1.0356664      8192000 
  330000   0.79680814    -3.848266    -3.848266   -2.8126059  0.029422141    -3.848266    1.0356601      8192000 
  331000   0.79679415   -3.8479187   -3.8479187   -2.8122606   0.02856341   -3.8479187    1.0356581      8192000 
  332000   0.79670427   -3.8480937   -3.8480937   -2.8125359  0.027437381   -3.8480937    1.0355578      8192000 
  333000   0.79643212   -3.8476927   -3.8476927   -2.8124722  0.028644141   -3.8476927    1.0352205      8192000 
  334000   0.79682107   -3.8477168   -3.8477168   -2.8119745  0.029592653   -3.8477168    1.0357423      8192000 
  335000   0.79642064   -3.8468958   -3.8468958   -2.8116575  0.034283379   -3.8468958    1.0352383      8192000 
  336000   0.79705074   -3.8479567   -3.8479567   -2.8118829   0.02881962   -3.8479567    1.0360738      8192000 
  337000   0.79691098   -3.8477632   -3.8477632   -2.8118549  0.030489898   -3.8477632    1.0359084      8192000 
  338000   0.79692786   -3.8475151   -3.8475151   -2.8115683  0.030339471   -3.8475151    1.0359468      8192000 
  339000   0.79664827   -3.8474225   -3.8474225   -2.8118227  0.030294443   -3.8474225    1.0355998      8192000 
  340000   0.79659261   -3.8467431   -3.8467431   -2.8111994  0.028601028   -3.8467431    1.0355437      8192000 
  341000    0.7966402   -3.8470847   -3.8470847   -2.8114627  0.030691797   -3.8470847     1.035622      8192000 
  342000    0.7968401   -3.8468686   -3.8468686   -2.8109702  0.028870071   -3.8468686    1.0358984      8192000 
  343000   0.79676875   -3.8470683   -3.8470683   -2.8112465  0.026907271   -3.8470683    1.0358219      8192000 
  344000   0.79639805   -3.8465717   -3.8465717   -2.8112153  0.029062197   -3.8465717    1.0353564      8192000 
  345000   0.79658006   -3.8470163   -3.8470163   -2.8114067  0.030379709   -3.8470163    1.0356095      8192000 
  346000   0.79664905   -3.8469077   -3.8469077   -2.8111922  0.030796309   -3.8469077    1.0357155      8192000 
  347000   0.79677409   -3.8466468   -3.8466468   -2.8107523  0.028464551   -3.8466468    1.0358945      8192000 
  348000   0.79669717    -3.846037    -3.846037   -2.8102261  0.029754377    -3.846037     1.035811      8192000 
  349000   0.79696917    -3.846617    -3.846617   -2.8104362  0.028301163    -3.846617    1.0361809      8192000 
  350000   0.79691875   -3.8466718   -3.8466718     -2.81054  0.026512319   -3.8466718    1.0361318      8192000 
  351000   0.79660398   -3.8461912   -3.8461912   -2.8104522  0.029516545   -3.8461912     1.035739      8192000 
  352000   0.79614247   -3.8456577   -3.8456577   -2.8105025  0.029333588   -3.8456577    1.0351552      8192000 
  353000   0.79674697    -3.846203    -3.846203   -2.8102453  0.026829005    -3.846203    1.0359577      8192000 
  354000   0.79586583   -3.8452591   -3.8452591   -2.8104307  0.027454927   -3.8452591    1.0348285      8192000 
  355000   0.79622065   -3.8456305   -3.8456305   -2.8103245  0.026890173   -3.8456305     1.035306      8192000 
  356000   0.79629653   -3.8460567   -3.8460567   -2.8106355  0.027512657   -3.8460567    1.0354212      8192000 
  357000   0.79601409   -3.8453191   -3.8453191   -2.8102487  0.029666501   -3.8453191    1.0350704      8192000 
  358000   0.79657714   -3.8457554   -3.8457554   -2.8099366  0.026637166   -3.8457554    1.0358188      8192000 
  359000   0.79652059   -3.8462259   -3.8462259   -2.8104642  0.028453871   -3.8462259    1.0357617      8192000 
  360000   0.79664125   -3.8457904   -3.8457904   -2.8098553  0.032461221   -3.8457904    1.0359351      8192000 
  361000   0.79644674   -3.8457373   -3.8457373   -2.8100389  0.031309205   -3.8457373    1.0356984      8192000 
  362000    0.7966769   -3.8457573   -3.8457573   -2.8097431  0.027821313   -3.8457573    1.0360142      8192000 
  363000   0.79656673   -3.8454006   -3.8454006   -2.8095132  0.032435684   -3.8454006    1.0358874      8192000 
  364000   0.79709745   -3.8463645   -3.8463645   -2.8097706  0.028726291   -3.8463645    1.0365939      8192000 
  365000   0.79683624   -3.8459522   -3.8459522   -2.8096815  0.030661297   -3.8459522    1.0362707      8192000 
  366000   0.79635266   -3.8453275   -3.8453275   -2.8096693  0.031002477   -3.8453275    1.0356583      8192000 
  367000    0.7968592   -3.8459045   -3.8459045   -2.8095712  0.029077658   -3.8459045    1.0363333      8192000 
  368000    0.7965915   -3.8458575   -3.8458575   -2.8098559  0.028665177   -3.8458575    1.0360016      8192000 
  369000   0.79649526   -3.8456935   -3.8456935   -2.8098006   0.03027149   -3.8456935    1.0358929      8192000 
  370000   0.79707972   -3.8460486   -3.8460486   -2.8093793  0.029650326   -3.8460486    1.0366693      8192000 
  371000   0.79701435   -3.8458215   -3.8458215   -2.8092207  0.033935778   -3.8458215    1.0366008      8192000 
  372000   0.79663174   -3.8455161   -3.8455161   -2.8093964  0.032283755   -3.8455161    1.0361197      8192000 
  373000   0.79643578   -3.8452324   -3.8452324   -2.8093513  0.031868496   -3.8452324    1.0358811      8192000 
  374000   0.79716324   -3.8458764   -3.8458764   -2.8090327  0.027329713   -3.8458764    1.0368437      8192000 
  375000   0.79657303   -3.8451177   -3.8451177   -2.8090252   0.03088324   -3.8451177    1.0360926      8192000 
  376000   0.79708408   -3.8456683   -3.8456683   -2.8088947  0.031725271   -3.8456683    1.0367735      8192000 
  377000   0.79683562   -3.8451385   -3.8451385   -2.8086716  0.029810721   -3.8451385    1.0364669      8192000 
  378000   0.79657385    -3.845034    -3.845034   -2.8088911   0.02790934    -3.845034    1.0361429      8192000 
  379000   0.79641126   -3.8447127   -3.8447127   -2.8087651   0.03129886   -3.8447127    1.0359476      8192000 
  380000   0.79654668   -3.8448489   -3.8448489   -2.8087087   0.02809696   -3.8448489    1.0361403      8192000 
  381000   0.79626019   -3.8447401   -3.8447401    -2.808956  0.028689725   -3.8447401    1.0357841      8192000 
  382000   0.79638844    -3.844554    -3.844554   -2.8085869  0.028248485    -3.844554    1.0359672      8192000 
  383000   0.79583912   -3.8438299   -3.8438299   -2.8085608  0.031874476   -3.8438299    1.0352691      8192000 
  384000   0.79643175   -3.8442549   -3.8442549   -2.8081984   0.02992745   -3.8442549    1.0360565      8192000 
  385000   0.79686675   -3.8447666   -3.8447666    -2.808128   0.02950527   -3.8447666    1.0366386      8192000 
  386000   0.79681251   -3.8444328   -3.8444328   -2.8078482  0.025742379   -3.8444328    1.0365846      8192000 
  387000   0.79645577   -3.8439359   -3.8439359   -2.8077989    0.0266561   -3.8439359     1.036137      8192000 
  388000   0.79665656   -3.8438129   -3.8438129   -2.8073985  0.029600155   -3.8438129    1.0364145      8192000 
  389000    0.7962892   -3.8438702   -3.8438702   -2.8079172  0.030228125   -3.8438702     1.035953      8192000 
  390000   0.79624853    -3.843519    -3.843519   -2.8076023  0.029244427    -3.843519    1.0359166      8192000 
  391000   0.79653692   -3.8438708   -3.8438708   -2.8075627  0.027284748   -3.8438708    1.0363081      8192000 
  392000   0.79586427   -3.8428581   -3.8428581   -2.8074086    0.0275317   -3.8428581    1.0354494      8192000 
  393000   0.79613668   -3.8434796   -3.8434796   -2.8076592  0.026998689   -3.8434796    1.0358203      8192000 
  394000   0.79614303   -3.8429214   -3.8429214   -2.8070765  0.029579244   -3.8429214    1.0358449      8192000 
  395000   0.79662367   -3.8434775   -3.8434775   -2.8069907  0.026446476   -3.8434775    1.0364867      8192000 
  396000   0.79683643   -3.8435119   -3.8435119   -2.8067318  0.030219397   -3.8435119      1.03678      8192000 
  397000   0.79686297   -3.8437958   -3.8437958   -2.8069649  0.027388179   -3.8437958    1.0368308      8192000 
  398000    0.7960929    -3.842776    -3.842776   -2.8069306  0.033659508    -3.842776    1.0358454      8192000 
  399000   0.79666904   -3.8436447   -3.8436447   -2.8070331  0.028819942   -3.8436447    1.0366115      8192000 
  400000   0.79692058   -3.8434797   -3.8434797   -2.8065246  0.027642545   -3.8434797    1.0369551      8192000 
  401000   0.79644469   -3.8435462   -3.8435462   -2.8071939  0.026001782   -3.8435462    1.0363524      8192000 
  402000   0.79623927   -3.8431628   -3.8431628   -2.8070612  0.027256897   -3.8431628    1.0361016      8192000 
  403000   0.79665622    -3.843537    -3.843537   -2.8068766  0.030496059    -3.843537    1.0366604      8192000 
  404000   0.79671598   -3.8434029   -3.8434029   -2.8066482  0.027024877   -3.8434029    1.0367547      8192000 
  405000   0.79637525     -3.84287     -3.84287   -2.8065422  0.028520367     -3.84287    1.0363278      8192000 
  406000    0.7963436   -3.8432298   -3.8432298   -2.8069269    0.0290481   -3.8432298    1.0363029      8192000 
  407000   0.79613538   -3.8425814   -3.8425814    -2.806533  0.029765492   -3.8425814    1.0360484      8192000 
  408000   0.79643003   -3.8429891   -3.8429891   -2.8065407   0.02837358   -3.8429891    1.0364484      8192000 
  409000     0.796626   -3.8431131   -3.8431131   -2.8063934  0.027493503   -3.8431131    1.0367197      8192000 
  410000   0.79665545   -3.8430446   -3.8430446   -2.8062701  0.030075646   -3.8430446    1.0367745      8192000 
  411000   0.79677041   -3.8432436   -3.8432436    -2.806303  0.031095912   -3.8432436    1.0369406      8192000 
  412000   0.79658843   -3.8433203   -3.8433203   -2.8066002  0.026941042   -3.8433203    1.0367201      8192000 
  413000   0.79674722   -3.8428028   -3.8428028   -2.8058596  0.030081553   -3.8428028    1.0369432      8192000 
  414000   0.79640863   -3.8423358   -3.8423358   -2.8058167  0.032343859   -3.8423358    1.0365191      8192000 
  415000   0.79657232   -3.8429669   -3.8429669   -2.8062185  0.031142407   -3.8429669    1.0367484      8192000 
  416000   0.79643944   -3.8427705   -3.8427705   -2.8061785  0.028819838   -3.8427705     1.036592      8192000 
  417000   0.79645135   -3.8428866   -3.8428866   -2.8062626  0.029444477   -3.8428866     1.036624      8192000 
  418000   0.79640719   -3.8425693   -3.8425693   -2.8059865  0.030689413   -3.8425693    1.0365828      8192000 
  419000   0.79647005   -3.8422733   -3.8422733   -2.8055922  0.031848725   -3.8422733    1.0366811      8192000 
  420000   0.79650277   -3.8429048   -3.8429048   -2.8061646  0.027151311   -3.8429048    1.0367402      8192000 
  421000    0.7963515   -3.8421558   -3.8421558   -2.8055962  0.028818127   -3.8421558    1.0365596      8192000 
  422000   0.79622149   -3.8419762   -3.8419762   -2.8055693  0.029715079   -3.8419762    1.0364069      8192000 
  423000   0.79637583   -3.8420377   -3.8420377   -2.8054134  0.030332626   -3.8420377    1.0366243      8192000 
  424000   0.79608079   -3.8415734   -3.8415734   -2.8053169  0.030086403   -3.8415734    1.0362565      8192000 
  425000     0.796081   -3.8415903   -3.8415903    -2.805317  0.028001093   -3.8415903    1.0362733      8192000 
  426000   0.79615858   -3.8415533   -3.8415533   -2.8051625  0.028815196   -3.8415533    1.0363908      8192000 
  427000   0.79668776   -3.8420304   -3.8420304   -2.8049345  0.029731097   -3.8420304    1.0370959      8192000 
  428000   0.79657329   -3.8415892   -3.8415892   -2.8046258  0.030692855   -3.8415892    1.0369634      8192000 
  429000   0.79623757   -3.8418628   -3.8418628   -2.8053199  0.028862215   -3.8418628    1.0365429      8192000 
  430000   0.79599855   -3.8415455   -3.8415455   -2.8052975  0.026290938   -3.8415455     1.036248      8192000 
  431000   0.79652033   -3.8418733   -3.8418733   -2.8049295  0.028409448   -3.8418733    1.0369438      8192000 
  432000   0.79658135    -3.841838    -3.841838   -2.8047982  0.028870217    -3.841838    1.0370398      8192000 
  433000   0.79642987   -3.8416449   -3.8416449   -2.8047861  0.029665377   -3.8416449    1.0368588      8192000 
  434000   0.79634797   -3.8411518   -3.8411518    -2.804383  0.029958361   -3.8411518    1.0367687      8192000 
  435000   0.79671787   -3.8416645   -3.8416645   -2.8043977   0.02792853   -3.8416645    1.0372668      8192000 
  436000   0.79659773   -3.8415031   -3.8415031   -2.8043764  0.026346775   -3.8415031    1.0371267      8192000 
  437000    0.7965523   -3.8414673   -3.8414673   -2.8043833  0.027234254   -3.8414673    1.0370841      8192000 
  438000   0.79622475   -3.8413725   -3.8413725   -2.8046984  0.028527358   -3.8413725    1.0366742      8192000 
  439000   0.79652832   -3.8414987   -3.8414987    -2.804413  0.028824922   -3.8414987    1.0370857      8192000 
  440000   0.79577339   -3.8412258   -3.8412258   -2.8051066  0.028488431   -3.8412258    1.0361193      8192000 
  441000   0.79643784   -3.8413801   -3.8413801   -2.8043792   0.02701038   -3.8413801    1.0370009      8192000 
  442000   0.79658576   -3.8415232   -3.8415232   -2.8043134  0.027165272   -3.8415232    1.0372098      8192000 
  443000   0.79640912   -3.8411425   -3.8411425   -2.8041462  0.027821473   -3.8411425    1.0369963      8192000 
  444000   0.79618809   -3.8408791   -3.8408791    -2.804154  0.029235259   -3.8408791    1.0367251      8192000 
  445000   0.79626534   -3.8410595   -3.8410595   -2.8042176  0.026957674   -3.8410595    1.0368419      8192000 
  446000   0.79626214   -3.8408579   -3.8408579   -2.8040036  0.030845214   -3.8408579    1.0368543      8192000 
  447000   0.79614508     -3.84062     -3.84062   -2.8039016  0.031856907     -3.84062    1.0367184      8192000 
  448000   0.79634004   -3.8410012   -3.8410012   -2.8040127  0.028282956   -3.8410012    1.0369885      8192000 
  449000   0.79624689   -3.8406995   -3.8406995   -2.8038158  0.030669361   -3.8406995    1.0368838      8192000 
  450000   0.79635929   -3.8408815   -3.8408815   -2.8038348  0.027872181   -3.8408815    1.0370467      8192000 
  451000    0.7963367   -3.8407783   -3.8407783   -2.8037448  0.026264387   -3.8407783    1.0370335      8192000 
  452000   0.79643294   -3.8410265   -3.8410265   -2.8038511  0.029099877   -3.8410265    1.0371754      8192000 
  453000   0.79618585   -3.8401869   -3.8401869   -2.8033167  0.031119217   -3.8401869    1.0368701      8192000 
  454000   0.79697324   -3.8411498   -3.8411498   -2.8032379  0.028903071   -3.8411498    1.0379118      8192000 
  455000   0.79631183   -3.8402549   -3.8402549   -2.8031879  0.030157598   -3.8402549     1.037067      8192000 
  456000   0.79621621   -3.8401326   -3.8401326   -2.8031736  0.030933622   -3.8401326     1.036959      8192000 
  457000   0.79658722   -3.8404653   -3.8404653   -2.8030068  0.030847773   -3.8404653    1.0374585      8192000 
  458000   0.79657116   -3.8403421   -3.8403421    -2.802888  0.032017035   -3.8403421    1.0374541      8192000 
  459000   0.79619511   -3.8399267   -3.8399267   -2.8029458  0.030655973   -3.8399267    1.0369809      8192000 
  460000   0.79625845   -3.8396892   -3.8396892   -2.8026096  0.030911891   -3.8396892    1.0370797      8192000 
  461000    0.7964635   -3.8403419   -3.8403419   -2.8029787  0.030869064   -3.8403419    1.0373633      8192000 
  462000   0.79628463   -3.8398585   -3.8398585   -2.8027117  0.028631744   -3.8398585    1.0371468      8192000 
  463000   0.79637792   -3.8398748   -3.8398748   -2.8025902  0.029825592   -3.8398748    1.0372846      8192000 
  464000   0.79637931   -3.8395626   -3.8395626   -2.8022596  0.029363699   -3.8395626     1.037303      8192000 
  465000   0.79607383     -3.83951     -3.83951   -2.8025884  0.029857396     -3.83951    1.0369216      8192000 
  466000   0.79617534   -3.8396871   -3.8396871    -2.802617  0.028036642   -3.8396871    1.0370701      8192000 
  467000   0.79616353   -3.8396813   -3.8396813   -2.8026101  0.026437323   -3.8396813    1.0370713      8192000 
  468000   0.79630629   -3.8396479   -3.8396479   -2.8023742  0.027315126   -3.8396479    1.0372738      8192000 
  469000   0.79609091   -3.8392281   -3.8392281   -2.8022186  0.029065459   -3.8392281    1.0370095      8192000 
  470000   0.79611419   -3.8388658   -3.8388658   -2.8018095  0.029464968   -3.8388658    1.0370564      8192000 
  471000   0.79641537    -3.839343    -3.839343   -2.8018778  0.027660568    -3.839343    1.0374652      8192000 
  472000   0.79616751   -3.8391238   -3.8391238   -2.8019652  0.030627827   -3.8391238    1.0371586      8192000 
  473000   0.79634651   -3.8390073   -3.8390073    -2.801599  0.027928481   -3.8390073    1.0374083      8192000 
  474000   0.79591683   -3.8389957   -3.8389957   -2.8021305  0.027853501   -3.8389957    1.0368651      8192000 
  475000    0.7962487   -3.8387939   -3.8387939   -2.8014801   0.02930436   -3.8387939    1.0373138      8192000 
  476000   0.79624839    -3.838823    -3.838823   -2.8014931  0.030699757    -3.838823    1.0373299      8192000 
  477000    0.7965371   -3.8391319   -3.8391319   -2.8014093  0.026394737   -3.8391319    1.0377226      8192000 
  478000   0.79597357   -3.8384348   -3.8384348   -2.8014301  0.031951999   -3.8384348    1.0370047      8192000 
  479000   0.79580358   -3.8383353   -3.8383353   -2.8015355  0.027705874   -3.8383353    1.0367998      8192000 
  480000   0.79587595   -3.8383313   -3.8383313   -2.8014207  0.026090302   -3.8383313    1.0369106      8192000 
  481000   0.79630483   -3.8385597   -3.8385597    -2.801074  0.026570261   -3.8385597    1.0374857      8192000 
  482000   0.79595559   -3.8386158   -3.8386158   -2.8015686  0.028265586   -3.8386158    1.0370472      8192000 
  483000   0.79606469   -3.8384994   -3.8384994   -2.8012935  0.030740141   -3.8384994    1.0372059      8192000 
  484000   0.79642137   -3.8389895   -3.8389895   -2.8013026  0.027946946   -3.8389895    1.0376869      8192000 
  485000   0.79579489   -3.8382541   -3.8382541   -2.8013669  0.029573716   -3.8382541    1.0368872      8192000 
  486000   0.79633695   -3.8388384   -3.8388384   -2.8012284  0.028424466   -3.8388384      1.03761      8192000 
  487000   0.79583958   -3.8381568   -3.8381568   -2.8011786  0.029194672   -3.8381568    1.0369782      8192000 
  488000   0.79608334   -3.8383106   -3.8383106   -2.8009982   0.02909595   -3.8383106    1.0373124      8192000 
  489000   0.79594762   -3.8378645   -3.8378645   -2.8007124  0.030129705   -3.8378645    1.0371521      8192000 
  490000   0.79616352   -3.8379253   -3.8379253   -2.8004756  0.030625142   -3.8379253    1.0374497      8192000 
  491000   0.79626255   -3.8383608   -3.8383608   -2.8007655  0.030784026   -3.8383608    1.0375953      8192000 
  492000    0.7959144   -3.8381316   -3.8381316   -2.8009734  0.029282997   -3.8381316    1.0371582      8192000 
  493000   0.79653923   -3.8382995   -3.8382995   -2.8003108  0.027076456   -3.8382995    1.0379887      8192000 
  494000   0.79621288   -3.8382855   -3.8382855   -2.8007055  0.030913909   -3.8382855      1.03758      8192000 
  495000   0.79594795   -3.8376642   -3.8376642    -2.800413  0.031594482   -3.8376642    1.0372513      8192000 
  496000   0.79609622   -3.8377065   -3.8377065   -2.8002457  0.030350535   -3.8377065    1.0374608      8192000 
  497000   0.79602519   -3.8374364   -3.8374364   -2.8000516   0.03146583   -3.8374364    1.0373848      8192000 
  498000   0.79616268   -3.8379721   -3.8379721   -2.8003916   0.02830405   -3.8379721    1.0375805      8192000 
  499000   0.79614375   -3.8380225   -3.8380225   -2.8004503  0.029426422   -3.8380225    1.0375722      8192000 
  500000    0.7960257   -3.8376168   -3.8376168    -2.800182  0.031533641   -3.8376168    1.0374348      8192000 
  501000    0.7962774   -3.8375035   -3.8375035    -2.799724  0.033289036   -3.8375035    1.0377794      8192000 
  502000   0.79591407   -3.8373398   -3.8373398   -2.8000175  0.029985907   -3.8373398    1.0373222      8192000 
  503000   0.79665844   -3.8379726   -3.8379726   -2.7996637  0.027343658   -3.8379726    1.0383089      8192000 
  504000   0.79670249   -3.8378547   -3.8378547   -2.7994718  0.029160078   -3.8378547    1.0383829      8192000 
  505000   0.79624111   -3.8373981   -3.8373981   -2.7996003  0.029730576   -3.8373981    1.0377979      8192000 
  506000    0.7963547   -3.8378391   -3.8378391   -2.7998767  0.029334501   -3.8378391    1.0379625      8192000 
  507000   0.79610741    -3.837108    -3.837108   -2.7994513  0.032994948    -3.837108    1.0376567      8192000 
  508000   0.79631205   -3.8371326   -3.8371326   -2.7991929  0.032379836   -3.8371326    1.0379398      8192000 
  509000   0.79559131    -3.836516    -3.836516   -2.7994992  0.030878064    -3.836516    1.0370169      8192000 
  510000   0.79584424   -3.8365698   -3.8365698   -2.7992067  0.029666602   -3.8365698    1.0373631      8192000 
  511000   0.79613415   -3.8362959   -3.8362959   -2.7985386  0.031254232   -3.8362959    1.0377573      8192000 
  512000   0.79571461    -3.836403    -3.836403   -2.7991761    0.0276249    -3.836403     1.037227      8192000 
  513000   0.79581367   -3.8363511   -3.8363511   -2.7989784   0.02869827   -3.8363511    1.0373727      8192000 
  514000    0.7956929   -3.8362169   -3.8362169   -2.7989854   0.03012157   -3.8362169    1.0372315      8192000 
  515000   0.79598155   -3.8360123   -3.8360123    -2.798388  0.030887173   -3.8360123    1.0376244      8192000 
  516000   0.79576391   -3.8364498   -3.8364498   -2.7990926  0.029140861   -3.8364498    1.0373572      8192000 
  517000   0.79613582   -3.8364489   -3.8364489   -2.7985906  0.029575625   -3.8364489    1.0378583      8192000 
  518000   0.79587382   -3.8361784   -3.8361784   -2.7986451   0.03066531   -3.8361784    1.0375333      8192000 
  519000   0.79578271   -3.8361225   -3.8361225   -2.7986914  0.027644595   -3.8361225    1.0374311      8192000 
  520000   0.79624973   -3.8367328   -3.8367328   -2.7986766    0.0297105   -3.8367328    1.0380563      8192000 
  521000   0.79568102    -3.835937    -3.835937   -2.7986056  0.028285416    -3.835937    1.0373314      8192000 
  522000   0.79582588   -3.8360778   -3.8360778   -2.7985409  0.029010555   -3.8360778    1.0375368      8192000 
  523000   0.79586399   -3.8357193   -3.8357193   -2.7981165  0.029029158   -3.8357193    1.0376028      8192000 
  524000   0.79594357    -3.835945    -3.835945   -2.7982219  0.027573231    -3.835945    1.0377231      8192000 
  525000   0.79589571   -3.8356772   -3.8356772       -2.798  0.030231025   -3.8356772    1.0376773      8192000 
  526000   0.79604571   -3.8364368   -3.8364368   -2.7985476  0.029940623   -3.8364368    1.0378892      8192000 
  527000    0.7957125   -3.8361307   -3.8361307   -2.7986594  0.031880358   -3.8361307    1.0374713      8192000 
  528000   0.79677146   -3.8366816   -3.8366816    -2.797813  0.029918592   -3.8366816    1.0388686      8192000 
  529000   0.79608059   -3.8361137   -3.8361137   -2.7981297  0.027854764   -3.8361137    1.0379841      8192000 
  530000   0.79601928   -3.8358788   -3.8358788   -2.7979581  0.030132428   -3.8358788    1.0379207      8192000 
  531000   0.79584249   -3.8357209   -3.8357209   -2.7980142  0.031491018   -3.8357209    1.0377068      8192000 
  532000   0.79614712   -3.8361734   -3.8361734   -2.7980531  0.028084803   -3.8361734    1.0381203      8192000 
  533000    0.7955821   -3.8353651   -3.8353651    -2.797965   0.03242968   -3.8353651    1.0374001      8192000 
  534000   0.79610004   -3.8357325   -3.8357325   -2.7976404  0.029570501   -3.8357325     1.038092      8192000 
  535000    0.7960012   -3.8356107   -3.8356107   -2.7976313   0.02889634   -3.8356107    1.0379795      8192000 
  536000    0.7959058   -3.8354832   -3.8354832   -2.7976115  0.031676954   -3.8354832    1.0378716      8192000 
  537000    0.7961901   -3.8355895   -3.8355895   -2.7973306  0.032344631   -3.8355895    1.0382589      8192000 
  538000   0.79636394   -3.8353002   -3.8353002   -2.7967983  0.031646764   -3.8353002     1.038502      8192000 
  539000   0.79610636    -3.834877    -3.834877   -2.7966944  0.029155143    -3.834877    1.0381826      8192000 
  540000   0.79633672    -3.835115    -3.835115   -2.7966154   0.03168908    -3.835115    1.0384996      8192000 
  541000   0.79622958     -3.83515     -3.83515   -2.7967738  0.031488053     -3.83515    1.0383762      8192000 
  542000   0.79617622   -3.8352926   -3.8352926   -2.7969694  0.028511953   -3.8352926    1.0383232      8192000 
  543000   0.79610813   -3.8351289   -3.8351289   -2.7968779   0.02718605   -3.8351289     1.038251      8192000 
  544000   0.79603549   -3.8349245   -3.8349245   -2.7967519  0.029973634   -3.8349245    1.0381726      8192000 
  545000   0.79597735   -3.8346765   -3.8346765   -2.7965631  0.029293181   -3.8346765    1.0381133      8192000 
  546000   0.79528773   -3.8340318   -3.8340318   -2.7968013  0.026740083   -3.8340318    1.0372305      8192000 
  547000   0.79511082   -3.8337392   -3.8337392   -2.7967232  0.027870661   -3.8337392    1.0370161      8192000 
  548000    0.7952212   -3.8340106   -3.8340106    -2.796834  0.030601221   -3.8340106    1.0371766      8192000 
  549000   0.79518311   -3.8339096   -3.8339096   -2.7967662  0.029116752   -3.8339096    1.0371435      8192000 
  550000   0.79586291   -3.8343101   -3.8343101   -2.7962637  0.030632616   -3.8343101    1.0380464      8192000 
  551000   0.79578813   -3.8344525   -3.8344525   -2.7964871  0.028976726   -3.8344525    1.0379655      8192000 
  552000   0.79575616   -3.8341109   -3.8341109   -2.7961705  0.030505047   -3.8341109    1.0379403      8192000 
  553000   0.79594475   -3.8343271   -3.8343271   -2.7961244  0.029381176   -3.8343271    1.0382027      8192000 
  554000   0.79600173   -3.8342819   -3.8342819   -2.7959884  0.027524464   -3.8342819    1.0382936      8192000 
  555000   0.79580798   -3.8344636   -3.8344636   -2.7964062  0.025695039   -3.8344636    1.0380574      8192000 
  556000   0.79551406   -3.8335635   -3.8335635   -2.7958732  0.029932903   -3.8335635    1.0376903      8192000 
  557000   0.79558497   -3.8338934   -3.8338934    -2.796094  0.028069736   -3.8338934    1.0377994      8192000 
  558000   0.79580892   -3.8338906   -3.8338906   -2.7957825  0.026703254   -3.8338906    1.0381081      8192000 
  559000   0.79536139   -3.8337017   -3.8337017   -2.7961611  0.028623296   -3.8337017    1.0375406      8192000 
  560000   0.79568085   -3.8340417   -3.8340417   -2.7960678  0.027652188   -3.8340417    1.0379739      8192000 
  561000   0.79563343   -3.8336615   -3.8336615   -2.7957329  0.032670017   -3.8336615    1.0379287      8192000 
  562000   0.79654758   -3.8346204   -3.8346204   -2.7954828    0.0298911   -3.8346204    1.0391375      8192000 
  563000   0.79604787   -3.8340016   -3.8340016   -2.7954994  0.030727286   -3.8340016    1.0385022      8192000 
  564000   0.79582206   -3.8337127   -3.8337127   -2.7954885  0.033228288   -3.8337127    1.0382242      8192000 
  565000   0.79611344   -3.8339167   -3.8339167    -2.795296  0.029211439   -3.8339167    1.0386207      8192000 
  566000   0.79583102   -3.8337503   -3.8337503   -2.7954815  0.033368167   -3.8337503    1.0382688      8192000 
  567000   0.79603697   -3.8338999   -3.8338999   -2.7953458  0.030712439   -3.8338999    1.0385541      8192000 
  568000   0.79612525   -3.8338234   -3.8338234   -2.7951378  0.030243996   -3.8338234    1.0386856      8192000 
  569000    0.7956988   -3.8330449   -3.8330449   -2.7948991  0.029352379   -3.8330449    1.0381458      8192000 
  570000   0.79588836   -3.8331475   -3.8331475   -2.7947378   0.03133457   -3.8331475    1.0384097      8192000 
  571000   0.79612756    -3.833528    -3.833528   -2.7947898  0.028212761    -3.833528    1.0387381      8192000 
  572000   0.79589263   -3.8333592   -3.8333592    -2.794911  0.028242065   -3.8333592    1.0384482      8192000 
  573000   0.79632372   -3.8334032   -3.8334032    -2.794376  0.030068848   -3.8334032    1.0390273      8192000 
  574000   0.79614486   -3.8330913   -3.8330913   -2.7942811  0.030148215   -3.8330913    1.0388102      8192000 
  575000   0.79598141   -3.8329733   -3.8329733   -2.7943598  0.030912842   -3.8329733    1.0386136      8192000 
  576000   0.79580101    -3.832421    -3.832421   -2.7940263  0.031273197    -3.832421    1.0383947      8192000 
  577000    0.7961677   -3.8326937   -3.8326937   -2.7938041  0.028811679   -3.8326937    1.0388896      8192000 
  578000   0.79561338   -3.8321756   -3.8321756   -2.7939928   0.02968714   -3.8321756    1.0381828      8192000 
  579000   0.79583134   -3.8323026   -3.8323026   -2.7938188  0.029313855   -3.8323026    1.0384838      8192000 
  580000   0.79580127   -3.8325543   -3.8325543   -2.7940934  0.028108543   -3.8325543    1.0384609      8192000 
  581000   0.79530425   -3.8319128   -3.8319128   -2.7940838  0.027939225   -3.8319128    1.0378289      8192000 
  582000    0.7957333   -3.8322497   -3.8322497   -2.7938443  0.028314781   -3.8322497    1.0384054      8192000 
  583000   0.79573212   -3.8322323   -3.8322323   -2.7938121  0.026268574   -3.8322323    1.0384202      8192000 
  584000   0.79545424   -3.8317474   -3.8317474   -2.7936732  0.027264258   -3.8317474    1.0380742      8192000 
  585000   0.79522984   -3.8312867   -3.8312867   -2.7934888  0.028164578   -3.8312867    1.0377979      8192000 
  586000   0.79513565   -3.8312204   -3.8312204   -2.7935291  0.026993021   -3.8312204    1.0376913      8192000 
  587000   0.79465685    -3.830419    -3.830419    -2.793336  0.027262536    -3.830419     1.037083      8192000 
  588000   0.79527389   -3.8314408   -3.8314408   -2.7935359  0.026483418   -3.8314408    1.0379049      8192000 
  589000   0.79536847   -3.8316423   -3.8316423   -2.7935977  0.026265013   -3.8316423    1.0380446      8192000 
  590000   0.79576725   -3.8318526   -3.8318526   -2.7932709  0.028918265   -3.8318526    1.0385817      8192000 
  591000   0.79562702   -3.8317606   -3.8317606   -2.7933453  0.026929555   -3.8317606    1.0384152      8192000 
  592000   0.79585934   -3.8319014   -3.8319014   -2.7931666  0.027835241   -3.8319014    1.0387348      8192000 
  593000   0.79561326   -3.8316313   -3.8316313    -2.793201  0.027631688   -3.8316313    1.0384302      8192000 
  594000   0.79560895   -3.8316432   -3.8316432    -2.793202  0.028398755   -3.8316432    1.0384412      8192000 
  595000   0.79603248   -3.8317583   -3.8317583   -2.7927479  0.030600086   -3.8317583    1.0390103      8192000 
  596000   0.79559661     -3.83176     -3.83176    -2.793302  0.027312786     -3.83176     1.038458      8192000 
  597000   0.79577535   -3.8320636   -3.8320636   -2.7933557  0.029607456   -3.8320636    1.0387079      8192000 
  598000   0.79557107   -3.8316217   -3.8316217   -2.7931641  0.031320501   -3.8316217    1.0384576      8192000 
  599000    0.7958556   -3.8315125   -3.8315125   -2.7926669  0.029752104   -3.8315125    1.0388456      8192000 
  600000   0.79606784   -3.8316611   -3.8316611   -2.7925218  0.030317638   -3.8316611    1.0391392      8192000 
  601000   0.79593639   -3.8312856   -3.8312856   -2.7923016  0.030449043   -3.8312856     1.038984      8192000 
  602000    0.7963287   -3.8318047   -3.8318047    -2.792292  0.032949826   -3.8318047    1.0395127      8192000 
  603000   0.79556517    -3.831557    -3.831557   -2.7930244  0.031305084    -3.831557    1.0385326      8192000 
  604000   0.79604838   -3.8316681   -3.8316681   -2.7924883  0.029919686   -3.8316681    1.0391798      8192000 
  605000   0.79558708   -3.8310368   -3.8310368   -2.7924426  0.034286133   -3.8310368    1.0385942      8192000 
  606000   0.79612685   -3.8315865   -3.8315865   -2.7922711  0.031870976   -3.8315865    1.0393154      8192000 
  607000   0.79573999   -3.8312172   -3.8312172   -2.7923904  0.033161406   -3.8312172    1.0388267      8192000 
  608000   0.79576133   -3.8312687   -3.8312687   -2.7923975  0.028164722   -3.8312687    1.0388712      8192000 
  609000   0.79557127   -3.8308902   -3.8308902   -2.7922505  0.030620066   -3.8308902    1.0386397      8192000 
  610000   0.79586856   -3.8311116   -3.8311116   -2.7920675  0.028948559   -3.8311116    1.0390441      8192000 
  611000   0.79568221   -3.8314333   -3.8314333   -2.7926158  0.027387349   -3.8314333    1.0388175      8192000 
  612000   0.79564006   -3.8307362   -3.8307362   -2.7919572  0.030238373   -3.8307362     1.038779      8192000 
  613000   0.79526038   -3.8301071   -3.8301071   -2.7918074  0.029695955   -3.8301071    1.0382997      8192000 
  614000   0.79556504   -3.8303172   -3.8303172   -2.7916032   0.02903946   -3.8303172     1.038714      8192000 
  615000   0.79585837    -3.830649    -3.830649   -2.7915354   0.03082247    -3.830649    1.0391136      8192000 
  616000   0.79545075   -3.8302002   -3.8302002   -2.7916024  0.028048303   -3.8302002    1.0385978      8192000 
  617000   0.79531138   -3.8298424   -3.8298424     -2.79141  0.031349884   -3.8298424    1.0384324      8192000 
  618000   0.79606719   -3.8310362   -3.8310362   -2.7916003  0.028892332   -3.8310362    1.0394358      8192000 
  619000   0.79555411   -3.8301161   -3.8301161   -2.7913338   0.02828358   -3.8301161    1.0387823      8192000 
  620000   0.79542457   -3.8298826   -3.8298826   -2.7912529  0.029615655   -3.8298826    1.0386297      8192000 
  621000   0.79589102   -3.8303751   -3.8303751   -2.7911197  0.028572186   -3.8303751    1.0392554      8192000 
  622000   0.79520204   -3.8296663   -3.8296663   -2.7912942  0.025744429   -3.8296663    1.0383721      8192000 
  623000   0.79520949   -3.8294788   -3.8294788   -2.7910804   0.03138104   -3.8294788    1.0383984      8192000 
  624000   0.79518694   -3.8293389   -3.8293389   -2.7909533  0.028373128   -3.8293389    1.0383856      8192000 
  625000   0.79515061   -3.8293239   -3.8293239   -2.7909695  0.028822172   -3.8293239    1.0383545      8192000 
  626000   0.79575674   -3.8298419   -3.8298419   -2.7906793  0.028321309   -3.8298419    1.0391626      8192000 
  627000   0.79545768   -3.8292939   -3.8292939   -2.7905053  0.027221904   -3.8292939    1.0387887      8192000 
  628000   0.79569664   -3.8295694   -3.8295694   -2.7904523   0.02709163   -3.8295694    1.0391171      8192000 
  629000   0.79569393   -3.8296726   -3.8296726   -2.7905424  0.029414311   -3.8296726    1.0391302      8192000 
  630000    0.7957702   -3.8297134   -3.8297134   -2.7904671  0.032541635   -3.8297134    1.0392464      8192000 
  631000   0.79567582   -3.8294499   -3.8294499   -2.7903104  0.029752039   -3.8294499    1.0391395      8192000 
  632000   0.79537249   -3.8295985   -3.8295985   -2.7908385  0.029261684   -3.8295985    1.0387599      8192000 
  633000    0.7954681    -3.829155    -3.829155   -2.7902535  0.032791197    -3.829155    1.0389014      8192000 
  634000   0.79547439   -3.8291293   -3.8291293   -2.7902033  0.029739989   -3.8291293     1.038926      8192000 
  635000   0.79549136   -3.8293605   -3.8293605   -2.7903957  0.027541988   -3.8293605    1.0389648      8192000 
  636000   0.79550416   -3.8293644   -3.8293644   -2.7903663  0.028040602   -3.8293644    1.0389981      8192000 
  637000   0.79536028   -3.8286913   -3.8286913   -2.7898648  0.030581038   -3.8286913    1.0388265      8192000 
  638000   0.79564078   -3.8292501   -3.8292501   -2.7900406  0.030394878   -3.8292501    1.0392095      8192000 
  639000   0.79569058   -3.8290634   -3.8290634   -2.7897722  0.030855886   -3.8290634    1.0392912      8192000 
  640000   0.79567062   -3.8290864   -3.8290864    -2.789805  0.031406713   -3.8290864    1.0392815      8192000 
  641000   0.79553868   -3.8288638   -3.8288638   -2.7897381  0.031898636   -3.8288638    1.0391257      8192000 
  642000   0.79570073   -3.8292103   -3.8292103   -2.7898562  0.030552721   -3.8292103     1.039354      8192000 
  643000   0.79577496   -3.8292405   -3.8292405   -2.7897731   0.02856208   -3.8292405    1.0394674      8192000 
  644000   0.79535366   -3.8284472   -3.8284472   -2.7895136  0.031254854   -3.8284472    1.0389337      8192000 
  645000   0.79593308   -3.8289002   -3.8289002   -2.7891931  0.030223886   -3.8289002    1.0397072      8192000 
  646000   0.79544296   -3.8286392   -3.8286392   -2.7895559  0.030834748   -3.8286392    1.0390833      8192000 
  647000    0.7950371   -3.8278405   -3.8278405   -2.7892708  0.030160893   -3.8278405    1.0385697      8192000 
  648000   0.79559201   -3.8286399   -3.8286399   -2.7893287   0.02865144   -3.8286399    1.0393112      8192000 
  649000   0.79532515   -3.8280968   -3.8280968   -2.7891179  0.029056001   -3.8280968     1.038979      8192000 
  650000   0.79552923   -3.8284791   -3.8284791   -2.7892169  0.030405077   -3.8284791    1.0392622      8192000 
  651000   0.79536149   -3.8285327   -3.8285327    -2.789473  0.029287171   -3.8285327    1.0390597      8192000 
[...]
 3441000    0.7737141   -3.7004491   -3.7004491   -2.6427154  0.038332058   -3.7004491    1.0577337      8192000 
 3442000   0.77335211   -3.7007694   -3.7007694   -2.6435132  0.034215914   -3.7007694    1.0572562      8192000 
 3443000   0.77368013   -3.7009989   -3.7009989   -2.6432766  0.037420357   -3.7009989    1.0577224      8192000 
 3444000   0.77394894   -3.7011532   -3.7011532   -2.6430456  0.035162979   -3.7011532    1.0581076      8192000 
 3445000   0.77379023   -3.7007473   -3.7007473   -2.6428393  0.037921718   -3.7007473    1.0579081      8192000 
 3446000   0.77404096   -3.7011281   -3.7011281   -2.6428595  0.036045249   -3.7011281    1.0582686      8192000 
 3447000   0.77357795   -3.7008736   -3.7008736   -2.6432204  0.038192596   -3.7008736    1.0576532      8192000 
 3448000   0.77394155   -3.7011597   -3.7011597    -2.642992  0.037220966   -3.7011597    1.0581678      8192000 
 3449000   0.77421017   -3.7012034   -3.7012034   -2.6426507  0.037236755   -3.7012034    1.0585528      8192000 
 3450000   0.77364007   -3.7005403   -3.7005403   -2.6427493  0.037143467   -3.7005403     1.057791      8192000 
 3451000   0.77330105   -3.7003135   -3.7003135   -2.6429686   0.03572126   -3.7003135    1.0573449      8192000 
 3452000    0.7733531   -3.7000649   -3.7000649   -2.6426311  0.035648728   -3.7000649    1.0574338      8192000 
 3453000   0.77360818   -3.7003629   -3.7003629   -2.6425626  0.035489585   -3.7003629    1.0578002      8192000 
 3454000   0.77335569   -3.6998992   -3.6998992   -2.6424267  0.037255159   -3.6998992    1.0574724      8192000 
 3455000   0.77315549   -3.6999203   -3.6999203   -2.6427039  0.035601533   -3.6999203    1.0572164      8192000 
 3456000   0.77312323   -3.7001282   -3.7001282   -2.6429382  0.036084875   -3.7001282      1.05719      8192000 
 3457000   0.77326203   -3.7002055   -3.7002055   -2.6428083  0.034575842   -3.7002055    1.0573972      8192000 
 3458000   0.77304755   -3.6999587   -3.6999587   -2.6428371  0.035113433   -3.6999587    1.0571216      8192000 
 3459000   0.77325418   -3.6998385   -3.6998385   -2.6424166  0.033162878   -3.6998385    1.0574219      8192000 
 3460000    0.7734221   -3.7001074   -3.7001074   -2.6424385  0.034709674   -3.7001074    1.0576689      8192000 
 3461000   0.77319364    -3.699194    -3.699194   -2.6418198  0.035977073    -3.699194    1.0573742      8192000 
 3462000   0.77311732   -3.6990958   -3.6990958   -2.6418083   0.03601412   -3.6990958    1.0572875      8192000 
 3463000   0.77290021   -3.6989029   -3.6989029   -2.6418949  0.034512673   -3.6989029     1.057008      8192000 
 3464000   0.77356199   -3.6999064   -3.6999064   -2.6419756  0.036240498   -3.6999064    1.0579308      8192000 
 3465000   0.77341104   -3.6997651   -3.6997651    -2.642023   0.03663868   -3.6997651    1.0577421      8192000 
 3466000   0.77370868   -3.7002596   -3.7002596   -2.6420931  0.033575399   -3.7002596    1.0581666      8192000 
 3467000   0.77355274   -3.6999967   -3.6999967   -2.6420257  0.034159284   -3.6999967     1.057971      8192000 
 3468000   0.77335618   -3.6997384   -3.6997384   -2.6420185  0.033005148   -3.6997384    1.0577199      8192000 
 3469000   0.77337593   -3.6996701   -3.6996701   -2.6419057  0.034098922   -3.6996701    1.0577643      8192000 
 3470000   0.77336821    -3.699688    -3.699688   -2.6419165  0.037902229    -3.699688    1.0577715      8192000 
 3471000   0.77354156   -3.6997606   -3.6997606   -2.6417343   0.03247682   -3.6997606    1.0580263      8192000 
 3472000   0.77312792   -3.6994699   -3.6994699   -2.6419919  0.037428019   -3.6994699     1.057478      8192000 
 3473000   0.77323463    -3.699524    -3.699524   -2.6418824  0.038153681    -3.699524    1.0576416      8192000 
 3474000   0.77340966   -3.6997097   -3.6997097   -2.6418109  0.034916516   -3.6997097    1.0578988      8192000 
 3475000   0.77280502   -3.6989658   -3.6989658   -2.6418767  0.036455537   -3.6989658    1.0570891      8192000 
 3476000   0.77342461   -3.6995744   -3.6995744     -2.64162  0.036466949   -3.6995744    1.0579544      8192000 
 3477000    0.7731705   -3.6996333   -3.6996333   -2.6420089   0.03706941   -3.6996333    1.0576245      8192000 
 3478000   0.77354894   -3.6997632   -3.6997632   -2.6416036  0.035197494   -3.6997632    1.0581596      8192000 
 3479000   0.77400974   -3.7001143   -3.7001143   -2.6413067  0.035901511   -3.7001143    1.0588077      8192000 
 3480000   0.77364937   -3.6998428   -3.6998428   -2.6415104  0.038653082   -3.6998428    1.0583324      8192000 
 3481000    0.7736489   -3.6998811   -3.6998811   -2.6415319   0.03583313   -3.6998811    1.0583492      8192000 
 3482000   0.77398763   -3.7001995   -3.7001995   -2.6413691  0.035963403   -3.7001995    1.0588304      8192000 
 3483000   0.77343799   -3.6995698   -3.6995698   -2.6414736  0.036385365   -3.6995698    1.0580962      8192000 
 3484000   0.77295137   -3.6989607   -3.6989607   -2.6415128  0.038399188   -3.6989607    1.0574479      8192000 
 3485000   0.77317218   -3.6993403   -3.6993403   -2.6415726  0.036898231   -3.6993403    1.0577677      8192000 
 3486000   0.77280644   -3.6987271   -3.6987271   -2.6414421  0.035038867   -3.6987271     1.057285      8192000 
 3487000   0.77310293   -3.6987776   -3.6987776   -2.6410695  0.036942358   -3.6987776    1.0577081      8192000 
 3488000   0.77318518   -3.6989937   -3.6989937   -2.6411553  0.036327415   -3.6989937    1.0578383      8192000 
 3489000   0.77332038   -3.6992458   -3.6992458   -2.6412047  0.034366471   -3.6992458     1.058041      8192000 
 3490000   0.77319488   -3.6995277   -3.6995277   -2.6416409  0.033485938   -3.6995277    1.0578868      8192000 
 3491000   0.77342808   -3.6989239   -3.6989239   -2.6407004  0.037250318   -3.6989239    1.0582236      8192000 
 3492000   0.77353558   -3.6989164   -3.6989164   -2.6405281  0.035597982   -3.6989164    1.0583884      8192000 
 3493000   0.77315957   -3.6988938   -3.6988938   -2.6410025  0.035096834   -3.6988938    1.0578913      8192000 
 3494000   0.77308103   -3.6986524   -3.6986524   -2.6408508  0.033829104   -3.6986524    1.0578016      8192000 
 3495000   0.77323882   -3.6991801   -3.6991801   -2.6411449   0.03271372   -3.6991801    1.0580352      8192000 
 3496000   0.77320736   -3.6987813   -3.6987813   -2.6407717  0.036908008   -3.6987813    1.0580096      8192000 
 3497000   0.77285005   -3.6985022   -3.6985022   -2.6409637  0.038220865   -3.6985022    1.0575384      8192000 
 3498000   0.77318559   -3.6985517   -3.6985517   -2.6405364  0.036938508   -3.6985517    1.0580153      8192000 
 3499000   0.77257545   -3.6982335   -3.6982335   -2.6410357  0.035512246   -3.6982335    1.0571978      8192000 
 3500000   0.77310847   -3.6987223   -3.6987223   -2.6407773   0.03663202   -3.6987223    1.0579449      8192000 
 3501000   0.77283937   -3.6982548   -3.6982548   -2.6406604  0.037836239   -3.6982548    1.0575944      8192000 
 3502000   0.77338945   -3.6985954   -3.6985954   -2.6402308  0.039756394   -3.6985954    1.0583646      8192000 
 3503000   0.77343414   -3.6986738   -3.6986738   -2.6402303  0.036670032   -3.6986738    1.0584435      8192000 
 3504000   0.77346379   -3.6989759   -3.6989759   -2.6404741   0.03847793   -3.6989759    1.0585018      8192000 
 3505000   0.77310933   -3.6986086   -3.6986086   -2.6405744  0.035718164   -3.6986086    1.0580342      8192000 
 3506000   0.77335872   -3.6986104   -3.6986104   -2.6402172  0.037860289   -3.6986104    1.0583932      8192000 
 3507000   0.77321451   -3.6984441   -3.6984441   -2.6402306  0.038383918   -3.6984441    1.0582136      8192000 
 3508000   0.77308473   -3.6980101   -3.6980101   -2.6399567  0.037328501   -3.6980101    1.0580534      8192000 
 3509000   0.77341209   -3.6990346   -3.6990346   -2.6405154  0.035112593   -3.6990346    1.0585192      8192000 
 3510000    0.7729541   -3.6983933   -3.6983933   -2.6404832  0.034057571   -3.6983933    1.0579101      8192000 
 3511000   0.77259834     -3.69742     -3.69742   -2.6399794  0.036147697     -3.69742    1.0574406      8192000 
 3512000   0.77270645   -3.6977255   -3.6977255   -2.6401191  0.034353357   -3.6977255    1.0576063      8192000 
 3513000   0.77291622   -3.6976703   -3.6976703   -2.6397591  0.037617325   -3.6976703    1.0579111      8192000 
 3514000   0.77323548   -3.6980994   -3.6980994   -2.6397338  0.035194545   -3.6980994    1.0583656      8192000 
 3515000   0.77286957   -3.6977247   -3.6977247   -2.6398422    0.0376547   -3.6977247    1.0578825      8192000 
 3516000    0.7726236   -3.6979898   -3.6979898   -2.6404263  0.038694912   -3.6979898    1.0575635      8192000 
 3517000   0.77332281   -3.6986046   -3.6986046   -2.6400665  0.035691642   -3.6986046    1.0585381      8192000 
 3518000   0.77301145   -3.6980646   -3.6980646    -2.639935  0.036669765   -3.6980646    1.0581296      8192000 
 3519000   0.77303407   -3.6978123   -3.6978123    -2.639634  0.035662441   -3.6978123    1.0581783      8192000 
 3520000   0.77300939   -3.6977811   -3.6977811   -2.6396192  0.035000951   -3.6977811     1.058162      8192000 
 3521000   0.77258979   -3.6978579   -3.6978579   -2.6402526   0.03651676   -3.6978579    1.0576053      8192000 
 3522000   0.77273188   -3.6976696   -3.6976696   -2.6398521  0.036877692   -3.6976696    1.0578175      8192000 
 3523000    0.7723462   -3.6973206   -3.6973206   -2.6400136  0.036051462   -3.6973206     1.057307      8192000 
 3524000   0.77286468   -3.6976445   -3.6976445     -2.63961   0.03430095   -3.6976445    1.0580345      8192000 
 3525000   0.77268669   -3.6974477   -3.6974477   -2.6396391  0.036821598   -3.6974477    1.0578086      8192000 
 3526000   0.77283508   -3.6972327   -3.6972327   -2.6392035    0.0381202   -3.6972327    1.0580292      8192000 
 3527000    0.7728426   -3.6973388   -3.6973388   -2.6392816  0.036619953   -3.6973388    1.0580572      8192000 
 3528000   0.77300456    -3.697745    -3.697745   -2.6394483  0.036312089    -3.697745    1.0582967      8192000 
 3529000   0.77266735   -3.6973456   -3.6973456   -2.6394931  0.037107524   -3.6973456    1.0578525      8192000 
 3530000   0.77272773   -3.6969323   -3.6969323   -2.6389794  0.039049634   -3.6969323    1.0579529      8192000 
 3531000   0.77323996   -3.6979858   -3.6979858   -2.6393139  0.036492991   -3.6979858    1.0586719      8192000 
 3532000   0.77344944   -3.6979489   -3.6979489   -2.6389727  0.036014324   -3.6979489    1.0589762      8192000 
 3533000   0.77279413   -3.6973504   -3.6973504   -2.6392537  0.038522694   -3.6973504    1.0580967      8192000 
 3534000   0.77256098   -3.6969413   -3.6969413   -2.6391461  0.036861004   -3.6969413    1.0577952      8192000 
 3535000   0.77259827   -3.6970757   -3.6970757   -2.6392119  0.036507315   -3.6970757    1.0578637      8192000 
 3536000   0.77270746   -3.6971534   -3.6971534   -2.6391224  0.038118312   -3.6971534     1.058031      8192000 
 3537000   0.77252127   -3.6969628   -3.6969628    -2.639169  0.036645103   -3.6969628    1.0577938      8192000 
 3538000   0.77257176   -3.6971472   -3.6971472   -2.6392669  0.037190883   -3.6971472    1.0578804      8192000 
 3539000   0.77288687   -3.6975948   -3.6975948   -2.6392653    0.0345951   -3.6975948    1.0583296      8192000 
 3540000   0.77333762   -3.6972882   -3.6972882   -2.6383236  0.035606839   -3.6972882    1.0589646      8192000 
 3541000    0.7726965   -3.6971357   -3.6971357   -2.6390316  0.038589983   -3.6971357    1.0581041      8192000 
 3542000   0.77243019   -3.6970358   -3.6970358   -2.6392786  0.037134531   -3.6970358    1.0577572      8192000 
 3543000   0.77233941   -3.6967955   -3.6967955   -2.6391449  0.037362379   -3.6967955    1.0576506      8192000 
 3544000    0.7724559   -3.6967929   -3.6967929   -2.6389654  0.038956993   -3.6967929    1.0578276      8192000 
 3545000   0.77280177   -3.6965897   -3.6965897   -2.6382707  0.038645437   -3.6965897    1.0583189      8192000 
 3546000   0.77262689   -3.6964764   -3.6964764   -2.6383792  0.037981617   -3.6964764    1.0580972      8192000 
 3547000    0.7726961   -3.6967387   -3.6967387   -2.6385293  0.035560151   -3.6967387    1.0582095      8192000 
 3548000    0.7722373   -3.6963751   -3.6963751   -2.6387762  0.032424928   -3.6963751    1.0575989      8192000 
 3549000   0.77259579   -3.6970646   -3.6970646    -2.638957  0.033995683   -3.6970646    1.0581076      8192000 
 3550000   0.77259129   -3.6967312   -3.6967312   -2.6386123  0.035088176   -3.6967312    1.0581189      8192000 
 3551000   0.77217868   -3.6963806   -3.6963806   -2.6388091  0.034293789   -3.6963806    1.0575715      8192000 
 3552000   0.77225674    -3.696027    -3.696027   -2.6383308  0.038926164    -3.696027    1.0576961      8192000 
 3553000    0.7723319   -3.6963187   -3.6963187   -2.6385022   0.03405234   -3.6963187    1.0578165      8192000 
 3554000   0.77246348   -3.6961216   -3.6961216   -2.6381071  0.034604887   -3.6961216    1.0580145      8192000 
 3555000    0.7720428   -3.6956158   -3.6956158   -2.6381598  0.035823276   -3.6956158     1.057456      8192000 
 3556000   0.77272937   -3.6964001   -3.6964001   -2.6379862  0.035269078   -3.6964001    1.0584139      8192000 
 3557000   0.77209063   -3.6957999   -3.6957999   -2.6382432  0.032580157   -3.6957999    1.0575567      8192000 
 3558000   0.77225664   -3.6960608   -3.6960608   -2.6382589  0.034394953   -3.6960608    1.0578019      8192000 
 3559000   0.77206085   -3.6962108   -3.6962108   -2.6386597  0.035118144   -3.6962108    1.0575511      8192000 
 3560000   0.77228032   -3.6963547   -3.6963547   -2.6384852   0.03939996   -3.6963547    1.0578695      8192000 
 3561000   0.77208231   -3.6961288   -3.6961288   -2.6385128   0.03539772   -3.6961288     1.057616      8192000 
 3562000   0.77194192   -3.6961807   -3.6961807   -2.6387395   0.03442072   -3.6961807    1.0574412      8192000 
 3563000   0.77202364   -3.6959698   -3.6959698    -2.638399  0.034772591   -3.6959698    1.0575708      8192000 
 3564000   0.77215614   -3.6962642   -3.6962642   -2.6384942  0.034664374   -3.6962642    1.0577701      8192000 
 3565000   0.77220364   -3.6966059   -3.6966059   -2.6387532  0.036359635   -3.6966059    1.0578526      8192000 
 3566000   0.77244148   -3.6965482   -3.6965482    -2.638352  0.038825604   -3.6965482    1.0581962      8192000 
 3567000    0.7726038   -3.6963565   -3.6963565   -2.6379202  0.037392992   -3.6963565    1.0584363      8192000 
 3568000   0.77230031   -3.6960846   -3.6960846   -2.6380465  0.038388381   -3.6960846     1.058038      8192000 
 3569000   0.77298209   -3.6970425   -3.6970425   -2.6380527  0.037415372   -3.6970425    1.0589898      8192000 
 3570000   0.77257795   -3.6962626   -3.6962626   -2.6378088  0.036566729   -3.6962626    1.0584539      8192000 
 3571000   0.77245551    -3.695919    -3.695919   -2.6376154  0.039177172    -3.695919    1.0583036      8192000 
 3572000   0.77243003    -3.696164    -3.696164   -2.6378775  0.036063532    -3.696164    1.0582864      8192000 
 3573000    0.7728768   -3.6968695   -3.6968695   -2.6379531  0.034938483   -3.6968695    1.0589163      8192000 
 3574000   0.77238281   -3.6961837   -3.6961837   -2.6379267   0.03766665   -3.6961837     1.058257      8192000 
 3575000   0.77232126   -3.6961703   -3.6961703   -2.6379799  0.037464926   -3.6961703    1.0581904      8192000 
 3576000   0.77226031   -3.6961641   -3.6961641   -2.6380395  0.036139872   -3.6961641    1.0581246      8192000 
 3577000   0.77198997   -3.6958614   -3.6958614   -2.6380897  0.035609006   -3.6958614    1.0577717      8192000 
 3578000   0.77221646    -3.696023    -3.696023   -2.6379232    0.0347228    -3.696023    1.0580998      8192000 
 3579000   0.77202431   -3.6962343   -3.6962343   -2.6383801  0.037821264   -3.6962343    1.0578542      8192000 
 3580000      0.77238    -3.695878    -3.695878   -2.6375189   0.03709425    -3.695878    1.0583591      8192000 
 3581000   0.77248705   -3.6961896   -3.6961896   -2.6376661  0.035797526   -3.6961896    1.0585235      8192000 
 3582000   0.77229217    -3.696158    -3.696158   -2.6378837  0.034454668    -3.696158    1.0582742      8192000 
 3583000   0.77221117   -3.6958202   -3.6958202   -2.6376394  0.034548563   -3.6958202    1.0581807      8192000 
 3584000   0.77251484   -3.6959896   -3.6959896    -2.637375  0.033347174   -3.6959896    1.0586146      8192000 
 3585000   0.77199241    -3.695771    -3.695771   -2.6378545  0.035784832    -3.695771    1.0579164      8192000 
 3586000   0.77187908   -3.6956789   -3.6956789   -2.6379003  0.035435139   -3.6956789    1.0577786      8192000 
 3587000   0.77191474   -3.6954373   -3.6954373    -2.637592  0.034026383   -3.6954373    1.0578452      8192000 
 3588000   0.77220372   -3.6955195   -3.6955195   -2.6372604  0.036123698   -3.6955195     1.058259      8192000 
 3589000   0.77214352   -3.6953492   -3.6953492   -2.6371552  0.035696653   -3.6953492     1.058194      8192000 
 3590000   0.77229449   -3.6955208   -3.6955208   -2.6371021  0.034804784   -3.6955208    1.0584186      8192000 
 3591000   0.77225887   -3.6958128   -3.6958128   -2.6374252  0.034779582   -3.6958128    1.0583876      8192000 
 3592000   0.77168426   -3.6950147   -3.6950147   -2.6373971  0.035189938   -3.6950147    1.0576176      8192000 
 3593000   0.77222963   -3.6955113   -3.6955113   -2.6371286  0.034166035   -3.6955113    1.0583828      8192000 
 3594000   0.77233004   -3.6951928   -3.6951928   -2.6366547  0.035882559   -3.6951928    1.0585381      8192000 
 3595000   0.77186006   -3.6947691   -3.6947691   -2.6368576  0.037571788   -3.6947691    1.0579115      8192000 
 3596000   0.77199558   -3.6953637   -3.6953637   -2.6372487  0.033921538   -3.6953637     1.058115      8192000 
 3597000   0.77219652   -3.6954048   -3.6954048   -2.6369966  0.035878681   -3.6954048    1.0584081      8192000 
 3598000   0.77166777   -3.6946348   -3.6946348   -2.6369339  0.036492945   -3.6946348    1.0577009      8192000 
 3599000   0.77206457   -3.6951052   -3.6951052   -2.6368427  0.032314271   -3.6951052    1.0582625      8192000 
 3600000   0.77204983   -3.6950907   -3.6950907   -2.6368306  0.033238885   -3.6950907    1.0582601      8192000 
 3601000   0.77167615   -3.6944884   -3.6944884    -2.636723  0.037053124   -3.6944884    1.0577653      8192000 
 3602000   0.77263341   -3.6955312   -3.6955312    -2.636436  0.037667541   -3.6955312    1.0590953      8192000 
 3603000   0.77236033   -3.6955755   -3.6955755   -2.6368368  0.034686689   -3.6955755    1.0587387      8192000 
 3604000   0.77253823   -3.6955774   -3.6955774   -2.6365773  0.034321447   -3.6955774    1.0590001      8192000 
 3605000   0.77220891   -3.6951396   -3.6951396   -2.6365732  0.036944076   -3.6951396    1.0585664      8192000 
 3606000   0.77206993   -3.6951061   -3.6951061   -2.6367125  0.037420535   -3.6951061    1.0583936      8192000 
 3607000   0.77210848   -3.6949173   -3.6949173   -2.6364534  0.033910277   -3.6949173     1.058464      8192000 
 3608000   0.77187248   -3.6947745   -3.6947745   -2.6366163  0.038015529   -3.6947745    1.0581582      8192000 
 3609000   0.77171241   -3.6943469   -3.6943469   -2.6363904  0.037398838   -3.6943469    1.0579565      8192000 
 3610000   0.77151274   -3.6944556   -3.6944556   -2.6367554  0.035841427   -3.6944556    1.0577003      8192000 
 3611000   0.77185433    -3.694956    -3.694956   -2.6367696  0.035305897    -3.694956    1.0581863      8192000 
 3612000    0.7718961   -3.6950627   -3.6950627   -2.6368013  0.036664838   -3.6950627    1.0582613      8192000 
 3613000   0.77174209   -3.6949775   -3.6949775   -2.6369098  0.037695858   -3.6949775    1.0580677      8192000 
 3614000   0.77201328   -3.6947681   -3.6947681   -2.6363108  0.034726871   -3.6947681    1.0584573      8192000 
 3615000   0.77163599   -3.6941183   -3.6941183   -2.6361606  0.03885763