LAMMPS (24 Dec 2020)
OMP_NUM_THREADS environment is not set. Defaulting to 1 thread. (src/comm.cpp:94)
  using 1 OpenMP thread(s) per MPI task
#Read the equilibrated lj fluid and add nanocubes

units           lj
atom_style      full
atom_modify     map array first cubes
dimension       3
boundary        p p f
pair_style      lj/cut/opt 2.5

variable        sigma           equal 1.0
variable        epsilon         equal 1.0
read_restart	restart.dat.10000000
Reading restart file ...
  restart file = 24 Dec 2020, LAMMPS = 24 Dec 2020
WARNING: Restart file used different # of processors: 288 vs. 768 (src/read_restart.cpp:697)
  restoring atom style full from restart
  orthogonal box = (0.0000000 0.0000000 0.0000000) to (120.00000 120.00000 240.00000)
  6 by 8 by 16 MPI processor grid
  restoring pair style lj/cut/opt from restart
  1553347 atoms
Finding 1-2 1-3 1-4 neighbors ...
  special bond factors lj:    0        0        0       
  special bond factors coul:  0        0        0       
     0 = max # of 1-2 neighbors
     0 = max # of 1-3 neighbors
     0 = max # of 1-4 neighbors
     1 = max # of special neighbors
  special bonds CPU = 7.917 seconds
  read_restart CPU = 9.178 seconds

group		solvent type 1
1553347 atoms in group solvent

read_data	data_450.cubes group cubes add append
Reading data file ...
  orthogonal box = (0.0000000 0.0000000 0.0000000) to (140.00000 140.00000 240.00000)
  8 by 8 by 12 MPI processor grid
  reading atoms ...
  560070 atoms
  reading velocities ...
  560070 velocities
Finding 1-2 1-3 1-4 neighbors ...
  special bond factors lj:    0        0        0       
  special bond factors coul:  0        0        0       
     0 = max # of 1-2 neighbors
     0 = max # of 1-3 neighbors
     0 = max # of 1-4 neighbors
     1 = max # of special neighbors
  special bonds CPU = 0.537 seconds
  read_data CPU = 3.961 seconds

group 		hull  type 2
218540 atoms in group hull
group 		dummy type 3
341530 atoms in group dummy

neighbor      0.4 bin
neigh_modify  exclude molecule/intra cubes


pair_modify   shift yes

pair_coeff    1 1 1.0 1.0 #solvent
pair_coeff    2 2 1.0 1.0 1.12 #np
pair_coeff    3 3 0.0 0.0 0.0 #dummy
pair_coeff    2 3 0.0 0.0 0.0 #np dummy
pair_coeff    1 2 ${sol} 1.0  #np solvent
pair_coeff    1 2 .675 1.0  
pair_coeff    1 3 0.0 0.0 2.5 #dummy solvent

# delete solvent where the cubes are
delete_atoms  overlap 1.0 solvent cubes
System init for delete_atoms ...
Unused restart file peratom fix info:
  fix style: STORE, fix ID: bin1_COMPUTE_STORE
Neighbor list info ...
  update every 1 steps, delay 10 steps, check yes
  max neighbors/atom: 2000, page size: 100000
  master list distance cutoff = 2.9
  ghost atom cutoff = 2.9
  binsize = 1.45, bins = 97 97 166
  2 neighbor lists, perpetual/occasional/extra = 1 1 0
  (1) command delete_atoms, occasional
      attributes: full, newton on
      pair build: full/bin
      stencil: full/bin/3d
      bin: standard
  (2) pair lj/cut/opt, perpetual
      attributes: half, newton on
      pair build: half/bin/newton
      stencil: half/bin/3d/newton
      bin: standard
WARNING: Delete_atoms cutoff > minimum neighbor cutoff (src/delete_atoms.cpp:307)
WARNING: Ignoring 'compress yes' for molecular system (src/delete_atoms.cpp:125)
Deleted 298110 atoms, new total = 1815307

pair_coeff    1 1 1.0 1.0 #solvent
pair_coeff    2 2 1.0 1.0 1.12 #np
pair_coeff    3 3 0.0 0.0 0.0 #dummy
pair_coeff    2 3 0.0 0.0 0.0 #np dummy
pair_coeff    1 2 ${sol} 1.0  #np solvent
pair_coeff    1 2 .675 1.0  
pair_coeff    1 3 0.0 0.0 0.0 #dummy solvent


comm_modify   mode multi cutoff/multi 1 2.5 cutoff/multi 2 2.5 cutoff/multi 3 6.95

reset_timestep 	0

balance 	1.05 shift z 10 1.05
Balancing ...
Neighbor list info ...
  update every 1 steps, delay 10 steps, check yes
  max neighbors/atom: 2000, page size: 100000
  master list distance cutoff = 2.9
  ghost atom cutoff = 6.95
  binsize = 1.45, bins = 97 97 166
  1 neighbor lists, perpetual/occasional/extra = 1 0 0
  (1) pair lj/cut/opt, perpetual
      attributes: half, newton on
      pair build: half/bin/newton
      stencil: half/bin/3d/newton
      bin: standard
 rebalancing time: 0.021 seconds
  iteration count = 4
  initial/final maximal load/proc = 4223.0000 4135.0000
  initial/final imbalance factor  = 1.7866201 1.7493900
  x cuts: 0.0000000 0.12500000 0.25000000 0.37500000 0.50000000 0.62500000 0.75000000 0.87500000 1.0000000
  y cuts: 0.0000000 0.12500000 0.25000000 0.37500000 0.50000000 0.62500000 0.75000000 0.87500000 1.0000000
  z cuts: 0.0000000 0.067708333 0.13020833 0.19270833 0.25520833 0.32291667 0.38541667 0.44791667 0.51041667 0.57812500 0.66145833 0.71354167 1.0000000

####################### WALLS ###########################

variable       epsilonWall equal 2*${epsilon}
variable       epsilonWall equal 2*1
variable       repulsive   equal   0.7147*${sigma}
variable       repulsive   equal   0.7147*1
variable       full	   equal   3*${sigma}
variable       full	   equal   3*1
region         lowWall block EDGE EDGE EDGE EDGE EDGE 2

fix            topWall all wall/lj93 zhi EDGE 	       ${epsilonWall} ${sigma} ${repulsive} units box
fix            topWall all wall/lj93 zhi EDGE 	       2 ${sigma} ${repulsive} units box
fix            topWall all wall/lj93 zhi EDGE 	       2 1 ${repulsive} units box
fix            topWall all wall/lj93 zhi EDGE 	       2 1 0.7147 units box
fix            lowSol solvent wall/lj93 zlo EDGE                ${epsilonWall} ${sigma} ${full} units box
fix            lowSol solvent wall/lj93 zlo EDGE                2 ${sigma} ${full} units box
fix            lowSol solvent wall/lj93 zlo EDGE                2 1 ${full} units box
fix            lowSol solvent wall/lj93 zlo EDGE                2 1 3 units box
fix 	       lowCub cubes wall/lj93 zlo EDGE                ${epsilonWall} ${sigma} ${repulsive} units box
fix 	       lowCub cubes wall/lj93 zlo EDGE                2 ${sigma} ${repulsive} units box
fix 	       lowCub cubes wall/lj93 zlo EDGE                2 1 ${repulsive} units box
fix 	       lowCub cubes wall/lj93 zlo EDGE                2 1 0.7147 units box


###################### COMPUTES ##########################

compute        bin1 solvent chunk/atom bin/1d z lower 1.0 units box
compute        bin3 solvent chunk/atom bin/3d x lower 5.0 y lower 5.0 z lower 5.0 units box

compute 	pe solvent 	   pe/atom
compute 	pe2 all 	   pe/atom

######################  FIXES ############################


fix             peclet solvent ave/chunk 10 10 100000 bin1 density/number norm                  none ave one file density.profile

fix              temp solvent ave/chunk 10 10 100000 bin1 temp norm                  none ave one file temp.profile

fix 		 dens solvent ave/chunk 10 10 500000 bin3 density/number norm 		 none ave one file dens3.profile

fix 		pe solvent ave/chunk 1 1 500000 bin3 c_pe norm none ave one file pe3.profile
fix             1 cubes rigid/nve/small molecule
  create bodies CPU = 0.044 seconds
  490 rigid bodies with 560070 atoms
  6.9282032 = max distance from body owner to body atom

fix             2 solvent nve# temp ${temp} ${temp} 10


## Thermostat
region          regthermo block EDGE EDGE EDGE EDGE 0 15
group           thermo dynamic solvent region regthermo every 1000
dynamic group thermo defined
fix             3 thermo langevin ${temp} ${temp} 10 156453
fix             3 thermo langevin 1.0 ${temp} 10 156453
fix             3 thermo langevin 1.0 1.0 10 156453


#### Load balancing

fix             bal all balance 1000 1.05 shift z 10 1.05

############### Diagnostics and computes ###################


compute        	com cubes          rigid/local   1 mol x y z
compute        	quat cubes         rigid/local   1 mol quatw quati quatj quatk

compute 	cc2 cubes 	   chunk/atom 	 molecule
compute 	msd cubes 	   msd/chunk 	 cc2

fix 		msd all ave/time  1 1 10000 c_msd[*] file dump.msd ave one mode vector

dump            1 all custom 500000 dump.lammpstrj id mol type x y z vx vy vz c_pe2
dump		sol  solvent custom 500000 dump.soltrj id x y z vx vy vz c_pe
dump		cubetrj cubes custom 500000 cubes.lammpstrj id mol type x y z vx vy vz
#dump            com cubes local 100000 dump.*.xyz c_com[*]
#dump	        xyz hull xyz 100000 cubes.xyz
#dump            quat cubes      local 100000 dump.*.quat c_quat[*]
dump		order cubes 	local 500000 dump.*.order c_com[*] c_quat[*]
#dump		mol cubes molfile 10000 mol.xyz xyz


dump            2 all image 500000 image.*.png type type zoom 1.5 size 1280 720
dump_modify     2 pad 8
dump		image cubes image 500000 image_cubes.*.png type type zoom 1.5 size 1280 720
dump_modify	image pad 8
dump            3 all movie 10000 movie.avi type type zoom 1.5 size 1280 720
dump		4 cubes movie 10000 movie_cubes.avi type type size 1280 720


thermo          1000
thermo_style    custom step temp epair evdwl etotal press pe ke atoms

restart         1000000 restart.dat
timestep        0.005
timer           full
New timer settings: style=full  mode=nosync  timeout=off

run 		10000000
Per MPI rank memory allocation (min/avg/max) = 14.59 | 22.10 | 23.97 Mbytes
Step Temp E_pair E_vdwl TotEng Press PotEng KinEng Atoms 
       0     1.008384   -2.1964891   -2.1964891   -1.1497668 -0.012260838   -2.1964891    1.0467222  1815307 
    1000   0.99179908   -2.1787381   -2.1787381   -1.1492313  0.037792729   -2.1787381    1.0295067  1815307 
    2000   0.98324878   -2.1687252   -2.1687252   -1.1480938  0.033086139   -2.1687252    1.0206314  1815307 
    3000   0.97717966   -2.1605822   -2.1605822   -1.1462507  0.025964055   -2.1605822    1.0143315  1815307 
    4000   0.97427876    -2.155989    -2.155989   -1.1446687  0.025493327    -2.155989    1.0113203  1815307 
    5000   0.97209214   -2.1525391   -2.1525391   -1.1434885  0.024839808   -2.1525391    1.0090506  1815307 
    6000   0.97079565   -2.1494379   -2.1494379   -1.1417331   0.02643143   -2.1494379    1.0077048  1815307 
    7000   0.97062392   -2.1480742   -2.1480742   -1.1405477  0.027312149   -2.1480742    1.0075265  1815307 
    8000   0.97086295   -2.1474688   -2.1474688   -1.1396942  0.029593448   -2.1474688    1.0077746  1815307 
    9000   0.97326349   -2.1484047   -2.1484047   -1.1381382  0.032025472   -2.1484047    1.0102665  1815307 
   10000   0.97346333   -2.1477788   -2.1477788   -1.1373049  0.034135776   -2.1477788    1.0104739  1815307 
   11000   0.97456854   -2.1481975   -2.1481975   -1.1365764  0.035927542   -2.1481975    1.0116211  1815307 
   12000   0.97633483   -2.1487612   -2.1487612   -1.1353067  0.038907913   -2.1487612    1.0134546  1815307 
   13000   0.97858595    -2.150123    -2.150123   -1.1343318  0.038050952    -2.150123    1.0157913  1815307 
   14000    0.9799375   -2.1510858   -2.1510858   -1.1338916   0.04125708   -2.1510858    1.0171942  1815307 
   15000   0.98084494   -2.1517835   -2.1517835   -1.1336473   0.04752721   -2.1517835    1.0181361  1815307 
   16000   0.98094025   -2.1514646   -2.1514646   -1.1332295  0.046278163   -2.1514646    1.0182351  1815307 
   17000   0.98065161   -2.1509379   -2.1509379   -1.1330024  0.045021065   -2.1509379    1.0179355  1815307 
   18000    0.9808879   -2.1509485   -2.1509485   -1.1327677  0.046701127   -2.1509485    1.0181807  1815307 
   19000   0.98072238   -2.1506896   -2.1506896   -1.1326807  0.044287925   -2.1506896    1.0180089  1815307 
   20000    0.9786673   -2.1482467   -2.1482467    -1.132371  0.043171041   -2.1482467    1.0158757  1815307 
   21000   0.97874713   -2.1483918   -2.1483918   -1.1324333  0.040673862   -2.1483918    1.0159586  1815307 
   22000   0.97728856   -2.1468992   -2.1468992   -1.1324546  0.043740071   -2.1468992    1.0144445  1815307 
   23000   0.97633605   -2.1458515   -2.1458515   -1.1323956  0.043749418   -2.1458515    1.0134558  1815307 
   24000   0.97755569   -2.1471634   -2.1471634   -1.1324416  0.041147803   -2.1471634    1.0147218  1815307 
   25000   0.97770441   -2.1473289   -2.1473289   -1.1324527  0.044583988   -2.1473289    1.0148762  1815307 
   26000   0.97840202   -2.1477416   -2.1477416   -1.1321412  0.040718063   -2.1477416    1.0156003  1815307 
   27000   0.97877804   -2.1482084   -2.1482084   -1.1322177  0.045145345   -2.1482084    1.0159907  1815307 
   28000    0.9804551   -2.1492846   -2.1492846   -1.1315531  0.044993815   -2.1492846    1.0177315  1815307 
   29000     0.980879   -2.1494621   -2.1494621   -1.1312907  0.044305124   -2.1494621    1.0181715  1815307 
   30000   0.98049865   -2.1487183   -2.1487183   -1.1309416  0.047745371   -2.1487183    1.0177767  1815307 
   31000   0.98062824   -2.1488448   -2.1488448   -1.1309336  0.048270037   -2.1488448    1.0179112  1815307 
   32000   0.98123758   -2.1493419   -2.1493419   -1.1307982   0.04945081   -2.1493419    1.0185437  1815307 
   33000   0.98021426   -2.1477681   -2.1477681   -1.1302867  0.047407799   -2.1477681    1.0174815  1815307 
   34000   0.97940451   -2.1472874   -2.1472874   -1.1306465  0.052091793   -2.1472874    1.0166409  1815307 
   35000    0.9795164   -2.1475025   -2.1475025   -1.1307454  0.045583735   -2.1475025    1.0167571  1815307 
   36000   0.97933628   -2.1471341   -2.1471341    -1.130564  0.046810989   -2.1471341    1.0165701  1815307 
   37000   0.97866278   -2.1467279   -2.1467279   -1.1308568  0.045505139   -2.1467279     1.015871  1815307 
   38000   0.97807446    -2.145646    -2.145646   -1.1303857  0.044332713    -2.145646    1.0152603  1815307 
   39000   0.97845025   -2.1463042   -2.1463042   -1.1306538  0.043770126   -2.1463042    1.0156504  1815307 
   40000   0.97801611   -2.1459873   -2.1459873   -1.1307876  0.046221013   -2.1459873    1.0151998  1815307 
   41000   0.97914258   -2.1469249   -2.1469249   -1.1305558  0.047309693   -2.1469249    1.0163691  1815307 
   42000   0.97904856   -2.1471592   -2.1471592   -1.1308878  0.049085986   -2.1471592    1.0162715  1815307 
   43000   0.98003836   -2.1482654   -2.1482654   -1.1309665  0.045641716   -2.1482654    1.0172989  1815307 
   44000   0.97985052   -2.1479419   -2.1479419    -1.130838  0.047599699   -2.1479419    1.0171039  1815307 
   45000   0.98013851   -2.1478179   -2.1478179    -1.130415  0.048844883   -2.1478179    1.0174028  1815307 
   46000   0.97976898   -2.1475422   -2.1475422   -1.1305229  0.048950415   -2.1475422    1.0170193  1815307 
   47000   0.97902797    -2.147112    -2.147112    -1.130862  0.046788588    -2.147112    1.0162501  1815307 
   48000   0.97994366   -2.1478756   -2.1478756   -1.1306751  0.049906964   -2.1478756    1.0172006  1815307 
   49000   0.97899683   -2.1473076   -2.1473076   -1.1310898  0.045332192   -2.1473076    1.0162178  1815307 
   50000   0.97929684   -2.1473175   -2.1473175   -1.1307883  0.048709557   -2.1473175    1.0165292  1815307 
   51000   0.97932054    -2.147486    -2.147486   -1.1309322  0.045346095    -2.147486    1.0165538  1815307 
   52000   0.97845397   -2.1468368   -2.1468368   -1.1311826  0.046657402   -2.1468368    1.0156543  1815307 
   53000   0.97916867   -2.1470063   -2.1470063   -1.1306102  0.048173437   -2.1470063    1.0163961  1815307 
   54000   0.98059006   -2.1483421   -2.1483421   -1.1304705  0.047009919   -2.1483421    1.0178716  1815307 
   55000   0.97874631    -2.146668    -2.146668   -1.1307103  0.048887165    -2.146668    1.0159577  1815307 
   56000   0.97958929   -2.1474122   -2.1474122   -1.1305794  0.048829981   -2.1474122    1.0168328  1815307 
   57000   0.98014646   -2.1475793   -2.1475793   -1.1301682  0.048001284   -2.1475793    1.0174111  1815307 
   58000   0.97961464   -2.1471648   -2.1471648   -1.1303058  0.048808137   -2.1471648    1.0168591  1815307 
   59000   0.97915979   -2.1468631   -2.1468631   -1.1304762  0.050901688   -2.1468631    1.0163869  1815307 
   60000   0.98075567   -2.1479891   -2.1479891   -1.1299457  0.048036094   -2.1479891    1.0180435  1815307 
   61000   0.98003094   -2.1469581   -2.1469581   -1.1296669  0.051783361   -2.1469581    1.0172912  1815307 
   62000   0.97975405   -2.1466813   -2.1466813   -1.1296775  0.049233977   -2.1466813    1.0170038  1815307 
   63000   0.97951403   -2.1465223   -2.1465223   -1.1297676  0.048546038   -2.1465223    1.0167546  1815307 
   64000    0.9797923   -2.1468626   -2.1468626   -1.1298191  0.050148877   -2.1468626    1.0170435  1815307 
   65000   0.97869228   -2.1460486   -2.1460486    -1.130147  0.048509245   -2.1460486    1.0159016  1815307 
   66000   0.97907843   -2.1468322   -2.1468322   -1.1305297  0.049598305   -2.1468322    1.0163025  1815307 
   67000   0.97888808   -2.1462335   -2.1462335   -1.1301286   0.04680845   -2.1462335    1.0161049  1815307 
   68000   0.97814541   -2.1456798   -2.1456798   -1.1303458  0.048218251   -2.1456798     1.015334  1815307 
   69000   0.97790654   -2.1462348   -2.1462348   -1.1311488  0.048238433   -2.1462348     1.015086  1815307 
   70000   0.97903807    -2.147121    -2.147121   -1.1308604  0.054216316    -2.147121    1.0162606  1815307 
   71000    0.9799027   -2.1478804   -2.1478804   -1.1307223  0.048832032   -2.1478804    1.0171581  1815307 
   72000   0.97966296   -2.1479832   -2.1479832    -1.131074  0.048607887   -2.1479832    1.0169092  1815307 
   73000   0.98003318   -2.1481191   -2.1481191   -1.1308256  0.046943068   -2.1481191    1.0172935  1815307 
   74000   0.97983305   -2.1475584   -2.1475584   -1.1304727  0.048370711   -2.1475584    1.0170858  1815307 
   75000   0.98081324   -2.1488425   -2.1488425   -1.1307393  0.050109023   -2.1488425    1.0181032  1815307 
   76000    0.9799439    -2.147885    -2.147885   -1.1306842   0.04946363    -2.147885    1.0172008  1815307 
   77000   0.98020521    -2.148009    -2.148009   -1.1305369  0.049979386    -2.148009    1.0174721  1815307 
   78000   0.97932731   -2.1473053   -2.1473053   -1.1307445  0.049195146   -2.1473053    1.0165608  1815307 
   79000    0.9784235   -2.1462684   -2.1462684   -1.1306458  0.049010112   -2.1462684    1.0156226  1815307 
   80000   0.97963886     -2.14679     -2.14679   -1.1299058  0.046896493     -2.14679    1.0168842  1815307 
   81000    0.9796327   -2.1469319   -2.1469319   -1.1300541  0.049039076   -2.1469319    1.0168778  1815307 
   82000   0.97938482   -2.1464098   -2.1464098   -1.1297893  0.049316305   -2.1464098    1.0166205  1815307 
   83000   0.97941836   -2.1466642   -2.1466642   -1.1300089   0.04705173   -2.1466642    1.0166553  1815307 
   84000   0.97985269   -2.1469071   -2.1469071   -1.1298009  0.047178488   -2.1469071    1.0171062  1815307 
   85000   0.97998574   -2.1468316   -2.1468316   -1.1295874  0.048598267   -2.1468316    1.0172443  1815307 
   86000   0.97955845   -2.1458104   -2.1458104   -1.1290097  0.049640001   -2.1458104    1.0168007  1815307 
   87000   0.97965958   -2.1464578   -2.1464578   -1.1295521  0.050637864   -2.1464578    1.0169057  1815307 
   88000   0.97940719   -2.1463391   -2.1463391   -1.1296953  0.050493379   -2.1463391    1.0166437  1815307 
   89000   0.98038372   -2.1476673   -2.1476673   -1.1300099  0.050805875   -2.1476673    1.0176574  1815307 
   90000   0.97944466   -2.1469752   -2.1469752   -1.1302926  0.048131287   -2.1469752    1.0166826  1815307 
   91000   0.97926893   -2.1466896   -2.1466896   -1.1301894  0.050588887   -2.1466896    1.0165002  1815307 
   92000   0.97847299   -2.1459766   -2.1459766   -1.1303026  0.047798232   -2.1459766     1.015674  1815307 
   93000   0.97955783   -2.1469809   -2.1469809   -1.1301808  0.047276747   -2.1469809    1.0168001  1815307 
   94000   0.97974792   -2.1472415   -2.1472415   -1.1302441  0.050189125   -2.1472415    1.0169974  1815307 
   95000   0.98026351   -2.1481312   -2.1481312   -1.1305986  0.049250853   -2.1481312    1.0175326  1815307 
   96000   0.97864768   -2.1469398   -2.1469398   -1.1310845  0.047783851   -2.1469398    1.0158553  1815307 
   97000   0.98053891   -2.1489411   -2.1489411   -1.1311226  0.048202749   -2.1489411    1.0178185  1815307 
   98000   0.97917757    -2.147601    -2.147601   -1.1311957  0.050371573    -2.147601    1.0164054  1815307 
   99000   0.97883028   -2.1468121   -2.1468121   -1.1307672  0.051459831   -2.1468121    1.0160449  1815307 
  100000   0.97882838   -2.1470407   -2.1470407   -1.1309978  0.049881183   -2.1470407    1.0160429  1815307 
  101000   0.97886646   -2.1471115   -2.1471115    -1.131029   0.04774389   -2.1471115    1.0160824  1815307 
  102000   0.97979303   -2.1481357   -2.1481357   -1.1310915  0.049633471   -2.1481357    1.0170442  1815307 
  103000   0.97963082   -2.1480693   -2.1480693   -1.1311935  0.047562183   -2.1480693    1.0168759  1815307 
  104000   0.97952439   -2.1477677   -2.1477677   -1.1310023  0.047900807   -2.1477677    1.0167654  1815307 
  105000   0.98054041   -2.1485738   -2.1485738   -1.1307538  0.050398325   -2.1485738      1.01782  1815307 
  106000    0.9784297   -2.1460898   -2.1460898   -1.1304607  0.049631331   -2.1460898    1.0156291  1815307 
  107000   0.97827837   -2.1458904   -2.1458904   -1.1304184   0.05003429   -2.1458904     1.015472  1815307 
  108000   0.97979555   -2.1475336   -2.1475336   -1.1304868   0.04970984   -2.1475336    1.0170468  1815307 
  109000   0.97934584   -2.1468402   -2.1468402   -1.1302602  0.052837528   -2.1468402      1.01658  1815307 
  110000   0.98009773   -2.1476077   -2.1476077   -1.1302472  0.048971606   -2.1476077    1.0173605  1815307 
  111000   0.97914122   -2.1466353   -2.1466353   -1.1302677  0.048917566   -2.1466353    1.0163676  1815307 
  112000   0.97944051   -2.1466325   -2.1466325   -1.1299542   0.04858101   -2.1466325    1.0166783  1815307 
  113000   0.97986185   -2.1473277   -2.1473277   -1.1302121  0.047746725   -2.1473277    1.0171157  1815307 
  114000   0.97993721   -2.1472654   -2.1472654   -1.1300715  0.049804214   -2.1472654    1.0171939  1815307 
  115000   0.97941983   -2.1465869   -2.1465869   -1.1299301  0.048084383   -2.1465869    1.0166569  1815307 
  116000   0.98029561   -2.1477717   -2.1477717   -1.1302058  0.051572995   -2.1477717    1.0175659  1815307 
  117000   0.97978303   -2.1471536   -2.1471536   -1.1301197    0.0507515   -2.1471536    1.0170339  1815307 
  118000   0.97973429    -2.147369    -2.147369   -1.1303858  0.050548429    -2.147369    1.0169833  1815307 
  119000   0.97951052   -2.1469235   -2.1469235   -1.1301726  0.047967958   -2.1469235     1.016751  1815307 
  120000   0.98014771   -2.1472866   -2.1472866   -1.1298742   0.05010945   -2.1472866    1.0174124  1815307 
  121000   0.98038795   -2.1476814   -2.1476814   -1.1300197  0.050987262   -2.1476814    1.0176618  1815307 
  122000   0.98041454   -2.1475684   -2.1475684   -1.1298791  0.051770615   -2.1475684    1.0176894  1815307 
  123000   0.97998053   -2.1469722   -2.1469722   -1.1297333  0.046956986   -2.1469722    1.0172389  1815307 
  124000   0.97994137   -2.1468247   -2.1468247   -1.1296265  0.052363627   -2.1468247    1.0171982  1815307 
  125000   0.98023035   -2.1473053   -2.1473053   -1.1298071  0.051117648   -2.1473053    1.0174982  1815307 
  126000   0.98003469   -2.1467573   -2.1467573   -1.1294622   0.05138866   -2.1467573    1.0172951  1815307 
  127000   0.98051647   -2.1470908   -2.1470908   -1.1292956  0.047813541   -2.1470908    1.0177952  1815307 
  128000    0.9807435   -2.1470762   -2.1470762   -1.1290453  0.051409793   -2.1470762    1.0180308  1815307 
  129000   0.98018876     -2.14632     -2.14632    -1.128865   0.04965637     -2.14632     1.017455  1815307 
  130000   0.98017952    -2.146087    -2.146087   -1.1286415  0.049393785    -2.146087    1.0174454  1815307 
  131000   0.98070367   -2.1469515   -2.1469515    -1.128962  0.047487456   -2.1469515    1.0179895  1815307 
  132000   0.98043112   -2.1464079   -2.1464079   -1.1287013  0.048181544   -2.1464079    1.0177066  1815307 
  133000   0.98127965   -2.1468328   -2.1468328   -1.1282454  0.049848719   -2.1468328    1.0185874  1815307 
  134000   0.98119451   -2.1471753   -2.1471753   -1.1286763  0.050861262   -2.1471753     1.018499  1815307 
  135000   0.98129187   -2.1469513   -2.1469513   -1.1283512  0.050283051   -2.1469513    1.0186001  1815307 
  136000   0.98081513   -2.1463527   -2.1463527   -1.1282475  0.048668921   -2.1463527    1.0181052  1815307 
  137000   0.98197998   -2.1469761   -2.1469761   -1.1276617  0.047783534   -2.1469761    1.0193143  1815307 
  138000   0.98151193   -2.1465114   -2.1465114    -1.127683  0.050557137   -2.1465114    1.0188285  1815307 
  139000   0.98100827   -2.1462454   -2.1462454   -1.1279397   0.05034006   -2.1462454    1.0183057  1815307 
  140000   0.98087119   -2.1459671   -2.1459671   -1.1278037  0.052348481   -2.1459671    1.0181634  1815307 
  141000   0.98207833   -2.1466941   -2.1466941   -1.1272777  0.051345156   -2.1466941    1.0194164  1815307 
  142000   0.98141494   -2.1456537   -2.1456537   -1.1269259  0.049460385   -2.1456537    1.0187278  1815307 
  143000   0.98038505    -2.144649    -2.144649   -1.1269902  0.049532524    -2.144649    1.0176588  1815307 
  144000   0.98125674   -2.1456437   -2.1456437   -1.1270801  0.048105564   -2.1456437    1.0185636  1815307 
  145000   0.98024632   -2.1447645   -2.1447645   -1.1272498  0.052970113   -2.1447645    1.0175148  1815307 
  146000   0.98038506    -2.144963    -2.144963   -1.1273043  0.049663057    -2.144963    1.0176588  1815307 
  147000   0.98107175   -2.1460232   -2.1460232   -1.1276517  0.049858556   -2.1460232    1.0183716  1815307 
  148000   0.98100139    -2.146313    -2.146313   -1.1280145  0.049951023    -2.146313    1.0182985  1815307 
  149000   0.98204214   -2.1469526   -2.1469526   -1.1275737  0.049875403   -2.1469526    1.0193789  1815307 
  150000   0.98219724   -2.1468565   -2.1468565   -1.1273167   0.05229687   -2.1468565    1.0195399  1815307 
  151000   0.98199484   -2.1468324   -2.1468324   -1.1275027  0.051970641   -2.1468324    1.0193298  1815307 
  152000   0.98177234   -2.1467329   -2.1467329   -1.1276341  0.049851812   -2.1467329    1.0190988  1815307 
  153000   0.98186369   -2.1461552   -2.1461552   -1.1269616  0.049244673   -2.1461552    1.0191936  1815307 
  154000   0.98189683   -2.1461644   -2.1461644   -1.1269364  0.050858925   -2.1461644     1.019228  1815307 
  155000   0.98232923   -2.1464659   -2.1464659    -1.126789  0.053062656   -2.1464659    1.0196769  1815307 
  156000   0.98124519   -2.1458389   -2.1458389   -1.1272873  0.049910763   -2.1458389    1.0185516  1815307 
  157000   0.98075912   -2.1453351   -2.1453351    -1.127288  0.048385185   -2.1453351    1.0180471  1815307 
  158000   0.98109379   -2.1457864   -2.1457864   -1.1273919  0.050626196   -2.1457864    1.0183945  1815307 
  159000   0.98102245   -2.1455859   -2.1455859   -1.1272655  0.053081356   -2.1455859    1.0183204  1815307 
  160000    0.9808969   -2.1451214   -2.1451214   -1.1269313  0.051645533   -2.1451214    1.0181901  1815307 
  161000   0.98204331   -2.1459492   -2.1459492   -1.1265691  0.053703212   -2.1459492    1.0193801  1815307 
  162000   0.98108351   -2.1450322   -2.1450322   -1.1266485  0.050466625   -2.1450322    1.0183838  1815307 
  163000   0.98188441   -2.1453966   -2.1453966   -1.1261814  0.051893204   -2.1453966    1.0192151  1815307 
  164000   0.98181458   -2.1449713   -2.1449713   -1.1258286  0.051387022   -2.1449713    1.0191426  1815307 
  165000   0.98192955   -2.1448731   -2.1448731   -1.1256111  0.054494238   -2.1448731     1.019262  1815307 
  166000   0.98102433   -2.1438379   -2.1438379   -1.1255155  0.051416613   -2.1438379    1.0183224  1815307 
  167000   0.98096925   -2.1442211   -2.1442211   -1.1259559  0.052896933   -2.1442211    1.0182652  1815307 
  168000   0.98083497   -2.1440138   -2.1440138    -1.125888  0.050733568   -2.1440138    1.0181258  1815307 
  169000   0.98214808   -2.1450265   -2.1450265   -1.1255377  0.051256001   -2.1450265    1.0194888  1815307 
  170000   0.98228672   -2.1452538   -2.1452538   -1.1256211  0.053835259   -2.1452538    1.0196327  1815307 
  171000    0.9824202   -2.1451482   -2.1451482   -1.1253769   0.05214932   -2.1451482    1.0197713  1815307 
  172000   0.98137385   -2.1443701   -2.1443701    -1.125685  0.049367269   -2.1443701    1.0186852  1815307 
  173000   0.98021435   -2.1429514   -2.1429514   -1.1254699  0.048567155   -2.1429514    1.0174816  1815307 
  174000   0.98095999   -2.1437249   -2.1437249   -1.1254693  0.047709632   -2.1437249    1.0182556  1815307 
  175000   0.98123956   -2.1436086   -2.1436086   -1.1250628  0.052093986   -2.1436086    1.0185458  1815307 
  176000   0.98191329   -2.1441272   -2.1441272   -1.1248821  0.050821343   -2.1441272    1.0192451  1815307 
  177000   0.98172185   -2.1436047   -2.1436047   -1.1245583  0.051195826   -2.1436047    1.0190464  1815307 
  178000   0.98182695   -2.1436279   -2.1436279   -1.1244724   0.04937144   -2.1436279    1.0191555  1815307 
  179000   0.98230282   -2.1441707   -2.1441707   -1.1245212  0.050260314   -2.1441707    1.0196494  1815307 
  180000   0.98219198    -2.144234    -2.144234   -1.1246996  0.053010803    -2.144234    1.0195344  1815307 
  181000   0.98254354   -2.1446154   -2.1446154   -1.1247161  0.052275328   -2.1446154    1.0198993  1815307 
  182000   0.98248383   -2.1446051   -2.1446051   -1.1247677  0.053191863   -2.1446051    1.0198373  1815307 
  183000   0.98100799   -2.1432946   -2.1432946   -1.1249892  0.051866719   -2.1432946    1.0183054  1815307 
  184000   0.98168848   -2.1439362   -2.1439362   -1.1249244  0.054056344   -2.1439362    1.0190117  1815307 
  185000   0.98202673   -2.1442463   -2.1442463   -1.1248834  0.054976938   -2.1442463    1.0193629  1815307 
  186000   0.98178822   -2.1441796   -2.1441796   -1.1250643  0.052183863   -2.1441796    1.0191153  1815307 
  187000   0.98247147   -2.1449577   -2.1449577   -1.1251332  0.053466587   -2.1449577    1.0198245  1815307 
  188000   0.98176939   -2.1439382   -2.1439382   -1.1248424  0.052493189   -2.1439382    1.0190957  1815307 
  189000   0.98078594   -2.1432917   -2.1432917   -1.1252168  0.053322406   -2.1432917    1.0180749  1815307 
  190000   0.98188278   -2.1442166   -2.1442166   -1.1250031  0.051810234   -2.1442166    1.0192134  1815307 
  191000   0.98099058   -2.1431876   -2.1431876   -1.1249003  0.055442239   -2.1431876    1.0182873  1815307 
  192000   0.98214626   -2.1447831   -2.1447831   -1.1252962   0.05006172   -2.1447831    1.0194869  1815307 
  193000   0.98204968   -2.1444728   -2.1444728   -1.1250861  0.051498977   -2.1444728    1.0193867  1815307 
  194000   0.98198518   -2.1442763   -2.1442763   -1.1249566  0.049948384   -2.1442763    1.0193197  1815307 
  195000   0.98226259   -2.1443158   -2.1443158   -1.1247081   0.05775348   -2.1443158    1.0196077  1815307 
  196000   0.98225695   -2.1441848   -2.1441848    -1.124583  0.053987308   -2.1441848    1.0196018  1815307 
  197000   0.98218846   -2.1444603   -2.1444603   -1.1249296  0.053081332   -2.1444603    1.0195307  1815307 
  198000   0.98119766   -2.1434467   -2.1434467   -1.1249444  0.053877082   -2.1434467    1.0185023  1815307 
  199000   0.98169205   -2.1436817   -2.1436817   -1.1246662  0.051192959   -2.1436817    1.0190155  1815307 
  200000   0.98208314   -2.1439953   -2.1439953   -1.1245739  0.052658604   -2.1439953    1.0194214  1815307 
  201000   0.98199577   -2.1436584   -2.1436584   -1.1243277  0.053812861   -2.1436584    1.0193307  1815307 
  202000   0.98194617   -2.1438497   -2.1438497   -1.1245704  0.052455099   -2.1438497    1.0192792  1815307 
  203000   0.98235677   -2.1441494   -2.1441494    -1.124444  0.052330584   -2.1441494    1.0197054  1815307 
  204000   0.98207415   -2.1437931   -2.1437931    -1.124381  0.051360982   -2.1437931    1.0194121  1815307 
  205000   0.98177427   -2.1430063   -2.1430063   -1.1239055  0.053000445   -2.1430063    1.0191008  1815307 
  206000   0.98215059   -2.1435814   -2.1435814     -1.12409  0.053500049   -2.1435814    1.0194914  1815307 
  207000   0.98209903   -2.1433202   -2.1433202   -1.1238823  0.052717633   -2.1433202    1.0194379  1815307 
  208000   0.98240675   -2.1435041   -2.1435041   -1.1237468  0.050708198   -2.1435041    1.0197573  1815307 
  209000   0.98192212   -2.1427547   -2.1427547   -1.1235004  0.052089495   -2.1427547    1.0192543  1815307 
  210000   0.98176515   -2.1430262   -2.1430262   -1.1239349  0.054053634   -2.1430262    1.0190913  1815307 
  211000   0.98214211   -2.1427934   -2.1427934   -1.1233108  0.050264099   -2.1427934    1.0194826  1815307 
  212000    0.9818656   -2.1424383   -2.1424383   -1.1232427  0.052481696   -2.1424383    1.0191956  1815307 
  213000   0.98240915    -2.143239    -2.143239   -1.1234792   0.05175051    -2.143239    1.0197598  1815307 
  214000   0.98311909   -2.1440638   -2.1440638    -1.123567  0.051963266   -2.1440638    1.0204968  1815307 
  215000   0.98182912   -2.1425235   -2.1425235   -1.1233657  0.052852269   -2.1425235    1.0191577  1815307 
  216000   0.98174981   -2.1430807   -2.1430807   -1.1240053  0.051414661   -2.1430807    1.0190754  1815307 
  217000   0.98216074   -2.1434544   -2.1434544   -1.1239524   0.05253956   -2.1434544     1.019502  1815307 
  218000   0.98178161   -2.1431436   -2.1431436   -1.1240352  0.052263069   -2.1431436    1.0191084  1815307 
  219000   0.98317396   -2.1446195   -2.1446195   -1.1240658  0.055558803   -2.1446195    1.0205537  1815307 
  220000   0.98199181    -2.143663    -2.143663   -1.1243364  0.055836226    -2.143663    1.0193266  1815307 
  221000   0.98225339   -2.1439416   -2.1439416   -1.1243434  0.050614133   -2.1439416    1.0195981  1815307 
  222000   0.98259373   -2.1438599   -2.1438599   -1.1239085  0.052342904   -2.1438599    1.0199514  1815307 
  223000   0.98200954   -2.1433674   -2.1433674   -1.1240224  0.055887098   -2.1433674     1.019345  1815307 
  224000   0.98183626   -2.1434456   -2.1434456   -1.1242804  0.053476647   -2.1434456    1.0191651  1815307 
  225000   0.98230349   -2.1437287   -2.1437287   -1.1240786  0.049887052   -2.1437287    1.0196501  1815307 
  226000   0.98210698   -2.1432266   -2.1432266   -1.1237805  0.053244394   -2.1432266    1.0194462  1815307 
  227000   0.98274487   -2.1438249   -2.1438249   -1.1237166  0.050028874   -2.1438249    1.0201083  1815307 
  228000   0.98236021   -2.1434649   -2.1434649   -1.1237559  0.050574942   -2.1434649     1.019709  1815307 
  229000   0.98279478   -2.1437844   -2.1437844   -1.1236243  0.052444812   -2.1437844    1.0201601  1815307 
  230000   0.98346126   -2.1442192   -2.1442192   -1.1233673  0.053966277   -2.1442192    1.0208519  1815307 
  231000   0.98359881   -2.1445081   -2.1445081   -1.1235134  0.054382881   -2.1445081    1.0209947  1815307 
  232000   0.98378694   -2.1445607   -2.1445607   -1.1233707  0.053824173   -2.1445607      1.02119  1815307 
  233000    0.9831583   -2.1442124   -2.1442124   -1.1236749  0.055274475   -2.1442124    1.0205375  1815307 
  234000   0.98248674   -2.1433743   -2.1433743    -1.123534  0.050771499   -2.1433743    1.0198404  1815307 
  235000   0.98210664   -2.1430324   -2.1430324   -1.1235865  0.052210459   -2.1430324    1.0194458  1815307 
  236000   0.98213724    -2.142714    -2.142714   -1.1232364  0.050098407    -2.142714    1.0194776  1815307 
  237000    0.9824015   -2.1430004   -2.1430004   -1.1232485  0.051838671   -2.1430004    1.0197519  1815307 
  238000   0.98208351   -2.1429423   -2.1429423   -1.1235205  0.052750145   -2.1429423    1.0194218  1815307 
  239000   0.98283292   -2.1436783   -2.1436783   -1.1234786  0.055750206   -2.1436783    1.0201997  1815307 
  240000   0.98310138   -2.1439578   -2.1439578   -1.1234794  0.052894981   -2.1439578    1.0204784  1815307 
  241000   0.98321538   -2.1437889   -2.1437889   -1.1231922  0.054996041   -2.1437889    1.0205967  1815307 
  242000    0.9829894   -2.1440949   -2.1440949   -1.1237328  0.053971315   -2.1440949    1.0203621  1815307 
  243000   0.98369364   -2.1446298   -2.1446298   -1.1235367  0.052254107   -2.1446298    1.0210931  1815307 
  244000   0.98233831   -2.1432943   -2.1432943    -1.123608  0.052961659   -2.1432943    1.0196863  1815307 
  245000   0.98243748   -2.1435999   -2.1435999   -1.1238107  0.052160213   -2.1435999    1.0197892  1815307 
  246000   0.98262243   -2.1439737   -2.1439737   -1.1239925  0.052337311   -2.1439737    1.0199812  1815307 
  247000      0.98295   -2.1444866   -2.1444866   -1.1241653   0.05513328   -2.1444866    1.0203212  1815307 
  248000   0.98214336   -2.1434477   -2.1434477   -1.1239637  0.051752699   -2.1434477    1.0194839  1815307 
  249000   0.98244247    -2.143434    -2.143434   -1.1236396  0.050561753    -2.143434    1.0197944  1815307 
  250000   0.98201522   -2.1426262   -2.1426262   -1.1232753  0.048645251   -2.1426262    1.0193509  1815307 
  251000   0.98160434   -2.1427062   -2.1427062   -1.1237817  0.051766273   -2.1427062    1.0189244  1815307 
  252000    0.9825088   -2.1434858   -2.1434858   -1.1236226  0.047046869   -2.1434858    1.0198633  1815307 
  253000   0.98321776    -2.143758    -2.143758   -1.1231588  0.052041363    -2.143758    1.0205992  1815307 
  254000   0.98369224   -2.1436661   -2.1436661   -1.1225744  0.054796725   -2.1436661    1.0210917  1815307 
  255000   0.98303128   -2.1433939   -2.1433939   -1.1229883  0.054738823   -2.1433939    1.0204056  1815307 
  256000   0.98319336   -2.1433436   -2.1433436   -1.1227698  0.054821927   -2.1433436    1.0205738  1815307 
  257000   0.98292077   -2.1432593   -2.1432593   -1.1229684  0.051534037   -2.1432593    1.0202909  1815307 
  258000   0.98266013    -2.142913    -2.142913   -1.1228926  0.054309877    -2.142913    1.0200203  1815307 
  259000   0.98285846   -2.1433326   -2.1433326   -1.1231063  0.053463968   -2.1433326    1.0202262  1815307 
  260000   0.98268101   -2.1431702   -2.1431702   -1.1231282   0.05356031   -2.1431702     1.020042  1815307 
  261000   0.98389747   -2.1440088   -2.1440088   -1.1227041  0.052724783   -2.1440088    1.0213047  1815307 
  262000   0.98374551   -2.1433424   -2.1433424   -1.1221954  0.050747256   -2.1433424     1.021147  1815307 
  263000   0.98246553   -2.1426468   -2.1426468   -1.1228284  0.050727303   -2.1426468    1.0198183  1815307 
  264000   0.98377162   -2.1434548   -2.1434548   -1.1222807   0.05134921   -2.1434548    1.0211741  1815307 
  265000   0.98406488   -2.1436523   -2.1436523   -1.1221738  0.053623845   -2.1436523    1.0214785  1815307 
  266000   0.98339904   -2.1434057   -2.1434057   -1.1226184  0.053558005   -2.1434057    1.0207873  1815307 
  267000   0.98362678   -2.1437366   -2.1437366   -1.1227128  0.051493776   -2.1437366    1.0210237  1815307 
  268000   0.98369346   -2.1438185   -2.1438185   -1.1227256  0.054046096   -2.1438185     1.021093  1815307 
  269000    0.9837251   -2.1434036   -2.1434036   -1.1222778  0.052469808   -2.1434036    1.0211258  1815307 
  270000   0.98268464   -2.1423797   -2.1423797   -1.1223339  0.053306202   -2.1423797    1.0200458  1815307 
  271000   0.98260162   -2.1421897   -2.1421897   -1.1222301  0.052389794   -2.1421897    1.0199596  1815307 
  272000   0.98206513   -2.1418477   -2.1418477    -1.122445  0.052181459   -2.1418477    1.0194027  1815307 
  273000   0.98360239   -2.1430437   -2.1430437   -1.1220453  0.050811891   -2.1430437    1.0209984  1815307 
  274000   0.98310465   -2.1425734   -2.1425734   -1.1220916  0.054306001   -2.1425734    1.0204818  1815307 
  275000   0.98254662   -2.1423908   -2.1423908   -1.1224883  0.053212557   -2.1423908    1.0199025  1815307 
  276000   0.98397221   -2.1435415   -2.1435415   -1.1221592  0.054579243   -2.1435415    1.0213823  1815307 
  277000   0.98448392   -2.1438635   -2.1438635     -1.12195  0.055604487   -2.1438635    1.0219135  1815307 
  278000   0.98506865   -2.1439909   -2.1439909   -1.1214705  0.054494374   -2.1439909    1.0225204  1815307 
  279000   0.98542748   -2.1444402   -2.1444402   -1.1215473  0.054391483   -2.1444402    1.0228929  1815307 
  280000   0.98407064    -2.142991    -2.142991   -1.1215065  0.054842399    -2.142991    1.0214845  1815307 
  281000   0.98288904   -2.1417634   -2.1417634   -1.1215054  0.053139141   -2.1417634     1.020258  1815307 
  282000   0.98324334   -2.1424531   -2.1424531   -1.1218274  0.057952669   -2.1424531    1.0206257  1815307 
  283000   0.98269825   -2.1417573   -2.1417573   -1.1216974  0.052288012   -2.1417573    1.0200599  1815307 
  284000   0.98330219    -2.141665    -2.141665   -1.1209781  0.054309794    -2.141665    1.0206868  1815307 
  285000   0.98244221   -2.1416347   -2.1416347   -1.1218406  0.048132632   -2.1416347    1.0197941  1815307 
  286000   0.98281551   -2.1417053   -2.1417053   -1.1215237  0.052109128   -2.1417053    1.0201816  1815307 
  287000   0.98207779   -2.1412317   -2.1412317   -1.1218159  0.053101174   -2.1412317    1.0194159  1815307 
  288000   0.98278457   -2.1416436   -2.1416436   -1.1214941  0.052133899   -2.1416436    1.0201495  1815307 
  289000   0.98352582   -2.1427334   -2.1427334   -1.1218144  0.056215747   -2.1427334    1.0209189  1815307 
  290000   0.98348103   -2.1429961   -2.1429961   -1.1221236  0.053184547   -2.1429961    1.0208725  1815307 
  291000   0.98394207   -2.1432072   -2.1432072   -1.1218562  0.054779349   -2.1432072     1.021351  1815307 
  292000   0.98379791   -2.1427244   -2.1427244    -1.121523  0.053675889   -2.1427244    1.0212014  1815307 
  293000   0.98406175   -2.1431526   -2.1431526   -1.1216774   0.05184675   -2.1431526    1.0214753  1815307 
  294000   0.98316807   -2.1420967   -2.1420967   -1.1215491  0.055355084   -2.1420967    1.0205476  1815307 
  295000   0.98354051   -2.1425346   -2.1425346   -1.1216004  0.053231343   -2.1425346    1.0209342  1815307 
  296000   0.98359205   -2.1426515   -2.1426515   -1.1216638  0.054678407   -2.1426515    1.0209877  1815307 
  297000   0.98370737   -2.1424326   -2.1424326   -1.1213252  0.053516294   -2.1424326    1.0211074  1815307 
  298000   0.98345858   -2.1423002   -2.1423002    -1.121451   0.05135246   -2.1423002    1.0208491  1815307 
  299000   0.98309198   -2.1422587   -2.1422587   -1.1217901  0.055516939   -2.1422587    1.0204686  1815307 
  300000     0.983192   -2.1418679   -2.1418679   -1.1212954  0.052442039   -2.1418679    1.0205724  1815307 
  301000   0.98235167   -2.1410179   -2.1410179   -1.1213177  0.055950087   -2.1410179    1.0197002  1815307 
  302000   0.98266116   -2.1412021   -2.1412021   -1.1211807  0.056509864   -2.1412021    1.0200214  1815307 
  303000   0.98271014   -2.1411334   -2.1411334   -1.1210611  0.050958336   -2.1411334    1.0200723  1815307 
  304000   0.98293485   -2.1415891   -2.1415891   -1.1212836  0.049898688   -2.1415891    1.0203055  1815307 
  305000   0.98418954   -2.1426504   -2.1426504   -1.1210425  0.056326771   -2.1426504    1.0216079  1815307 
  306000   0.98397115   -2.1421083   -2.1421083   -1.1207271  0.052915885   -2.1421083    1.0213812  1815307 
  307000    0.9832869   -2.1416155   -2.1416155   -1.1209446  0.053288779   -2.1416155    1.0206709  1815307 
  308000   0.98383178   -2.1417857   -2.1417857   -1.1205492  0.053223985   -2.1417857    1.0212365  1815307 
  309000   0.98365525   -2.1416262   -2.1416262   -1.1205729  0.054859367   -2.1416262    1.0210533  1815307 
  310000   0.98387545   -2.1421661   -2.1421661   -1.1208843  0.051243817   -2.1421661    1.0212819  1815307 
  311000   0.98414328   -2.1419442   -2.1419442   -1.1203843  0.054699964   -2.1419442    1.0215599  1815307 
  312000   0.98388022   -2.1418754   -2.1418754   -1.1205886  0.052979677   -2.1418754    1.0212868  1815307 
  313000   0.98417744   -2.1423147   -2.1423147   -1.1207193  0.053924311   -2.1423147    1.0215953  1815307 
  314000   0.98419311   -2.1423181   -2.1423181   -1.1207065    0.0547571   -2.1423181    1.0216116  1815307 
  315000   0.98347202   -2.1418958   -2.1418958   -1.1210327  0.052680183   -2.1418958    1.0208631  1815307 
  316000   0.98301278   -2.1413222   -2.1413222   -1.1209358  0.055683931   -2.1413222    1.0203864  1815307 
  317000   0.98323647   -2.1411936   -2.1411936    -1.120575  0.053147465   -2.1411936    1.0206186  1815307 
  318000   0.98280344   -2.1408786   -2.1408786   -1.1207095  0.051453821   -2.1408786    1.0201691  1815307 
  319000   0.98317597    -2.141083    -2.141083   -1.1205272  0.056591138    -2.141083    1.0205558  1815307 
  320000   0.98367441   -2.1414044   -2.1414044   -1.1203312  0.057747476   -2.1414044    1.0210732  1815307 
  321000   0.98315626   -2.1408037   -2.1408037   -1.1202684  0.050369915   -2.1408037    1.0205353  1815307 
  322000   0.98334553   -2.1408787   -2.1408787   -1.1201469  0.052537113   -2.1408787    1.0207318  1815307 
  323000   0.98373178   -2.1413572   -2.1413572   -1.1202245  0.052899187   -2.1413572    1.0211327  1815307 
  324000   0.98351886   -2.1409302   -2.1409302   -1.1200185  0.055634142   -2.1409302    1.0209117  1815307 
  325000   0.98271797   -2.1400409   -2.1400409   -1.1199605  0.054556658   -2.1400409    1.0200804  1815307 
  326000   0.98347513   -2.1407278   -2.1407278   -1.1198614  0.056609822   -2.1407278    1.0208663  1815307 
  327000   0.98401775   -2.1411765   -2.1411765   -1.1197469  0.054261142   -2.1411765    1.0214296  1815307 
  328000   0.98363616   -2.1405835   -2.1405835     -1.11955    0.0551034   -2.1405835    1.0210335  1815307 
  329000   0.98475132   -2.1414671   -2.1414671   -1.1192761  0.053127395   -2.1414671     1.022191  1815307 
  330000   0.98385077   -2.1405973   -2.1405973    -1.119341  0.054219828   -2.1405973    1.0212562  1815307 
  331000   0.98397836   -2.1411837   -2.1411837    -1.119795  0.050391189   -2.1411837    1.0213887  1815307 
  332000   0.98450274    -2.141297    -2.141297   -1.1193639  0.056536184    -2.141297     1.021933  1815307 
  333000   0.98379026   -2.1407695   -2.1407695    -1.119576  0.054687798   -2.1407695    1.0211934  1815307 
  334000   0.98335642   -2.1403239   -2.1403239   -1.1195808  0.051781263   -2.1403239    1.0207431  1815307 
  335000   0.98389051   -2.1405395   -2.1405395    -1.119242  0.051624933   -2.1405395    1.0212975  1815307 
  336000   0.98346829   -2.1402677   -2.1402677   -1.1194085  0.050228652   -2.1402677    1.0208592  1815307 
  337000   0.98273774   -2.1403295   -2.1403295   -1.1202286   0.05149859   -2.1403295    1.0201009  1815307 
  338000   0.98368306   -2.1409058   -2.1409058   -1.1198236  0.055279342   -2.1409058    1.0210822  1815307 
  339000   0.98419119   -2.1410412   -2.1410412   -1.1194316  0.054728952   -2.1410412    1.0216096  1815307 
  340000   0.98495565   -2.1419337   -2.1419337   -1.1195306  0.053400721   -2.1419337    1.0224031  1815307 
  341000   0.98453899   -2.1412837   -2.1412837   -1.1193131  0.052665969   -2.1412837    1.0219706  1815307 
  342000   0.98456362    -2.140933    -2.140933   -1.1189368  0.053037302    -2.140933    1.0219962  1815307 
  343000   0.98433413   -2.1406452   -2.1406452   -1.1188873  0.055174161   -2.1406452     1.021758  1815307 
  344000    0.9841026   -2.1404616   -2.1404616   -1.1189439   0.05697774   -2.1404616    1.0215177  1815307 
  345000   0.98570173   -2.1416765   -2.1416765   -1.1184989  0.055264057   -2.1416765    1.0231776  1815307 
  346000   0.98494749   -2.1405533   -2.1405533   -1.1181587  0.055290295   -2.1405533    1.0223947  1815307 
  347000   0.98453595   -2.1403173   -2.1403173   -1.1183498  0.052589081   -2.1403173    1.0219675  1815307 
  348000   0.98421395    -2.140197    -2.140197   -1.1185637  0.054192949    -2.140197    1.0216332  1815307 
  349000   0.98472749   -2.1406262   -2.1406262   -1.1184599  0.051300649   -2.1406262    1.0221663  1815307 
  350000   0.98420835   -2.1396945   -2.1396945   -1.1180671  0.053900108   -2.1396945    1.0216274  1815307 
  351000   0.98364843   -2.1393877   -2.1393877   -1.1183414  0.050612838   -2.1393877    1.0210462  1815307 
  352000   0.98380801   -2.1398429   -2.1398429    -1.118631  0.051453579   -2.1398429    1.0212119  1815307 
  353000   0.98375146   -2.1400206   -2.1400206   -1.1188674  0.053883676   -2.1400206    1.0211532  1815307 
  354000   0.98448859    -2.140792    -2.140792   -1.1188736  0.049049256    -2.140792    1.0219183  1815307 
  355000    0.9848693   -2.1411601   -2.1411601   -1.1188466   0.05247852   -2.1411601    1.0223135  1815307 
  356000   0.98529324   -2.1410781   -2.1410781   -1.1183246  0.056721536   -2.1410781    1.0227536  1815307 
  357000   0.98490667    -2.140373    -2.140373   -1.1180207   0.05514119    -2.140373    1.0223523  1815307 
  358000   0.98551417   -2.1412802   -2.1412802   -1.1182973  0.052460262   -2.1412802    1.0229829  1815307 
  359000   0.98609369   -2.1412535   -2.1412535   -1.1176691  0.053215167   -2.1412535    1.0235844  1815307 
  360000   0.98519574   -2.1405514   -2.1405514    -1.117899  0.055846419   -2.1405514    1.0226524  1815307 
  361000   0.98569016   -2.1409305   -2.1409305   -1.1177649  0.052678709   -2.1409305    1.0231656  1815307 
  362000   0.98477019   -2.1396902   -2.1396902   -1.1174795  0.054706163   -2.1396902    1.0222106  1815307 
  363000   0.98403823   -2.1393187   -2.1393187   -1.1178678  0.056404759   -2.1393187    1.0214508  1815307 
  364000   0.98462301   -2.1397979   -2.1397979     -1.11774   0.05301863   -2.1397979    1.0220578  1815307 
  365000   0.98484517   -2.1400491   -2.1400491   -1.1177607  0.053627082   -2.1400491    1.0222885  1815307 
  366000   0.98438936   -2.1391027   -2.1391027   -1.1172874  0.053840734   -2.1391027    1.0218153  1815307 
  367000   0.98581654   -2.1396005   -2.1396005   -1.1163038  0.054110014   -2.1396005    1.0232968  1815307 
  368000   0.98518832    -2.139113    -2.139113   -1.1164684   0.05659194    -2.139113    1.0226447  1815307 
  369000    0.9853861   -2.1393204   -2.1393204   -1.1164705  0.053978924   -2.1393204      1.02285  1815307 
  370000   0.98455518   -2.1389641   -2.1389641   -1.1169766  0.054508811   -2.1389641    1.0219874  1815307 
  371000   0.98416401   -2.1385011   -2.1385011   -1.1169197  0.056248953   -2.1385011    1.0215814  1815307 
  372000   0.98433689   -2.1391419   -2.1391419    -1.117381   0.05294073   -2.1391419    1.0217609  1815307 
  373000   0.98498014    -2.139543    -2.139543   -1.1171145  0.051937759    -2.139543    1.0224286  1815307 
  374000   0.98432165   -2.1386445   -2.1386445   -1.1168994  0.053603126   -2.1386445     1.021745  1815307 
  375000   0.98363106   -2.1381813   -2.1381813   -1.1171532  0.054664692   -2.1381813    1.0210282  1815307 
  376000   0.98352518   -2.1381796   -2.1381796   -1.1172614  0.054851786   -2.1381796    1.0209183  1815307 
  377000   0.98411609   -2.1383589   -2.1383589   -1.1168273  0.057361271   -2.1383589    1.0215317  1815307 
  378000   0.98490407   -2.1390146   -2.1390146    -1.116665  0.055986026   -2.1390146    1.0223496  1815307 
  379000   0.98527016   -2.1393666   -2.1393666    -1.116637  0.053312195   -2.1393666    1.0227296  1815307 
  380000   0.98529953   -2.1391588   -2.1391588   -1.1163987  0.054522143   -2.1391588    1.0227601  1815307 
  381000   0.98539602   -2.1395689   -2.1395689   -1.1167087   0.05696256   -2.1395689    1.0228603  1815307 
  382000   0.98533385   -2.1395425   -2.1395425   -1.1167468   0.05421545   -2.1395425    1.0227957  1815307 
  383000   0.98544626    -2.139328    -2.139328   -1.1164156  0.054871902    -2.139328    1.0229124  1815307 
  384000   0.98526897    -2.138968    -2.138968   -1.1162396  0.056062949    -2.138968    1.0227284  1815307 
  385000   0.98536352   -2.1389168   -2.1389168   -1.1160903  0.053406071   -2.1389168    1.0228265  1815307 
  386000   0.98555188   -2.1392624   -2.1392624   -1.1162404  0.054424409   -2.1392624     1.023022  1815307 
  387000   0.98491729   -2.1387914   -2.1387914   -1.1164281  0.051289619   -2.1387914    1.0223633  1815307 
  388000   0.98453349   -2.1384511   -2.1384511   -1.1164862  0.055711452   -2.1384511    1.0219649  1815307 
  389000   0.98526675   -2.1392147   -2.1392147   -1.1164886  0.051929139   -2.1392147    1.0227261  1815307 
  390000   0.98475538   -2.1387646   -2.1387646   -1.1165693  0.055089205   -2.1387646    1.0221953  1815307 
  391000   0.98493532   -2.1390362   -2.1390362   -1.1166542  0.057100777   -2.1390362     1.022382  1815307 
  392000   0.98459419   -2.1391135   -2.1391135   -1.1170856  0.054196949   -2.1391135    1.0220279  1815307 
  393000   0.98471106    -2.138964    -2.138964   -1.1168148  0.054170417    -2.138964    1.0221493  1815307 
  394000   0.98525517   -2.1396453   -2.1396453   -1.1169313  0.057376146   -2.1396453     1.022714  1815307 
  395000   0.98594064   -2.1398815   -2.1398815    -1.116456   0.05310106   -2.1398815    1.0234256  1815307 
  396000   0.98497369   -2.1390347   -2.1390347   -1.1166128  0.056783475   -2.1390347    1.0224219  1815307 
  397000   0.98639823   -2.1400436   -2.1400436    -1.116143  0.056773455   -2.1400436    1.0239006  1815307 
  398000   0.98539969   -2.1392323   -2.1392323   -1.1163682  0.057315746   -2.1392323    1.0228641  1815307 
  399000    0.9862566   -2.1399026   -2.1399026    -1.116149   0.04963876   -2.1399026    1.0237535  1815307 
  400000    0.9854731    -2.138966    -2.138966   -1.1160257  0.051077199    -2.138966    1.0229403  1815307 
  401000   0.98509543   -2.1386624   -2.1386624   -1.1161141  0.054648278   -2.1386624    1.0225482  1815307 
  402000   0.98547071   -2.1389856   -2.1389856   -1.1160479  0.051810719   -2.1389856    1.0229378  1815307 
  403000   0.98438296   -2.1383106   -2.1383106   -1.1165019  0.053865288   -2.1383106    1.0218087  1815307 
  404000   0.98508551   -2.1385408   -2.1385408   -1.1160029  0.052540702   -2.1385408    1.0225379  1815307 
  405000   0.98497246   -2.1390727   -2.1390727   -1.1166521  0.053294069   -2.1390727    1.0224206  1815307 
  406000    0.9864397   -2.1403906   -2.1403906    -1.116447  0.055440703   -2.1403906    1.0239436  1815307 
  407000   0.98684457   -2.1406474   -2.1406474   -1.1162835  0.053609165   -2.1406474    1.0243639  1815307 
  408000   0.98661199   -2.1399963   -2.1399963   -1.1158739  0.057860973   -2.1399963    1.0241225  1815307 
  409000   0.98563729   -2.1393542   -2.1393542   -1.1162435  0.052100324   -2.1393542    1.0231107  1815307 
  410000   0.98462342   -2.1380021   -2.1380021   -1.1159438  0.051742627   -2.1380021    1.0220583  1815307 
  411000    0.9851785   -2.1383215   -2.1383215    -1.115687  0.053500583   -2.1383215    1.0226345  1815307 
  412000   0.98554279   -2.1386115   -2.1386115   -1.1155989  0.054229013   -2.1386115    1.0230126  1815307 
  413000   0.98617067   -2.1392889   -2.1392889   -1.1156245  0.053911814   -2.1392889    1.0236643  1815307 
  414000   0.98550969   -2.1380726   -2.1380726   -1.1150944  0.054326508   -2.1380726    1.0229782  1815307 
  415000    0.9851794   -2.1379004   -2.1379004    -1.115265  0.056802908   -2.1379004    1.0226354  1815307 
  416000   0.98511492   -2.1377457   -2.1377457   -1.1151773  0.052565848   -2.1377457    1.0225685  1815307 
  417000   0.98464102   -2.1370491   -2.1370491   -1.1149725  0.055501865   -2.1370491    1.0220765  1815307 
  418000   0.98601892   -2.1386437   -2.1386437   -1.1151369  0.053529155   -2.1386437    1.0235068  1815307 
  419000   0.98516567   -2.1381641   -2.1381641    -1.115543  0.054449385   -2.1381641    1.0226211  1815307 
  420000   0.98511299   -2.1380317   -2.1380317   -1.1154652  0.052393448   -2.1380317    1.0225665  1815307 
  421000   0.98500725   -2.1378826   -2.1378826   -1.1154259  0.056758388   -2.1378826    1.0224567  1815307 
  422000   0.98469281   -2.1377092   -2.1377092   -1.1155789  0.052291314   -2.1377092    1.0221303  1815307 
  423000   0.98375205    -2.136902    -2.136902   -1.1157482  0.054386009    -2.136902    1.0211538  1815307 
  424000   0.98426325   -2.1380758   -2.1380758   -1.1163913  0.054254453   -2.1380758    1.0216844  1815307 
  425000   0.98444983   -2.1379937   -2.1379937   -1.1161156  0.053368572   -2.1379937    1.0218781  1815307 
  426000   0.98483633   -2.1389316   -2.1389316   -1.1166523  0.052167367   -2.1389316    1.0222793  1815307 
  427000   0.98492723   -2.1390889   -2.1390889   -1.1167153   0.05370738   -2.1390889    1.0223736  1815307 
  428000   0.98558057   -2.1399866   -2.1399866   -1.1169348  0.052733534   -2.1399866    1.0230518  1815307 
  429000   0.98554537   -2.1399211   -2.1399211   -1.1169058  0.054279947   -2.1399211    1.0230153  1815307 
  430000   0.98516721   -2.1397707   -2.1397707   -1.1171479  0.055916275   -2.1397707    1.0226227  1815307 
  431000    0.9857493   -2.1403776   -2.1403776   -1.1171506  0.050499243   -2.1403776     1.023227  1815307 
  432000    0.9848108   -2.1389618   -2.1389618   -1.1167091  0.055506413   -2.1389618    1.0222528  1815307 
  433000   0.98519818   -2.1391034   -2.1391034   -1.1164485  0.052923674   -2.1391034    1.0226549  1815307 
  434000   0.98590317   -2.1393598   -2.1393598   -1.1159731  0.054920807   -2.1393598    1.0233867  1815307 
  435000   0.98551434   -2.1386471   -2.1386471   -1.1156641  0.054678504   -2.1386471    1.0229831  1815307 
  436000   0.98504931   -2.1385701   -2.1385701   -1.1160698  0.056359799   -2.1385701    1.0225004  1815307 
  437000   0.98637054   -2.1396606   -2.1396606   -1.1157888  0.052823382   -2.1396606    1.0238718  1815307 
  438000   0.98636439   -2.1396795   -2.1396795   -1.1158141  0.054107733   -2.1396795    1.0238654  1815307 
  439000   0.98560198   -2.1386359   -2.1386359   -1.1155618  0.054254342   -2.1386359     1.023074  1815307 
  440000   0.98619336   -2.1388074   -2.1388074   -1.1151195  0.056919119   -2.1388074    1.0236879  1815307 
  441000   0.98532871   -2.1379843   -2.1379843   -1.1151939  0.055511572   -2.1379843    1.0227904  1815307 
  442000   0.98462933     -2.13714     -2.13714   -1.1150756  0.053922488     -2.13714    1.0220644  1815307 
  443000   0.98560958   -2.1381187   -2.1381187   -1.1150368  0.052398735   -2.1381187    1.0230819  1815307 
  444000   0.98534304   -2.1375617   -2.1375617   -1.1147565  0.055375673   -2.1375617    1.0228053  1815307 
  445000     0.985702    -2.137884    -2.137884   -1.1147061  0.052164197    -2.137884    1.0231779  1815307 
  446000   0.98462498   -2.1369972   -2.1369972   -1.1149373  0.054871719   -2.1369972    1.0220599  1815307 
  447000   0.98535669    -2.137603    -2.137603   -1.1147835  0.054968552    -2.137603    1.0228194  1815307 
  448000   0.98501737   -2.1375772   -2.1375772     -1.11511  0.050967928   -2.1375772    1.0224672  1815307 
  449000   0.98469505   -2.1370924   -2.1370924   -1.1149598  0.049855102   -2.1370924    1.0221326  1815307 
  450000   0.98479057   -2.1369902   -2.1369902   -1.1147584  0.052310787   -2.1369902    1.0222318  1815307 
  451000   0.98566258   -2.1377134   -2.1377134   -1.1145765  0.055121963   -2.1377134    1.0231369  1815307 
  452000   0.98581976   -2.1376928   -2.1376928   -1.1143927  0.054580087   -2.1376928    1.0233001  1815307 
  453000   0.98625507   -2.1384415   -2.1384415   -1.1146895  0.055043029   -2.1384415     1.023752  1815307 
  454000   0.98676886   -2.1392026   -2.1392026   -1.1149173  0.056480119   -2.1392026    1.0242853  1815307 
  455000   0.98634073   -2.1386573   -2.1386573   -1.1148165  0.056535679   -2.1386573    1.0238409  1815307 
  456000   0.98613452   -2.1388459   -2.1388459   -1.1152191  0.055216113   -2.1388459    1.0236268  1815307 
  457000   0.98604496   -2.1385605   -2.1385605   -1.1150266  0.056354364   -2.1385605    1.0235339  1815307 
  458000   0.98636731   -2.1392055   -2.1392055   -1.1153371  0.052741029   -2.1392055    1.0238685  1815307 
  459000   0.98486391   -2.1374633   -2.1374633   -1.1151554  0.050561775   -2.1374633    1.0223079  1815307 
  460000   0.98584979   -2.1384552   -2.1384552   -1.1151239  0.052898384   -2.1384552    1.0233313  1815307 
  461000   0.98568211   -2.1382444   -2.1382444   -1.1150872  0.055413199   -2.1382444    1.0231572  1815307 
  462000   0.98689229   -2.1389964   -2.1389964    -1.114583  0.055324283   -2.1389964    1.0244134  1815307 
  463000    0.9858671   -2.1379729   -2.1379729   -1.1146237   0.05231427   -2.1379729    1.0233492  1815307 
  464000   0.98578628    -2.137424    -2.137424   -1.1141587  0.052660243    -2.137424    1.0232653  1815307 
  465000   0.98502573    -2.136814    -2.136814   -1.1143382  0.054744774    -2.136814    1.0224759  1815307 
  466000   0.98589491   -2.1377606   -2.1377606   -1.1143825  0.055470051   -2.1377606    1.0233781  1815307 
  467000   0.98566607   -2.1376796   -2.1376796   -1.1145391  0.054607623   -2.1376796    1.0231406  1815307 
  468000   0.98598424   -2.1384896   -2.1384896   -1.1150187  0.054011149   -2.1384896    1.0234708  1815307 
  469000   0.98581407   -2.1383117   -2.1383117   -1.1150175  0.050959403   -2.1383117    1.0232942  1815307 
  470000   0.98624661   -2.1386365   -2.1386365   -1.1148933  0.056084199   -2.1386365    1.0237432  1815307 
  471000   0.98472408    -2.137433    -2.137433   -1.1152702  0.054442009    -2.137433    1.0221628  1815307 
  472000   0.98620709   -2.1384964   -2.1384964   -1.1147942   0.05495258   -2.1384964    1.0237022  1815307 
  473000   0.98638357    -2.139241    -2.139241   -1.1153557  0.052528297    -2.139241    1.0238853  1815307 
  474000   0.98574173   -2.1384087   -2.1384087   -1.1151896  0.053336749   -2.1384087    1.0232191  1815307 
  475000   0.98569598    -2.137929    -2.137929   -1.1147574  0.057424089    -2.137929    1.0231716  1815307 
  476000    0.9865589    -2.138945    -2.138945   -1.1148777  0.054615057    -2.138945    1.0240673  1815307 
  477000   0.98564869   -2.1381492   -2.1381492   -1.1150267  0.056164357   -2.1381492    1.0231225  1815307 
  478000    0.9860401   -2.1383017   -2.1383017   -1.1147729  0.053100733   -2.1383017    1.0235288  1815307 
  479000    0.9871571   -2.1394522   -2.1394522   -1.1147639  0.056845078   -2.1394522    1.0246883  1815307 
  480000   0.98686701   -2.1387872   -2.1387872   -1.1144001  0.053938308   -2.1387872    1.0243872  1815307 
  481000   0.98641034   -2.1388571   -2.1388571    -1.114944  0.054371332   -2.1388571    1.0239131  1815307 
  482000    0.9859478   -2.1385742   -2.1385742   -1.1151412  0.055911783   -2.1385742     1.023433  1815307 
  483000   0.98648016    -2.138813    -2.138813   -1.1148274  0.053744295    -2.138813    1.0239856  1815307 
  484000   0.98487771   -2.1374142   -2.1374142    -1.115092  0.054116411   -2.1374142    1.0223222  1815307 
  485000   0.98543012   -2.1375647   -2.1375647   -1.1146691  0.052438907   -2.1375647    1.0228956  1815307 
  486000    0.9856775    -2.137513    -2.137513   -1.1143606  0.055100213    -2.137513    1.0231524  1815307 
  487000   0.98649933    -2.138811    -2.138811   -1.1148055  0.053274812    -2.138811    1.0240055  1815307 
  488000   0.98570307   -2.1379809   -2.1379809   -1.1148019  0.052850045   -2.1379809     1.023179  1815307 
  489000   0.98684141    -2.139033    -2.139033   -1.1146724  0.052183878    -2.139033    1.0243606  1815307 
  490000   0.98505854   -2.1368983   -2.1368983   -1.1143884  0.056140923   -2.1368983    1.0225099  1815307 
  491000   0.98648962   -2.1385426   -2.1385426   -1.1145471  0.054606194   -2.1385426    1.0239954  1815307 
  492000   0.98602609   -2.1379838   -2.1379838   -1.1144695  0.056147868   -2.1379838    1.0235143  1815307 
  493000   0.98711097   -2.1387772   -2.1387772   -1.1141368  0.053427001   -2.1387772    1.0246404  1815307 
  494000   0.98651091    -2.137927    -2.137927   -1.1139095  0.055044408    -2.137927    1.0240175  1815307 
  495000   0.98590077   -2.1376057   -2.1376057   -1.1142215   0.05175975   -2.1376057    1.0233842  1815307 
  496000   0.98571969   -2.1376933   -2.1376933   -1.1144971  0.054107999   -2.1376933    1.0231962  1815307 
  497000   0.98521041   -2.1368559   -2.1368559   -1.1141883  0.054790423   -2.1368559    1.0226676  1815307 
  498000   0.98532138   -2.1372189   -2.1372189   -1.1144361  0.051700213   -2.1372189    1.0227828  1815307 
  499000   0.98599928   -2.1377764   -2.1377764     -1.11429  0.054569013   -2.1377764    1.0234864  1815307 
  500000   0.98671782   -2.1385442   -2.1385442   -1.1143119  0.051997527   -2.1385442    1.0242323  1815307 
  501000   0.98753126   -2.1390127   -2.1390127    -1.113936  0.055184188   -2.1390127    1.0250767  1815307 
  502000   0.98616507   -2.1378194   -2.1378194   -1.1141609   0.05368286   -2.1378194    1.0236585  1815307 
  503000   0.98699472   -2.1386709   -2.1386709   -1.1141512  0.055993024   -2.1386709    1.0245197  1815307 
  504000   0.98739176   -2.1392095   -2.1392095   -1.1142777  0.050804163   -2.1392095    1.0249319  1815307 
  505000   0.98761482   -2.1395941   -2.1395941   -1.1144307  0.056324524   -2.1395941    1.0251634  1815307 
  506000   0.98704262   -2.1390674   -2.1390674    -1.114498  0.058657948   -2.1390674    1.0245695  1815307 
  507000   0.98679098   -2.1392649   -2.1392649   -1.1149567  0.051140568   -2.1392649    1.0243082  1815307 
  508000   0.98523195   -2.1378032   -2.1378032   -1.1151132  0.053476535   -2.1378032    1.0226899  1815307 
  509000   0.98517098   -2.1377712   -2.1377712   -1.1151446  0.056163699   -2.1377712    1.0226267  1815307 
  510000   0.98620496    -2.138474    -2.138474   -1.1147741  0.054969559    -2.138474    1.0236999  1815307 
  511000   0.98641623   -2.1382079   -2.1382079   -1.1142886  0.055234549   -2.1382079    1.0239193  1815307 
  512000   0.98712457   -2.1389058   -2.1389058   -1.1142513  0.054068351   -2.1389058    1.0246545  1815307 
  513000   0.98746416   -2.1393929   -2.1393929   -1.1143858  0.056463298   -2.1393929     1.025007  1815307 
  514000   0.98617074   -2.1380746   -2.1380746   -1.1144102   0.05703754   -2.1380746    1.0236644  1815307 
  515000   0.98555199   -2.1380121   -2.1380121     -1.11499  0.051161347   -2.1380121    1.0230221  1815307 
  516000   0.98541212   -2.1370481   -2.1370481   -1.1141712  0.055915977   -2.1370481     1.022877  1815307 
  517000   0.98619511   -2.1379442   -2.1379442   -1.1142545  0.059358011   -2.1379442    1.0236897  1815307 
  518000     0.986132   -2.1375643   -2.1375643   -1.1139401  0.052008494   -2.1375643    1.0236242  1815307 
  519000   0.98649524   -2.1379964   -2.1379964   -1.1139952  0.056676215   -2.1379964    1.0240013  1815307 
  520000   0.98635325   -2.1378064   -2.1378064   -1.1139526  0.055346675   -2.1378064    1.0238539  1815307 
  521000   0.98663743   -2.1376634   -2.1376634   -1.1135146  0.051897732   -2.1376634    1.0241489  1815307 
  522000   0.98642781   -2.1378977   -2.1378977   -1.1139664  0.055661116   -2.1378977    1.0239313  1815307 
  523000   0.98730253   -2.1386148   -2.1386148   -1.1137756  0.053786149   -2.1386148    1.0248392  1815307 
  524000   0.98661965   -2.1383005   -2.1383005   -1.1141701   0.05579838   -2.1383005    1.0241304  1815307 
  525000   0.98592976    -2.137669    -2.137669   -1.1142548  0.053487426    -2.137669    1.0234143  1815307 
  526000   0.98627838   -2.1380008   -2.1380008   -1.1142246   0.05141234   -2.1380008    1.0237762  1815307 
  527000   0.98656403   -2.1384335   -2.1384335   -1.1143609  0.057145464   -2.1384335    1.0240727  1815307 
  528000   0.98761722   -2.1391804   -2.1391804   -1.1140145   0.05553647   -2.1391804    1.0251659  1815307 
  529000    0.9873534   -2.1393215   -2.1393215   -1.1144295  0.054822836   -2.1393215     1.024892  1815307 
  530000   0.98714232   -2.1391345   -2.1391345   -1.1144616  0.057646399   -2.1391345    1.0246729  1815307 
  531000   0.98729818   -2.1391248   -2.1391248   -1.1142901  0.055760669   -2.1391248    1.0248347  1815307 
  532000   0.98684533   -2.1389775   -2.1389775   -1.1146128  0.052734575   -2.1389775    1.0243647  1815307 
  533000   0.98665397   -2.1387938   -2.1387938   -1.1146277  0.058800428   -2.1387938     1.024166  1815307 
  534000    0.9867354   -2.1384347   -2.1384347   -1.1141841  0.055328614   -2.1384347    1.0242506  1815307 
  535000   0.98770758   -2.1396492   -2.1396492   -1.1143895  0.053141601   -2.1396492    1.0252597  1815307 
  536000    0.9863095   -2.1384847   -2.1384847   -1.1146763  0.055988868   -2.1384847    1.0238085  1815307 
  537000   0.98634296   -2.1385771   -2.1385771   -1.1147339  0.055944988   -2.1385771    1.0238432  1815307 
  538000   0.98686527   -2.1387802   -2.1387802   -1.1143948  0.054234906   -2.1387802    1.0243854  1815307 
  539000   0.98591093   -2.1383095   -2.1383095   -1.1149148  0.054331124   -2.1383095    1.0233947  1815307 
  540000   0.98591379   -2.1385973   -2.1385973   -1.1151996   0.05464025   -2.1385973    1.0233977  1815307 
  541000     0.987723   -2.1403989   -2.1403989   -1.1151232  0.052198288   -2.1403989    1.0252757  1815307 
  542000   0.98609642   -2.1392009   -2.1392009   -1.1156136  0.057127174   -2.1392009    1.0235873  1815307 
  543000   0.98685662   -2.1395996   -2.1395996   -1.1152232  0.055955271   -2.1395996    1.0243764  1815307 
  544000   0.98704388   -2.1395464   -2.1395464   -1.1149757  0.054687556   -2.1395464    1.0245708  1815307 
  545000   0.98742494   -2.1395181   -2.1395181   -1.1145518  0.053666482   -2.1395181    1.0249663  1815307 
  546000   0.98625672   -2.1383454   -2.1383454   -1.1145917  0.054217187   -2.1383454    1.0237537  1815307 
  547000   0.98666261   -2.1390416   -2.1390416   -1.1148666  0.051485857   -2.1390416     1.024175  1815307 
  548000   0.98669456   -2.1389464   -2.1389464   -1.1147383  0.054396635   -2.1389464    1.0242082  1815307 
  549000   0.98612391   -2.1383945   -2.1383945   -1.1147787  0.055483357   -2.1383945    1.0236158  1815307 
  550000   0.98584395   -2.1385272   -2.1385272    -1.115202  0.055546159   -2.1385272    1.0233252  1815307 
  551000   0.98594963   -2.1384818   -2.1384818   -1.1150469  0.057554371   -2.1384818    1.0234349  1815307 
  552000   0.98599804   -2.1383188   -2.1383188   -1.1148337  0.056842274   -2.1383188    1.0234852  1815307 
  553000   0.98656046   -2.1388257   -2.1388257   -1.1147567  0.054227426   -2.1388257     1.024069  1815307 
  554000   0.98624054   -2.1384104   -2.1384104   -1.1146735  0.055717789   -2.1384104    1.0237369  1815307 
  555000   0.98591712   -2.1376402   -2.1376402   -1.1142391  0.056151483   -2.1376402    1.0234012  1815307 
  556000    0.9861678   -2.1376262   -2.1376262   -1.1139649    0.0530999   -2.1376262    1.0236614  1815307 
  557000   0.98614979   -2.1376889   -2.1376889   -1.1140462  0.054330257   -2.1376889    1.0236427  1815307 
  558000   0.98706431   -2.1378124   -2.1378124   -1.1132204  0.053324726   -2.1378124     1.024592  1815307 
  559000   0.98700813   -2.1380094   -2.1380094   -1.1134757  0.057966168   -2.1380094    1.0245337  1815307 
  560000    0.9873875   -2.1390202   -2.1390202   -1.1140928  0.055293328   -2.1390202    1.0249274  1815307 
  561000   0.98614901   -2.1376633   -2.1376633   -1.1140214  0.057114554   -2.1376633    1.0236419  1815307 
  562000   0.98668674   -2.1383141   -2.1383141   -1.1141141  0.055164339   -2.1383141       1.0242  1815307 
  563000   0.98688711    -2.138213    -2.138213   -1.1138049  0.052147557    -2.138213     1.024408  1815307 
  564000   0.98692023   -2.1381469   -2.1381469   -1.1137045    0.0527499   -2.1381469    1.0244424  1815307 
  565000   0.98565591   -2.1369934   -2.1369934   -1.1138634  0.050356732   -2.1369934      1.02313  1815307 
  566000   0.98648188   -2.1377992   -2.1377992   -1.1138118  0.055159433   -2.1377992    1.0239874  1815307 
  567000   0.98602596   -2.1372956   -2.1372956   -1.1137815  0.052635659   -2.1372956    1.0235141  1815307 
  568000   0.98672657   -2.1381563   -2.1381563   -1.1139149  0.054841054   -2.1381563    1.0242414  1815307 
  569000   0.98613829    -2.137518    -2.137518   -1.1138872  0.053026507    -2.137518    1.0236307  1815307 
  570000    0.9873128   -2.1385204   -2.1385204   -1.1136705  0.052853427   -2.1385204    1.0248499  1815307 
  571000   0.98676809   -2.1380634   -2.1380634   -1.1137789  0.056177095   -2.1380634    1.0242845  1815307 
  572000   0.98671776   -2.1380082   -2.1380082   -1.1137759  0.054678123   -2.1380082    1.0242322  1815307 
  573000   0.98793563   -2.1398075   -2.1398075   -1.1143111  0.052968064   -2.1398075    1.0254964  1815307 
  574000    0.9872996   -2.1388435   -2.1388435   -1.1140073   0.05854883   -2.1388435    1.0248362  1815307 
  575000   0.98715086   -2.1385516   -2.1385516   -1.1138698  0.056492396   -2.1385516    1.0246818  1815307 
  576000   0.98778822   -2.1391421   -2.1391421   -1.1137987  0.058126413   -2.1391421    1.0253434  1815307 
  577000   0.98812584   -2.1395925   -2.1395925   -1.1138987  0.058574904   -2.1395925    1.0256939  1815307 
  578000   0.98716273   -2.1387301   -2.1387301    -1.114036  0.058175902   -2.1387301    1.0246941  1815307 
  579000   0.98734859   -2.1384539   -2.1384539   -1.1135668  0.057941046   -2.1384539    1.0248871  1815307 
  580000   0.98662792   -2.1374705   -2.1374705   -1.1133315  0.054337298   -2.1374705     1.024139  1815307 
  581000   0.98658892   -2.1373372   -2.1373372   -1.1132387  0.053871745   -2.1373372    1.0240985  1815307 
  582000   0.98670361   -2.1372864   -2.1372864   -1.1130689  0.053590875   -2.1372864    1.0242176  1815307 
  583000   0.98678663    -2.137249    -2.137249   -1.1129452  0.054421108    -2.137249    1.0243037  1815307 
  584000     0.986629   -2.1365461   -2.1365461    -1.112406  0.054397022   -2.1365461    1.0241401  1815307 
  585000   0.98689595   -2.1371835   -2.1371835   -1.1127663  0.053822411   -2.1371835    1.0244172  1815307 
  586000    0.9865386   -2.1372544   -2.1372544   -1.1132082  0.054423752   -2.1372544    1.0240463  1815307 
  587000   0.98651951   -2.1370496   -2.1370496   -1.1130231  0.054222627   -2.1370496    1.0240265  1815307 
  588000   0.98779352   -2.1383867   -2.1383867   -1.1130378   0.05656439   -2.1383867    1.0253489  1815307 
  589000   0.98817237   -2.1383218   -2.1383218   -1.1125796  0.059501483   -2.1383218    1.0257422  1815307 
  590000   0.98742759   -2.1375479   -2.1375479   -1.1125789  0.052496071   -2.1375479    1.0249691  1815307 
  591000   0.98722059   -2.1379205   -2.1379205   -1.1131663  0.055097248   -2.1379205    1.0247542  1815307 
  592000   0.98791365   -2.1382191   -2.1382191   -1.1127455  0.057388313   -2.1382191    1.0254736  1815307 
  593000   0.98767763   -2.1379981   -2.1379981   -1.1127695  0.052288627   -2.1379981    1.0252286  1815307 
  594000   0.98846937   -2.1386639   -2.1386639   -1.1126134  0.054119838   -2.1386639    1.0260504  1815307 
  595000    0.9878508   -2.1377491   -2.1377491   -1.1123407  0.054586043   -2.1377491    1.0254084  1815307 
  596000   0.98628644   -2.1363715   -2.1363715    -1.112587  0.057031919   -2.1363715    1.0237845  1815307 
  597000   0.98662537   -2.1370569   -2.1370569   -1.1129205  0.054636908   -2.1370569    1.0241363  1815307 
  598000    0.9869477   -2.1368682   -2.1368682   -1.1123973  0.052432983   -2.1368682    1.0244709  1815307 
  599000   0.98607977   -2.1358929   -2.1358929   -1.1123229  0.054536723   -2.1358929      1.02357  1815307 
  600000   0.98709084    -2.137019    -2.137019   -1.1123995  0.053987701    -2.137019    1.0246195  1815307 
  601000   0.98700802   -2.1370472   -2.1370472   -1.1125137  0.055965365   -2.1370472    1.0245335  1815307 
  602000   0.98738526   -2.1377425   -2.1377425   -1.1128174  0.052535359   -2.1377425    1.0249251  1815307 
  603000    0.9871451   -2.1374514   -2.1374514   -1.1127756  0.055769366   -2.1374514    1.0246758  1815307 
  604000     0.987728   -2.1382568   -2.1382568   -1.1129759  0.052684387   -2.1382568    1.0252809  1815307 
  605000   0.98843388   -2.1388159   -2.1388159   -1.1128023  0.057087875   -2.1388159    1.0260136  1815307 
  606000   0.98805796   -2.1383254   -2.1383254    -1.112702  0.056956731   -2.1383254    1.0256234  1815307 
  607000    0.9876095   -2.1379355   -2.1379355   -1.1127776  0.054788851   -2.1379355    1.0251579  1815307 
  608000   0.98744181   -2.1379721   -2.1379721   -1.1129883  0.057069247   -2.1379721    1.0249838  1815307 
  609000   0.98710922   -2.1375705   -2.1375705   -1.1129319  0.055568538   -2.1375705    1.0246386  1815307 
  610000   0.98698294   -2.1372166   -2.1372166   -1.1127091  0.054242969   -2.1372166    1.0245075  1815307 
  611000   0.98670438   -2.1375274   -2.1375274    -1.113309  0.055983429   -2.1375274    1.0242184  1815307 
  612000   0.98624539   -2.1370557   -2.1370557   -1.1133138  0.053121843   -2.1370557    1.0237419  1815307 
  613000   0.98686908   -2.1377797   -2.1377797   -1.1133904  0.056209581   -2.1377797    1.0243893  1815307 
  614000   0.98660945   -2.1372512   -2.1372512   -1.1131314  0.054472801   -2.1372512    1.0241198  1815307 
  615000   0.98638961   -2.1372362   -2.1372362   -1.1133446  0.051187334   -2.1372362    1.0238916  1815307 
  616000   0.98645514   -2.1372144   -2.1372144   -1.1132548   0.05437117   -2.1372144    1.0239596  1815307 
  617000   0.98695144   -2.1373514   -2.1373514   -1.1128766  0.053890965   -2.1373514    1.0244748  1815307 
  618000   0.98632043   -2.1366624   -2.1366624   -1.1128426  0.053247384   -2.1366624    1.0238198  1815307 
  619000    0.9882452   -2.1387166   -2.1387166   -1.1128988  0.055300218   -2.1387166    1.0258178  1815307 
  620000   0.98885548    -2.138926    -2.138926   -1.1124748  0.056155005    -2.138926    1.0264512  1815307 
  621000    0.9881944   -2.1382561   -2.1382561   -1.1124911  0.057005146   -2.1382561     1.025765  1815307 
  622000   0.98853568   -2.1384133   -2.1384133    -1.112294  0.055102858   -2.1384133    1.0261193  1815307 
  623000   0.98735056   -2.1375854   -2.1375854   -1.1126963  0.057440479   -2.1375854    1.0248891  1815307 
  624000   0.98735757   -2.1371506   -2.1371506   -1.1122542  0.053429141   -2.1371506    1.0248964  1815307 
  625000   0.98739292   -2.1370846   -2.1370846   -1.1121515  0.056720515   -2.1370846    1.0249331  1815307 
  626000   0.98814608   -2.1378396   -2.1378396   -1.1121247  0.055530327   -2.1378396    1.0257149  1815307 
  627000    0.9880226   -2.1379755   -2.1379755   -1.1123888  0.055109399   -2.1379755    1.0255867  1815307 
  628000    0.9875749   -2.1371323   -2.1371323   -1.1120103  0.055224622   -2.1371323     1.025122  1815307 
  629000   0.98689183   -2.1362398   -2.1362398   -1.1118269  0.053739549   -2.1362398    1.0244129  1815307 
  630000   0.98662907   -2.1366701   -2.1366701   -1.1125299  0.053048758   -2.1366701    1.0241402  1815307 
  631000   0.98681745   -2.1364989   -2.1364989   -1.1121631  0.053228863   -2.1364989    1.0243357  1815307 
  632000    0.9871483   -2.1363726   -2.1363726   -1.1116935  0.054868793   -2.1363726    1.0246791  1815307 
  633000   0.98751971   -2.1370913   -2.1370913   -1.1120267  0.057821553   -2.1370913    1.0250647  1815307 
  634000   0.98705445   -2.1366387   -2.1366387    -1.112057  0.055698151   -2.1366387    1.0245817  1815307 
  635000    0.9870679   -2.1364921   -2.1364921   -1.1118964  0.055351791   -2.1364921    1.0245957  1815307 
  636000   0.98757281   -2.1375916   -2.1375916   -1.1124718  0.055701932   -2.1375916    1.0251198  1815307 
  637000   0.98715422    -2.137271    -2.137271   -1.1125857  0.056424841    -2.137271    1.0246853  1815307 
  638000   0.98768682   -2.1379709   -2.1379709   -1.1127327  0.058452038   -2.1379709    1.0252381  1815307 
  639000   0.98690568   -2.1373087   -2.1373087   -1.1128814  0.053748852   -2.1373087    1.0244273  1815307 
  640000   0.98824822    -2.138326    -2.138326   -1.1125051  0.054770081    -2.138326    1.0258209  1815307 
  641000   0.98751273   -2.1371919   -2.1371919   -1.1121344  0.054538255   -2.1371919    1.0250574  1815307 
  642000   0.98728408   -2.1374687   -2.1374687   -1.1126486  0.053524583   -2.1374687    1.0248201  1815307 
[...]
 9832000     1.006378   -2.0767484   -2.0767484   -1.0321085  0.069392377   -2.0767484    1.0446399  1815307 
 9833000    1.0057315   -2.0769263   -2.0769263   -1.0329575  0.064594312   -2.0769263    1.0439688  1815307 
 9834000    1.0066141   -2.0777131   -2.0777131   -1.0328281  0.064396448   -2.0777131     1.044885  1815307 
 9835000    1.0061852   -2.0773767   -2.0773767   -1.0329368  0.064746102   -2.0773767    1.0444399  1815307 
 9836000    1.0054982    -2.077106    -2.077106   -1.0333792  0.061560958    -2.077106    1.0437267  1815307 
 9837000    1.0053488   -2.0771653   -2.0771653   -1.0335937   0.06155376   -2.0771653    1.0435716  1815307 
 9838000    1.0054161   -2.0771022   -2.0771022   -1.0334606  0.065026674   -2.0771022    1.0436415  1815307 
 9839000    1.0039551   -2.0758978   -2.0758978   -1.0337729   0.06332029   -2.0758978    1.0421249  1815307 
 9840000    1.0050009   -2.0768787   -2.0768787   -1.0336682  0.057622657   -2.0768787    1.0432105  1815307 
 9841000    1.0054312   -2.0769781   -2.0769781   -1.0333209  0.064735696   -2.0769781    1.0436572  1815307 
 9842000    1.0051966    -2.076402    -2.076402   -1.0329883  0.063376479    -2.076402    1.0434136  1815307 
 9843000    1.0055231   -2.0768784   -2.0768784   -1.0331258  0.064225287   -2.0768784    1.0437526  1815307 
 9844000    1.0060043   -2.0768266   -2.0768266   -1.0325745  0.063952132   -2.0768266     1.044252  1815307 
 9845000    1.0060009   -2.0770379   -2.0770379   -1.0327894  0.064703564   -2.0770379    1.0442486  1815307 
 9846000    1.0061302   -2.0773072   -2.0773072   -1.0329244   0.06593628   -2.0773072    1.0443828  1815307 
 9847000    1.0071807   -2.0783623   -2.0783623   -1.0328891  0.066441697   -2.0783623    1.0454732  1815307 
 9848000     1.006999   -2.0774982   -2.0774982   -1.0322137  0.065711731   -2.0774982    1.0452846  1815307 
 9849000    1.0054091   -2.0765719   -2.0765719   -1.0329378  0.067156519   -2.0765719    1.0436342  1815307 
 9850000    1.0054566   -2.0768476   -2.0768476    -1.033164  0.064966128   -2.0768476    1.0436836  1815307 
 9851000    1.0071649   -2.0783736   -2.0783736   -1.0329168   0.06391685   -2.0783736    1.0454568  1815307 
 9852000     1.006927   -2.0782925   -2.0782925   -1.0330826  0.065300285   -2.0782925    1.0452099  1815307 
 9853000    1.0058106   -2.0773182   -2.0773182   -1.0332672  0.065597027   -2.0773182     1.044051  1815307 
 9854000    1.0065029   -2.0779575   -2.0779575   -1.0331879  0.064163689   -2.0779575    1.0447696  1815307 
 9855000    1.0057776   -2.0776288   -2.0776288   -1.0336121  0.066758482   -2.0776288    1.0440167  1815307 
 9856000    1.0059564   -2.0774121   -2.0774121   -1.0332098  0.064085688   -2.0774121    1.0442024  1815307 
 9857000    1.0060883   -2.0771837   -2.0771837   -1.0328445  0.067958028   -2.0771837    1.0443392  1815307 
 9858000    1.0055448   -2.0769289   -2.0769289   -1.0331538  0.067373252   -2.0769289    1.0437751  1815307 
 9859000    1.0053831   -2.0770263   -2.0770263   -1.0334192  0.065750954   -2.0770263    1.0436072  1815307 
 9860000    1.0065392   -2.0781739   -2.0781739   -1.0333666  0.064649209   -2.0781739    1.0448073  1815307 
 9861000    1.0059679   -2.0778983   -2.0778983    -1.033684   0.06724565   -2.0778983    1.0442143  1815307 
 9862000    1.0066244   -2.0783447   -2.0783447    -1.033449   0.06301356   -2.0783447    1.0448957  1815307 
 9863000    1.0058989   -2.0774896   -2.0774896    -1.033347  0.067589289   -2.0774896    1.0441426  1815307 
 9864000    1.0072061   -2.0781024   -2.0781024   -1.0326029  0.065900301   -2.0781024    1.0454995  1815307 
 9865000    1.0067518   -2.0772904   -2.0772904   -1.0322624  0.069709804   -2.0772904     1.045028  1815307 
 9866000    1.0068532   -2.0779008   -2.0779008   -1.0327675  0.065215824   -2.0779008    1.0451332  1815307 
 9867000    1.0062537   -2.0774598   -2.0774598   -1.0329489  0.064638688   -2.0774598    1.0445109  1815307 
 9868000    1.0066394   -2.0776901   -2.0776901   -1.0327788  0.065043675   -2.0776901    1.0449113  1815307 
 9869000    1.0069299   -2.0783973   -2.0783973   -1.0331844  0.065930784   -2.0783973    1.0452129  1815307 
 9870000    1.0064307   -2.0775507   -2.0775507    -1.032856  0.066548396   -2.0775507    1.0446947  1815307 
 9871000    1.0072296   -2.0782121   -2.0782121   -1.0326882   0.06575101   -2.0782121    1.0455239  1815307 
 9872000    1.0074313   -2.0782031   -2.0782031   -1.0324698  0.065980932   -2.0782031    1.0457333  1815307 
 9873000    1.0064496   -2.0775553   -2.0775553    -1.032841  0.066461613   -2.0775553    1.0447143  1815307 
 9874000    1.0064302   -2.0771012   -2.0771012   -1.0324071  0.066500329   -2.0771012    1.0446942  1815307 
 9875000    1.0063527   -2.0770451   -2.0770451   -1.0324314  0.065454514   -2.0770451    1.0446137  1815307 
 9876000    1.0057847   -2.0770363   -2.0770363   -1.0330122  0.066264761   -2.0770363    1.0440241  1815307 
 9877000    1.0064263   -2.0775403   -2.0775403   -1.0328502  0.065292739   -2.0775403    1.0446901  1815307 
 9878000    1.0060498   -2.0766525   -2.0766525   -1.0323533  0.067728186   -2.0766525    1.0442992  1815307 
 9879000    1.0064057   -2.0776237   -2.0776237   -1.0329551  0.066553042   -2.0776237    1.0446687  1815307 
 9880000    1.0054975   -2.0770664   -2.0770664   -1.0333404  0.064705434   -2.0770664     1.043726  1815307 
 9881000    1.0058361   -2.0771392   -2.0771392   -1.0330618  0.062904983   -2.0771392    1.0440774  1815307 
 9882000    1.0069312   -2.0782025   -2.0782025   -1.0329883  0.065090514   -2.0782025    1.0452142  1815307 
 9883000    1.0057967   -2.0764381   -2.0764381   -1.0324015  0.068549045   -2.0764381    1.0440366  1815307 
 9884000    1.0061965   -2.0773647   -2.0773647   -1.0329132  0.065369243   -2.0773647    1.0444516  1815307 
 9885000     1.005963   -2.0769315   -2.0769315   -1.0327223  0.064532986   -2.0769315    1.0442092  1815307 
 9886000    1.0063052    -2.077606    -2.077606   -1.0330416  0.067360372    -2.077606    1.0445644  1815307 
 9887000     1.006639   -2.0777197   -2.0777197   -1.0328088  0.064903055   -2.0777197    1.0449109  1815307 
 9888000    1.0058277   -2.0768356   -2.0768356   -1.0327669  0.061868859   -2.0768356    1.0440687  1815307 
 9889000    1.0060013   -2.0773777   -2.0773777   -1.0331288  0.064616797   -2.0773777     1.044249  1815307 
 9890000    1.0059981    -2.077136    -2.077136   -1.0328904  0.067234654    -2.077136    1.0442456  1815307 
 9891000    1.0049178   -2.0759849   -2.0759849   -1.0328607  0.066717623   -2.0759849    1.0431242  1815307 
 9892000    1.0055817   -2.0767923   -2.0767923   -1.0329789  0.063803997   -2.0767923    1.0438134  1815307 
 9893000    1.0059452   -2.0770486   -2.0770486   -1.0328579  0.063455697   -2.0770486    1.0441907  1815307 
 9894000      1.00558   -2.0762259   -2.0762259   -1.0324143  0.065822462   -2.0762259    1.0438116  1815307 
 9895000     1.005937   -2.0764015   -2.0764015   -1.0322194  0.066398317   -2.0764015    1.0441821  1815307 
 9896000    1.0073817    -2.077707    -2.077707   -1.0320252  0.067925227    -2.077707    1.0456818  1815307 
 9897000    1.0070451   -2.0770944   -2.0770944    -1.031762  0.065075031   -2.0770944    1.0453324  1815307 
 9898000    1.0067782   -2.0769759   -2.0769759   -1.0319205  0.066034041   -2.0769759    1.0450554  1815307 
 9899000    1.0061894    -2.076822    -2.076822   -1.0323779  0.066009951    -2.076822    1.0444441  1815307 
 9900000    1.0062757   -2.0768071   -2.0768071   -1.0322733   0.06599866   -2.0768071    1.0445338  1815307 
 9901000     1.006311   -2.0769498   -2.0769498   -1.0323795  0.065619229   -2.0769498    1.0445704  1815307 
 9902000    1.0067626   -2.0766641   -2.0766641    -1.031625  0.067037207   -2.0766641    1.0450391  1815307 
 9903000    1.0074647   -2.0774039   -2.0774039   -1.0316359  0.067816569   -2.0774039     1.045768  1815307 
 9904000    1.0077947   -2.0768279   -2.0768279   -1.0307173  0.067276147   -2.0768279    1.0461105  1815307 
 9905000     1.006485    -2.075475    -2.075475    -1.030724  0.066333297    -2.075475     1.044751  1815307 
 9906000    1.0071704   -2.0758901   -2.0758901   -1.0304276  0.066630049   -2.0758901    1.0454625  1815307 
 9907000    1.0070606   -2.0762525   -2.0762525    -1.030904  0.068882918   -2.0762525    1.0453485  1815307 
 9908000    1.0066512   -2.0759106   -2.0759106   -1.0309871  0.067319902   -2.0759106    1.0449236  1815307 
 9909000     1.007582   -2.0770967   -2.0770967    -1.031207  0.066958401   -2.0770967    1.0458897  1815307 
 9910000    1.0063361   -2.0764125   -2.0764125    -1.031816  0.066111454   -2.0764125    1.0445965  1815307 
 9911000    1.0062205   -2.0760994   -2.0760994   -1.0316229   0.06466412   -2.0760994    1.0444765  1815307 
 9912000    1.0059821   -2.0755277   -2.0755277   -1.0312987  0.066091361   -2.0755277     1.044229  1815307 
 9913000    1.0057903   -2.0757101   -2.0757101   -1.0316802   0.06664781   -2.0757101    1.0440299  1815307 
 9914000     1.005496   -2.0759208   -2.0759208   -1.0321964  0.063090841   -2.0759208    1.0437245  1815307 
 9915000    1.0062333   -2.0767925   -2.0767925   -1.0323028  0.063394472   -2.0767925    1.0444898  1815307 
 9916000    1.0052777   -2.0758503   -2.0758503   -1.0323525  0.064137263   -2.0758503    1.0434978  1815307 
 9917000    1.0057734   -2.0762552   -2.0762552   -1.0322429   0.06364394   -2.0762552    1.0440123  1815307 
 9918000    1.0052256   -2.0756623   -2.0756623   -1.0322185   0.06479638   -2.0756623    1.0434438  1815307 
 9919000    1.0058254   -2.0762889   -2.0762889   -1.0322225  0.062756028   -2.0762889    1.0440664  1815307 
 9920000    1.0062471   -2.0766676   -2.0766676   -1.0321635  0.071142834   -2.0766676    1.0445041  1815307 
 9921000    1.0052192   -2.0749397   -2.0749397   -1.0315026  0.069015905   -2.0749397    1.0434371  1815307 
 9922000    1.0059941   -2.0761314   -2.0761314   -1.0318899  0.064797486   -2.0761314    1.0442415  1815307 
 9923000    1.0067359   -2.0769019   -2.0769019   -1.0318904   0.06410242   -2.0769019    1.0450115  1815307 
 9924000    1.0065557   -2.0768794   -2.0768794    -1.032055  0.065803511   -2.0768794    1.0448244  1815307 
 9925000    1.0064916   -2.0766977   -2.0766977   -1.0319398  0.062777537   -2.0766977    1.0447579  1815307 
 9926000    1.0074137   -2.0776112   -2.0776112   -1.0318962  0.068622783   -2.0776112     1.045715  1815307 
 9927000    1.0070363   -2.0770101   -2.0770101   -1.0316868  0.069174896   -2.0770101    1.0453232  1815307 
 9928000    1.0074432   -2.0772282   -2.0772282   -1.0314825  0.064379067   -2.0772282    1.0457457  1815307 
 9929000    1.0063282   -2.0767678   -2.0767678   -1.0321796  0.064322286   -2.0767678    1.0445882  1815307 
 9930000    1.0060246   -2.0769911   -2.0769911   -1.0327179  0.067080635   -2.0769911    1.0442731  1815307 
 9931000    1.0058905    -2.077054    -2.077054   -1.0329202  0.063902076    -2.077054    1.0441339  1815307 
 9932000     1.006348   -2.0770279   -2.0770279   -1.0324191  0.065773557   -2.0770279    1.0446088  1815307 
 9933000    1.0070227   -2.0777962   -2.0777962   -1.0324871  0.064965933   -2.0777962    1.0453092  1815307 
 9934000    1.0078437   -2.0785421   -2.0785421   -1.0323808  0.062456038   -2.0785421    1.0461614  1815307 
 9935000    1.0055663   -2.0763968   -2.0763968   -1.0325994  0.067381246   -2.0763968    1.0437974  1815307 
 9936000    1.0056865   -2.0765068   -2.0765068   -1.0325846  0.064196866   -2.0765068    1.0439221  1815307 
 9937000    1.0073812      -2.0786      -2.0786   -1.0329186  0.066655524      -2.0786    1.0456813  1815307 
 9938000    1.0061842   -2.0771821   -2.0771821   -1.0327433  0.065932622   -2.0771821    1.0444388  1815307 
 9939000    1.0057848   -2.0768419   -2.0768419   -1.0328177  0.062003711   -2.0768419    1.0440242  1815307 
 9940000    1.0067892   -2.0771864   -2.0771864   -1.0321196   0.06828839   -2.0771864    1.0450667  1815307 
 9941000    1.0059439      -2.0765      -2.0765   -1.0323107  0.068835025      -2.0765    1.0441893  1815307 
 9942000    1.0067898   -2.0775563   -2.0775563   -1.0324888  0.066321723   -2.0775563    1.0450674  1815307 
 9943000    1.0063576   -2.0771216   -2.0771216   -1.0325028   0.06862594   -2.0771216    1.0446188  1815307 
 9944000    1.0064647   -2.0772659   -2.0772659   -1.0325359  0.069833233   -2.0772659    1.0447299  1815307 
 9945000    1.0064624   -2.0772796   -2.0772796    -1.032552  0.065862391   -2.0772796    1.0447275  1815307 
 9946000    1.0063638   -2.0773828   -2.0773828   -1.0327576   0.06573654   -2.0773828    1.0446252  1815307 
 9947000    1.0069649   -2.0776781   -2.0776781    -1.032429  0.067081807   -2.0776781    1.0452492  1815307 
 9948000    1.0067613    -2.077499    -2.077499   -1.0324613  0.063713348    -2.077499    1.0450378  1815307 
 9949000    1.0055706   -2.0765463   -2.0765463   -1.0327444  0.065241238   -2.0765463    1.0438019  1815307 
 9950000    1.0057728   -2.0768198   -2.0768198   -1.0328081  0.066168213   -2.0768198    1.0440118  1815307 
 9951000    1.0060757   -2.0771043   -2.0771043   -1.0327782  0.067381118   -2.0771043    1.0443261  1815307 
 9952000     1.006755   -2.0774126   -2.0774126   -1.0323814  0.066605981   -2.0774126    1.0450313  1815307 
 9953000    1.0064605   -2.0767828   -2.0767828   -1.0320571  0.062949223   -2.0767828    1.0447256  1815307 
 9954000    1.0059148   -2.0758263   -2.0758263   -1.0316671  0.066029134   -2.0758263    1.0441592  1815307 
 9955000    1.0061689    -2.076707    -2.076707   -1.0322841  0.065931265    -2.076707    1.0444229  1815307 
 9956000    1.0061941    -2.076709    -2.076709   -1.0322599  0.063223754    -2.076709    1.0444491  1815307 
 9957000    1.0059476   -2.0763643   -2.0763643   -1.0321712  0.066506415   -2.0763643    1.0441932  1815307 
 9958000    1.0066281   -2.0769875   -2.0769875   -1.0320879  0.066826128   -2.0769875    1.0448996  1815307 
 9959000    1.0072051   -2.0771103   -2.0771103   -1.0316117   0.06349339   -2.0771103    1.0454985  1815307 
 9960000    1.0064154   -2.0764391   -2.0764391   -1.0317603  0.065202446   -2.0764391    1.0446788  1815307 
 9961000    1.0068252   -2.0770975   -2.0770975   -1.0319934   0.06595895   -2.0770975    1.0451041  1815307 
 9962000    1.0067305   -2.0766979   -2.0766979    -1.031692  0.065702442   -2.0766979    1.0450059  1815307 
 9963000    1.0067189   -2.0765966   -2.0765966   -1.0316028  0.066786354   -2.0765966    1.0449938  1815307 
 9964000    1.0061147   -2.0760552   -2.0760552   -1.0316886  0.069321693   -2.0760552    1.0443666  1815307 
 9965000    1.0069428   -2.0764094   -2.0764094   -1.0311831  0.066361217   -2.0764094    1.0452262  1815307 
 9966000    1.0068102   -2.0759425   -2.0759425    -1.030854  0.064663335   -2.0759425    1.0450886  1815307 
 9967000    1.0073062   -2.0768612   -2.0768612   -1.0312578  0.065297934   -2.0768612    1.0456034  1815307 
 9968000    1.0071459   -2.0770724   -2.0770724   -1.0316353  0.064667096   -2.0770724    1.0454371  1815307 
 9969000    1.0071615   -2.0767632   -2.0767632   -1.0313099  0.065237821   -2.0767632    1.0454532  1815307 
 9970000    1.0065181   -2.0769487   -2.0769487   -1.0321633  0.067426892   -2.0769487    1.0447853  1815307 
 9971000    1.0065882   -2.0770693   -2.0770693   -1.0322112  0.063490755   -2.0770693    1.0448581  1815307 
 9972000    1.0055549   -2.0762456   -2.0762456     -1.03246   0.06414278   -2.0762456    1.0437856  1815307 
 9973000    1.0062832    -2.076652    -2.076652   -1.0321104  0.065358431    -2.076652    1.0445416  1815307 
 9974000    1.0054615   -2.0757628   -2.0757628   -1.0320742  0.068487845   -2.0757628    1.0436886  1815307 
 9975000    1.0067614    -2.076802    -2.076802   -1.0317641  0.064985128    -2.076802    1.0450379  1815307 
 9976000    1.0061626    -2.075766    -2.075766   -1.0313496  0.064967162    -2.075766    1.0444163  1815307 
 9977000    1.0068458   -2.0762462   -2.0762462   -1.0311206   0.06506687   -2.0762462    1.0451256  1815307 
 9978000    1.0071662    -2.076836    -2.076836   -1.0313779  0.065883378    -2.076836    1.0454581  1815307 
 9979000    1.0067203   -2.0761436   -2.0761436   -1.0311483  0.066006714   -2.0761436    1.0449953  1815307 
 9980000    1.0067612   -2.0763938   -2.0763938   -1.0313561  0.064909653   -2.0763938    1.0450377  1815307 
 9981000    1.0068405    -2.076304    -2.076304   -1.0311839  0.067944232    -2.076304      1.04512  1815307 
 9982000    1.0061809   -2.0755821   -2.0755821   -1.0311468  0.064541707   -2.0755821    1.0444353  1815307 
 9983000    1.0067238   -2.0758564   -2.0758564   -1.0308575  0.065339212   -2.0758564    1.0449989  1815307 
 9984000    1.0059646   -2.0749082   -2.0749082   -1.0306974  0.066895576   -2.0749082    1.0442109  1815307 
 9985000    1.0056655   -2.0748489   -2.0748489   -1.0309485  0.068118937   -2.0748489    1.0439004  1815307 
 9986000    1.0059836    -2.075467    -2.075467   -1.0312365  0.066206737    -2.075467    1.0442305  1815307 
 9987000    1.0060715   -2.0752781   -2.0752781   -1.0309564  0.062926891   -2.0752781    1.0443218  1815307 
 9988000    1.0064111   -2.0754557   -2.0754557   -1.0307814  0.066395279   -2.0754557    1.0446743  1815307 
 9989000    1.0054611   -2.0746107   -2.0746107   -1.0309225  0.067684336   -2.0746107    1.0436882  1815307 
 9990000    1.0066363   -2.0756823   -2.0756823   -1.0307742  0.066130078   -2.0756823    1.0449081  1815307 
 9991000    1.0062502   -2.0755027   -2.0755027   -1.0309955   0.06543627   -2.0755027    1.0445073  1815307 
 9992000    1.0068539   -2.0762323   -2.0762323   -1.0310983   0.06725254   -2.0762323    1.0451339  1815307 
 9993000    1.0062631   -2.0753807   -2.0753807   -1.0308601  0.066021782   -2.0753807    1.0445207  1815307 
 9994000    1.0064973    -2.075433    -2.075433   -1.0306692  0.065355093    -2.075433    1.0447638  1815307 
 9995000    1.0070332   -2.0757922   -2.0757922   -1.0304721  0.066347909   -2.0757922    1.0453201  1815307 
 9996000    1.0061168   -2.0751677   -2.0751677   -1.0307989  0.066560776   -2.0751677    1.0443689  1815307 
 9997000    1.0071436   -2.0759171   -2.0759171   -1.0304825   0.06608953   -2.0759171    1.0454346  1815307 
 9998000    1.0064908    -2.075368    -2.075368   -1.0306109  0.063215952    -2.075368    1.0447571  1815307 
 9999000    1.0060711   -2.0752886   -2.0752886   -1.0309672  0.066767623   -2.0752886    1.0443214  1815307 
10000000    1.0063868   -2.0754939   -2.0754939   -1.0308448  0.064202738   -2.0754939    1.0446491  1815307 
Loop time of 21034.6 on 768 procs for 10000000 steps with 1815307 atoms

Performance: 205375.435 tau/day, 475.406 timesteps/s
91.0% CPU use with 768 MPI tasks x 1 OpenMP threads

MPI task timing breakdown:
Section |  min time  |  avg time  |  max time  |%varavg|  %CPU | %total
-----------------------------------------------------------------------
Pair    | 1308.4     | 4569.9     | 7041.3     |2044.9 |  93.1 | 21.73
Bond    | 6.4661     | 6.8115     | 7.2903     |   5.2 | 100.0 |  0.03
Neigh   | 1450.6     | 4311.4     | 5880.4     |1479.6 |  98.8 | 20.50
Comm    | 4033.6     | 7070.9     | 10558      |1821.4 |  88.0 | 33.62
Output  | 528.95     | 531.32     | 534.75     |   6.1 |  81.3 |  2.53
Modify  | 3204.9     | 4215.2     | 8225.1     |1482.9 |  88.4 | 20.04
Other   |            | 329.1      |            |       |       |  1.56

Nlocal:        2363.68 ave        3594 max        1509 min
Histogram: 5 5 83 273 271 102 25 3 0 1
Nghost:        5490.68 ave        8976 max        1847 min
Histogram: 64 52 16 37 120 193 147 91 37 11
Neighs:        42933.2 ave       72965 max        9216 min
Histogram: 71 29 32 65 97 150 143 103 35 43

Total # of neighbors = 32972718
Ave neighs/atom = 18.163714
Ave special neighs/atom = 0.0000000
Neighbor list builds = 1000000
Dangerous builds = 990000

Total wall time: 5:50:51
