LAMMPS (24 Dec 2020)
OMP_NUM_THREADS environment is not set. Defaulting to 1 thread. (src/comm.cpp:94)
  using 1 OpenMP thread(s) per MPI task
#Read the equilibrated lj fluid and add nanocubes

units           lj
atom_style      full
atom_modify     map array first cubes
dimension       3
boundary        p p f
pair_style      lj/cut/opt 2.5

variable        sigma           equal 1.0
variable        epsilon         equal 1.0
read_restart	restart.dat.3000000
Reading restart file ...
  restart file = 29 Oct 2020, LAMMPS = 24 Dec 2020
  restoring atom style full from restart
  orthogonal box = (0.0000000 0.0000000 0.0000000) to (100.00000 100.00000 200.00000)
  4 by 5 by 12 MPI processor grid
  restoring pair style lj/cut/opt from restart
  1010000 atoms
Finding 1-2 1-3 1-4 neighbors ...
  special bond factors lj:    0        0        0       
  special bond factors coul:  0        0        0       
     0 = max # of 1-2 neighbors
     0 = max # of 1-3 neighbors
     0 = max # of 1-4 neighbors
     1 = max # of special neighbors
  special bonds CPU = 1.885 seconds
  read_restart CPU = 2.478 seconds

group		solvent type 1
1010000 atoms in group solvent
read_data	data490_500.cubes group cubes add append
Reading data file ...
  orthogonal box = (0.0000000 0.0000000 0.0000000) to (100.00000 100.00000 200.00000)
  4 by 5 by 12 MPI processor grid
  reading atoms ...
  560070 atoms
  reading velocities ...
  560070 velocities
Finding 1-2 1-3 1-4 neighbors ...
  special bond factors lj:    0        0        0       
  special bond factors coul:  0        0        0       
     0 = max # of 1-2 neighbors
     0 = max # of 1-3 neighbors
     0 = max # of 1-4 neighbors
     1 = max # of special neighbors
  special bonds CPU = 0.005 seconds
  read_data CPU = 1.422 seconds

group 		hull  type 2
218540 atoms in group hull
group 		dummy type 3
341530 atoms in group dummy

neighbor      0.4 bin
neigh_modify  exclude molecule/intra cubes


pair_modify   shift yes

pair_coeff    1 1 1.0 1.0 #solvent
pair_coeff    2 2 0.6 1.0 0.7147 #np
pair_coeff    3 3 0.0 0.0 0.0 #dummy
pair_coeff    2 3 0.0 0.0 0.0 #np dummy
pair_coeff    1 2 0.8 1.0 #np solvent
pair_coeff    1 3 0.0 0.0 2.5 #dummy solvent

# delete solvent where the cubes are
delete_atoms  overlap 1.0 solvent cubes
System init for delete_atoms ...
Neighbor list info ...
  update every 1 steps, delay 10 steps, check yes
  max neighbors/atom: 2000, page size: 100000
  master list distance cutoff = 2.9
  ghost atom cutoff = 2.9
  binsize = 1.45, bins = 69 69 138
  2 neighbor lists, perpetual/occasional/extra = 1 1 0
  (1) command delete_atoms, occasional
      attributes: full, newton on
      pair build: full/bin
      stencil: full/bin/3d
      bin: standard
  (2) pair lj/cut/opt, perpetual
      attributes: half, newton on
      pair build: half/bin/newton
      stencil: half/bin/3d/newton
      bin: standard
WARNING: Delete_atoms cutoff > minimum neighbor cutoff (src/delete_atoms.cpp:307)
WARNING: Ignoring 'compress yes' for molecular system (src/delete_atoms.cpp:125)
Deleted 499530 atoms, new total = 1070540


pair_coeff    1 1 1.0 1.0 #solvent
pair_coeff    2 2 0.6 1.0 0.7147 #np
pair_coeff    3 3 0.0 0.0 0.0 #dummy
pair_coeff    2 3 0.0 0.0 0.0 #np dummy
pair_coeff    1 2 0.8 1.0 #np solvent
pair_coeff    1 3 0.0 0.0 0.0 #dummy solvent


comm_modify   mode multi cutoff/multi 1 2.5 cutoff/multi 2 2.5 cutoff/multi 3 6.95

reset_timestep 	0

balance 	1.05 shift z 10 1.05
Balancing ...
Neighbor list info ...
  update every 1 steps, delay 10 steps, check yes
  max neighbors/atom: 2000, page size: 100000
  master list distance cutoff = 2.9
  ghost atom cutoff = 6.95
  binsize = 1.45, bins = 69 69 138
  1 neighbor lists, perpetual/occasional/extra = 1 0 0
  (1) pair lj/cut/opt, perpetual
      attributes: half, newton on
      pair build: half/bin/newton
      stencil: half/bin/3d/newton
      bin: standard
 rebalancing time: 0.015 seconds
  iteration count = 5
  initial/final maximal load/proc = 6759.0000 5358.0000
  initial/final imbalance factor  = 1.5152727 1.2011882
  x cuts: 0.0000000 0.25000000 0.50000000 0.75000000 1.0000000
  y cuts: 0.0000000 0.20000000 0.40000000 0.60000000 0.80000000 1.0000000
  z cuts: 0.0000000 0.059895833 0.11718750 0.17447917 0.23437500 0.28645833 0.34895833 0.40364583 0.47135417 0.52343750 0.57291667 0.63541667 1.0000000

####################### WALLS ###########################

variable       epsilonWall equal 2*${epsilon}
variable       epsilonWall equal 2*1
variable       repulsive   equal   0.7147*${sigma}
variable       repulsive   equal   0.7147*1
variable       full	   equal   3*${sigma}
variable       full	   equal   3*1
region         lowWall block EDGE EDGE EDGE EDGE EDGE 2

fix            topWall all wall/lj93 zhi EDGE 	       ${epsilonWall} ${sigma} ${repulsive} units box
fix            topWall all wall/lj93 zhi EDGE 	       2 ${sigma} ${repulsive} units box
fix            topWall all wall/lj93 zhi EDGE 	       2 1 ${repulsive} units box
fix            topWall all wall/lj93 zhi EDGE 	       2 1 0.7147 units box
fix            lowSol solvent wall/lj93 zlo EDGE                ${epsilonWall} ${sigma} ${full} units box
fix            lowSol solvent wall/lj93 zlo EDGE                2 ${sigma} ${full} units box
fix            lowSol solvent wall/lj93 zlo EDGE                2 1 ${full} units box
fix            lowSol solvent wall/lj93 zlo EDGE                2 1 3 units box
fix 	       lowCub cubes wall/lj93 zlo EDGE                ${epsilonWall} ${sigma} ${repulsive} units box
fix 	       lowCub cubes wall/lj93 zlo EDGE                2 ${sigma} ${repulsive} units box
fix 	       lowCub cubes wall/lj93 zlo EDGE                2 1 ${repulsive} units box
fix 	       lowCub cubes wall/lj93 zlo EDGE                2 1 0.7147 units box


###################### COMPUTES ##########################

compute        bin1 solvent chunk/atom bin/1d z upper 1.0


######################  FIXES ############################


fix             peclet solvent ave/chunk 10000 1 10000 bin1 density/number norm                  none ave one file density.profile

fix              temp solvent ave/chunk 10000 1 10000 bin1 temp norm                  none ave one file temp.profile

fix             1 cubes rigid/nve/small molecule #temp ${temp} ${temp} 10
  create bodies CPU = 0.056 seconds
  490 rigid bodies with 560070 atoms
  6.9283411 = max distance from body owner to body atom

fix             2 solvent nvt temp ${temp} ${temp} 10
fix             2 solvent nvt temp 1.1 ${temp} 10
fix             2 solvent nvt temp 1.1 1.1 10

#### Load balancing

fix             bal all balance 1000 1.05 shift z 10 1.05

############### Diagnostics and computes ###################

compute        	com cubes          rigid/local   1 mol x y z
compute        	quat cubes         rigid/local   1 mol quatw quati quatj quatk

compute 	cc2 cubes 	   chunk/atom 	 molecule
compute 	msd cubes 	   msd/chunk 	 cc2

fix 		msd all ave/time  1 1 10000 c_msd[*] file dump.msd ave one mode vector

dump            1 all custom 500000 dump.lammpstrj id mol type x y z
dump		cubetrj hull custom 500000 cubes.lammpstrj id mol type x y z
dump            com cubes local 10000 dump.*.xyz c_com[*]
dump	        xyz hull xyz 100000 cubes.xyz
dump            quat cubes      local 10000 dump.*.quat c_quat[*]
#dump		mol cubes molfile 10000 mol.xyz xyz


dump            2 all image 10000 image.*.png type type
dump_modify     2 pad 8
dump		image cubes image 10000 image_cubes.*.png type type
dump_modify	image pad 8
dump            3 all movie 5000 movie.avi type type
dump		4 cubes movie 5000 movie_cubes.avi type type


thermo          1000
thermo_style    custom step temp epair evdwl etotal press pe ke atoms

restart         1000000 restart.dat
timestep        0.005
timer           full
New timer settings: style=full  mode=nosync  timeout=off

#equilibration run with nvt on
run            2000000
Per MPI rank memory allocation (min/avg/max) = 19.34 | 29.04 | 32.49 Mbytes
Step Temp E_pair E_vdwl TotEng Press PotEng KinEng Atoms 
       0   0.85367057   -1.9697504   -1.9697504   -1.3579905  -0.35004369   -1.9697504    0.6117599  1070540 
    1000   0.86704411   -1.9702787   -1.9702787    -1.348935 -0.034479707   -1.9702787   0.62134368  1070540 
    2000   0.88224533   -1.9669631   -1.9669631   -1.3347259 -0.017949548   -1.9669631   0.63223722  1070540 
    3000   0.89774291   -1.9621952   -1.9621952    -1.318852  0.019203802   -1.9621952   0.64334314  1070540 
    4000   0.91368678   -1.9570096   -1.9570096   -1.3022407  0.034231494   -1.9570096   0.65476889  1070540 
    5000   0.92725424   -1.9492921   -1.9492921   -1.2848004  0.052515663   -1.9492921   0.66449164  1070540 
    6000   0.94118111   -1.9413662   -1.9413662   -1.2668943  0.071377009   -1.9413662   0.67447196  1070540 
    7000   0.95491261   -1.9332674   -1.9332674   -1.2489551  0.096428784   -1.9332674   0.68431226  1070540 
    8000   0.96687729   -1.9238158   -1.9238158   -1.2309294   0.10918305   -1.9238158   0.69288642  1070540 
    9000   0.98063708   -1.9157776   -1.9157776   -1.2130306   0.12876638   -1.9157776   0.70274701  1070540 
   10000   0.99248719   -1.9065599   -1.9065599   -1.1953209   0.13345835   -1.9065599   0.71123907  1070540 
   11000    1.0023556   -1.8960258   -1.8960258   -1.1777149   0.13883042   -1.8960258   0.71831097  1070540 
   12000    1.0101013   -1.8842959   -1.8842959   -1.1604341   0.14881552   -1.8842959   0.72386176  1070540 
   13000    1.0165255   -1.8717729   -1.8717729   -1.1433074   0.14641995   -1.8717729    0.7284655  1070540 
   14000    1.0201611     -1.85744     -1.85744   -1.1263692     0.145732     -1.85744   0.73107084  1070540 
   15000     1.021949   -1.8418913   -1.8418913   -1.1095392   0.12193379   -1.8418913   0.73235206  1070540 
   16000    1.0230592   -1.8255868   -1.8255868   -1.0924392   0.11756489   -1.8255868   0.73314765  1070540 
   17000      1.02243   -1.8079598   -1.8079598    -1.075263  0.084866634   -1.8079598    0.7326968  1070540 
   18000    1.0219007   -1.7903197   -1.7903197   -1.0580022  0.072609431   -1.7903197   0.73231745  1070540 
   19000     1.021511   -1.7727208   -1.7727208   -1.0406825  0.064122783   -1.7727208   0.73203822  1070540 
   20000    1.0219627   -1.7556064   -1.7556064   -1.0232444  0.055317849   -1.7556064   0.73236192  1070540 
   21000    1.0209107   -1.7369848   -1.7369848   -1.0053768  0.059881138   -1.7369848   0.73160798  1070540 
   22000    1.0225804   -1.7205207   -1.7205207  -0.98771616   0.03881897   -1.7205207   0.73280453  1070540 
   23000    1.0245719   -1.7044245   -1.7044245  -0.97019282  0.040732127   -1.7044245   0.73423168  1070540 
   24000    1.0288093   -1.6899537   -1.6899537  -0.95268544  0.039081209   -1.6899537    0.7372683  1070540 
   25000    1.0311365   -1.6740341   -1.6740341  -0.93509802  0.037875923   -1.6740341   0.73893604  1070540 
   26000    1.0359338   -1.6601019   -1.6601019  -0.91772801  0.037961069   -1.6601019   0.74237391  1070540 
   27000    1.0384282   -1.6447555   -1.6447555  -0.90059403   0.03923518   -1.6447555   0.74416144  1070540 
   28000    1.0437067   -1.6312867   -1.6312867   -0.8833425  0.034237103   -1.6312867   0.74794416  1070540 
   29000    1.0455747   -1.6158701   -1.6158701  -0.86658726  0.046427311   -1.6158701   0.74928279  1070540 
   30000    1.0513651    -1.603482    -1.603482  -0.85004966  0.038386127    -1.603482   0.75343232  1070540 
   31000    1.0558616   -1.5906409   -1.5906409  -0.83398623  0.046860033   -1.5906409   0.75665465  1070540 
   32000    1.0588923   -1.5769862   -1.5769862  -0.81815975  0.056929056   -1.5769862   0.75882646  1070540 
   33000    1.0642952     -1.56537     -1.56537  -0.80267164  0.052623335     -1.56537   0.76269832  1070540 
   34000    1.0661364   -1.5515896   -1.5515896  -0.78757181  0.059644651   -1.5515896   0.76401777  1070540 
   35000    1.0713075   -1.5408352   -1.5408352  -0.77311176  0.055979826   -1.5408352   0.76772348  1070540 
   36000    1.0741435   -1.5285247   -1.5285247  -0.75876884  0.061319709   -1.5285247   0.76975585  1070540 
   37000    1.0773324    -1.516967    -1.516967  -0.74492592  0.065600317    -1.516967   0.77204112  1070540 
   38000    1.0812813   -1.5066088   -1.5066088  -0.73173782  0.068410279   -1.5066088   0.77487098  1070540 
   39000    1.0854648   -1.4972082   -1.4972082  -0.71933918  0.063657446   -1.4972082   0.77786897  1070540 
   40000    1.0882112   -1.4872885   -1.4872885  -0.70745147  0.067415114   -1.4872885   0.77983708  1070540 
   41000    1.0903257   -1.4775315   -1.4775315  -0.69617915  0.076082456   -1.4775315   0.78135235  1070540 
   42000    1.0915278   -1.4677038   -1.4677038  -0.68548998  0.072976021   -1.4677038   0.78221386  1070540 
   43000    1.0958823   -1.4606956   -1.4606956  -0.67536124  0.081978106   -1.4606956   0.78533437  1070540 
   44000    1.0970116   -1.4523977   -1.4523977  -0.66625399  0.077272042   -1.4523977   0.78614366  1070540 
   45000    1.0977632   -1.4445405   -1.4445405  -0.65785822  0.076375042   -1.4445405    0.7866823  1070540 
   46000     1.101319    -1.439256    -1.439256  -0.65002554  0.076513996    -1.439256   0.78923046  1070540 
   47000    1.1004061   -1.4317234   -1.4317234  -0.64314722  0.081180142   -1.4317234   0.78857621  1070540 
   48000    1.1035996   -1.4278439   -1.4278439  -0.63697918  0.082965944   -1.4278439   0.79086475  1070540 
   49000    1.1012385    -1.421029    -1.421029  -0.63185619  0.086328625    -1.421029   0.78917277  1070540 
   50000     1.103553   -1.4179187   -1.4179187  -0.62708735  0.084577109   -1.4179187   0.79083138  1070540 
   51000    1.1020414   -1.4130896   -1.4130896   -0.6233415  0.088931278   -1.4130896   0.78974813  1070540 
   52000    1.1031587   -1.4108032   -1.4108032  -0.62025435  0.089103299   -1.4108032    0.7905488  1070540 
   53000    1.1022543   -1.4077894   -1.4077894  -0.61788874  0.089631221   -1.4077894   0.78990069  1070540 
   54000    1.1006891    -1.404605    -1.404605  -0.61582598  0.082830594    -1.404605   0.78877902  1070540 
   55000    1.1016308   -1.4031668   -1.4031668  -0.61371294  0.089736181   -1.4031668   0.78945386  1070540 
   56000     1.101508   -1.4012333   -1.4012333  -0.61186738  0.085496874   -1.4012333   0.78936591  1070540 
   57000    1.1033593    -1.401234    -1.401234  -0.61054137  0.089943361    -1.401234   0.79069259  1070540 
   58000    1.1013123   -1.3985965   -1.3985965  -0.60937082  0.091183163   -1.3985965   0.78922563  1070540 
   59000    1.0990497   -1.3959946   -1.3959946  -0.60839032  0.096286543   -1.3959946   0.78760423  1070540 
   60000    1.1002782   -1.3957127   -1.3957127  -0.60722813  0.087919487   -1.3957127   0.78848461  1070540 
   61000    1.0984583   -1.3927122   -1.3927122   -0.6055318  0.091225785   -1.3927122   0.78718037  1070540 
   62000    1.0987161   -1.3909809   -1.3909809  -0.60361583  0.097787287   -1.3909809   0.78736511  1070540 
   63000    1.1012075   -1.3904204   -1.3904204  -0.60126985  0.089462482   -1.3904204   0.78915055  1070540 
   64000    1.1001157   -1.3877929   -1.3877929  -0.59942481  0.097144445   -1.3877929    0.7883681  1070540 
   65000    1.1017878   -1.3875313   -1.3875313  -0.59796495  0.085813514   -1.3875313   0.78956636  1070540 
   66000    1.1003778   -1.3854408   -1.3854408  -0.59688491  0.089451717   -1.3854408   0.78855594  1070540 
   67000    1.1025257   -1.3856296   -1.3856296  -0.59553443   0.09027269   -1.3856296   0.79009522  1070540 
   68000    1.0992186   -1.3827389   -1.3827389  -0.59501363  0.090490853   -1.3827389   0.78772526  1070540 
   69000    1.1002137   -1.3826227   -1.3826227  -0.59418435  0.092028965   -1.3826227   0.78843835  1070540 
   70000    1.0981932   -1.3803255   -1.3803255  -0.59333508   0.10173526   -1.3803255   0.78699038  1070540 
   71000    1.1015433   -1.3819033   -1.3819033  -0.59251214  0.087799719   -1.3819033   0.78939119  1070540 
   72000    1.0992844   -1.3794568   -1.3794568   -0.5916844  0.094721209   -1.3794568   0.78777242  1070540 
   73000    1.0991446   -1.3785073   -1.3785073  -0.59083512  0.096686252   -1.3785073   0.78767222  1070540 
   74000    1.1012208   -1.3789022   -1.3789022  -0.58974218  0.092628277   -1.3789022   0.78916007  1070540 
   75000    1.1021038   -1.3786225   -1.3786225   -0.5888296  0.093494935   -1.3786225   0.78979286  1070540 
   76000    1.1014561   -1.3776554   -1.3776554  -0.58832672  0.091385189   -1.3776554   0.78932867  1070540 
   77000    1.1008981    -1.376998    -1.376998  -0.58806926  0.094132443    -1.376998   0.78892879  1070540 
   78000    1.1000454    -1.376526    -1.376526  -0.58820823     0.101073    -1.376526   0.78831775  1070540 
   79000    1.1009685   -1.3774412   -1.3774412  -0.58846195  0.097447347   -1.3774412   0.78897924  1070540 
   80000    1.1007488    -1.378004    -1.378004  -0.58918212  0.097888827    -1.378004   0.78882183  1070540 
   81000    1.0998637   -1.3783671   -1.3783671  -0.59017955  0.094028913   -1.3783671   0.78818751  1070540 
   82000    1.0985155   -1.3780939   -1.3780939  -0.59087258  0.091640155   -1.3780939   0.78722136  1070540 
   83000    1.1001923   -1.3794197   -1.3794197  -0.59099668  0.087927535   -1.3794197   0.78842302  1070540 
   84000    1.1009626   -1.3795833   -1.3795833  -0.59060832  0.086737721   -1.3795833   0.78897501  1070540 
   85000    1.1016214   -1.3796323   -1.3796323  -0.59018519   0.10045309   -1.3796323   0.78944714  1070540 
   86000    1.1013371    -1.379388    -1.379388  -0.59014458   0.10451855    -1.379388   0.78924338  1070540 
   87000    1.1010201   -1.3798311   -1.3798311  -0.59081492   0.10403633   -1.3798311   0.78901622  1070540 
   88000    1.1006337   -1.3801333   -1.3801333  -0.59139395  0.098794667   -1.3801333   0.78873931  1070540 
   89000    1.1008297   -1.3809837   -1.3809837  -0.59210393   0.10436438   -1.3809837   0.78887976  1070540 
   90000    1.1008981   -1.3820419   -1.3820419  -0.59311309   0.10141963   -1.3820419   0.78892882  1070540 
   91000    1.1011596    -1.383427    -1.383427   -0.5943108    0.1037597    -1.383427   0.78911619  1070540 
   92000    1.0996398   -1.3833726   -1.3833726  -0.59534557  0.096413072   -1.3833726   0.78802706  1070540 
   93000    1.1015471   -1.3859584   -1.3859584  -0.59656449  0.099329511   -1.3859584   0.78939393  1070540 
   94000    1.0987876   -1.3850979   -1.3850979  -0.59768155   0.10334093   -1.3850979   0.78741639  1070540 
   95000    1.0993826   -1.3864385   -1.3864385  -0.59859571   0.10002996   -1.3864385   0.78784279  1070540 
   96000    1.1005319   -1.3878641   -1.3878641  -0.59919775   0.08946917   -1.3878641   0.78866638  1070540 
   97000    1.1024704   -1.3900821   -1.3900821   -0.6000265   0.10549318   -1.3900821   0.79005559  1070540 
   98000    1.1003818   -1.3897944   -1.3897944   -0.6012356   0.10210121   -1.3897944   0.78855882  1070540 
   99000    1.1009928    -1.391463    -1.391463  -0.60246636   0.10687917    -1.391463   0.78899667  1070540 
  100000    1.0995904    -1.391735    -1.391735   -0.6037433  0.098101289    -1.391735   0.78799168  1070540 
  101000    1.1003195   -1.3935767   -1.3935767  -0.60506252  0.097558378   -1.3935767   0.78851416  1070540 
  102000    1.0996975   -1.3939877   -1.3939877  -0.60591927   0.10322232   -1.3939877   0.78806842  1070540 
  103000    1.0994106     -1.39435     -1.39435  -0.60648713  0.098529497     -1.39435   0.78786283  1070540 
  104000    1.0993801   -1.3945315   -1.3945315   -0.6066906  0.099375731   -1.3945315   0.78784094  1070540 
  105000    1.1004675   -1.3953804   -1.3953804  -0.60676012    0.1094612   -1.3953804   0.78862026  1070540 
  106000    1.0995447   -1.3945283   -1.3945283  -0.60656939   0.10436262   -1.3945283   0.78795894  1070540 
  107000    1.0984517   -1.3935246   -1.3935246  -0.60634893   0.10560125   -1.3935246   0.78717567  1070540 
  108000    1.1008862   -1.3946463   -1.3946463  -0.60572601   0.10794373   -1.3946463    0.7889203  1070540 
  109000    1.1014322     -1.39417     -1.39417  -0.60485842   0.10350175     -1.39417   0.78931157  1070540 
  110000    1.1010387   -1.3934541   -1.3934541  -0.60442449   0.10067426   -1.3934541   0.78902959  1070540 
  111000    1.1005564   -1.3931415   -1.3931415  -0.60445752   0.10234981   -1.3931415   0.78868398  1070540 
  112000    1.1005656   -1.3934233   -1.3934233  -0.60473281   0.10742354   -1.3934233   0.78869052  1070540 
  113000    1.0982449   -1.3920014   -1.3920014    -0.604974   0.10251546   -1.3920014   0.78702745  1070540 
  114000    1.0986763   -1.3920497   -1.3920497  -0.60471305   0.10102664   -1.3920497   0.78733662  1070540 
  115000    1.0982854   -1.3911497   -1.3911497  -0.60409323  0.098078613   -1.3911497   0.78705651  1070540 
  116000    1.0992551   -1.3908702   -1.3908702  -0.60311879  0.098740121   -1.3908702   0.78775138  1070540 
  117000    1.0994001   -1.3895839   -1.3895839  -0.60172862  0.096556278   -1.3895839    0.7878553  1070540 
  118000    1.1006753     -1.38897     -1.38897  -0.60020088  0.097786612     -1.38897   0.78876917  1070540 
  119000     1.100159    -1.387449    -1.387449  -0.59904981    0.1031006    -1.387449   0.78839917  1070540 
  120000    1.1013892   -1.3872634   -1.3872634  -0.59798266   0.10018259   -1.3872634   0.78928072  1070540 
  121000    1.1002637    -1.385814    -1.385814  -0.59733987  0.097566357    -1.385814   0.78847416  1070540 
  122000    1.0988487   -1.3841281   -1.3841281  -0.59666795    0.1092146   -1.3841281   0.78746019  1070540 
  123000    1.1009169   -1.3845645   -1.3845645  -0.59562225   0.10092934   -1.3845645   0.78894228  1070540 
  124000    1.0992379   -1.3824157   -1.3824157  -0.59467662  0.096071169   -1.3824157   0.78773909  1070540 
  125000    1.1012577   -1.3825238   -1.3825238  -0.59333728  0.093735284   -1.3825238   0.78918651  1070540 
  126000    1.0987084   -1.3790085   -1.3790085  -0.59164884  0.099454784   -1.3790085   0.78735961  1070540 
  127000    1.1002396   -1.3786437   -1.3786437  -0.59018673  0.092747766   -1.3786437   0.78845692  1070540 
  128000     1.101947   -1.3782918   -1.3782918  -0.58861128   0.10082311   -1.3782918   0.78968048  1070540 
  129000    1.1016076   -1.3768784   -1.3768784   -0.5874411  0.098058416   -1.3768784   0.78943727  1070540 
  130000    1.1009587   -1.3757814   -1.3757814  -0.58680916  0.099227425   -1.3757814   0.78897224  1070540 
  131000    1.1002665   -1.3750258   -1.3750258  -0.58654962  0.095819604   -1.3750258   0.78847617  1070540 
  132000    1.1000305   -1.3750289   -1.3750289   -0.5867218   0.10517923   -1.3750289    0.7883071  1070540 
  133000    1.0992607   -1.3747441   -1.3747441  -0.58698868    0.0978605   -1.3747441   0.78775541  1070540 
  134000    1.0972708    -1.373056    -1.373056  -0.58672662  0.090733101    -1.373056    0.7863294  1070540 
  135000    1.0976895   -1.3723699   -1.3723699  -0.58574039  0.093716855   -1.3723699   0.78662948  1070540 
  136000    1.1004169   -1.3727447   -1.3727447  -0.58416075  0.097820558   -1.3727447     0.788584  1070540 
  137000    1.0998488   -1.3704804   -1.3704804  -0.58230353  0.090898385   -1.3704804   0.78817689  1070540 
  138000    1.1009706   -1.3695458   -1.3695458  -0.58056499  0.096494111   -1.3695458   0.78898078  1070540 
  139000    1.1021845   -1.3690092   -1.3690092  -0.57915854  0.094314413   -1.3690092   0.78985068  1070540 
  140000    1.1023464   -1.3683175   -1.3683175  -0.57835077  0.096361596   -1.3683175    0.7899667  1070540 
  141000    1.1019979   -1.3680337   -1.3680337  -0.57831667   0.10574537   -1.3680337   0.78971698  1070540 
  142000    1.0994385   -1.3668463   -1.3668463  -0.57896348  0.095809214   -1.3668463   0.78788283  1070540 
  143000    1.1011163   -1.3684949   -1.3684949  -0.57940978  0.095401894   -1.3684949   0.78908516  1070540 
  144000    1.1005807   -1.3686914   -1.3686914     -0.57999   0.09301532   -1.3686914   0.78870136  1070540 
  145000    1.0976963   -1.3670415   -1.3670415   -0.5804072  0.095103966   -1.3670415   0.78663431  1070540 
  146000    1.0985741    -1.367482    -1.367482  -0.58021861  0.081687121    -1.367482   0.78726337  1070540 
  147000    1.0993922   -1.3673368   -1.3673368  -0.57948714   0.10374617   -1.3673368   0.78784961  1070540 
  148000    1.1004413   -1.3671886   -1.3671886  -0.57858711  0.093163034   -1.3671886   0.78860146  1070540 
  149000    1.1016513   -1.3669801   -1.3669801  -0.57751152  0.098197899   -1.3669801    0.7894686  1070540 
  150000    1.1025958   -1.3668759   -1.3668759  -0.57673049  0.095168828   -1.3668759   0.79014543  1070540 
  151000    1.1012869   -1.3659649   -1.3659649  -0.57675752  0.095173035   -1.3659649   0.78920741  1070540 
  152000     1.102365   -1.3673886   -1.3673886  -0.57740861  0.096172498   -1.3673886   0.78998003  1070540 
  153000    1.0980171   -1.3654066   -1.3654066  -0.57854236  0.095573848   -1.3654066   0.78686424  1070540 
  154000    1.0977962   -1.3659126   -1.3659126  -0.57920673  0.090609717   -1.3659126   0.78670592  1070540 
  155000    1.0981893   -1.3662291   -1.3662291  -0.57924149   0.09380012   -1.3662291   0.78698762  1070540 
  156000    1.0985373   -1.3658205   -1.3658205  -0.57858351   0.10344388   -1.3658205   0.78723702  1070540 
  157000    1.0996013   -1.3653241   -1.3653241  -0.57732458  0.094672154   -1.3653241   0.78799948  1070540 
  158000    1.0998059   -1.3641706   -1.3641706  -0.57602451  0.097641892   -1.3641706    0.7881461  1070540 
  159000    1.1016059   -1.3643817   -1.3643817  -0.57494569  0.094781786   -1.3643817   0.78943605  1070540 
  160000    1.1011507    -1.363594    -1.363594  -0.57448421   0.10205849    -1.363594   0.78910983  1070540 
  161000    1.1022188   -1.3644464   -1.3644464  -0.57457112  0.095632291   -1.3644464   0.78987526  1070540 
  162000    1.1014957   -1.3644663   -1.3644663   -0.5751092  0.097324115   -1.3644663   0.78935707  1070540 
  163000    1.1023981   -1.3661328   -1.3661328  -0.57612901  0.098991792   -1.3661328   0.79000375  1070540 
  164000    1.1000407    -1.365761    -1.365761  -0.57744662  0.096633442    -1.365761   0.78831435  1070540 
  165000    1.0987638   -1.3658297   -1.3658297  -0.57843038   0.09350142   -1.3658297   0.78739933  1070540 
  166000    1.0984092   -1.3659138   -1.3659138  -0.57876856  0.092199446   -1.3659138   0.78714521  1070540 
  167000    1.0976176   -1.3651312   -1.3651312  -0.57855328   0.10342504   -1.3651312   0.78657794  1070540 
  168000    1.0988459   -1.3652805   -1.3652805  -0.57782235  0.099359878   -1.3652805   0.78745818  1070540 
  169000    1.0982516   -1.3639481   -1.3639481  -0.57691586   0.10224161   -1.3639481   0.78703227  1070540 
  170000    1.1015432   -1.3657064   -1.3657064  -0.57631531   0.10136416   -1.3657064   0.78939109  1070540 
  171000    1.1000318   -1.3647679   -1.3647679  -0.57645986   0.10432908   -1.3647679   0.78830802  1070540 
  172000     1.100824   -1.3661063   -1.3661063  -0.57723056   0.10045604   -1.3661063   0.78887574  1070540 
  173000    1.1019417   -1.3679977   -1.3679977  -0.57832109   0.10519797   -1.3679977   0.78967665  1070540 
  174000    1.0994348     -1.36777     -1.36777  -0.57988984  0.097377008     -1.36777   0.78788021  1070540 
  175000    1.0981466   -1.3680395   -1.3680395  -0.58108249  0.095004025   -1.3680395   0.78695705  1070540 
  176000    1.0978866    -1.368387    -1.368387  -0.58161632  0.097599489    -1.368387   0.78677073  1070540 
  177000     1.098217   -1.3686918   -1.3686918  -0.58168435   0.10635608   -1.3686918   0.78700746  1070540 
  178000    1.0999654   -1.3693069   -1.3693069  -0.58104654   0.10344573   -1.3693069    0.7882604  1070540 
  179000    1.1010975   -1.3695731   -1.3695731  -0.58050135  0.098833082   -1.3695731   0.78907172  1070540 
  180000    1.0995357   -1.3681064   -1.3681064  -0.58015393  0.096372135   -1.3681064   0.78795247  1070540 
  181000     1.099431   -1.3674192   -1.3674192  -0.57954175   0.10103189   -1.3674192   0.78787742  1070540 
  182000    1.1031676   -1.3695814   -1.3695814   -0.5790262   0.10102458   -1.3695814   0.79055522  1070540 
  183000    1.1013768   -1.3685811   -1.3685811  -0.57930928   0.10162025   -1.3685811   0.78927187  1070540 
  184000    1.0988546   -1.3673438   -1.3673438  -0.57987946  0.093100391   -1.3673438   0.78746437  1070540 
  185000    1.0990858   -1.3679587   -1.3679587  -0.58032862   0.10786002   -1.3679587   0.78763009  1070540 
  186000    1.0998459   -1.3691252   -1.3691252  -0.58095045   0.10037616   -1.3691252    0.7881748  1070540 
  187000    1.1003888   -1.3701027   -1.3701027  -0.58153884  0.098874063   -1.3701027   0.78856382  1070540 
  188000    1.0996043   -1.3703114   -1.3703114  -0.58230975   0.10159452   -1.3703114   0.78800164  1070540 
  189000    1.0985274   -1.3702079   -1.3702079  -0.58297804  0.097513945   -1.3702079    0.7872299  1070540 
  190000    1.0993565   -1.3710038   -1.3710038  -0.58317973   0.10048895   -1.3710038   0.78782404  1070540 
  191000    1.1008733   -1.3724259   -1.3724259  -0.58351485  0.093718876   -1.3724259     0.788911  1070540 
  192000    1.0995739   -1.3715105   -1.3715105  -0.58353059  0.096262665   -1.3715105   0.78797987  1070540 
  193000    1.0997518   -1.3715102   -1.3715102  -0.58340281   0.09932354   -1.3715102   0.78810738  1070540 
  194000    1.0990475   -1.3710557   -1.3710557   -0.5834531  0.095999898   -1.3710557   0.78760259  1070540 
  195000    1.0996619   -1.3712539   -1.3712539  -0.58321099   0.10094162   -1.3712539   0.78804294  1070540 
  196000     1.099059   -1.3704878   -1.3704878  -0.58287689  0.095572966   -1.3704878   0.78761088  1070540 
  197000    1.0994577   -1.3701984   -1.3701984  -0.58230184   0.10314664   -1.3701984   0.78789659  1070540 
  198000    1.1015164   -1.3713887   -1.3713887  -0.58201683     0.102696   -1.3713887   0.78937191  1070540 
  199000    1.1004706   -1.3709017   -1.3709017  -0.58227925  0.094021818   -1.3709017   0.78862244  1070540 
  200000    1.0998285   -1.3705207   -1.3705207  -0.58235832   0.10192851   -1.3705207   0.78816233  1070540 
  201000    1.1006599   -1.3712084   -1.3712084  -0.58245032  0.097377335   -1.3712084   0.78875808  1070540 
  202000    1.0983663   -1.3695658   -1.3695658  -0.58245132   0.10555055   -1.3695658   0.78711447  1070540 
  203000    1.1003518   -1.3708836   -1.3708836  -0.58234629  0.098666613   -1.3708836   0.78853732  1070540 
  204000    1.1004741   -1.3708928   -1.3708928  -0.58226779  0.095061064   -1.3708928   0.78862498  1070540 
  205000    1.1012085   -1.3713159   -1.3713159  -0.58216465  0.096896659   -1.3713159   0.78915125  1070540 
  206000    1.0996124    -1.370072    -1.370072  -0.58206453   0.10323128    -1.370072   0.78800747  1070540 
  207000    1.0995566   -1.3696054   -1.3696054  -0.58163797  0.087322838   -1.3696054   0.78796746  1070540 
  208000    1.0991907   -1.3689886   -1.3689886  -0.58128328   0.10390626   -1.3689886   0.78770528  1070540 
  209000    1.1005426   -1.3696172   -1.3696172  -0.58094314  0.094053363   -1.3696172   0.78867402  1070540 
  210000    1.1007338   -1.3695605   -1.3695605   -0.5807494  0.099980311   -1.3695605   0.78881109  1070540 
  211000    1.1005995   -1.3691504   -1.3691504  -0.58043552   0.11039955   -1.3691504   0.78871484  1070540 
  212000    1.1001653   -1.3690933   -1.3690933  -0.58068963  0.098922675   -1.3690933   0.78840365  1070540 
  213000    1.0978921   -1.3677122   -1.3677122  -0.58093757   0.10314771   -1.3677122   0.78677467  1070540 
  214000    1.0986966    -1.368259    -1.368259   -0.5809079  0.093382386    -1.368259   0.78735113  1070540 
  215000    1.0997181   -1.3683282   -1.3683282  -0.58024503   0.10342293   -1.3683282   0.78808318  1070540 
  216000    1.0993357   -1.3670784   -1.3670784  -0.57926928   0.10109401   -1.3670784   0.78780913  1070540 
  217000    1.1023686   -1.3685225   -1.3685225  -0.57853985    0.1006171   -1.3685225   0.78998261  1070540 
  218000    1.1018463   -1.3676671   -1.3676671   -0.5780588  0.096773074   -1.3676671   0.78960831  1070540 
  219000    1.1004626   -1.3669885   -1.3669885  -0.57837182  0.099091503   -1.3669885   0.78861671  1070540 
  220000    1.0995964   -1.3667646   -1.3667646  -0.57876865  0.097158456   -1.3667646   0.78799597  1070540 
  221000    1.0991772    -1.366739    -1.366739  -0.57904336  0.098852721    -1.366739   0.78769561  1070540 
  222000      1.09881   -1.3664631   -1.3664631  -0.57903065   0.10086459   -1.3664631   0.78743241  1070540 
  223000    1.0979108   -1.3654151   -1.3654151  -0.57862709  0.091876974   -1.3654151   0.78678806  1070540 
  224000    1.1001059   -1.3658933   -1.3658933  -0.57753215  0.098776477   -1.3658933   0.78836113  1070540 
  225000    1.1007917   -1.3651661   -1.3651661  -0.57631356  0.096211383   -1.3651661   0.78885257  1070540 
  226000    1.1020361   -1.3653388   -1.3653388  -0.57559451   0.10087148   -1.3653388   0.78974432  1070540 
  227000    1.1012929   -1.3646571   -1.3646571  -0.57544538   0.10026812   -1.3646571   0.78921171  1070540 
  228000    1.0998205   -1.3636311   -1.3636311  -0.57547449  0.093086341   -1.3636311   0.78815656  1070540 
  229000    1.1006478   -1.3645195   -1.3645195  -0.57577004  0.092717044   -1.3645195   0.78874943  1070540 
  230000    1.1001887   -1.3647165   -1.3647165  -0.57629601   0.10272642   -1.3647165   0.78842047  1070540 
  231000    1.0994753   -1.3644984   -1.3644984  -0.57658921   0.09523638   -1.3644984   0.78790922  1070540 
  232000    1.1005904   -1.3657411   -1.3657411   -0.5770328  0.097820959   -1.3657411   0.78870828  1070540 
  233000    1.1013205   -1.3665162   -1.3665162  -0.57728475  0.099946888   -1.3665162   0.78923148  1070540 
  234000    1.1004468     -1.36667     -1.36667  -0.57806461   0.10258235     -1.36667   0.78860543  1070540 
  235000    1.0992258   -1.3663416   -1.3663416  -0.57861114   0.10321713   -1.3663416   0.78773042  1070540 
  236000    1.0996244   -1.3671886   -1.3671886  -0.57917256   0.10105785   -1.3671886   0.78801608  1070540 
  237000    1.0990236    -1.366702    -1.366702  -0.57911653  0.094319916    -1.366702   0.78758548  1070540 
  238000     1.099759   -1.3670169   -1.3670169  -0.57890442   0.10409072   -1.3670169   0.78811248  1070540 
  239000    1.0993294   -1.3660228   -1.3660228  -0.57821818   0.11366062   -1.3660228   0.78780461  1070540 
  240000    1.0998048   -1.3653898   -1.3653898  -0.57724449    0.1074875   -1.3653898   0.78814531  1070540 
  241000    1.1006303    -1.365321    -1.365321  -0.57658407   0.10537567    -1.365321   0.78873692  1070540 
  242000    1.1017767   -1.3655501   -1.3655501  -0.57599164   0.10440675   -1.3655501   0.78955844  1070540 
  243000    1.1003155   -1.3645962   -1.3645962  -0.57608492   0.10266276   -1.3645962   0.78851129  1070540 
  244000    1.1002226   -1.3648637   -1.3648637  -0.57641901    0.1013131   -1.3648637   0.78844472  1070540 
  245000    1.1003628   -1.3654958   -1.3654958  -0.57695053  0.098603147   -1.3654958   0.78854524  1070540 
  246000    1.0986821   -1.3648818   -1.3648818   -0.5775411   0.09218726   -1.3648818   0.78734074  1070540 
  247000    1.0999139   -1.3660378   -1.3660378  -0.57781429   0.10545483   -1.3660378   0.78822351  1070540 
  248000    1.1003143   -1.3664518   -1.3664518  -0.57794135   0.10280909   -1.3664518   0.78851043  1070540 
  249000    1.1011377   -1.3670265   -1.3670265  -0.57792597   0.10033937   -1.3670265   0.78910048  1070540 
  250000    1.1005304   -1.3664824   -1.3664824   -0.5778171   0.10074271   -1.3664824   0.78866529  1070540 
  251000     1.099483   -1.3650511   -1.3650511   -0.5771364  0.097303938   -1.3650511   0.78791471  1070540 
  252000    1.0995834   -1.3645825   -1.3645825  -0.57659582   0.10220669   -1.3645825   0.78798668  1070540 
  253000    1.1028656   -1.3665515   -1.3665515  -0.57621272   0.10379579   -1.3665515   0.79033878  1070540 
  254000    1.1003318   -1.3647263   -1.3647263  -0.57620336    0.1042825   -1.3647263   0.78852298  1070540 
  255000    1.1004381   -1.3649665   -1.3649665   -0.5763673   0.10393714   -1.3649665   0.78859917  1070540 
  256000    1.1013132   -1.3660051   -1.3660051  -0.57677876  0.097809056   -1.3660051   0.78922631  1070540 
  257000    1.0979586   -1.3644835   -1.3644835   -0.5776612   0.10125783   -1.3644835   0.78682228  1070540 
  258000    1.0995928   -1.3660166   -1.3660166  -0.57802319  0.094594009   -1.3660166   0.78799343  1070540 
  259000    1.0988223    -1.365646    -1.365646  -0.57820468  0.092606624    -1.365646   0.78744127  1070540 
  260000    1.0986145   -1.3655276   -1.3655276  -0.57823528   0.10423198   -1.3655276   0.78729236  1070540 
  261000    1.1024342   -1.3682191   -1.3682191  -0.57818946  0.098289814   -1.3682191    0.7900296  1070540 
  262000    1.0987404   -1.3659976   -1.3659976  -0.57861503  0.097607858   -1.3659976   0.78738254  1070540 
  263000    1.0999053   -1.3671904   -1.3671904  -0.57897305   0.10452016   -1.3671904   0.78821736  1070540 
  264000    1.0990944   -1.3667103   -1.3667103  -0.57907404  0.098090628   -1.3667103   0.78763624  1070540 
  265000    1.0994154   -1.3671305   -1.3671305  -0.57926416   0.09727114   -1.3671305   0.78786631  1070540 
  266000    1.1001556   -1.3674025   -1.3674025  -0.57900578   0.10197883   -1.3674025   0.78839674  1070540 
  267000    1.0987872   -1.3659727   -1.3659727  -0.57855663   0.10393689   -1.3659727   0.78741608  1070540 
  268000    1.0986259   -1.3653623   -1.3653623  -0.57806173   0.10165156   -1.3653623   0.78730053  1070540 
  269000    1.1022188   -1.3672541   -1.3672541  -0.57737884   0.10126268   -1.3672541   0.78987528  1070540 
  270000    1.1019832   -1.3668551   -1.3668551   -0.5771487   0.10191158   -1.3668551   0.78970639  1070540 
  271000    1.1016689   -1.3667107   -1.3667107   -0.5772295   0.10227344   -1.3667107    0.7894812  1070540 
  272000    1.1013734   -1.3672561   -1.3672561  -0.57798668   0.10099943   -1.3672561   0.78926943  1070540 
  273000    1.1004321   -1.3674759   -1.3674759  -0.57888108   0.10011647   -1.3674759   0.78859483  1070540 
  274000    1.0994958   -1.3679961   -1.3679961  -0.58007227   0.10566822   -1.3679961   0.78792387  1070540 
  275000    1.0994685   -1.3688181   -1.3688181  -0.58091378   0.10059469   -1.3688181   0.78790435  1070540 
  276000    1.0982477   -1.3682718   -1.3682718  -0.58124234   0.10065728   -1.3682718   0.78702947  1070540 
  277000    1.1003303   -1.3697685   -1.3697685  -0.58124654  0.098948335   -1.3697685   0.78852192  1070540 
  278000    1.0995493   -1.3687681   -1.3687681   -0.5808059  0.091120565   -1.3687681   0.78796221  1070540 
  279000    1.0991492   -1.3675462   -1.3675462  -0.57987065  0.098276227   -1.3675462   0.78767551  1070540 
  280000    1.0989576   -1.3664451   -1.3664451  -0.57890687    0.1060846   -1.3664451   0.78753824  1070540 
  281000    1.1007065   -1.3669759   -1.3669759  -0.57818435   0.10166495   -1.3669759   0.78879151  1070540 
  282000    1.1000182   -1.3658539   -1.3658539  -0.57755563  0.098915735   -1.3658539   0.78829823  1070540 
  283000    1.1001111   -1.3657239   -1.3657239  -0.57735908   0.11079362   -1.3657239   0.78836486  1070540 
  284000    1.1028102   -1.3675759   -1.3675759  -0.57727681  0.096833336   -1.3675759   0.79029905  1070540 
  285000    1.1005822   -1.3666339   -1.3666339  -0.57793152   0.10871504   -1.3666339    0.7887024  1070540 
  286000    1.0999658   -1.3674691   -1.3674691  -0.57920839  0.088972117   -1.3674691    0.7882607  1070540 
  287000    1.0977337   -1.3671845   -1.3671845  -0.58052338   0.10639054   -1.3671845   0.78666114  1070540 
  288000    1.0982792     -1.36824     -1.36824  -0.58118801  0.096459444     -1.36824   0.78705204  1070540 
  289000    1.0974401   -1.3675721   -1.3675721  -0.58112141   0.10365248   -1.3675721   0.78645069  1070540 
  290000    1.0988843   -1.3679065   -1.3679065  -0.58042085  0.093683579   -1.3679065   0.78748566  1070540 
  291000    1.1001488   -1.3678303   -1.3678303  -0.57943847   0.10651693   -1.3678303   0.78839183  1070540 
  292000    1.1004091   -1.3671142   -1.3671142   -0.5785358  0.098337343   -1.3671142   0.78857839  1070540 
  293000    1.1022068   -1.3676668   -1.3676668  -0.57780017   0.10617058   -1.3676668   0.78986663  1070540 
  294000    1.1017627     -1.36732     -1.36732  -0.57777158   0.10451512     -1.36732    0.7895484  1070540 
  295000    1.1010652    -1.367477    -1.367477  -0.57842843   0.10024578    -1.367477   0.78904855  1070540 
  296000    1.0994867   -1.3673508   -1.3673508   -0.5794334     0.103809   -1.3673508   0.78791738  1070540 
  297000    1.0986449   -1.3677288   -1.3677288  -0.58041472   0.10485642   -1.3677288   0.78731409  1070540 
  298000    1.0997997   -1.3689326   -1.3689326  -0.58079092   0.10154879   -1.3689326    0.7881417  1070540 
  299000    1.0986177   -1.3678049   -1.3678049  -0.58051024  0.093830401   -1.3678049   0.78729464  1070540 
  300000    1.0987291   -1.3667671   -1.3667671  -0.57939267  0.096723907   -1.3667671   0.78737445  1070540 
  301000    1.1009636    -1.367002    -1.367002  -0.57802619  0.087058839    -1.367002   0.78897578  1070540 
  302000    1.1014067   -1.3658812   -1.3658812  -0.57658792   0.10942802   -1.3658812   0.78929331  1070540 
  303000    1.1016836   -1.3651224   -1.3651224  -0.57563065    0.1006164   -1.3651224   0.78949171  1070540 
  304000    1.1023262   -1.3653875   -1.3653875  -0.57543532  0.096726452   -1.3653875    0.7899522  1070540 
  305000    1.1013585    -1.365414    -1.365414  -0.57615527   0.10223543    -1.365414   0.78925872  1070540 
  306000    1.0980424   -1.3641665   -1.3641665  -0.57728417   0.09780706   -1.3641665   0.78688235  1070540 
  307000    1.0996397   -1.3661208   -1.3661208  -0.57809383  0.095815048   -1.3661208   0.78802698  1070540 
  308000    1.0987342   -1.3661023   -1.3661023  -0.57872416   0.10333283   -1.3661023   0.78737811  1070540 
  309000    1.0977538   -1.3654189   -1.3654189  -0.57874335    0.1070301   -1.3654189   0.78667553  1070540 
  310000    1.0987612   -1.3659954   -1.3659954    -0.578598  0.096376611   -1.3659954   0.78739742  1070540 
  311000     1.100005    -1.366065    -1.366065  -0.57777624   0.10547796    -1.366065   0.78828877  1070540 
  312000    1.1002235   -1.3654041   -1.3654041  -0.57695868   0.09760123   -1.3654041   0.78844538  1070540 
  313000    1.0997488   -1.3642587   -1.3642587  -0.57615352   0.10254568   -1.3642587   0.78810521  1070540 
  314000     1.101411   -1.3647768   -1.3647768  -0.57548043   0.10576836   -1.3647768   0.78929638  1070540 
  315000    1.1007821   -1.3640264   -1.3640264  -0.57518073  0.091326518   -1.3640264   0.78884568  1070540 
  316000    1.1009681   -1.3639857   -1.3639857  -0.57500676   0.10541036   -1.3639857   0.78897894  1070540 
  317000    1.1003353   -1.3639502   -1.3639502   -0.5754247  0.096490671   -1.3639502   0.78852552  1070540 
  318000     1.099337   -1.3639394   -1.3639394  -0.57612928    0.1053882   -1.3639394   0.78781008  1070540 
  319000    1.0994878   -1.3649772   -1.3649772  -0.57705906   0.11278415   -1.3649772   0.78791817  1070540 
  320000    1.0979925   -1.3646915   -1.3646915  -0.57784494  0.094558857   -1.3646915   0.78684656  1070540 
  321000    1.0970725   -1.3644212   -1.3644212  -0.57823392  0.095106779   -1.3644212   0.78618732  1070540 
  322000    1.1005466   -1.3666986   -1.3666986  -0.57802172   0.10239756   -1.3666986    0.7886769  1070540 
  323000    1.1002229   -1.3655985   -1.3655985   -0.5771536   0.10575058   -1.3655985   0.78844492  1070540 
  324000    1.1006762   -1.3650018   -1.3650018  -0.57623202   0.10797772   -1.3650018   0.78876979  1070540 
  325000    1.1005825   -1.3643509   -1.3643509  -0.57564825  0.097428117   -1.3643509   0.78870263  1070540 
  326000    1.1012729   -1.3648261   -1.3648261  -0.57562873   0.10610062   -1.3648261    0.7891974  1070540 
  327000    1.0994111   -1.3639107   -1.3639107  -0.57604756   0.10087355   -1.3639107   0.78786316  1070540 
  328000    1.1001666   -1.3649752   -1.3649752  -0.57657063   0.09571245   -1.3649752   0.78840458  1070540 
  329000    1.0966883   -1.3626913   -1.3626913  -0.57677936  0.092553341   -1.3626913   0.78591197  1070540 
  330000    1.0996237   -1.3640084   -1.3640084  -0.57599285   0.10585826   -1.3640084   0.78801554  1070540 
  331000    1.1002602   -1.3639726   -1.3639726  -0.57550089   0.10345906   -1.3639726   0.78847167  1070540 
  332000    1.1003002    -1.363491    -1.363491  -0.57499063  0.098971658    -1.363491   0.78850036  1070540 
  333000     1.100331   -1.3629691   -1.3629691  -0.57444669  0.091523685   -1.3629691   0.78852242  1070540 
  334000    1.1000182   -1.3624714   -1.3624714  -0.57417316   0.10051463   -1.3624714   0.78829827  1070540 
  335000    1.1021261   -1.3638949   -1.3638949  -0.57408601   0.10153366   -1.3638949   0.78980885  1070540 
  336000    1.1012498   -1.3636053   -1.3636053  -0.57442442   0.10348702   -1.3636053   0.78918086  1070540 
  337000     1.099313   -1.3630124   -1.3630124  -0.57521953  0.095143998   -1.3630124   0.78779288  1070540 
  338000    1.0998359   -1.3639204   -1.3639204  -0.57575277    0.1029169   -1.3639204   0.78816763  1070540 
  339000    1.1000011   -1.3646717   -1.3646717  -0.57638567  0.093708962   -1.3646717   0.78828599  1070540 
  340000     1.099856    -1.364857    -1.364857  -0.57667494   0.10223369    -1.364857   0.78818205  1070540 
  341000    1.0986117   -1.3640495   -1.3640495  -0.57675921  0.099545724   -1.3640495   0.78729032  1070540 
  342000    1.0994817   -1.3644213   -1.3644213  -0.57650749  0.098584385   -1.3644213   0.78791378  1070540 
  343000    1.0999925   -1.3643088   -1.3643088  -0.57602892  0.095272603   -1.3643088   0.78827985  1070540 
  344000    1.1001153   -1.3640442   -1.3640442  -0.57567638   0.10429151   -1.3640442   0.78836786  1070540 
  345000    1.1013787   -1.3644602   -1.3644602  -0.57518701  0.099839764   -1.3644602   0.78927323  1070540 
  346000    1.1013528   -1.3643629   -1.3643629  -0.57510828  0.098085481   -1.3643629   0.78925462  1070540 
  347000    1.1005897   -1.3639359   -1.3639359  -0.57522811  0.098515378   -1.3639359   0.78870779  1070540 
  348000    1.1019214   -1.3650732   -1.3650732  -0.57541114   0.10285459   -1.3650732    0.7896621  1070540 
  349000    1.0995038   -1.3639226   -1.3639226  -0.57599292  0.088023739   -1.3639226   0.78792965  1070540 
  350000    1.0993767   -1.3641397   -1.3641397  -0.57630112   0.10195878   -1.3641397   0.78783856  1070540 
  351000    1.1000974   -1.3648295   -1.3648295  -0.57647455  0.098238292   -1.3648295   0.78835499  1070540 
  352000    1.0984574   -1.3639136   -1.3639136   -0.5767339   0.10310184   -1.3639136   0.78717974  1070540 
  353000    1.0985517   -1.3637565   -1.3637565   -0.5765092  0.093221372   -1.3637565   0.78724732  1070540 
  354000    1.1000273   -1.3643369   -1.3643369   -0.5760321   0.09748995   -1.3643369   0.78830476  1070540 
  355000    1.0998734   -1.3637163   -1.3637163  -0.57552183    0.1001004   -1.3637163   0.78819451  1070540 
  356000    1.1010907   -1.3640625   -1.3640625  -0.57499567   0.10241331   -1.3640625   0.78906683  1070540 
  357000    1.1007962   -1.3637131   -1.3637131  -0.57485734   0.10174286   -1.3637131   0.78885578  1070540 
  358000    1.1002564   -1.3633167   -1.3633167  -0.57484768  0.099977283   -1.3633167   0.78846898  1070540 
  359000    1.1012018   -1.3642416   -1.3642416  -0.57509509   0.10382275   -1.3642416   0.78914648  1070540 
  360000    1.1017388   -1.3649663   -1.3649663  -0.57543496   0.10151655   -1.3649663    0.7895313  1070540 
  361000    1.0999497   -1.3641203   -1.3641203  -0.57587113  0.096512799   -1.3641203    0.7882492  1070540 
  362000    1.1001046   -1.3648687   -1.3648687  -0.57650847   0.10083386   -1.3648687    0.7883602  1070540 
  363000    1.0993528   -1.3647741   -1.3647741  -0.57695271   0.10159409   -1.3647741   0.78782141  1070540 
  364000    1.0991191   -1.3649073   -1.3649073  -0.57725337  0.096273508   -1.3649073   0.78765397  1070540 
  365000    1.0984916   -1.3643173   -1.3643173  -0.57711306   0.10734859   -1.3643173   0.78720426  1070540 
  366000    1.1007838   -1.3654924   -1.3654924  -0.57664549  0.094109133   -1.3654924   0.78884688  1070540 
  367000    1.1021723   -1.3662896   -1.3662896   -0.5764477   0.10355593   -1.3662896   0.78984193  1070540 
  368000    1.1008353    -1.365414    -1.365414  -0.57653013   0.10167096    -1.365414   0.78888384  1070540 
  369000    1.0998358   -1.3648325   -1.3648325  -0.57666499  0.095689171   -1.3648325   0.78816754  1070540 
  370000    1.1004842   -1.3653407   -1.3653407  -0.57670846  0.092438184   -1.3653407    0.7886322  1070540 
  371000    1.1013013   -1.3655715   -1.3655715  -0.57635378   0.10459283   -1.3655715   0.78921775  1070540 
  372000    1.1011936   -1.3655486   -1.3655486  -0.57640808   0.10547215   -1.3655486   0.78914056  1070540 
  373000    1.1004812    -1.365497    -1.365497  -0.57686699   0.11104373    -1.365497   0.78863003  1070540 
  374000    1.1001015   -1.3660072   -1.3660072  -0.57764921   0.10022366   -1.3660072   0.78835796  1070540 
  375000    1.1002875   -1.3669724   -1.3669724   -0.5784812   0.10721873   -1.3669724   0.78849122  1070540 
  376000    1.0995856   -1.3673784   -1.3673784  -0.57939012  0.098334391   -1.3673784   0.78798824  1070540 
  377000    1.0999006   -1.3685024   -1.3685024  -0.58028845   0.10047527   -1.3685024   0.78821396  1070540 
  378000    1.0978109   -1.3674952   -1.3674952  -0.58077875   0.10517936   -1.3674952   0.78671643  1070540 
  379000    1.0995501   -1.3688368   -1.3688368  -0.58087404  0.098793483   -1.3688368   0.78796281  1070540 
  380000    1.0996269   -1.3687619   -1.3687619  -0.58074407   0.10075204   -1.3687619   0.78801784  1070540 
  381000    1.0997502   -1.3682543   -1.3682543  -0.58014812   0.09805595   -1.3682543   0.78810622  1070540 
  382000    1.1001619   -1.3679747   -1.3679747  -0.57957351  0.097286281   -1.3679747   0.78840124  1070540 
  383000     1.101046   -1.3681186   -1.3681186  -0.57908378   0.10994858   -1.3681186   0.78903477  1070540 
  384000     1.100258    -1.367445    -1.367445   -0.5789749   0.10287203    -1.367445    0.7884701  1070540 
  385000    1.1006173    -1.367717    -1.367717  -0.57898944  0.098874344    -1.367717   0.78872756  1070540 
  386000     1.099929   -1.3673043   -1.3673043  -0.57906995  0.098621459   -1.3673043   0.78823437  1070540 
  387000    1.0996545   -1.3672374   -1.3672374  -0.57919981   0.10124965   -1.3672374   0.78803759  1070540 
  388000    1.0986086   -1.3663686   -1.3663686  -0.57908048  0.097003503   -1.3663686    0.7872881  1070540 
  389000    1.1008372   -1.3673028   -1.3673028  -0.57841768  0.095190148   -1.3673028   0.78888513  1070540 
  390000    1.1002835   -1.3662426   -1.3662426  -0.57775422  0.092437633   -1.3662426    0.7884884  1070540 
  391000    1.1011399   -1.3663315   -1.3663315  -0.57722939   0.10100418   -1.3663315    0.7891021  1070540 
  392000    1.0992867   -1.3645576   -1.3645576  -0.57678353  0.095149975   -1.3645576   0.78777404  1070540 
  393000     1.100594   -1.3652212   -1.3652212  -0.57651031   0.11033789   -1.3652212   0.78871087  1070540 
  394000     1.100541   -1.3650254   -1.3650254  -0.57635246   0.10177419   -1.3650254   0.78867291  1070540 
  395000    1.0999374   -1.3650337   -1.3650337  -0.57679334  0.093447588   -1.3650337   0.78824032  1070540 
  396000    1.0998887   -1.3654624   -1.3654624  -0.57725699   0.10228759   -1.3654624   0.78820542  1070540 
  397000    1.0995735   -1.3657986   -1.3657986  -0.57781905  0.095797019   -1.3657986   0.78797959  1070540 
  398000    1.1008432   -1.3667241   -1.3667241  -0.57783458   0.10797395   -1.3667241   0.78888947  1070540 
  399000    1.1009164   -1.3668488   -1.3668488  -0.57790688   0.10152309   -1.3668488   0.78894191  1070540 
  400000    1.1008081   -1.3672798   -1.3672798  -0.57841549  0.098304818   -1.3672798   0.78886431  1070540 
  401000    1.0997673     -1.36703     -1.36703  -0.57891155    0.1016547     -1.36703   0.78811844  1070540 
  402000    1.0975284   -1.3658769   -1.3658769  -0.57936294   0.10214023   -1.3658769   0.78651398  1070540 
  403000    1.0981819   -1.3662095   -1.3662095  -0.57922713  0.098055925   -1.3662095   0.78698235  1070540 
  404000    1.0996649   -1.3664873   -1.3664873  -0.57844222   0.09348038   -1.3664873   0.78804506  1070540 
  405000    1.0985509   -1.3649616   -1.3649616  -0.57771492   0.10002147   -1.3649616   0.78724673  1070540 
  406000    1.1010151   -1.3654999   -1.3654999  -0.57648724  0.097398405   -1.3654999   0.78901268  1070540 
  407000    1.1003088   -1.3641269   -1.3641269  -0.57562039   0.10526964   -1.3641269   0.78850652  1070540 
  408000    1.1018598   -1.3646335   -1.3646335  -0.57501551  0.093835138   -1.3646335   0.78961802  1070540 
  409000    1.1027683   -1.3651122   -1.3651122  -0.57484312   0.10279334   -1.3651122   0.79026903  1070540 
  410000    1.1006281   -1.3638762   -1.3638762  -0.57514092   0.09985841   -1.3638762    0.7887353  1070540 
  411000    1.1007663   -1.3647232   -1.3647232  -0.57588878  0.097419232   -1.3647232   0.78883438  1070540 
  412000    1.1008111   -1.3657355   -1.3657355    -0.576869  0.093001371   -1.3657355    0.7888665  1070540 
  413000    1.0989352   -1.3650423   -1.3650423  -0.57752021  0.094722094   -1.3650423   0.78752213  1070540 
  414000    1.0984942     -1.36519     -1.36519  -0.57798391  0.097753782     -1.36519   0.78720612  1070540 
  415000    1.0990843   -1.3658005   -1.3658005  -0.57817156   0.10293877   -1.3658005   0.78762896  1070540 
  416000    1.0989567    -1.365547    -1.365547  -0.57800946   0.10317479    -1.365547   0.78753753  1070540 
  417000    1.1006363   -1.3665692   -1.3665692  -0.57782806   0.10011195   -1.3665692   0.78874118  1070540 
  418000    1.1000014   -1.3658542   -1.3658542  -0.57756806  0.093370999   -1.3658542   0.78828618  1070540 
  419000     1.100147   -1.3657647   -1.3657647  -0.57737417  0.097275949   -1.3657647   0.78839057  1070540 
  420000    1.1004557   -1.3657474   -1.3657474  -0.57713561  0.099251484   -1.3657474    0.7886118  1070540 
  421000    1.0992643   -1.3646942   -1.3646942  -0.57693625  0.096539601   -1.3646942   0.78775799  1070540 
  422000    1.0993402   -1.3646188   -1.3646188   -0.5768064  0.095582986   -1.3646188   0.78781241  1070540 
  423000    1.0999327   -1.3648312   -1.3648312  -0.57659422  0.092334996   -1.3648312   0.78823701  1070540 
  424000    1.1002956   -1.3645166   -1.3645166  -0.57601957   0.09654591   -1.3645166   0.78849704  1070540 
  425000    1.0997733   -1.3636924   -1.3636924  -0.57556965   0.10581659   -1.3636924   0.78812275  1070540 
  426000    1.1005208   -1.3638624   -1.3638624  -0.57520399   0.10085293   -1.3638624   0.78865844  1070540 
  427000     1.100739   -1.3640896   -1.3640896  -0.57527484   0.10927741   -1.3640896   0.78881481  1070540 
  428000    1.1017061   -1.3651496   -1.3651496   -0.5756418   0.10057836   -1.3651496   0.78950784  1070540 
  429000    1.1023634   -1.3667441   -1.3667441  -0.57676526    0.0963884   -1.3667441   0.78997885  1070540 
  430000    1.0994382   -1.3658264   -1.3658264  -0.57794376  0.089690417   -1.3658264   0.78788262  1070540 
  431000    1.0975924   -1.3655411   -1.3655411  -0.57898129   0.10346005   -1.3655411   0.78655985  1070540 
  432000    1.0988593   -1.3666504   -1.3666504  -0.57918262  0.096513215   -1.3666504   0.78746778  1070540 
  433000    1.0994326   -1.3669254   -1.3669254  -0.57904678   0.10068854   -1.3669254   0.78787862  1070540 
  434000    1.0988312   -1.3659162   -1.3659162  -0.57846852  0.098688561   -1.3659162   0.78744764  1070540 
  435000    1.1000498   -1.3656077   -1.3656077  -0.57728673  0.095577877   -1.3656077   0.78832093  1070540 
  436000    1.1011344   -1.3649517   -1.3649517  -0.57585353   0.10175355   -1.3649517   0.78909812  1070540 
  437000    1.1017602   -1.3645409   -1.3645409  -0.57499425   0.10031325   -1.3645409   0.78954661  1070540 
  438000    1.1006485   -1.3638103   -1.3638103  -0.57506044   0.11107053   -1.3638103   0.78874991  1070540 
  439000     1.100766   -1.3645838   -1.3645838  -0.57574968   0.10497819   -1.3645838   0.78883415  1070540 
  440000    1.1019187   -1.3664926   -1.3664926  -0.57683241    0.1059541   -1.3664926   0.78966018  1070540 
  441000    1.1007359   -1.3670611   -1.3670611   -0.5782485  0.098772066   -1.3670611   0.78881258  1070540 
  442000    1.0983299    -1.366976    -1.366976  -0.57988764   0.09449186    -1.366976   0.78708835  1070540 
  443000    1.0973108   -1.3670236   -1.3670236   -0.5806655  0.091322612   -1.3670236   0.78635808  1070540 
  444000    1.0987592   -1.3678353   -1.3678353  -0.58043924  0.096393858   -1.3678353   0.78739605  1070540 
  445000    1.0993913   -1.3678454   -1.3678454   -0.5799964  0.093711615   -1.3678454   0.78784899  1070540 
  446000    1.1012816   -1.3685745   -1.3685745  -0.57937088  0.098729663   -1.3685745   0.78920365  1070540 
  447000     1.101054   -1.3679392   -1.3679392  -0.57889867  0.096860205   -1.3679392   0.78904055  1070540 
  448000    1.0995543    -1.366607    -1.366607  -0.57864124  0.099792603    -1.366607   0.78796578  1070540 
  449000    1.0994163   -1.3662895   -1.3662895  -0.57842255   0.10058445   -1.3662895   0.78786691  1070540 
  450000    1.0981909    -1.365203    -1.365203   -0.5782142   0.10750316    -1.365203   0.78698879  1070540 
  451000     1.100001   -1.3661681   -1.3661681  -0.57788219   0.10233778   -1.3661681   0.78828591  1070540 
  452000    1.0998752   -1.3657166   -1.3657166  -0.57752079  0.099442618   -1.3657166   0.78819577  1070540 
  453000    1.0999871   -1.3656218   -1.3656218  -0.57734576  0.099299333   -1.3656218   0.78827599  1070540 
  454000    1.1018846   -1.3671334   -1.3671334  -0.57749765   0.10449264   -1.3671334   0.78963579  1070540 
  455000    1.1006304   -1.3668523   -1.3668523  -0.57811535   0.10640581   -1.3668523   0.78873699  1070540 
  456000    1.0999857   -1.3671247   -1.3671247  -0.57884973  0.098989369   -1.3671247   0.78827497  1070540 
  457000     1.098535   -1.3667939   -1.3667939  -0.57955852   0.10415686   -1.3667939   0.78723538  1070540 
  458000    1.0974242   -1.3663807   -1.3663807  -0.57994135   0.09531572   -1.3663807   0.78643934  1070540 
  459000    1.0997187    -1.368221    -1.368221  -0.58013742  0.097849144    -1.368221   0.78808359  1070540 
  460000    1.0981976   -1.3671599   -1.3671599  -0.58016625  0.093044991   -1.3671599    0.7869936  1070540 
  461000    1.0997949   -1.3680716   -1.3680716  -0.57993334   0.10238944   -1.3680716   0.78813822  1070540 
  462000    1.0990332   -1.3669659   -1.3669659  -0.57937357  0.096490625   -1.3669659   0.78759236  1070540 
  463000    1.0997045   -1.3665509   -1.3665509  -0.57847744   0.10376773   -1.3665509   0.78807346  1070540 
  464000    1.1023033   -1.3676631   -1.3676631  -0.57772723   0.10320683   -1.3676631   0.78993584  1070540 
  465000    1.1015188   -1.3667586   -1.3667586  -0.57738496  0.091402082   -1.3667586   0.78937365  1070540 
  466000    1.1013319   -1.3666377   -1.3666377  -0.57739801   0.10418626   -1.3666377   0.78923968  1070540 
  467000    1.1012002   -1.3669699   -1.3669699  -0.57782457  0.097793181   -1.3669699   0.78914532  1070540 
  468000     1.101566   -1.3681616   -1.3681616  -0.57875417  0.099056629   -1.3681616   0.78940745  1070540 
  469000     1.099408   -1.3680009   -1.3680009   -0.5801399   0.10486573   -1.3680009   0.78786097  1070540 
  470000    1.0980707   -1.3681233   -1.3681233  -0.58122068    0.1020309   -1.3681233   0.78690265  1070540 
  471000    1.0988863   -1.3695126   -1.3695126  -0.58202557  0.097741901   -1.3695126   0.78748708  1070540 
  472000    1.0980203    -1.369131    -1.369131  -0.58226449  0.099497139    -1.369131   0.78686651  1070540 
  473000     1.097059   -1.3678745   -1.3678745  -0.58169684   0.10480564   -1.3678745   0.78617762  1070540 
  474000    1.0999699   -1.3689685   -1.3689685  -0.58070484   0.09474119   -1.3689685   0.78826366  1070540 
  475000    1.1023487   -1.3692396   -1.3692396  -0.57927124   0.10193809   -1.3692396   0.78996833  1070540 
  476000    1.1029314   -1.3690053   -1.3690053  -0.57861942   0.11003607   -1.3690053   0.79038592  1070540 
  477000    1.1008576   -1.3675982   -1.3675982  -0.57869848   0.10461323   -1.3675982   0.78889977  1070540 
  478000    1.0992272   -1.3666702   -1.3666702  -0.57893877   0.10123097   -1.3666702   0.78773139  1070540 
  479000    1.0994119   -1.3668798   -1.3668798  -0.57901607  0.096983541   -1.3668798   0.78786377  1070540 
  480000    1.0982717     -1.36579     -1.36579  -0.57874333  0.092186043     -1.36579   0.78704669  1070540 
  481000    1.0999532   -1.3663411   -1.3663411  -0.57808941   0.10227061   -1.3663411   0.78825167  1070540 
  482000     1.101925    -1.366999    -1.366999  -0.57733433   0.10444789    -1.366999   0.78966468  1070540 
  483000    1.0998708   -1.3652007   -1.3652007  -0.57700808   0.10697986   -1.3652007    0.7881926  1070540 
  484000    1.0991702   -1.3649451   -1.3649451   -0.5772545   0.10404814   -1.3649451   0.78769057  1070540 
  485000    1.1008751   -1.3664004   -1.3664004  -0.57748809   0.10212559   -1.3664004   0.78891236  1070540 
  486000    1.1002191   -1.3665474   -1.3665474  -0.57810523  0.093654652   -1.3665474   0.78844219  1070540 
  487000    1.0991959   -1.3664221   -1.3664221  -0.57871312   0.10154094   -1.3664221     0.787709  1070540 
  488000    1.0996972   -1.3670682   -1.3670682  -0.57900006   0.09886999   -1.3670682   0.78806819  1070540 
  489000    1.0985369   -1.3660792   -1.3660792  -0.57884245  0.094654251   -1.3660792   0.78723673  1070540 
  490000    1.0994977   -1.3663831   -1.3663831  -0.57845779  0.094851074   -1.3663831   0.78792529  1070540 
  491000    1.1008147   -1.3668665   -1.3668665  -0.57799745  0.098446549   -1.3668665   0.78886902  1070540 
  492000    1.0997203   -1.3654028   -1.3654028  -0.57731803   0.10606565   -1.3654028   0.78808474  1070540 
  493000    1.1028562   -1.3673626   -1.3673626  -0.57703054   0.10164916   -1.3673626   0.79033204  1070540 
  494000    1.1002272   -1.3658976   -1.3658976  -0.57744953  0.094799593   -1.3658976   0.78844803  1070540 
  495000       1.1025   -1.3680541   -1.3680541   -0.5779773   0.10035268   -1.3680541   0.79007676  1070540 
  496000     1.097996   -1.3657904   -1.3657904  -0.57894132  0.094733045   -1.3657904   0.78684908  1070540 
  497000    1.0988085   -1.3670399   -1.3670399  -0.57960858  0.097274536   -1.3670399   0.78743136  1070540 
  498000    1.0990377   -1.3674108   -1.3674108  -0.57981514  0.095950792   -1.3674108   0.78759563  1070540 
  499000    1.0985391   -1.3669318   -1.3669318   -0.5796935   0.10258301   -1.3669318   0.78723827  1070540 
  500000    1.1006835   -1.3680075   -1.3680075   -0.5792325   0.10876945   -1.3680075   0.78877499  1070540 
  501000    1.1006757    -1.367889    -1.367889  -0.57911955   0.10321053    -1.367889   0.78876943  1070540 
  502000    1.0996695   -1.3671943   -1.3671943  -0.57914594    0.1002429   -1.3671943   0.78804836  1070540 
  503000    1.1001434    -1.367598    -1.367598  -0.57921004  0.096608461    -1.367598   0.78838801  1070540 
  504000    1.1005752     -1.36815     -1.36815  -0.57945259   0.10989455     -1.36815   0.78869742  1070540 
  505000    1.0992387    -1.367547    -1.367547  -0.57980733   0.10105315    -1.367547   0.78773966  1070540 
  506000    1.0994769   -1.3676084   -1.3676084  -0.57969808  0.094363807   -1.3676084   0.78791035  1070540 
  507000    1.1004602   -1.3679696   -1.3679696  -0.57935457  0.095303641   -1.3679696   0.78861503  1070540 
  508000    1.0997608   -1.3671789   -1.3671789  -0.57906509    0.1004767   -1.3671789    0.7881138  1070540 
  509000    1.1010498   -1.3679216   -1.3679216  -0.57888408   0.10432883   -1.3679216   0.78903754  1070540 
  510000    1.1010154   -1.3681555   -1.3681555  -0.57914259   0.10566036   -1.3681555   0.78901287  1070540 
  511000    1.0997213   -1.3677774   -1.3677774  -0.57969185  0.098213281   -1.3677774   0.78808552  1070540 
  512000    1.1002227   -1.3686696   -1.3686696  -0.58022476   0.10562374   -1.3686696   0.78844481  1070540 
  513000    1.0988779   -1.3684088   -1.3684088  -0.58092769  0.097260212   -1.3684088   0.78748112  1070540 
  514000    1.0987201   -1.3685083   -1.3685083  -0.58114028  0.097728044   -1.3685083   0.78736797  1070540 
  515000    1.0993873   -1.3688162   -1.3688162   -0.5809701   0.11057083   -1.3688162   0.78784615  1070540 
  516000    1.0998758    -1.368833    -1.368833  -0.58063677  0.099134787    -1.368833   0.78819622  1070540 
  517000    1.0998499   -1.3681504   -1.3681504  -0.57997279    0.1045547   -1.3681504   0.78817764  1070540 
  518000    1.1020258   -1.3692263   -1.3692263  -0.57948943   0.10605005   -1.3692263   0.78973691  1070540 
  519000    1.0996375   -1.3676501   -1.3676501  -0.57962469   0.10184633   -1.3676501   0.78802543  1070540 
  520000    1.1006485   -1.3681679   -1.3681679  -0.57941799  0.099925365   -1.3681679   0.78874993  1070540 
  521000    1.0998925   -1.3675252   -1.3675252  -0.57931707   0.10592461   -1.3675252   0.78820816  1070540 
  522000    1.0996069   -1.3672073   -1.3672073  -0.57920378   0.10844195   -1.3672073   0.78800351  1070540 
  523000    1.0992987   -1.3667065   -1.3667065   -0.5789238   0.10100761   -1.3667065   0.78778266  1070540 
  524000    1.1005209    -1.367366    -1.367366  -0.57870751   0.10412591    -1.367366    0.7886585  1070540 
  525000    1.1019786   -1.3681584   -1.3681584  -0.57845529   0.10401539   -1.3681584   0.78970314  1070540 
  526000     1.101541   -1.3679201   -1.3679201  -0.57853059   0.10280263   -1.3679201   0.78938952  1070540 
  527000    1.0995786   -1.3669616   -1.3669616  -0.57897839   0.10853978   -1.3669616    0.7879832  1070540 
  528000    1.0998192   -1.3674713   -1.3674713  -0.57931569   0.10486089   -1.3674713   0.78815562  1070540 
  529000    1.0987699    -1.367016    -1.367016  -0.57961229   0.10549547    -1.367016   0.78740367  1070540 
  530000    1.0986196   -1.3668338   -1.3668338  -0.57953779   0.10442971   -1.3668338     0.787296  1070540 
  531000    1.0985709   -1.3662688   -1.3662688  -0.57900772  0.098714385   -1.3662688   0.78726107  1070540 
  532000    1.1004522   -1.3665963   -1.3665963  -0.57798706   0.10761835   -1.3665963   0.78860926  1070540 
  533000    1.1004528   -1.3659587   -1.3659587  -0.57734899    0.1126759   -1.3659587   0.78860972  1070540 
  534000    1.1011932   -1.3664255   -1.3664255  -0.57728515   0.10484351   -1.3664255   0.78914032  1070540 
  535000    1.1033517   -1.3684024   -1.3684024  -0.57771526   0.10076819   -1.3684024   0.79068712  1070540 
  536000    1.0993243   -1.3666636   -1.3666636  -0.57886264  0.095378097   -1.3666636   0.78780098  1070540 
  537000    1.0998676   -1.3678162   -1.3678162  -0.57962589   0.10392231   -1.3678162   0.78819032  1070540 
  538000    1.0983852   -1.3676333   -1.3676333  -0.58050536   0.10584888   -1.3676333   0.78712799  1070540 
  539000    1.0993503   -1.3690893   -1.3690893  -0.58126972   0.09412142   -1.3690893   0.78781963  1070540 
  540000    1.0978948   -1.3685474   -1.3685474  -0.58177082   0.10398076   -1.3685474   0.78677657  1070540 
  541000    1.0990262   -1.3693134   -1.3693134  -0.58172604  0.099874407   -1.3693134   0.78758739  1070540 
  542000    1.0988475   -1.3685096   -1.3685096  -0.58105035   0.10487455   -1.3685096   0.78745929  1070540 
  543000    1.1019003   -1.3698389   -1.3698389  -0.58019191   0.10003901   -1.3698389     0.789647  1070540 
  544000    1.1015368   -1.3691074   -1.3691074  -0.57972085  0.096161839   -1.3691074   0.78938654  1070540 
  545000    1.1014908   -1.3689342   -1.3689342  -0.57958067   0.10820918   -1.3689342   0.78935356  1070540 
  546000    1.1001188   -1.3681292   -1.3681292  -0.57975889   0.10261461   -1.3681292   0.78837034  1070540 
  547000    1.1002195   -1.3682947   -1.3682947  -0.57985219   0.10355931   -1.3682947   0.78844251  1070540 
  548000    1.1003936   -1.3687643   -1.3687643  -0.58019704   0.10301768   -1.3687643   0.78856726  1070540 
  549000    1.0993986   -1.3680043   -1.3680043  -0.58015006   0.10153652   -1.3680043   0.78785424  1070540 
  550000    1.1007173   -1.3690639   -1.3690639  -0.58026463  0.093762547   -1.3690639   0.78879928  1070540 
  551000    1.0990866   -1.3679208   -1.3679208  -0.58029019   0.10265287   -1.3679208   0.78763062  1070540 
  552000    1.1008781   -1.3693933   -1.3693933  -0.58047883   0.10806134   -1.3693933   0.78891448  1070540 
  553000    1.0999834   -1.3690114   -1.3690114  -0.58073812  0.098177108   -1.3690114   0.78827329  1070540 
  554000    1.0987885   -1.3685894   -1.3685894  -0.58117238   0.10083849   -1.3685894   0.78741703  1070540 
  555000    1.0990577   -1.3690144   -1.3690144  -0.58140446   0.10345361   -1.3690144   0.78760996  1070540 
  556000    1.0991708   -1.3689477   -1.3689477  -0.58125671   0.10591996   -1.3689477   0.78769095  1070540 
  557000    1.0995514   -1.3691284   -1.3691284  -0.58116463  0.099518046   -1.3691284   0.78796374  1070540 
  558000    1.1002576   -1.3692615   -1.3692615  -0.58079169   0.10536717   -1.3692615   0.78846981  1070540 
  559000    1.1009564   -1.3694721   -1.3694721  -0.58050157  0.097366764   -1.3694721   0.78897057  1070540 
  560000    1.1006909   -1.3692728   -1.3692728   -0.5804925   0.10013678   -1.3692728   0.78878033  1070540 
  561000    1.0996183   -1.3683609   -1.3683609   -0.5803492  0.090197686   -1.3683609   0.78801169  1070540 
  562000    1.0974456   -1.3668541   -1.3668541   -0.5803994   0.10044285   -1.3668541   0.78645466  1070540 
  563000    1.0994696   -1.3680605   -1.3680605  -0.58015541   0.10453882   -1.3680605    0.7879051  1070540 
  564000    1.1003464   -1.3686364   -1.3686364  -0.58010296   0.10395201   -1.3686364   0.78853343  1070540 
  565000    1.1004373   -1.3686647   -1.3686647  -0.58006608   0.10216687   -1.3686647    0.7885986  1070540 
  566000    1.0996605   -1.3682581   -1.3682581  -0.58021617   0.10742135   -1.3682581   0.78804193  1070540 
  567000    1.0987794   -1.3678142   -1.3678142  -0.58040369  0.099037153   -1.3678142    0.7874105  1070540 
  568000    1.0998741   -1.3689889   -1.3689889  -0.58079393    0.1052813   -1.3689889   0.78819498  1070540 
  569000    1.0998918   -1.3690342   -1.3690342  -0.58082656  0.097812274   -1.3690342   0.78820768  1070540 
  570000    1.0997056   -1.3690647   -1.3690647  -0.58099043   0.10035929   -1.3690647   0.78807423  1070540 
  571000    1.0994256   -1.3689753   -1.3689753  -0.58110173  0.097526787   -1.3689753   0.78787356  1070540 
  572000    1.0992859   -1.3683333   -1.3683333  -0.58055987   0.10934026   -1.3683333   0.78777344  1070540 
  573000    1.1002009   -1.3688075   -1.3688075  -0.58037831   0.10053762   -1.3688075   0.78842915  1070540 
  574000    1.1007437   -1.3690083   -1.3690083  -0.58019013  0.098942615   -1.3690083   0.78881819  1070540 
  575000    1.1000863   -1.3686072   -1.3686072  -0.58026016  0.098280491   -1.3686072   0.78834703  1070540 
  576000    1.0999024   -1.3688596   -1.3688596  -0.58064434   0.10320887   -1.3688596   0.78821525  1070540 
  577000    1.0999941   -1.3692905   -1.3692905  -0.58100948  0.098736453   -1.3692905     0.788281  1070540 
  578000    1.1003651   -1.3698296   -1.3698296  -0.58128272  0.098721085   -1.3698296   0.78854684  1070540 
  579000    1.0984475   -1.3684772   -1.3684772  -0.58130453   0.10293857   -1.3684772   0.78717267  1070540 
  580000    1.0978958   -1.3677983   -1.3677983  -0.58102098    0.1035144   -1.3677983   0.78677732  1070540 
  581000    1.0996509   -1.3682756   -1.3682756  -0.58024062   0.10002235   -1.3682756   0.78803502  1070540 
  582000    1.0997906   -1.3677007   -1.3677007  -0.57956558   0.10996471   -1.3677007   0.78813514  1070540 
  583000    1.1016132   -1.3680926   -1.3680926  -0.57865133  0.097407739   -1.3680926   0.78944128  1070540 
  584000    1.1029512   -1.3686525   -1.3686525  -0.57825239   0.10562727   -1.3686525   0.79040013  1070540 
  585000    1.1023307   -1.3684774   -1.3684774  -0.57852192   0.10424828   -1.3684774   0.78995547  1070540 
  586000     1.100617   -1.3681358   -1.3681358  -0.57940837    0.1084832   -1.3681358    0.7887274  1070540 
  587000    1.0990581   -1.3681722   -1.3681722  -0.58056193  0.090008873   -1.3681722   0.78761025  1070540 
  588000    1.0987775   -1.3687452   -1.3687452  -0.58133603   0.09826315   -1.3687452   0.78740913  1070540 
  589000    1.0993348   -1.3693991   -1.3693991  -0.58159058  0.098620832   -1.3693991   0.78780852  1070540 
  590000    1.1000273   -1.3700951   -1.3700951  -0.58179027   0.10085123   -1.3700951    0.7883048  1070540 
  591000    1.1024308   -1.3718069   -1.3718069  -0.58177967   0.10160996   -1.3718069   0.79002721  1070540 
  592000    1.1005707    -1.370505    -1.370505  -0.58181079   0.10969302    -1.370505   0.78869417  1070540 
  593000    1.0997063   -1.3701396   -1.3701396  -0.58206483   0.10514872   -1.3701396   0.78807476  1070540 
  594000    1.1001058   -1.3708534   -1.3708534  -0.58249244   0.10096549   -1.3708534     0.788361  1070540 
  595000    1.0994396   -1.3707863   -1.3707863  -0.58290275   0.10216208   -1.3707863   0.78788359  1070540 
  596000     1.098776   -1.3706458   -1.3706458   -0.5832377   0.10143967   -1.3706458   0.78740809  1070540 
  597000     1.099677   -1.3711696   -1.3711696  -0.58311585   0.10275242   -1.3711696   0.78805375  1070540 
  598000    1.0998348   -1.3710938   -1.3710938  -0.58292694   0.10225892   -1.3710938   0.78816682  1070540 
  599000     1.099538   -1.3703978   -1.3703978  -0.58244364  0.097263632   -1.3703978   0.78795414  1070540 
  600000     1.100352    -1.370338    -1.370338  -0.58180049  0.099846031    -1.370338   0.78853748  1070540 
  601000    1.1009927   -1.3701101   -1.3701101  -0.58111351   0.10698762   -1.3701101   0.78899658  1070540 
  602000    1.0997147    -1.368635    -1.368635  -0.58055426  0.096832328    -1.368635   0.78808076  1070540 
  603000    1.1014575   -1.3697472   -1.3697472   -0.5804175   0.10672308   -1.3697472   0.78932967  1070540 
  604000    1.1014648   -1.3699393   -1.3699393   -0.5806044   0.10473546   -1.3699393   0.78933491  1070540 
  605000    1.0997767   -1.3694806   -1.3694806  -0.58135539  0.098525091   -1.3694806   0.78812517  1070540 
  606000    1.0975346   -1.3687066   -1.3687066  -0.58218818  0.098288591   -1.3687066   0.78651844  1070540 
  607000    1.0992915   -1.3701225   -1.3701225  -0.58234501   0.10078777   -1.3701225   0.78777746  1070540 
  608000    1.0981324   -1.3688321   -1.3688321  -0.58188525  0.098806338   -1.3688321   0.78694683  1070540 
  609000    1.0997006   -1.3691854   -1.3691854  -0.58111472    0.1050783   -1.3691854   0.78807066  1070540 
  610000    1.0996893   -1.3683447   -1.3683447  -0.58028218   0.10189926   -1.3683447   0.78806255  1070540 
  611000    1.1004877   -1.3682285   -1.3682285  -0.57959379   0.10101248   -1.3682285   0.78863473  1070540 
  612000    1.1015408   -1.3683843   -1.3683843  -0.57899495  0.096549409   -1.3683843   0.78938939  1070540 
  613000    1.1015569   -1.3683985   -1.3683985  -0.57899758   0.10659061   -1.3683985   0.78940091  1070540 
  614000    1.1003625   -1.3680764   -1.3680764  -0.57953142   0.10424736   -1.3680764   0.78854496  1070540 
  615000    1.1000506   -1.3687105   -1.3687105  -0.58038903  0.097237807   -1.3687105    0.7883215  1070540 
  616000    1.1001106   -1.3691698   -1.3691698  -0.58080532  0.093319853   -1.3691698   0.78836444  1070540 
  617000    1.0980212   -1.3679285   -1.3679285  -0.58106136  0.099518359   -1.3679285   0.78686716  1070540 
  618000    1.0989163    -1.368235    -1.368235  -0.58072639   0.10069727    -1.368235    0.7875086  1070540 
  619000    1.1004695   -1.3691962   -1.3691962  -0.58057457    0.1012364   -1.3691962   0.78862166  1070540 
  620000    1.1004351   -1.3691374   -1.3691374   -0.5805404   0.10135022   -1.3691374   0.78859703  1070540 
  621000    1.1014463   -1.3699733   -1.3699733  -0.58065156   0.10493131   -1.3699733    0.7893217  1070540 
  622000    1.0994468   -1.3688179   -1.3688179  -0.58092915    0.0979496   -1.3688179   0.78788874  1070540 
  623000    1.0994581   -1.3689995   -1.3689995  -0.58110267  0.099478607   -1.3689995   0.78789686  1070540 
  624000    1.0983036   -1.3684041   -1.3684041   -0.5813345  0.097395852   -1.3684041   0.78706956  1070540 
  625000    1.0995795   -1.3691473   -1.3691473  -0.58116342   0.10274617   -1.3691473   0.78798389  1070540 
  626000    1.0998779   -1.3691758   -1.3691758  -0.58097809   0.10195842   -1.3691758   0.78819769  1070540 
  627000    1.1016414   -1.3704167   -1.3704167  -0.58095515    0.1035437   -1.3704167   0.78946151  1070540 
  628000    1.0989836   -1.3685412   -1.3685412  -0.58098438   0.10466143   -1.3685412   0.78755683  1070540 
  629000    1.0986138   -1.3681576   -1.3681576  -0.58086584   0.11091448   -1.3681576   0.78729181  1070540 
  630000    1.0979979   -1.3675233   -1.3675233   -0.5806728   0.10200512   -1.3675233   0.78685045  1070540 
  631000    1.1009107   -1.3690603   -1.3690603  -0.58012246   0.10908579   -1.3690603   0.78893781  1070540 
  632000    1.1010701   -1.3688994   -1.3688994   -0.5798473    0.1033651   -1.3688994   0.78905208  1070540 
  633000    1.1018514   -1.3695105   -1.3695105  -0.57989853   0.10226803   -1.3695105   0.78961197  1070540 
  634000     1.101994   -1.3702605   -1.3702605  -0.58054635   0.10206375   -1.3702605   0.78971416  1070540 
  635000    1.0996214     -1.36989     -1.36989  -0.58187614    0.0993395     -1.36989   0.78801391  1070540 
  636000    1.0973245   -1.3693111   -1.3693111  -0.58294323   0.10124768   -1.3693111   0.78636786  1070540 
  637000    1.0975683   -1.3700214   -1.3700214  -0.58347878  0.099832108   -1.3700214   0.78654262  1070540 
  638000    1.0993193   -1.3710211   -1.3710211  -0.58322369   0.09987273   -1.3710211   0.78779744  1070540 
  639000    1.1008164   -1.3715562   -1.3715562  -0.58268596   0.10137745   -1.3715562   0.78887029  1070540 
  640000    1.0989151     -1.36999     -1.36999  -0.58248229   0.10141988     -1.36999   0.78750772  1070540 
  641000     1.101291   -1.3713996   -1.3713996  -0.58218924   0.10417862   -1.3713996   0.78921035  1070540 
  642000    1.0999553    -1.370176    -1.370176  -0.58192279   0.10140136    -1.370176    0.7882532  1070540 
  643000    1.1004846   -1.3703282   -1.3703282  -0.58169566  0.099912389   -1.3703282    0.7886325  1070540 
  644000    1.1008443   -1.3702057   -1.3702057  -0.58131544   0.10991923   -1.3702057   0.78889028  1070540 
  645000    1.1001512   -1.3694781   -1.3694781  -0.58108446    0.1007747   -1.3694781   0.78839359  1070540 
  646000    1.1011187   -1.3700866   -1.3700866  -0.58099971   0.10008015   -1.3700866   0.78908686  1070540 
  647000    1.1007027    -1.370001    -1.370001   -0.5812122   0.10774479    -1.370001   0.78878877  1070540 
  648000    1.0992494   -1.3696753   -1.3696753  -0.58192795   0.10614026   -1.3696753   0.78774731  1070540 
  649000     1.097955   -1.3693148   -1.3693148  -0.58249509   0.10519106   -1.3693148   0.78681975  1070540 
  650000    1.0992754   -1.3705511   -1.3705511  -0.58278513   0.09906274   -1.3705511   0.78776594  1070540 
  651000    1.0985233   -1.3703722   -1.3703722  -0.58314524  0.089885866   -1.3703722   0.78722696  1070540 
  652000     1.099258   -1.3708201   -1.3708201  -0.58306663  0.099613681   -1.3708201    0.7877535  1070540 
[...]
 3832000    1.1087619   -1.3878564   -1.3878564  -0.59329226   0.10809134   -1.3878564   0.79456416  1070540 
 3833000    1.1092381   -1.3883411   -1.3883411  -0.59343563   0.10606267   -1.3883411   0.79490547  1070540 
 3834000    1.1094324   -1.3883499   -1.3883499  -0.59330529   0.11430633   -1.3883499   0.79504465  1070540 
 3835000    1.1086238   -1.3878425   -1.3878425  -0.59337734   0.11363867   -1.3878425    0.7944652  1070540 
 3836000    1.1091065    -1.387974    -1.387974  -0.59316288   0.11736426    -1.387974   0.79481116  1070540 
 3837000    1.1090526   -1.3878315   -1.3878315  -0.59305892   0.11059083   -1.3878315   0.79477253  1070540 
 3838000    1.1096859   -1.3885669   -1.3885669  -0.59334055   0.10755429   -1.3885669   0.79522636  1070540 
 3839000    1.1101814   -1.3886782   -1.3886782  -0.59309679   0.11154667   -1.3886782   0.79558144  1070540 
 3840000    1.1102518   -1.3886458   -1.3886458  -0.59301393   0.11198029   -1.3886458   0.79563186  1070540 
 3841000    1.1094275   -1.3881205   -1.3881205  -0.59307926   0.11889944   -1.3881205    0.7950412  1070540 
 3842000    1.1108808   -1.3891084   -1.3891084  -0.59302579    0.1133482   -1.3891084   0.79608264  1070540 
 3843000    1.1087675   -1.3871762   -1.3871762  -0.59260798   0.10854827   -1.3871762   0.79456824  1070540 
 3844000    1.1082492   -1.3870915   -1.3870915  -0.59289469   0.11274901   -1.3870915   0.79419681  1070540 
 3845000    1.1085844   -1.3871938   -1.3871938  -0.59275684   0.11862797   -1.3871938   0.79443699  1070540 
 3846000    1.1104497   -1.3880385   -1.3880385  -0.59226481   0.11054281   -1.3880385   0.79577373  1070540 
 3847000    1.1073631   -1.3865036   -1.3865036  -0.59294183   0.11660572   -1.3865036   0.79356175  1070540 
 3848000     1.111717   -1.3895373   -1.3895373   -0.5928554   0.10537832   -1.3895373   0.79668186  1070540 
 3849000    1.1076888   -1.3866382   -1.3866382  -0.59284305   0.10982071   -1.3866382   0.79379516  1070540 
 3850000    1.1077388   -1.3874639   -1.3874639  -0.59363283   0.11282133   -1.3874639   0.79383103  1070540 
 3851000    1.1075324   -1.3876006   -1.3876006  -0.59391742   0.10663078   -1.3876006   0.79368313  1070540 
 3852000    1.1102997   -1.3892857   -1.3892857  -0.59361954   0.10384102   -1.3892857    0.7956662  1070540 
 3853000     1.109874    -1.388088    -1.388088  -0.59272682   0.11958076    -1.388088   0.79536116  1070540 
 3854000    1.1108723   -1.3891522   -1.3891522   -0.5930756   0.11585339   -1.3891522   0.79607658  1070540 
 3855000    1.1113315    -1.389662    -1.389662   -0.5932564    0.1052537    -1.389662   0.79640563  1070540 
 3856000    1.1099957   -1.3883996   -1.3883996  -0.59295124   0.11080358   -1.3883996   0.79544837  1070540 
 3857000    1.1111654   -1.3895244   -1.3895244  -0.59323784   0.11445361   -1.3895244   0.79628658  1070540 
 3858000    1.1109436   -1.3893501   -1.3893501  -0.59322245   0.10800045   -1.3893501   0.79612766  1070540 
 3859000    1.1097022   -1.3885855   -1.3885855  -0.59334748   0.10613362   -1.3885855   0.79523801  1070540 
 3860000    1.1101561   -1.3887583   -1.3887583  -0.59319504   0.11040218   -1.3887583   0.79556328  1070540 
 3861000    1.1099487   -1.3888511   -1.3888511  -0.59343644   0.10632844   -1.3888511   0.79541471  1070540 
 3862000    1.1080041   -1.3878129   -1.3878129  -0.59379178    0.1113481   -1.3878129   0.79402114  1070540 
 3863000     1.110495    -1.389645    -1.389645  -0.59383883   0.10941129    -1.389645   0.79580615  1070540 
 3864000    1.1097925   -1.3887443   -1.3887443  -0.59344149   0.11755312   -1.3887443   0.79530277  1070540 
 3865000    1.1097331   -1.3890473   -1.3890473   -0.5937871   0.11085985   -1.3890473   0.79526017  1070540 
 3866000    1.1090338   -1.3886816   -1.3886816  -0.59392257   0.11205857   -1.3886816   0.79475905  1070540 
 3867000    1.1083503   -1.3880813   -1.3880813   -0.5938121   0.11041942   -1.3880813    0.7942692  1070540 
 3868000    1.1102632   -1.3892505   -1.3892505  -0.59361039   0.10511918   -1.3892505   0.79564008  1070540 
 3869000    1.1102233   -1.3891236   -1.3891236  -0.59351211   0.12075827   -1.3891236   0.79561144  1070540 
 3870000    1.1103373   -1.3889082   -1.3889082  -0.59321497   0.10901436   -1.3889082   0.79569319  1070540 
 3871000    1.1097109   -1.3882945   -1.3882945  -0.59305022   0.10931268   -1.3882945   0.79524428  1070540 
 3872000     1.110105   -1.3887021   -1.3887021  -0.59317544   0.11652869   -1.3887021   0.79552666  1070540 
 3873000    1.1089029   -1.3879378   -1.3879378  -0.59327254   0.10963547   -1.3879378   0.79466522  1070540 
 3874000    1.1110313   -1.3895212   -1.3895212  -0.59333076   0.11226399   -1.3895212   0.79619049  1070540 
 3875000    1.1103011   -1.3889893   -1.3889893  -0.59332208   0.11176022   -1.3889893   0.79566719  1070540 
 3876000    1.1088502   -1.3882513   -1.3882513  -0.59362384    0.1125044   -1.3882513   0.79462745  1070540 
 3877000    1.1098086   -1.3886836   -1.3886836  -0.59336929   0.11239721   -1.3886836    0.7953143  1070540 
 3878000    1.1091596    -1.388792    -1.388792  -0.59394279   0.11727822    -1.388792   0.79484923  1070540 
 3879000    1.1096664   -1.3889385   -1.3889385   -0.5937261    0.1204595   -1.3889385   0.79521238  1070540 
 3880000    1.1086854   -1.3877166   -1.3877166  -0.59320731   0.11265949   -1.3877166   0.79450933  1070540 
 3881000    1.1106496   -1.3891443   -1.3891443  -0.59322731   0.11099963   -1.3891443   0.79591696  1070540 
 3882000    1.1118402   -1.3896877   -1.3896877  -0.59291749   0.10961164   -1.3896877   0.79677017  1070540 
 3883000    1.1090212   -1.3882064   -1.3882064  -0.59345641   0.10780571   -1.3882064   0.79475001  1070540 
 3884000    1.1101174   -1.3890391   -1.3890391  -0.59350348   0.12103986   -1.3890391   0.79553559  1070540 
 3885000    1.1096744   -1.3887183   -1.3887183  -0.59350024   0.11417509   -1.3887183   0.79521809  1070540 
 3886000    1.1077669   -1.3876244   -1.3876244   -0.5937732   0.10995993   -1.3876244   0.79385117  1070540 
 3887000    1.1100188   -1.3884672   -1.3884672  -0.59300227   0.10843412   -1.3884672    0.7954649  1070540 
 3888000    1.1108434   -1.3894218   -1.3894218  -0.59336599    0.1173587   -1.3894218   0.79605584  1070540 
 3889000    1.1092471   -1.3885157   -1.3885157  -0.59360377   0.10777266   -1.3885157   0.79491189  1070540 
 3890000    1.1093581   -1.3881036   -1.3881036  -0.59311215   0.11393887   -1.3881036   0.79499145  1070540 
 3891000    1.1071839   -1.3873378   -1.3873378  -0.59390446   0.10766596   -1.3873378   0.79343335  1070540 
 3892000      1.10769   -1.3875908   -1.3875908  -0.59379474   0.11834005   -1.3875908   0.79379605  1070540 
 3893000    1.1102858   -1.3898577   -1.3898577  -0.59420145   0.10835907   -1.3898577   0.79565627  1070540 
 3894000    1.1110324   -1.3903666   -1.3903666  -0.59417526   0.10747727   -1.3903666   0.79619131  1070540 
 3895000    1.1104998   -1.3897185   -1.3897185  -0.59390887    0.1042433   -1.3897185   0.79580962  1070540 
 3896000    1.1114977   -1.3904426   -1.3904426  -0.59391785    0.1133998   -1.3904426    0.7965247  1070540 
 3897000    1.1100672   -1.3895108   -1.3895108  -0.59401117   0.11756691   -1.3895108   0.79549962  1070540 
 3898000     1.109821    -1.389614    -1.389614  -0.59429082   0.10374758    -1.389614   0.79532315  1070540 
 3899000    1.1087899   -1.3885298   -1.3885298  -0.59394553   0.11745778   -1.3885298   0.79458423  1070540 
 3900000    1.1088715   -1.3888647   -1.3888647  -0.59422194   0.11473417   -1.3888647   0.79464273  1070540 
 3901000    1.1105618   -1.3898851   -1.3898851  -0.59403114   0.10957114   -1.3898851   0.79585401  1070540 
 3902000    1.1098784   -1.3893665   -1.3893665  -0.59400219   0.11108681   -1.3893665   0.79536433  1070540 
 3903000    1.1107628    -1.390193    -1.390193  -0.59419494   0.11209659    -1.390193   0.79599805  1070540 
 3904000    1.1092953   -1.3890027   -1.3890027  -0.59405631   0.11478093   -1.3890027   0.79494643  1070540 
 3905000    1.1100693   -1.3887557   -1.3887557  -0.59325461   0.11313959   -1.3887557   0.79550107  1070540 
 3906000    1.1088904   -1.3878367   -1.3878367  -0.59318046   0.11270895   -1.3878367   0.79465627  1070540 
 3907000    1.1099492    -1.388525    -1.388525  -0.59310996   0.11181527    -1.388525   0.79541501  1070540 
 3908000    1.1102535   -1.3888322   -1.3888322  -0.59319911   0.10662927   -1.3888322   0.79563312  1070540 
 3909000    1.1103385    -1.388972    -1.388972  -0.59327802   0.11090902    -1.388972   0.79569398  1070540 
 3910000    1.1090399   -1.3887544   -1.3887544  -0.59399102   0.10433442   -1.3887544   0.79476341  1070540 
 3911000    1.1102994   -1.3894219   -1.3894219  -0.59375587   0.10318201   -1.3894219   0.79566602  1070540 
 3912000    1.1081344   -1.3880081   -1.3880081  -0.59389364   0.10759943   -1.3880081   0.79411449  1070540 
 3913000    1.1081513   -1.3880085   -1.3880085  -0.59388186   0.11310726   -1.3880085   0.79412664  1070540 
 3914000     1.108547   -1.3885283   -1.3885283  -0.59411808   0.11206601   -1.3885283   0.79441021  1070540 
 3915000    1.1106385   -1.3896996   -1.3896996  -0.59379056   0.10978715   -1.3896996   0.79590901  1070540 
 3916000    1.1093528   -1.3890103   -1.3890103  -0.59402262   0.10878686   -1.3890103   0.79498763  1070540 
 3917000    1.1105691   -1.3895558   -1.3895558  -0.59369656   0.11487548   -1.3895558   0.79585926  1070540 
 3918000    1.1105711   -1.3896753   -1.3896753  -0.59381457   0.11353061   -1.3896753   0.79586073  1070540 
 3919000    1.1100188   -1.3895463   -1.3895463  -0.59408139   0.10835741   -1.3895463   0.79546495  1070540 
 3920000    1.1109426   -1.3899539   -1.3899539  -0.59382699   0.10594024   -1.3899539   0.79612695  1070540 
 3921000    1.1078983   -1.3876789   -1.3876789  -0.59373352   0.11526741   -1.3876789   0.79394534  1070540 
 3922000    1.1097029   -1.3893048   -1.3893048  -0.59406628   0.11100727   -1.3893048   0.79523851  1070540 
 3923000    1.1088246   -1.3886246   -1.3886246  -0.59401544   0.11268159   -1.3886246   0.79460914  1070540 
 3924000     1.108656   -1.3884658   -1.3884658  -0.59397754   0.11176913   -1.3884658   0.79448829  1070540 
 3925000    1.1088966   -1.3878692   -1.3878692   -0.5932085   0.11074971   -1.3878692   0.79466069  1070540 
 3926000    1.1088097   -1.3881887   -1.3881887  -0.59359025   0.10624049   -1.3881887   0.79459841  1070540 
 3927000    1.1081774   -1.3878444   -1.3878444   -0.5936991   0.10585783   -1.3878444   0.79414529  1070540 
 3928000    1.1092114   -1.3883816   -1.3883816  -0.59349526   0.10828746   -1.3883816   0.79488635  1070540 
 3929000    1.1092387   -1.3886835   -1.3886835  -0.59377769   0.11784802   -1.3886835   0.79490585  1070540 
 3930000     1.111039   -1.3894007   -1.3894007  -0.59320473   0.11433798   -1.3894007     0.796196  1070540 
 3931000    1.1100278    -1.389113    -1.389113  -0.59364168   0.11396925    -1.389113   0.79547133  1070540 
 3932000     1.109973   -1.3888479   -1.3888479   -0.5934158   0.10778169   -1.3888479   0.79543208  1070540 
 3933000    1.1106847   -1.3891841   -1.3891841  -0.59324202   0.11164167   -1.3891841   0.79594211  1070540 
 3934000    1.1093036   -1.3879878   -1.3879878  -0.59303538   0.11501929   -1.3879878   0.79495239  1070540 
 3935000     1.110884   -1.3892447   -1.3892447  -0.59315978   0.11914289   -1.3892447    0.7960849  1070540 
 3936000    1.1089708    -1.388133    -1.388133  -0.59341917    0.1163111    -1.388133   0.79471388  1070540 
 3937000    1.1115587   -1.3899983   -1.3899983  -0.59342991   0.11995143   -1.3899983   0.79656843  1070540 
 3938000    1.1121633   -1.3902032   -1.3902032  -0.59320146   0.11005703   -1.3902032   0.79700175  1070540 
 3939000    1.1098414   -1.3885101   -1.3885101  -0.59317232   0.10591307   -1.3885101   0.79533781  1070540 
 3940000    1.1101574   -1.3890232   -1.3890232  -0.59345889   0.10532315   -1.3890232   0.79556427  1070540 
 3941000     1.109634   -1.3890022   -1.3890022   -0.5938131    0.1161058   -1.3890022   0.79518913  1070540 
 3942000    1.1099702   -1.3893299   -1.3893299  -0.59389975    0.1067189   -1.3893299   0.79543012  1070540 
 3943000    1.1104879   -1.3894516   -1.3894516  -0.59365052   0.12160446   -1.3894516   0.79580109  1070540 
 3944000     1.110862   -1.3899796   -1.3899796  -0.59391043   0.11927851   -1.3899796   0.79606919  1070540 
 3945000    1.1093678   -1.3887073   -1.3887073  -0.59370892   0.11659866   -1.3887073   0.79499841  1070540 
 3946000    1.1092414    -1.388536    -1.388536  -0.59362815   0.11555076    -1.388536   0.79490784  1070540 
 3947000    1.1084296   -1.3879649   -1.3879649  -0.59363882   0.10969676   -1.3879649   0.79432605  1070540 
 3948000    1.1076345   -1.3877269   -1.3877269   -0.5939706   0.11460402   -1.3877269   0.79375629  1070540 
 3949000     1.107973   -1.3883112   -1.3883112  -0.59431236   0.10819654   -1.3883112   0.79399882  1070540 
 3950000    1.1082831   -1.3886965   -1.3886965  -0.59447538   0.10875545   -1.3886965   0.79422108  1070540 
 3951000    1.1068887   -1.3881783   -1.3881783  -0.59495648   0.10529947   -1.3881783   0.79322181  1070540 
 3952000    1.1083565    -1.389072    -1.389072   -0.5947983   0.10022335    -1.389072   0.79427367  1070540 
 3953000    1.1084717     -1.38873     -1.38873  -0.59437373   0.10489308     -1.38873   0.79435624  1070540 
 3954000     1.106302   -1.3871881   -1.3871881  -0.59438668   0.11387199   -1.3871881    0.7928014  1070540 
 3955000    1.1104205   -1.3900704   -1.3900704  -0.59431764   0.10996263   -1.3900704    0.7957528  1070540 
 3956000    1.1101223   -1.3895371   -1.3895371  -0.59399796   0.10800958   -1.3895371   0.79553911  1070540 
 3957000    1.1083849   -1.3887028   -1.3887028  -0.59440873   0.10555845   -1.3887028   0.79429406  1070540 
 3958000    1.1088511   -1.3889591   -1.3889591  -0.59433099   0.10943244   -1.3889591   0.79462811  1070540 
 3959000    1.1098074   -1.3897615   -1.3897615  -0.59444815   0.10980551   -1.3897615    0.7953134  1070540 
 3960000     1.112648   -1.3915877   -1.3915877   -0.5942386   0.11253257   -1.3915877   0.79734907  1070540 
 3961000    1.1102912   -1.3900337   -1.3900337  -0.59437363   0.10894577   -1.3900337   0.79566009  1070540 
 3962000    1.1092752    -1.388582    -1.388582  -0.59365002   0.11016019    -1.388582     0.794932  1070540 
 3963000    1.1111445   -1.3899359   -1.3899359  -0.59366426   0.11836632   -1.3899359   0.79627165  1070540 
 3964000    1.1095015    -1.388611    -1.388611  -0.59351681   0.10914103    -1.388611   0.79509422  1070540 
 3965000    1.1102279   -1.3891637   -1.3891637  -0.59354894   0.11703728   -1.3891637   0.79561475  1070540 
 3966000    1.1100685   -1.3888599   -1.3888599  -0.59335934   0.10461658   -1.3888599   0.79550054  1070540 
 3967000    1.1096137   -1.3890658   -1.3890658  -0.59389122   0.10543462   -1.3890658    0.7951746  1070540 
 3968000     1.109845   -1.3890219   -1.3890219   -0.5936816   0.11300968   -1.3890219   0.79534035  1070540 
 3969000    1.1090172   -1.3887988   -1.3887988  -0.59405165   0.10631506   -1.3887988   0.79474716  1070540 
 3970000    1.1098426   -1.3892117   -1.3892117  -0.59387307   0.10637169   -1.3892117   0.79533865  1070540 
 3971000    1.1089905   -1.3880879   -1.3880879  -0.59335988   0.12006623   -1.3880879   0.79472799  1070540 
 3972000    1.1095224   -1.3882863   -1.3882863  -0.59317711   0.11656221   -1.3882863   0.79510917  1070540 
 3973000    1.1083951   -1.3880902   -1.3880902  -0.59378885   0.11364792   -1.3880902   0.79430135  1070540 
 3974000    1.1089592   -1.3887252   -1.3887252  -0.59401958   0.11860596   -1.3887252   0.79470559  1070540 
 3975000    1.1092819   -1.3886761   -1.3886761  -0.59373933   0.11123699   -1.3886761   0.79493681  1070540 
 3976000    1.1100095   -1.3894553   -1.3894553  -0.59399707   0.12063035   -1.3894553   0.79545821  1070540 
 3977000    1.1101278   -1.3891199   -1.3891199  -0.59357686   0.10660666   -1.3891199     0.795543  1070540 
 3978000    1.1089692   -1.3883715   -1.3883715   -0.5936588   0.11482977   -1.3883715   0.79471272  1070540 
 3979000    1.1092961   -1.3886363   -1.3886363  -0.59368931   0.11466385   -1.3886363   0.79494704  1070540 
 3980000    1.1093069   -1.3889226   -1.3889226  -0.59396787   0.11378026   -1.3889226   0.79495474  1070540 
 3981000    1.1095513   -1.3894084   -1.3894084  -0.59427849   0.10767933   -1.3894084   0.79512988  1070540 
 3982000    1.1083923   -1.3887184   -1.3887184  -0.59441904    0.1109475   -1.3887184   0.79429935  1070540 
 3983000    1.1090624   -1.3889169   -1.3889169  -0.59413738   0.11459183   -1.3889169   0.79477953  1070540 
 3984000    1.1092921   -1.3890852   -1.3890852  -0.59414109   0.11041023   -1.3890852   0.79494415  1070540 
 3985000    1.1088636   -1.3883973   -1.3883973  -0.59376019   0.11603508   -1.3883973   0.79463707  1070540 
 3986000    1.1100637   -1.3895306   -1.3895306  -0.59403348   0.10775674   -1.3895306   0.79549709  1070540 
 3987000    1.1094671   -1.3889181   -1.3889181  -0.59384851   0.10756426   -1.3889181   0.79506957  1070540 
 3988000    1.1100771   -1.3892117   -1.3892117  -0.59370501   0.10500691   -1.3892117   0.79550666  1070540 
 3989000    1.1099997   -1.3894063   -1.3894063  -0.59395509     0.108454   -1.3894063    0.7954512  1070540 
 3990000     1.108081   -1.3882231   -1.3882231  -0.59414687   0.11866948   -1.3882231   0.79407627  1070540 
 3991000    1.1080619   -1.3886881   -1.3886881  -0.59462552   0.11289576   -1.3886881   0.79406255  1070540 
 3992000    1.1082903   -1.3882619   -1.3882619  -0.59403563   0.12121913   -1.3882619   0.79422626  1070540 
 3993000    1.1087131   -1.3882948   -1.3882948  -0.59376563   0.11557681   -1.3882948   0.79452922  1070540 
 3994000     1.109098   -1.3886484   -1.3886484  -0.59384336   0.11572898   -1.3886484   0.79480502  1070540 
 3995000    1.1105838   -1.3896199   -1.3896199  -0.59375012   0.10668198   -1.3896199   0.79586982  1070540 
 3996000    1.1109836   -1.3895275   -1.3895275  -0.59337116   0.10907481   -1.3895275   0.79615633  1070540 
 3997000    1.1092739   -1.3887158   -1.3887158  -0.59378472   0.11390988   -1.3887158   0.79493111  1070540 
 3998000    1.1102227   -1.3887033   -1.3887033  -0.59309224   0.11763813   -1.3887033   0.79561103  1070540 
 3999000    1.1114262   -1.3898548   -1.3898548  -0.59338135   0.11280441   -1.3898548   0.79647349  1070540 
 4000000     1.109928    -1.389019    -1.389019  -0.59361923   0.11599428    -1.389019   0.79539982  1070540 
Loop time of 7050.33 on 240 procs for 2000000 steps with 1070540 atoms

Performance: 122547.401 tau/day, 283.675 timesteps/s
95.3% CPU use with 240 MPI tasks x 1 OpenMP threads

MPI task timing breakdown:
Section |  min time  |  avg time  |  max time  |%varavg|  %CPU | %total
-----------------------------------------------------------------------
Pair    | 824.83     | 1220.3     | 1519.5     | 310.7 |  96.8 | 17.31
Bond    | 1.3796     | 1.4912     | 1.7266     |   5.0 | 100.0 |  0.02
Neigh   | 707.38     | 1723.3     | 2767.4     | 858.1 |  99.4 | 24.44
Comm    | 2135.3     | 2897.7     | 4569.6     | 781.1 |  93.7 | 41.10
Output  | 69.75      | 70.518     | 72.26      |  11.5 |  88.9 |  1.00
Modify  | 653.01     | 1053.1     | 1527       | 561.5 |  93.3 | 14.94
Other   |            | 83.92      |            |       |       |  1.19

Nlocal:        4460.58 ave        5951 max        2215 min
Histogram: 2 1 4 18 30 55 68 44 14 4
Nghost:        9472.58 ave       13268 max        3056 min
Histogram: 18 2 0 11 22 26 40 72 38 11
Neighs:        55539.0 ave       75217 max       36448 min
Histogram: 1 6 14 42 67 64 20 12 9 5

Total # of neighbors = 13329358
Ave neighs/atom = 12.451060
Ave special neighs/atom = 0.0000000
Neighbor list builds = 200000
Dangerous builds = 198000

Total wall time: 3:52:18
