LAMMPS (24 Dec 2020)
OMP_NUM_THREADS environment is not set. Defaulting to 1 thread. (src/comm.cpp:94)
  using 1 OpenMP thread(s) per MPI task
# Simple rigid body system
# needed variables:

#variable	startTemp equal 0.5
#variable 	temp 	  equal 0.8

units		lj
atom_style	full
dimension 	3
boundary	p p f
pair_style	lj/smooth/linear 1.5

variable 	sigma		equal 1.0
variable 	epsilon 	equal 1.0

region		box block 0 80 0 80 0 160
create_box 	3 box
Created orthogonal box = (0.0000000 0.0000000 0.0000000) to (80.000000 80.000000 160.00000)
  6 by 4 by 8 MPI processor grid

lattice 	sc 0.66
Lattice spacing in x,y,z = 1.1485556 1.1485556 1.1485556
region		fluid block EDGE EDGE EDGE EDGE 2 100 units box
create_atoms 	1 region fluid
Created 421400 atoms
  create_atoms CPU = 0.154 seconds

#lattice 	sc 0.045
#region		gas block EDGE EDGE EDGE EDGE 101 158 units box
#create_atoms    1 region gas

group		solvent type 1
421400 atoms in group solvent

mass		1 1.0
mass		2 1.0
mass		3 1.0



neighbor 	0.4 bin

pair_coeff	1 1 1.0 1.0
pair_coeff	2 2 0.0 0.0
pair_coeff	3 3 0.0 0.0
pair_coeff	2 3 0.0 0.0
pair_coeff	1 2*3 0.0 0.0

pair_modify 	shift yes

#delete_atoms	overlap 0.5 solvent solvent

velocity 	solvent create ${startTemp} 563435 loop geom
velocity 	solvent create .7 563435 loop geom

balance 	1.05 shift z 10 1.05
Balancing ...
Neighbor list info ...
  update every 1 steps, delay 10 steps, check yes
  max neighbors/atom: 2000, page size: 100000
  master list distance cutoff = 1.9
  ghost atom cutoff = 1.9
  binsize = 0.95, bins = 85 85 169
  1 neighbor lists, perpetual/occasional/extra = 1 0 0
  (1) pair lj/smooth/linear, perpetual
      attributes: half, newton on
      pair build: half/bin/newton
      stencil: half/bin/3d/newton
      bin: standard
 rebalancing time: 0.056 seconds
  iteration count = 5
  initial/final maximal load/proc = 3888.0000 2376.0000
  initial/final imbalance factor  = 1.7714665 1.0825629
  x cuts: 0.0000000 0.16666667 0.33333333 0.50000000 0.66666667 0.83333333 1.0000000
  y cuts: 0.0000000 0.25000000 0.50000000 0.75000000 1.0000000
  z cuts: 0.0000000 0.089843750 0.16796875 0.24218750 0.32031250 0.39843750 0.48046875 0.55859375 1.0000000


####################### WALLS ###########################


variable       epsilonWall equal 2*${epsilon}
variable       epsilonWall equal 2*1

variable       cutoffTop   equal   0.7147*${sigma}
variable       cutoffTop   equal   0.7147*1

variable       cutoffLow   equal   3*${sigma}
variable       cutoffLow   equal   3*1


fix            topWall all wall/lj93 zhi EDGE                ${epsilonWall} ${sigma} ${cutoffTop} units box
fix            topWall all wall/lj93 zhi EDGE                2 ${sigma} ${cutoffTop} units box
fix            topWall all wall/lj93 zhi EDGE                2 1 ${cutoffTop} units box
fix            topWall all wall/lj93 zhi EDGE                2 1 0.7147 units box

fix            lowWall all wall/lj93 zlo EDGE                ${epsilonWall} ${sigma} ${cutoffLow} units box
fix            lowWall all wall/lj93 zlo EDGE                2 ${sigma} ${cutoffLow} units box
fix            lowWall all wall/lj93 zlo EDGE                2 1 ${cutoffLow} units box
fix            lowWall all wall/lj93 zlo EDGE                2 1 3 units box


###################### COMPUTES ##########################

compute        bin1 solvent chunk/atom bin/1d z upper 1.0


######################	FIXES ############################


fix 		peclet solvent ave/chunk 10 10 1000 bin1 density/number norm 		 none ave one file density.profile

fix 		 temp solvent ave/chunk 10 10 1000 bin1 temp norm 		 none ave one file temp.profile

fix 		2 solvent nve


## Thermostat


region		regthermo block EDGE EDGE EDGE EDGE 0 20 units box

group 		thermo dynamic solvent region regthermo every 1000
dynamic group thermo defined

fix 		3 thermo langevin ${startTemp} ${temp} 10 156453
fix 		3 thermo langevin .7 ${temp} 10 156453
fix 		3 thermo langevin .7 .7 10 156453



#### Load balancing


fix 		bal all balance 1000 1.05 shift z 10 1.05


############### Diagnostics and computes ###################
#compute 	com cube	  rigid/local	1 mol x y z
#compute 	quat cube	  rigid/local	1 mol quatw quati quatj quatk

thermo 		1000
thermo_style 	custom step temp epair evdwl etotal press pe ke atoms

dump		1 all custom 100000 dump.lammpstrj id mol type x y z
dump 		2 all image 10000 image.*.png type type
dump 		3 all movie 1000 movie.avi type type

#dump 		com cube local 1000 dump.*.xyz c_com[*]
#dump		quat cube      local 1000 dump.*.quat c_quat[*]


restart 	1000000 restart.dat
timestep 	0.005
timer 		full
New timer settings: style=full  mode=nosync  timeout=off

run		4000000
Per MPI rank memory allocation (min/avg/max) = 9.959 | 9.999 | 10.10 Mbytes
Step Temp E_pair E_vdwl TotEng Press PotEng KinEng Atoms 
       0          0.7    2.2548251    2.2548251    3.3048226    5.7118563    2.2548251    1.0499975   421400 
    1000    1.7888243   0.11978256   0.11978256    2.8030127    2.9696754   0.11978256    2.6832301   421400 
    2000    1.8106471  -0.10353993  -0.10353993    2.6124243    2.0798834  -0.10353993    2.7159643   421400 
    3000    1.7408035  -0.15056066  -0.15056066    2.4606385     1.743395  -0.15056066    2.6111991   421400 
    4000    1.7205147  -0.20116612  -0.20116612    2.3795999    1.4713864  -0.20116612     2.580766   421400 
    5000    1.7082583  -0.19617359  -0.19617359    2.3662078    1.3561169  -0.19617359    2.5623814   421400 
    6000    1.6950041  -0.15960107  -0.15960107     2.382899    1.3557446  -0.15960107    2.5425001   421400 
    7000    1.6802803  -0.11146055  -0.11146055    2.4089539    1.4481397  -0.11146055    2.5204144   421400 
    8000    1.6693667  -0.06971672  -0.06971672    2.4343274    1.5225484  -0.06971672    2.5040441   421400 
    9000    1.6697365 -0.049048712 -0.049048712      2.45555     1.590667 -0.049048712    2.5045988   421400 
   10000    1.6699459 -0.031388907 -0.031388907    2.4735241    1.6514331 -0.031388907     2.504913   421400 
   11000    1.6883117  -0.04360398  -0.04360398    2.4888576    1.6073951  -0.04360398    2.5324616   421400 
   12000    1.6999426  -0.04740879  -0.04740879     2.502499    1.6026689  -0.04740879    2.5499078   421400 
   13000    1.7106858 -0.052889087 -0.052889087    2.5131335    1.6127629 -0.052889087    2.5660226   421400 
   14000    1.7169359 -0.065880481 -0.065880481    2.5095173    1.5765987 -0.065880481    2.5753978   421400 
   15000    1.6869357 -0.082815155 -0.082815155    2.4475823    1.5022499 -0.082815155    2.5303975   421400 
   16000    1.6157022 -0.084267468 -0.084267468    2.3392801    1.4990508 -0.084267468    2.4235476   421400 
   17000    1.5351383  -0.08436631  -0.08436631    2.2183356    1.5236564  -0.08436631     2.302702   421400 
   18000    1.4750873 -0.089356815 -0.089356815    2.1232688    1.5286073 -0.089356815    2.2126256   421400 
   19000    1.4411459  -0.10053035  -0.10053035    2.0611833    1.4998861  -0.10053035    2.1617137   421400 
   20000    1.4223927  -0.10833306  -0.10833306     2.025251     1.465548  -0.10833306     2.133584   421400 
   21000    1.4132455  -0.11395156  -0.11395156    2.0059117    1.4347497  -0.11395156    2.1198633   421400 
   22000    1.4097072  -0.11780172  -0.11780172     1.996754    1.4063882  -0.11780172    2.1145558   421400 
   23000    1.4117986  -0.12200798  -0.12200798    1.9956848    1.3796077  -0.12200798    2.1176928   421400 
   24000    1.4156953  -0.12554618  -0.12554618    1.9979917    1.3421811  -0.12554618    2.1235379   421400 
   25000    1.4209504  -0.12817864  -0.12817864    2.0032419     1.307903  -0.12817864    2.1314205   421400 
   26000     1.420855  -0.12004362  -0.12004362    2.0112338     1.307383  -0.12004362    2.1312775   421400 
   27000    1.4228001  -0.11396329  -0.11396329    2.0202318    1.3109174  -0.11396329    2.1341951   421400 
   28000    1.4250557   -0.1098014   -0.1098014     2.027777    1.3136057   -0.1098014    2.1375784   421400 
   29000    1.4288033  -0.10765656  -0.10765656    2.0355433    1.3132153  -0.10765656    2.1431999   421400 
   30000    1.4329511  -0.10560088  -0.10560088    2.0438207    1.3144279  -0.10560088    2.1494216   421400 
   31000    1.4367166  -0.10378511  -0.10378511    2.0512847    1.3189318  -0.10378511    2.1550698   421400 
   32000    1.4403086  -0.10151808  -0.10151808    2.0589398    1.3314394  -0.10151808    2.1604578   421400 
   33000    1.4443575 -0.099663653 -0.099663653    2.0668674    1.3448915 -0.099663653    2.1665311   421400 
   34000    1.4463015 -0.099827374 -0.099827374    2.0696197    1.3560214 -0.099827374    2.1694471   421400 
   35000    1.4341731  -0.10474179  -0.10474179    2.0465128    1.3537907  -0.10474179    2.1512546   421400 
   36000    1.4138467  -0.10963027  -0.10963027    2.0111347    1.3569389  -0.10963027     2.120765   421400 
   37000    1.3936044  -0.11173356  -0.11173356    1.9786681    1.3587111  -0.11173356    2.0904016   421400 
   38000    1.3819054  -0.11528196  -0.11528196    1.9575712    1.3494735  -0.11528196    2.0728532   421400 
   39000    1.3752545  -0.12010425  -0.12010425    1.9427726    1.3376725  -0.12010425    2.0628768   421400 
   40000    1.3695435  -0.12145553  -0.12145553    1.9328549    1.3288785  -0.12145553    2.0543104   421400 
   41000    1.3653177   -0.1209146   -0.1209146    1.9270571     1.324917   -0.1209146    2.0479717   421400 
   42000     1.366564  -0.12523066  -0.12523066    1.9246105    1.3066339  -0.12523066    2.0498412   421400 
   43000    1.3666363  -0.12492378  -0.12492378    1.9250258    1.2977125  -0.12492378    2.0499496   421400 
   44000    1.3669033  -0.12430622  -0.12430622    1.9260439      1.28838  -0.12430622    2.0503501   421400 
   45000    1.3672136  -0.12264333  -0.12264333    1.9281723    1.2838662  -0.12264333    2.0508156   421400 
   46000    1.3684085   -0.1211745   -0.1211745    1.9314334    1.2797587   -0.1211745    2.0526079   421400 
   47000    1.3706683  -0.12163432  -0.12163432    1.9343633    1.2726912  -0.12163432    2.0559976   421400 
   48000    1.3724721  -0.11940193  -0.11940193    1.9393013    1.2730429  -0.11940193    2.0587033   421400 
   49000    1.3749471  -0.11760813  -0.11760813    1.9448077    1.2742828  -0.11760813    2.0624158   421400 
   50000    1.3762346   -0.1160608   -0.1160608    1.9482862    1.2769261   -0.1160608    2.0643469   421400 
   51000    1.3786729  -0.11633762  -0.11633762    1.9516668    1.2758924  -0.11633762    2.0680044   421400 
   52000    1.3783823  -0.11355529  -0.11355529    1.9540132    1.2865364  -0.11355529    2.0675685   421400 
   53000    1.3802735  -0.11400196  -0.11400196    1.9564034    1.2933954  -0.11400196    2.0704053   421400 
   54000    1.3790229  -0.11570536  -0.11570536    1.9528241    1.2985018  -0.11570536    2.0685295   421400 
   55000    1.3718981  -0.11728479  -0.11728479    1.9405575    1.3013862  -0.11728479    2.0578422   421400 
   56000    1.3618784  -0.11729754  -0.11729754    1.9255153    1.3063632  -0.11729754    2.0428128   421400 
   57000    1.3555863  -0.12105032  -0.12105032    1.9123244    1.3001284  -0.12105032    2.0333747   421400 
   58000    1.3501805  -0.12261645  -0.12261645    1.9026495    1.2973142  -0.12261645     2.025266   421400 
   59000    1.3468913  -0.12578586  -0.12578586    1.8945463    1.2886578  -0.12578586    2.0203321   421400 
   60000    1.3440933  -0.12519746  -0.12519746    1.8909377    1.2849226  -0.12519746    2.0161352   421400 
   61000    1.3414818  -0.12475914  -0.12475914    1.8874588    1.2836737  -0.12475914     2.012218   421400 
   62000    1.3409885  -0.12557407  -0.12557407    1.8859039    1.2766022  -0.12557407     2.011478   421400 
   63000    1.3402856  -0.12503839  -0.12503839    1.8853853    1.2744608  -0.12503839    2.0104237   421400 
   64000    1.3415064  -0.12622417  -0.12622417    1.8860306    1.2648403  -0.12622417    2.0122548   421400 
   65000     1.342024  -0.12610601  -0.12610601    1.8869252    1.2606444  -0.12610601    2.0130312   421400 
   66000    1.3429855  -0.12586765  -0.12586765    1.8886058    1.2558963  -0.12586765    2.0144734   421400 
   67000    1.3419332  -0.12371561  -0.12371561    1.8891795    1.2576399  -0.12371561    2.0128951   421400 
   68000    1.3427014  -0.12421641  -0.12421641     1.889831    1.2524214  -0.12421641    2.0140474   421400 
   69000    1.3439186  -0.12324809  -0.12324809     1.892625     1.253955  -0.12324809    2.0158731   421400 
   70000     1.345697    -0.123405    -0.123405    1.8951357    1.2547282    -0.123405    2.0185407   421400 
   71000    1.3457221  -0.12181814  -0.12181814    1.8967603    1.2584048  -0.12181814    2.0185784   421400 
   72000    1.3465553  -0.12262785  -0.12262785    1.8972003    1.2605948  -0.12262785    2.0198281   421400 
   73000    1.3448336  -0.12074468  -0.12074468    1.8965009     1.268805  -0.12074468    2.0172456   421400 
   74000    1.3431482   -0.1232867   -0.1232867    1.8914309    1.2679886   -0.1232867    2.0147176   421400 
   75000    1.3380546  -0.12361694  -0.12361694    1.8834602    1.2688116  -0.12361694    2.0070771   421400 
   76000    1.3334018  -0.12579608  -0.12579608    1.8743019    1.2662577  -0.12579608     2.000098   421400 
   77000    1.3289804  -0.12654401  -0.12654401    1.8669219    1.2663145  -0.12654401    1.9934659   421400 
   78000    1.3260337  -0.12716935  -0.12716935    1.8618765    1.2637154  -0.12716935    1.9890459   421400 
   79000    1.3229428   -0.1274547   -0.1274547    1.8569548    1.2614968   -0.1274547    1.9844095   421400 
   80000    1.3218311  -0.12818344  -0.12818344    1.8545585    1.2587497  -0.12818344     1.982742   421400 
   81000    1.3209404  -0.13012875  -0.13012875    1.8512772    1.2521995  -0.13012875    1.9814059   421400 
   82000    1.3206998  -0.12985642  -0.12985642    1.8511886    1.2505091  -0.12985642     1.981045   421400 
   83000    1.3199409  -0.12967705  -0.12967705    1.8502295    1.2454856  -0.12967705    1.9799066   421400 
   84000    1.3186603  -0.12727842  -0.12727842    1.8507074    1.2509371  -0.12727842    1.9779858   421400 
   85000    1.3202262  -0.12961826  -0.12961826    1.8507164    1.2405351  -0.12961826    1.9803347   421400 
   86000    1.3213071  -0.12893028  -0.12893028    1.8530256    1.2397175  -0.12893028    1.9819559   421400 
   87000    1.3203738  -0.12746438  -0.12746438    1.8530917    1.2416267  -0.12746438     1.980556   421400 
   88000    1.3210235  -0.12862905  -0.12862905    1.8529014    1.2360617  -0.12862905    1.9815305   421400 
   89000    1.3206303  -0.12800875  -0.12800875     1.852932    1.2383192  -0.12800875    1.9809408   421400 
   90000     1.320123  -0.12695071  -0.12695071    1.8532291    1.2391769  -0.12695071    1.9801798   421400 
   91000    1.3209459  -0.12765037  -0.12765037    1.8537638    1.2389482  -0.12765037    1.9814142   421400 
   92000    1.3195178  -0.12616663  -0.12616663    1.8531054    1.2435171  -0.12616663     1.979272   421400 
   93000    1.3185752  -0.12722551  -0.12722551    1.8506326    1.2429535  -0.12722551    1.9778581   421400 
   94000     1.315704  -0.12593097  -0.12593097    1.8476203      1.25026  -0.12593097    1.9735513   421400 
   95000    1.3147606   -0.1288286   -0.1288286    1.8433076    1.2449837   -0.1288286    1.9721362   421400 
   96000    1.3116828  -0.13036096  -0.13036096    1.8371585    1.2409252  -0.13036096    1.9675195   421400 
   97000    1.3094367  -0.13078834  -0.13078834     1.833362    1.2393186  -0.13078834    1.9641504   421400 
   98000    1.3071361  -0.13135361  -0.13135361    1.8293459    1.2394443  -0.13135361    1.9606995   421400 
   99000    1.3045053  -0.13038564  -0.13038564    1.8263676    1.2424585  -0.13038564    1.9567533   421400 
  100000    1.3040209  -0.13124019  -0.13124019    1.8247865    1.2381636  -0.13124019    1.9560267   421400 
  101000    1.3031397  -0.13114714  -0.13114714    1.8235578    1.2344826  -0.13114714    1.9547049   421400 
  102000     1.302072  -0.13246318  -0.13246318    1.8206402     1.231894  -0.13246318    1.9531034   421400 
  103000    1.3011282  -0.13183323  -0.13183323    1.8198544    1.2310051  -0.13183323    1.9516877   421400 
  104000    1.3007499  -0.13255963  -0.13255963    1.8185605    1.2272693  -0.13255963    1.9511202   421400 
  105000    1.3004893  -0.13203577  -0.13203577    1.8186935    1.2281676  -0.13203577    1.9507293   421400 
  106000    1.3007255   -0.1319064   -0.1319064    1.8191772    1.2238305   -0.1319064    1.9510836   421400 
  107000    1.2994257  -0.13024666  -0.13024666    1.8188872    1.2268194  -0.13024666    1.9491339   421400 
  108000     1.299607  -0.13087109  -0.13087109    1.8185349    1.2238415  -0.13087109    1.9494059   421400 
  109000    1.2997666  -0.13053554  -0.13053554    1.8191098    1.2244923  -0.13053554    1.9496453   421400 
  110000    1.3007352  -0.13187461  -0.13187461    1.8192236    1.2201192  -0.13187461    1.9510982   421400 
  111000    1.3000861   -0.1314185   -0.1314185     1.818706    1.2221842   -0.1314185    1.9501245   421400 
  112000    1.2995847  -0.13152882  -0.13152882    1.8178436    1.2227317  -0.13152882    1.9493725   421400 
  113000    1.2971268  -0.13059187  -0.13059187    1.8150937    1.2258358  -0.13059187    1.9456856   421400 
  114000    1.2959126  -0.13046509  -0.13046509    1.8133992    1.2280266  -0.13046509    1.9438642   421400 
  115000    1.2945498  -0.13276072  -0.13276072    1.8090594    1.2219498  -0.13276072    1.9418202   421400 
  116000    1.2925861  -0.13217138  -0.13217138    1.8067032    1.2243407  -0.13217138    1.9388745   421400 
  117000    1.2900614  -0.13278754  -0.13278754    1.8022999    1.2226793  -0.13278754    1.9350875   421400 
  118000    1.2893433  -0.13451022  -0.13451022    1.7995002    1.2182009  -0.13451022    1.9340104   421400 
  119000     1.287475  -0.13412893  -0.13412893    1.7970791    1.2199031  -0.13412893     1.931208   421400 
  120000    1.2862213  -0.13315018  -0.13315018    1.7961772     1.221652  -0.13315018    1.9293274   421400 
  121000    1.2867549  -0.13419322  -0.13419322    1.7959346    1.2187171  -0.13419322    1.9301278   421400 
  122000    1.2869407  -0.13530741  -0.13530741     1.795099    1.2128812  -0.13530741    1.9304064   421400 
  123000    1.2860486  -0.13547175  -0.13547175    1.7935966    1.2136248  -0.13547175    1.9290683   421400 
  124000    1.2837413  -0.13306954  -0.13306954    1.7925379    1.2146503  -0.13306954    1.9256074   421400 
  125000    1.2852757  -0.13629877  -0.13629877    1.7916102    1.2045348  -0.13629877    1.9279089   421400 
  126000    1.2839319  -0.13511232  -0.13511232    1.7907809     1.208281  -0.13511232    1.9258933   421400 
  127000    1.2836162  -0.13511692  -0.13511692    1.7903029    1.2072351  -0.13511692    1.9254198   421400 
  128000    1.2824472  -0.13421399  -0.13421399    1.7894522     1.207865  -0.13421399    1.9236662   421400 
  129000    1.2820022  -0.13419734  -0.13419734    1.7888014     1.206899  -0.13419734    1.9229987   421400 
  130000    1.2816639  -0.13397697  -0.13397697    1.7885143    1.2085199  -0.13397697    1.9224912   421400 
  131000    1.2817266  -0.13479565  -0.13479565    1.7877897    1.2062869  -0.13479565    1.9225853   421400 
  132000    1.2804501  -0.13429533  -0.13429533    1.7863753    1.2060212  -0.13429533    1.9206707   421400 
  133000    1.2794975  -0.13458969  -0.13458969     1.784652    1.2066133  -0.13458969    1.9192417   421400 
  134000    1.2773667  -0.13274952  -0.13274952     1.783296    1.2126908  -0.13274952    1.9160455   421400 
  135000    1.2771906  -0.13514593  -0.13514593    1.7806354    1.2057178  -0.13514593    1.9157813   421400 
  136000    1.2758566  -0.13511908  -0.13511908    1.7786613    1.2075409  -0.13511908    1.9137803   421400 
  137000    1.2748572  -0.13571412  -0.13571412    1.7765672    1.2065858  -0.13571412    1.9122813   421400 
  138000    1.2732563  -0.13588622  -0.13588622    1.7739936    1.2051862  -0.13588622    1.9098799   421400 
  139000    1.2720073  -0.13641755  -0.13641755    1.7715889    1.2037127  -0.13641755    1.9080065   421400 
  140000    1.2708559  -0.13662389  -0.13662389    1.7696554    1.2031823  -0.13662389    1.9062793   421400 
  141000    1.2686593  -0.13580536  -0.13580536    1.7671791    1.2030871  -0.13580536    1.9029844   421400 
  142000    1.2688285  -0.13727223  -0.13727223    1.7659661    1.1982135  -0.13727223    1.9032383   421400 
  143000    1.2685218  -0.13817398  -0.13817398    1.7646042    1.1950272  -0.13817398    1.9027782   421400 
  144000    1.2685154  -0.13841763  -0.13841763    1.7643509    1.1940577  -0.13841763    1.9027685   421400 
  145000    1.2666857  -0.13678982  -0.13678982    1.7632342    1.1973385  -0.13678982     1.900024   421400 
  146000    1.2664009  -0.13650951  -0.13650951    1.7630873    1.1952542  -0.13650951    1.8995969   421400 
  147000    1.2654288  -0.13626013  -0.13626013    1.7618786    1.1956318  -0.13626013    1.8981388   421400 
  148000      1.26506  -0.13729854  -0.13729854     1.760287    1.1933593  -0.13729854    1.8975855   421400 
  149000    1.2642854   -0.1369477   -0.1369477    1.7594758    1.1927767   -0.1369477    1.8964235   421400 
  150000    1.2648616  -0.13745401  -0.13745401    1.7598339    1.1917142  -0.13745401    1.8972879   421400 
  151000    1.2634254  -0.13681578  -0.13681578    1.7583178    1.1925137  -0.13681578    1.8951336   421400 
  152000    1.2628949  -0.13676573  -0.13676573    1.7575721    1.1924236  -0.13676573    1.8943378   421400 
  153000    1.2617493  -0.13635162  -0.13635162    1.7562678    1.1930442  -0.13635162    1.8926194   421400 
  154000    1.2608245  -0.13710897  -0.13710897    1.7541233    1.1918091  -0.13710897    1.8912322   421400 
  155000    1.2598188  -0.13792298  -0.13792298    1.7518007    1.1900712  -0.13792298    1.8897237   421400 
  156000    1.2594105  -0.13829226  -0.13829226    1.7508189    1.1887067  -0.13829226    1.8891112   421400 
  157000    1.2573466   -0.1381767   -0.1381767    1.7478388    1.1879588   -0.1381767    1.8860155   421400 
  158000    1.2560109  -0.13822169  -0.13822169    1.7457901    1.1878741  -0.13822169    1.8840118   421400 
  159000    1.2558664  -0.13905117  -0.13905117     1.744744    1.1874018  -0.13905117    1.8837951   421400 
  160000     1.255349  -0.13948788  -0.13948788    1.7435312    1.1875057  -0.13948788     1.883019   421400 
  161000    1.2532259   -0.1385304   -0.1385304    1.7413039    1.1864804   -0.1385304    1.8798343   421400 
  162000    1.2530861  -0.14084905  -0.14084905    1.7387756    1.1814481  -0.14084905    1.8796247   421400 
  163000    1.2511901  -0.13864141  -0.13864141    1.7381392    1.1848495  -0.13864141    1.8767806   421400 
  164000    1.2516819  -0.14096999  -0.14096999    1.7365484    1.1793294  -0.14096999    1.8775184   421400 
  165000    1.2506054  -0.13960793  -0.13960793    1.7362958    1.1825394  -0.13960793    1.8759037   421400 
  166000    1.2503954  -0.14037577  -0.14037577    1.7352129    1.1773404  -0.14037577    1.8755887   421400 
  167000    1.2490841   -0.1399798   -0.1399798     1.733642    1.1779317   -0.1399798    1.8736218   421400 
  168000    1.2488153  -0.13897778  -0.13897778    1.7342407    1.1809845  -0.13897778    1.8732185   421400 
  169000    1.2483607  -0.13945131  -0.13945131    1.7330853     1.177537  -0.13945131    1.8725366   421400 
  170000    1.2462779  -0.13826803  -0.13826803    1.7311444     1.182312  -0.13826803    1.8694124   421400 
  171000    1.2471385  -0.14005243  -0.14005243    1.7306509    1.1764517  -0.14005243    1.8707033   421400 
  172000    1.2462491  -0.14002814  -0.14002814     1.729341    1.1757189  -0.14002814    1.8693692   421400 
  173000    1.2458905  -0.14085977  -0.14085977    1.7279715    1.1745594  -0.14085977    1.8688313   421400 
  174000    1.2445428  -0.14005415  -0.14005415    1.7267557    1.1770352  -0.14005415    1.8668098   421400 
  175000    1.2445429  -0.14104501  -0.14104501     1.725765     1.173034  -0.14104501      1.86681   421400 
  176000    1.2430262  -0.13963093  -0.13963093     1.724904    1.1760908  -0.13963093    1.8645349   421400 
  177000    1.2413681  -0.13944191  -0.13944191    1.7226058    1.1757096  -0.13944191    1.8620477   421400 
  178000    1.2416841  -0.14180404  -0.14180404    1.7207177    1.1698254  -0.14180404    1.8625217   421400 
  179000    1.2410618  -0.14233182  -0.14233182    1.7192564    1.1695714  -0.14233182    1.8615883   421400 
  180000     1.239877  -0.14118423  -0.14118423    1.7186269    1.1725745  -0.14118423    1.8598111   421400 
  181000    1.2393926  -0.14173155  -0.14173155     1.717353    1.1683527  -0.14173155    1.8590846   421400 
  182000    1.2384121  -0.14291932  -0.14291932    1.7146944    1.1679972  -0.14291932    1.8576137   421400 
  183000    1.2362618  -0.14129908  -0.14129908    1.7130892    1.1708239  -0.14129908    1.8543883   421400 
  184000    1.2369347  -0.14241041  -0.14241041    1.7129872    1.1674696  -0.14241041    1.8553976   421400 
  185000    1.2361686  -0.14282214  -0.14282214    1.7114264    1.1673499  -0.14282214    1.8542485   421400 
  186000    1.2346622  -0.14218195  -0.14218195    1.7098069    1.1642542  -0.14218195    1.8519888   421400 
  187000    1.2338153  -0.14174546  -0.14174546     1.708973    1.1652879  -0.14174546    1.8507185   421400 
  188000    1.2348689  -0.14425886  -0.14425886    1.7080401    1.1599203  -0.14425886    1.8522989   421400 
  189000    1.2333897  -0.14247071  -0.14247071    1.7076095    1.1630354  -0.14247071    1.8500802   421400 
  190000    1.2325048  -0.14255163  -0.14255163    1.7062012    1.1638197  -0.14255163    1.8487529   421400 
  191000    1.2319586  -0.14318323  -0.14318323    1.7047502    1.1604022  -0.14318323    1.8479335   421400 
  192000    1.2299214  -0.14157308  -0.14157308    1.7033046    1.1644041  -0.14157308    1.8448777   421400 
  193000    1.2307682  -0.14335056  -0.14335056    1.7027973    1.1596435  -0.14335056    1.8461479   421400 
  194000    1.2292941  -0.14252522  -0.14252522    1.7014115    1.1613994  -0.14252522    1.8439367   421400 
  195000    1.2296835  -0.14424892  -0.14424892    1.7002719    1.1576539  -0.14424892    1.8445208   421400 
  196000    1.2281042  -0.14299622  -0.14299622    1.6991558    1.1614023  -0.14299622     1.842152   421400 
  197000     1.227266  -0.14333535  -0.14333535    1.6975593    1.1587232  -0.14333535    1.8408947   421400 
  198000    1.2271934  -0.14423358  -0.14423358    1.6965522    1.1570059  -0.14423358    1.8407857   421400 
  199000    1.2264986   -0.1443145   -0.1443145    1.6954291    1.1557405   -0.1443145    1.8397436   421400 
  200000    1.2247695  -0.14292873  -0.14292873    1.6942211    1.1598166  -0.14292873    1.8371499   421400 
  201000    1.2248531  -0.14447005  -0.14447005    1.6928052     1.156761  -0.14447005    1.8372752   421400 
  202000    1.2237633  -0.14450507  -0.14450507    1.6911355    1.1535024  -0.14450507    1.8356406   421400 
  203000    1.2226401  -0.14427101  -0.14427101    1.6896848    1.1542088  -0.14427101    1.8339558   421400 
  204000    1.2226233  -0.14583109  -0.14583109    1.6880996    1.1512504  -0.14583109    1.8339306   421400 
  205000    1.2213473  -0.14474748  -0.14474748    1.6872691    1.1542974  -0.14474748    1.8320166   421400 
  206000    1.2211318  -0.14507802  -0.14507802    1.6866153    1.1529847  -0.14507802    1.8316933   421400 
  207000    1.2193422  -0.14338098  -0.14338098     1.685628    1.1549571  -0.14338098     1.829009   421400 
  208000    1.2184185  -0.14404729  -0.14404729    1.6835761    1.1522252  -0.14404729    1.8276234   421400 
  209000    1.2184855  -0.14504957  -0.14504957    1.6826744    1.1478769  -0.14504957    1.8277239   421400 
  210000    1.2195512  -0.14554504  -0.14554504    1.6837775    1.1494065  -0.14554504    1.8293225   421400 
  211000     1.218517  -0.14525511  -0.14525511     1.682516    1.1484537  -0.14525511    1.8277711   421400 
  212000     1.217168  -0.14395978  -0.14395978    1.6817878    1.1516397  -0.14395978    1.8257476   421400 
  213000    1.2168141   -0.1453697   -0.1453697    1.6798472    1.1470054   -0.1453697    1.8252169   421400 
  214000    1.2170952  -0.14650257  -0.14650257     1.679136    1.1459836  -0.14650257    1.8256385   421400 
  215000    1.2147085  -0.14424034  -0.14424034    1.6778182     1.149221  -0.14424034    1.8220585   421400 
  216000    1.2142629  -0.14472311  -0.14472311    1.6766669    1.1477395  -0.14472311      1.82139   421400 
  217000    1.2135952  -0.14558172  -0.14558172    1.6748068    1.1460142  -0.14558172    1.8203886   421400 
  218000    1.2129093  -0.14620687  -0.14620687    1.6731527    1.1446157  -0.14620687    1.8193596   421400 
  219000    1.2114832  -0.14545753  -0.14545753    1.6717629    1.1464265  -0.14545753    1.8172204   421400 
  220000    1.2113361  -0.14702768  -0.14702768    1.6699721    1.1411202  -0.14702768    1.8169998   421400 
  221000    1.2105432  -0.14583059  -0.14583059    1.6699799    1.1437812  -0.14583059    1.8158105   421400 
  222000    1.2102447  -0.14715566  -0.14715566     1.668207    1.1406056  -0.14715566    1.8153627   421400 
  223000    1.2094296  -0.14627718  -0.14627718    1.6678629    1.1420885  -0.14627718      1.81414   421400 
  224000    1.2099715  -0.14754821  -0.14754821    1.6674047    1.1396111  -0.14754821    1.8149529   421400 
  225000    1.2080692  -0.14697789  -0.14697789    1.6651216    1.1410393  -0.14697789    1.8120995   421400 
  226000    1.2079534  -0.14691946  -0.14691946    1.6650063    1.1406444  -0.14691946    1.8119258   421400 
  227000    1.2065298  -0.14663331  -0.14663331    1.6631571    1.1398621  -0.14663331    1.8097904   421400 
  228000    1.2059062   -0.1464185   -0.1464185    1.6624365    1.1403277   -0.1464185     1.808855   421400 
  229000    1.2062745   -0.1483174   -0.1483174    1.6610901    1.1361777   -0.1483174    1.8094075   421400 
  230000    1.2041055  -0.14599663  -0.14599663    1.6601573    1.1385106  -0.14599663     1.806154   421400 
  231000    1.2044885  -0.14703296  -0.14703296    1.6596956    1.1362227  -0.14703296    1.8067285   421400 
  232000    1.2035447  -0.14795186  -0.14795186    1.6573609    1.1341599  -0.14795186    1.8053128   421400 
  233000    1.2027885  -0.14776141  -0.14776141     1.656417    1.1347056  -0.14776141    1.8041785   421400 
  234000      1.20183  -0.14654749  -0.14654749    1.6561932    1.1368483  -0.14654749    1.8027407   421400 
  235000    1.2013033  -0.14683016  -0.14683016    1.6551206    1.1358528  -0.14683016    1.8019507   421400 
  236000    1.2005348  -0.14647926  -0.14647926    1.6543186    1.1375972  -0.14647926    1.8007979   421400 
  237000    1.2006386  -0.14853373  -0.14853373    1.6524199      1.13123  -0.14853373    1.8009536   421400 
  238000    1.1998855  -0.14768373  -0.14768373    1.6521403    1.1318298  -0.14768373     1.799824   421400 
  239000    1.1992943  -0.14792754  -0.14792754    1.6510097    1.1314446  -0.14792754    1.7989372   421400 
  240000    1.1986221  -0.14780136  -0.14780136    1.6501275    1.1289593  -0.14780136    1.7979288   421400 
  241000    1.1991738  -0.14950071  -0.14950071    1.6492557    1.1284691  -0.14950071    1.7987564   421400 
  242000    1.1976471  -0.14819595  -0.14819595    1.6482704    1.1314311  -0.14819595    1.7964663   421400 
  243000    1.1973652  -0.14939583  -0.14939583    1.6466477    1.1264687  -0.14939583    1.7960435   421400 
  244000    1.1961421    -0.148371    -0.148371     1.645838    1.1302405    -0.148371     1.794209   421400 
  245000    1.1950707  -0.14823678  -0.14823678    1.6443651    1.1305584  -0.14823678    1.7926019   421400 
  246000    1.1939748  -0.14883859  -0.14883859    1.6421194    1.1286593  -0.14883859    1.7909579   421400 
  247000    1.1936203  -0.14925887  -0.14925887    1.6411673    1.1259261  -0.14925887    1.7904262   421400 
  248000    1.1935739  -0.14944517  -0.14944517    1.6409115    1.1265912  -0.14944517    1.7903566   421400 
  249000    1.1935051  -0.15011748  -0.15011748    1.6401359      1.12457  -0.15011748    1.7902534   421400 
  250000    1.1917978  -0.14920174  -0.14920174    1.6384908    1.1244707  -0.14920174    1.7876925   421400 
  251000    1.1921474  -0.14965008  -0.14965008    1.6385668    1.1233941  -0.14965008    1.7882169   421400 
  252000    1.1902931  -0.14786587  -0.14786587    1.6375695    1.1273976  -0.14786587    1.7854354   421400 
  253000    1.1911488  -0.15022678  -0.15022678    1.6364921     1.123485  -0.15022678    1.7867189   421400 
  254000    1.1898874  -0.14906841  -0.14906841    1.6357584    1.1239706  -0.14906841    1.7848269   421400 
  255000    1.1884751  -0.14961024  -0.14961024    1.6330982    1.1208114  -0.14961024    1.7827084   421400 
  256000    1.1867176  -0.14838768  -0.14838768    1.6316844    1.1230798  -0.14838768    1.7800721   421400 
  257000    1.1876665  -0.15050256  -0.15050256    1.6309929    1.1195217  -0.15050256    1.7814955   421400 
  258000     1.186769  -0.15003325  -0.15003325     1.630116    1.1184072  -0.15003325    1.7801492   421400 
  259000    1.1855239  -0.14943285  -0.14943285    1.6288487    1.1190124  -0.14943285    1.7782816   421400 
  260000    1.1850356  -0.14907124  -0.14907124    1.6284779    1.1215968  -0.14907124    1.7775491   421400 
  261000    1.1845799  -0.14990408  -0.14990408    1.6269616    1.1187365  -0.14990408    1.7768656   421400 
  262000    1.1842146  -0.15020082  -0.15020082    1.6261169    1.1198237  -0.15020082    1.7763178   421400 
  263000    1.1846986  -0.15120495  -0.15120495    1.6258387    1.1179099  -0.15120495    1.7770437   421400 
  264000    1.1838505  -0.15185542  -0.15185542    1.6239161    1.1147322  -0.15185542    1.7757715   421400 
  265000    1.1821308  -0.15035274  -0.15035274    1.6228392    1.1177958  -0.15035274    1.7731919   421400 
  266000    1.1806814  -0.14915167  -0.14915167    1.6218662    1.1189774  -0.14915167    1.7710179   421400 
  267000    1.1816863  -0.15109043  -0.15109043    1.6214348    1.1145446  -0.15109043    1.7725252   421400 
  268000     1.180877  -0.15116534  -0.15116534     1.620146    1.1142862  -0.15116534    1.7713113   421400 
  269000    1.1794122  -0.14994967  -0.14994967    1.6191644    1.1159614  -0.14994967    1.7691141   421400 
  270000    1.1795612  -0.15070433  -0.15070433    1.6186332    1.1149641  -0.15070433    1.7693375   421400 
  271000    1.1789538  -0.14952729  -0.14952729    1.6188992    1.1173264  -0.14952729    1.7684265   421400 
  272000    1.1789884  -0.15128774  -0.15128774    1.6171907    1.1125943  -0.15128774    1.7684784   421400 
  273000    1.1792905  -0.15295971  -0.15295971    1.6159718    1.1082256  -0.15295971    1.7689315   421400 
  274000    1.1771216  -0.14991833  -0.14991833    1.6157598    1.1146509  -0.14991833    1.7656782   421400 
  275000    1.1767583  -0.15047565  -0.15047565    1.6146577    1.1125488  -0.15047565    1.7651333   421400 
  276000    1.1765627  -0.15111067  -0.15111067    1.6137292    1.1122059  -0.15111067    1.7648399   421400 
  277000     1.176171  -0.15214557  -0.15214557    1.6121068    1.1085244  -0.15214557    1.7642524   421400 
  278000    1.1754287  -0.15174918  -0.15174918    1.6113896    1.1082197  -0.15174918    1.7631388   421400 
  279000    1.1742957  -0.15160254  -0.15160254    1.6098368    1.1085234  -0.15160254    1.7614394   421400 
  280000    1.1739215  -0.15099676  -0.15099676    1.6098814    1.1087614  -0.15099676    1.7608781   421400 
  281000    1.1727368  -0.15147301  -0.15147301    1.6076281    1.1085913  -0.15147301    1.7591011   421400 
  282000    1.1729063   -0.1517097   -0.1517097    1.6076456    1.1077314   -0.1517097    1.7593553   421400 
  283000    1.1725227  -0.15231819  -0.15231819    1.6064617     1.105587  -0.15231819    1.7587799   421400 
  284000     1.172039  -0.15224244  -0.15224244    1.6058119    1.1078139  -0.15224244    1.7580544   421400 
  285000    1.1719068  -0.15302014  -0.15302014    1.6048359    1.1040366  -0.15302014    1.7578561   421400 
  286000    1.1699808  -0.15198694  -0.15198694      1.60298     1.106538  -0.15198694     1.754967   421400 
  287000     1.169582  -0.15204328  -0.15204328    1.6023256    1.1072404  -0.15204328    1.7543689   421400 
  288000    1.1681958  -0.15132649  -0.15132649    1.6009631    1.1069542  -0.15132649    1.7522896   421400 
  289000    1.1696869  -0.15352182  -0.15352182    1.6010044    1.1018639  -0.15352182    1.7545263   421400 
  290000    1.1677426  -0.15223329  -0.15223329    1.5993764    1.1037147  -0.15223329    1.7516097   421400 
  291000    1.1684649   -0.1535632   -0.1535632      1.59913    1.0993612   -0.1535632    1.7526932   421400 
  292000    1.1661806  -0.15186466  -0.15186466    1.5974021    1.1054757  -0.15186466    1.7492667   421400 
  293000    1.1672674  -0.15391051  -0.15391051    1.5969865    1.0982834  -0.15391051     1.750897   421400 
  294000    1.1655556  -0.15158551  -0.15158551    1.5967437    1.1024066  -0.15158551    1.7483292   421400 
  295000    1.1650718  -0.15153544  -0.15153544    1.5960681    1.1040617  -0.15153544    1.7476035   421400 
  296000    1.1662842  -0.15302781  -0.15302781    1.5963943    1.0984798  -0.15302781    1.7494222   421400 
  297000    1.1647281  -0.15235586  -0.15235586    1.5947321    1.1007944  -0.15235586     1.747088   421400 
  298000    1.1639657  -0.15205263  -0.15205263    1.5938917     1.101047  -0.15205263    1.7459444   421400 
  299000    1.1642717  -0.15198652  -0.15198652    1.5944169    1.1009187  -0.15198652    1.7464034   421400 
  300000    1.1639147  -0.15325708  -0.15325708    1.5926109    1.0998719  -0.15325708     1.745868   421400 
  301000    1.1631076  -0.15338115  -0.15338115    1.5912761     1.098398  -0.15338115    1.7446572   421400 
  302000    1.1627501  -0.15352325  -0.15352325    1.5905977    1.0986466  -0.15352325     1.744121   421400 
  303000    1.1619066  -0.15373142  -0.15373142    1.5891244     1.097682  -0.15373142    1.7428558   421400 
  304000    1.1611262  -0.15395647  -0.15395647    1.5877287    1.0949685  -0.15395647    1.7416852   421400 
  305000    1.1609783  -0.15407419  -0.15407419    1.5873891    1.0973131  -0.15407419    1.7414633   421400 
  306000    1.1600799  -0.15468398  -0.15468398    1.5854317    1.0943102  -0.15468398    1.7401157   421400 
  307000    1.1583021  -0.15423364  -0.15423364    1.5832155    1.0933259  -0.15423364    1.7374491   421400 
  308000    1.1570228  -0.15299629  -0.15299629    1.5825338    1.0969326  -0.15299629      1.73553   421400 
  309000    1.1572435  -0.15555676  -0.15555676    1.5803044    1.0912326  -0.15555676    1.7358611   421400 
  310000    1.1577017  -0.15639464  -0.15639464    1.5801538    1.0869559  -0.15639464    1.7365484   421400 
  311000    1.1558856  -0.15398855  -0.15398855    1.5798357    1.0932901  -0.15398855    1.7338243   421400 
  312000    1.1559415  -0.15428688  -0.15428688    1.5796212    1.0929483  -0.15428688    1.7339081   421400 
  313000    1.1552671   -0.1525871   -0.1525871    1.5803094    1.0975101   -0.1525871    1.7328965   421400 
  314000    1.1557638   -0.1541534   -0.1541534    1.5794882    1.0908266   -0.1541534    1.7336416   421400 
  315000    1.1552858  -0.15442073  -0.15442073    1.5785038    1.0906118  -0.15442073    1.7329245   421400 
  316000    1.1549251  -0.15527499  -0.15527499    1.5771086      1.08856  -0.15527499    1.7323835   421400 
  317000    1.1542463  -0.15511914  -0.15511914    1.5762462    1.0879635  -0.15511914    1.7313654   421400 
  318000    1.1540158  -0.15591423  -0.15591423    1.5751054    1.0864263  -0.15591423    1.7310196   421400 
  319000    1.1521474  -0.15393447  -0.15393447    1.5742826    1.0906322  -0.15393447     1.728217   421400 
  320000    1.1522073  -0.15534034  -0.15534034    1.5729665    1.0873287  -0.15534034    1.7283069   421400 
  321000    1.1501095  -0.15305087  -0.15305087    1.5721093    1.0905646  -0.15305087    1.7251602   421400 
  322000    1.1503637  -0.15473477  -0.15473477    1.5708067    1.0872302  -0.15473477    1.7255415   421400 
  323000    1.1490477  -0.15451238  -0.15451238    1.5690551    1.0872556  -0.15451238    1.7235675   421400 
  324000    1.1493917  -0.15565769  -0.15565769    1.5684257    1.0838973  -0.15565769    1.7240834   421400 
  325000    1.1483088  -0.15529661  -0.15529661    1.5671626    1.0864261  -0.15529661    1.7224592   421400 
  326000    1.1475135  -0.15496544  -0.15496544    1.5663007    1.0872633  -0.15496544    1.7212661   421400 
  327000    1.1473399  -0.15645317  -0.15645317    1.5645526    1.0823624  -0.15645317    1.7210058   421400 
  328000    1.1467229  -0.15642145  -0.15642145    1.5636588    1.0807008  -0.15642145    1.7200802   421400 
  329000    1.1460077  -0.15558443  -0.15558443     1.563423    1.0851935  -0.15558443    1.7190074   421400 
  330000    1.1457206  -0.15674206  -0.15674206    1.5618347    1.0799517  -0.15674206    1.7185768   421400 
  331000    1.1453204  -0.15656826  -0.15656826    1.5614082    1.0813378  -0.15656826    1.7179765   421400 
  332000    1.1445582  -0.15631861  -0.15631861    1.5605147     1.082102  -0.15631861    1.7168333   421400 
  333000    1.1440611  -0.15580978  -0.15580978    1.5602777    1.0854755  -0.15580978    1.7160875   421400 
  334000    1.1443232  -0.15694726  -0.15694726    1.5595335     1.079483  -0.15694726    1.7164808   421400 
  335000    1.1431474    -0.156597    -0.156597    1.5581201    1.0796397    -0.156597    1.7147171   421400 
  336000     1.143039  -0.15668051  -0.15668051     1.557874    1.0779402  -0.15668051    1.7145545   421400 
  337000    1.1408384  -0.15476229  -0.15476229    1.5564912    1.0840253  -0.15476229    1.7112535   421400 
  338000    1.1409113  -0.15515679  -0.15515679     1.556206    1.0820617  -0.15515679    1.7113628   421400 
  339000    1.1405216  -0.15643651  -0.15643651    1.5543419    1.0769978  -0.15643651    1.7107784   421400 
  340000    1.1397874  -0.15601117  -0.15601117    1.5536659    1.0783306  -0.15601117    1.7096771   421400 
  341000     1.140132  -0.15712082  -0.15712082    1.5530731    1.0765204  -0.15712082    1.7101939   421400 
  342000    1.1396643  -0.15767582  -0.15767582    1.5518165    1.0734955  -0.15767582    1.7094924   421400 
  343000    1.1387474  -0.15572045  -0.15572045    1.5523967    1.0785979  -0.15572045    1.7081171   421400 
  344000     1.138078  -0.15676559  -0.15676559    1.5503473     1.076025  -0.15676559    1.7071129   421400 
  345000    1.1387272  -0.15705713  -0.15705713    1.5510296    1.0765191  -0.15705713    1.7080867   421400 
  346000    1.1388098   -0.1585401   -0.1585401    1.5496705    1.0720188   -0.1585401    1.7082106   421400 
  347000    1.1379998  -0.15826351  -0.15826351    1.5487321    1.0725641  -0.15826351    1.7069956   421400 
  348000    1.1368748  -0.15784899  -0.15784899    1.5474591    1.0738693  -0.15784899    1.7053081   421400 
  349000    1.1368647  -0.15754804  -0.15754804     1.547745    1.0741926  -0.15754804     1.705293   421400 
  350000    1.1363798   -0.1572574   -0.1572574    1.5473082    1.0760456   -0.1572574    1.7045656   421400 
  351000    1.1345073  -0.15672264  -0.15672264    1.5450343    1.0773275  -0.15672264     1.701757   421400 
  352000    1.1341146  -0.15702546  -0.15702546    1.5441423    1.0752017  -0.15702546    1.7011678   421400 
  353000    1.1337591  -0.15736212  -0.15736212    1.5432725    1.0728731  -0.15736212    1.7006346   421400 
  354000    1.1338883  -0.15883225  -0.15883225    1.5419962    1.0693675  -0.15883225    1.7008285   421400 
  355000    1.1327461   -0.1579344   -0.1579344    1.5411808    1.0706167   -0.1579344    1.6991152   421400 
  356000    1.1315516  -0.15661942  -0.15661942     1.540704    1.0749053  -0.15661942    1.6973234   421400 
  357000     1.131959  -0.15760891  -0.15760891    1.5403256    1.0695847  -0.15760891    1.6979345   421400 
  358000    1.1329638  -0.15951196  -0.15951196    1.5399297    1.0636541  -0.15951196    1.6994416   421400 
  359000    1.1303744    -0.157102    -0.157102    1.5384556    1.0710525    -0.157102    1.6955576   421400 
  360000    1.1309858  -0.15788966  -0.15788966     1.538585    1.0683043  -0.15788966    1.6964747   421400 
  361000    1.1313285  -0.15865327  -0.15865327    1.5383355    1.0671563  -0.15865327    1.6969888   421400 
  362000    1.1301071  -0.15679782  -0.15679782    1.5383588    1.0699421  -0.15679782    1.6951566   421400 
  363000    1.1293109  -0.15733673  -0.15733673    1.5366256    1.0691006  -0.15733673    1.6939623   421400 
  364000    1.1275225   -0.1555128   -0.1555128     1.535767    1.0739971   -0.1555128    1.6912798   421400 
  365000    1.1291316   -0.1585574   -0.1585574     1.535136    1.0659822   -0.1585574    1.6936934   421400 
  366000    1.1285587  -0.15865681  -0.15865681    1.5341773    1.0647942  -0.15865681    1.6928341   421400 
  367000    1.1270411  -0.15677548  -0.15677548    1.5337822    1.0696047  -0.15677548    1.6905577   421400 
  368000    1.1272604  -0.15892265  -0.15892265     1.531964    1.0629555  -0.15892265    1.6908866   421400 
  369000    1.1268694  -0.15856333  -0.15856333    1.5317367     1.064563  -0.15856333    1.6903001   421400 
  370000    1.1260882  -0.15878569  -0.15878569    1.5303426    1.0632926  -0.15878569    1.6891283   421400 
  371000    1.1253257  -0.15823178  -0.15823178    1.5297527    1.0654103  -0.15823178    1.6879845   421400 
  372000    1.1250519  -0.15887851  -0.15887851    1.5286953    1.0622503  -0.15887851    1.6875738   421400 
  373000    1.1251388  -0.15909448  -0.15909448    1.5286098    1.0622459  -0.15909448    1.6877042   421400 
  374000    1.1238684  -0.15934604  -0.15934604    1.5264526    1.0607318  -0.15934604    1.6857987   421400 
  375000    1.1236859  -0.15941476  -0.15941476      1.52611    1.0616355  -0.15941476    1.6855248   421400 
  376000    1.1242438  -0.16117793  -0.16117793    1.5251838    1.0559724  -0.16117793    1.6863618   421400 
  377000     1.122704  -0.15991527  -0.15991527    1.5241367    1.0592194  -0.15991527     1.684052   421400 
  378000    1.1214704  -0.15897212  -0.15897212    1.5232295    1.0611996  -0.15897212    1.6822017   421400 
  379000    1.1209615  -0.15897232  -0.15897232    1.5224659    1.0594072  -0.15897232    1.6814382   421400 
  380000    1.1210996   -0.1600389   -0.1600389    1.5216065    1.0570842   -0.1600389    1.6816454   421400 
  381000    1.1212485  -0.16058766  -0.16058766    1.5212812    1.0559356  -0.16058766    1.6818688   421400 
  382000    1.1204214  -0.16046291  -0.16046291    1.5201653    1.0566564  -0.16046291    1.6806282   421400 
  383000    1.1195351  -0.15955889  -0.15955889    1.5197398    1.0582855  -0.15955889    1.6792987   421400 
  384000    1.1196433  -0.15937059  -0.15937059    1.5200904    1.0586139  -0.15937059     1.679461   421400 
  385000    1.1198944  -0.16036849  -0.16036849    1.5194692      1.05622  -0.16036849    1.6798376   421400 
  386000    1.1186047  -0.16003166  -0.16003166    1.5178714    1.0566181  -0.16003166     1.677903   421400 
  387000    1.1182325  -0.16073473  -0.16073473      1.51661    1.0543719  -0.16073473    1.6773447   421400 
  388000    1.1176572  -0.16026731  -0.16026731    1.5162144    1.0551274  -0.16026731    1.6764817   421400 
  389000    1.1173331  -0.16058235  -0.16058235    1.5154133    1.0556953  -0.16058235    1.6759956   421400 
  390000    1.1161208  -0.16012102  -0.16012102    1.5140562     1.053384  -0.16012102    1.6741772   421400 
  391000    1.1166577   -0.1608961   -0.1608961    1.5140865     1.053059   -0.1608961    1.6749826   421400 
  392000    1.1159672  -0.16054163  -0.16054163    1.5134052    1.0546865  -0.16054163    1.6739469   421400 
  393000    1.1148868  -0.16006965  -0.16006965    1.5122566    1.0539795  -0.16006965    1.6723263   421400 
  394000    1.1143478  -0.15999476  -0.15999476     1.511523    1.0539691  -0.15999476    1.6715178   421400 
  395000    1.1144983  -0.16102636  -0.16102636    1.5107171    1.0530242  -0.16102636    1.6717435   421400 
  396000    1.1136598  -0.16096728  -0.16096728    1.5095185    1.0503079  -0.16096728    1.6704858   421400 
  397000     1.112603  -0.16093113  -0.16093113    1.5079694    1.0514672  -0.16093113    1.6689005   421400 
  398000    1.1140436  -0.16291689  -0.16291689    1.5081446    1.0451998  -0.16291689    1.6710615   421400 
  399000    1.1117553  -0.15990474  -0.15990474    1.5077243    1.0502915  -0.15990474    1.6676291   421400 
  400000    1.1131468  -0.16178426  -0.16178426     1.507932    1.0489259  -0.16178426    1.6697163   421400 
  401000    1.1112232  -0.15964201  -0.15964201    1.5071889    1.0542184  -0.15964201    1.6668309   421400 
  402000    1.1110828  -0.16046036  -0.16046036    1.5061598    1.0506985  -0.16046036    1.6666202   421400 
  403000    1.1110116  -0.16094779  -0.16094779    1.5055657    1.0487399  -0.16094779    1.6665134   421400 
  404000    1.1110863  -0.16196062  -0.16196062    1.5046648    1.0471868  -0.16196062    1.6666255   421400 
  405000    1.1092358  -0.16105252  -0.16105252    1.5027972    1.0499504  -0.16105252    1.6638497   421400 
  406000    1.1104777  -0.16305502  -0.16305502    1.5026576    1.0448836  -0.16305502    1.6657126   421400 
  407000    1.1082581  -0.16109914  -0.16109914    1.5012841    1.0471564  -0.16109914    1.6623832   421400 
  408000    1.1080761  -0.16183574  -0.16183574    1.5002745    1.0449942  -0.16183574    1.6621103   421400 
  409000    1.1075212  -0.16143866  -0.16143866    1.4998392    1.0475074  -0.16143866    1.6612779   421400 
  410000    1.1076193  -0.16252136  -0.16252136    1.4989036    1.0439381  -0.16252136     1.661425   421400 
  411000    1.1079946  -0.16246091  -0.16246091     1.499527    1.0431234  -0.16246091    1.6619879   421400 
  412000    1.1073746  -0.16222902  -0.16222902     1.498829    1.0432138  -0.16222902     1.661058   421400 
  413000    1.1073925  -0.16336463  -0.16336463    1.4977201    1.0432509  -0.16336463    1.6610847   421400 
  414000     1.105367  -0.16123312  -0.16123312    1.4968135     1.047631  -0.16123312    1.6580466   421400 
  415000    1.1055714  -0.16238589  -0.16238589    1.4959673    1.0433984  -0.16238589    1.6583532   421400 
  416000    1.1044127   -0.1618388   -0.1618388    1.4947763     1.044817   -0.1618388    1.6566151   421400 
  417000    1.1040126  -0.16231182  -0.16231182    1.4937032    1.0428473  -0.16231182     1.656015   421400 
  418000    1.1045379  -0.16252153  -0.16252153    1.4942814     1.042899  -0.16252153    1.6568029   421400 
  419000    1.1041875  -0.16292028  -0.16292028     1.493357    1.0404411  -0.16292028    1.6562773   421400 
  420000    1.1047916  -0.16413208  -0.16413208    1.4930513     1.037295  -0.16413208    1.6571834   421400 
  421000    1.1027348  -0.16325806  -0.16325806    1.4908402    1.0408106  -0.16325806    1.6540983   421400 
  422000    1.1018176  -0.16294016  -0.16294016    1.4897824    1.0420186  -0.16294016    1.6527225   421400 
  423000    1.1011205  -0.16360398  -0.16360398    1.4880729     1.036287  -0.16360398    1.6516769   421400 
  424000    1.1016212    -0.163915    -0.163915    1.4885129    1.0380919    -0.163915    1.6524279   421400 
  425000     1.100261  -0.16272337  -0.16272337    1.4876642    1.0398431  -0.16272337    1.6503876   421400 
  426000    1.0992528   -0.1620783   -0.1620783     1.486797    1.0404225   -0.1620783    1.6488753   421400 
  427000    1.0997526  -0.16336768  -0.16336768    1.4862574    1.0379988  -0.16336768     1.649625   421400 
  428000    1.0996145  -0.16434433  -0.16434433    1.4850735    1.0347411  -0.16434433    1.6494178   421400 
  429000    1.0994692  -0.16437381  -0.16437381    1.4848261    1.0351312  -0.16437381    1.6491999   421400 
  430000    1.0980683  -0.16260898  -0.16260898    1.4844896    1.0403319  -0.16260898    1.6470986   421400 
  431000     1.098555  -0.16360274  -0.16360274    1.4842258    1.0348057  -0.16360274    1.6478285   421400 
  432000    1.0976102  -0.16350644  -0.16350644    1.4829049    1.0343348  -0.16350644    1.6464113   421400 
  433000    1.0968408  -0.16337131  -0.16337131     1.481886    1.0353301  -0.16337131    1.6452573   421400 
  434000    1.0967392  -0.16352596  -0.16352596    1.4815789    1.0372513  -0.16352596    1.6451049   421400 
  435000     1.097089  -0.16422048  -0.16422048    1.4814091    1.0327585  -0.16422048    1.6456296   421400 
  436000    1.0964262  -0.16427999  -0.16427999    1.4803554    1.0345809  -0.16427999    1.6446354   421400 
  437000    1.0953511  -0.16307265  -0.16307265    1.4799501    1.0350718  -0.16307265    1.6430227   421400 
  438000    1.0942371  -0.16256295  -0.16256295    1.4787888    1.0371424  -0.16256295    1.6413518   421400 
  439000    1.0947824  -0.16328023  -0.16328023    1.4788894    1.0353951  -0.16328023    1.6421697   421400 
  440000    1.0951242  -0.16498154  -0.16498154    1.4777008    1.0316749  -0.16498154    1.6426824   421400 
  441000    1.0937422  -0.16448059  -0.16448059    1.4761288    1.0324491  -0.16448059    1.6406094   421400 
  442000    1.0934141  -0.16369978  -0.16369978    1.4764175    1.0310507  -0.16369978    1.6401172   421400 
  443000    1.0941376   -0.1650359   -0.1650359    1.4761666      1.02955   -0.1650359    1.6412025   421400 
  444000    1.0937918  -0.16434072  -0.16434072    1.4763431     1.031888  -0.16434072    1.6406838   421400 
  445000    1.0931348  -0.16607494  -0.16607494    1.4736234    1.0264099  -0.16607494    1.6396983   421400 
  446000    1.0914897  -0.16395932  -0.16395932    1.4732713    1.0319819  -0.16395932    1.6372307   421400 
  447000    1.0918416  -0.16497646  -0.16497646     1.472782    1.0292433  -0.16497646    1.6377585   421400 
  448000    1.0902637  -0.16407232  -0.16407232    1.4713193    1.0304517  -0.16407232    1.6353916   421400 
  449000    1.0898087  -0.16318999  -0.16318999    1.4715191    1.0337487  -0.16318999    1.6347091   421400 
  450000    1.0890811  -0.16368026  -0.16368026    1.4699375     1.032761  -0.16368026    1.6336178   421400 
  451000    1.0899485  -0.16552978  -0.16552978    1.4693891     1.026807  -0.16552978    1.6349189   421400 
  452000    1.0887274  -0.16454882  -0.16454882    1.4685384    1.0285528  -0.16454882    1.6330872   421400 
  453000    1.0891052  -0.16571387  -0.16571387      1.46794    1.0245543  -0.16571387    1.6336539   421400 
  454000    1.0886902  -0.16602971  -0.16602971    1.4670018    1.0227076  -0.16602971    1.6330315   421400 
  455000    1.0887109  -0.16624178  -0.16624178    1.4668207    1.0246148  -0.16624178    1.6330625   421400 
  456000    1.0868098  -0.16473809  -0.16473809    1.4654728    1.0257253  -0.16473809    1.6302109   421400 
  457000    1.0866715  -0.16524528  -0.16524528    1.4647581    1.0245455  -0.16524528    1.6300034   421400 
  458000    1.0858996  -0.16479974  -0.16479974    1.4640458    1.0266763  -0.16479974    1.6288456   421400 
  459000    1.0868495    -0.166087    -0.166087    1.4641834    1.0222117    -0.166087    1.6302704   421400 
  460000    1.0848189  -0.16438402  -0.16438402    1.4628405    1.0267684  -0.16438402    1.6272245   421400 
  461000    1.0845803  -0.16512655  -0.16512655      1.46174    1.0258987  -0.16512655    1.6268665   421400 
  462000     1.084242  -0.16611983  -0.16611983    1.4602393    1.0227333  -0.16611983    1.6263591   421400 
  463000    1.0838344  -0.16568535  -0.16568535    1.4600624    1.0240262  -0.16568535    1.6257478   421400 
  464000    1.0828374  -0.16575865  -0.16575865    1.4584935    1.0224259  -0.16575865    1.6242522   421400 
  465000    1.0829043  -0.16583217  -0.16583217    1.4585204    1.0226215  -0.16583217    1.6243526   421400 
  466000     1.082197  -0.16579791  -0.16579791    1.4574937    1.0209592  -0.16579791    1.6232916   421400 
  467000    1.0820767  -0.16561796  -0.16561796    1.4574932    1.0212372  -0.16561796    1.6231111   421400 
  468000      1.08179  -0.16519653  -0.16519653    1.4574847    1.0226491  -0.16519653    1.6226812   421400 
  469000    1.0814167  -0.16638892  -0.16638892    1.4557323    1.0203591  -0.16638892    1.6221212   421400 
  470000    1.0804167   -0.1663528   -0.1663528    1.4542684    1.0203657   -0.1663528    1.6206212   421400 
  471000    1.0806589  -0.16672186  -0.16672186    1.4542626    1.0180253  -0.16672186    1.6209844   421400 
  472000    1.0800552  -0.16676613  -0.16676613    1.4533128    1.0186167  -0.16676613    1.6200789   421400 
  473000    1.0786584  -0.16637938  -0.16637938    1.4516043    1.0189253  -0.16637938    1.6179837   421400 
  474000    1.0788017  -0.16718124  -0.16718124    1.4510174    1.0171467  -0.16718124    1.6181987   421400 
  475000    1.0788381  -0.16717506  -0.16717506    1.4510782    1.0154863  -0.16717506    1.6182532   421400 
  476000    1.0771979  -0.16581977  -0.16581977    1.4499732    1.0203392  -0.16581977     1.615793   421400 
  477000    1.0783915  -0.16712056  -0.16712056    1.4504628    1.0163107  -0.16712056    1.6175834   421400 
  478000    1.0777246  -0.16666768  -0.16666768    1.4499154    1.0170886  -0.16666768    1.6165831   421400 
  479000    1.0786589  -0.16774661  -0.16774661    1.4502379    1.0148803  -0.16774661    1.6179845   421400 
  480000    1.0783586  -0.16704844  -0.16704844    1.4504856    1.0182732  -0.16704844    1.6175341   421400 
  481000    1.0760828  -0.16610846  -0.16610846    1.4480119    1.0191255  -0.16610846    1.6141204   421400 
  482000    1.0760084  -0.16692203  -0.16692203    1.4470867    1.0153634  -0.16692203    1.6140087   421400 
  483000    1.0755958  -0.16677536  -0.16677536    1.4466146     1.016309  -0.16677536    1.6133899   421400 
  484000    1.0750662  -0.16652831  -0.16652831    1.4460672    1.0152507  -0.16652831    1.6125955   421400 
  485000    1.0752649  -0.16751129  -0.16751129    1.4453822      1.01238  -0.16751129    1.6128935   421400 
  486000    1.0744609  -0.16720734  -0.16720734    1.4444802    1.0141464  -0.16720734    1.6116875   421400 
  487000    1.0743003  -0.16775894  -0.16775894    1.4436877    1.0134945  -0.16775894    1.6114466   421400 
  488000    1.0744572  -0.16830649  -0.16830649    1.4433754    1.0100978  -0.16830649    1.6116819   421400 
  489000    1.0717504  -0.16635421  -0.16635421    1.4412675    1.0132682  -0.16635421    1.6076217   421400 
  490000    1.0722713  -0.16738867  -0.16738867    1.4410145    1.0124541  -0.16738867    1.6084032   421400 
  491000    1.0725208  -0.16728264  -0.16728264    1.4414947    1.0128998  -0.16728264    1.6087773   421400 
  492000    1.0725503   -0.1676078   -0.1676078    1.4412138    1.0110018   -0.1676078    1.6088216   421400 
  493000    1.0709787  -0.16751252  -0.16751252    1.4389518    1.0109307  -0.16751252    1.6064643   421400 
  494000    1.0699516  -0.16662731  -0.16662731    1.4382963     1.013675  -0.16662731    1.6049236   421400 
  495000    1.0712788  -0.16882645  -0.16882645     1.438088    1.0081236  -0.16882645    1.6069144   421400 
  496000      1.06975  -0.16825217  -0.16825217    1.4363691    1.0077961  -0.16825217    1.6046212   421400 
  497000    1.0697447  -0.16794685  -0.16794685    1.4366664    1.0091091  -0.16794685    1.6046133   421400 
  498000    1.0689043  -0.16839501  -0.16839501    1.4349576     1.008547  -0.16839501    1.6033526   421400 
  499000      1.06898   -0.1678689   -0.1678689    1.4355973    1.0091917   -0.1678689    1.6034662   421400 
  500000    1.0673432  -0.16685702  -0.16685702     1.434154    1.0116037  -0.16685702    1.6010111   421400 
  501000    1.0675712  -0.16702943  -0.16702943    1.4343236    1.0097481  -0.16702943    1.6013531   421400 
  502000    1.0686883  -0.16876609  -0.16876609    1.4342625    1.0086305  -0.16876609    1.6030286   421400 
  503000    1.0684238  -0.16916323  -0.16916323    1.4334687    1.0060509  -0.16916323    1.6026319   421400 
  504000    1.0676936  -0.16931662  -0.16931662      1.43222    1.0079968  -0.16931662    1.6015366   421400 
  505000    1.0673805  -0.16907759  -0.16907759    1.4319893    1.0047809  -0.16907759    1.6010669   421400 
  506000    1.0667646  -0.16859778  -0.16859778    1.4315454    1.0056376  -0.16859778    1.6001432   421400 
  507000    1.0676427   -0.1700983   -0.1700983    1.4313619    1.0028184   -0.1700983    1.6014602   421400 
  508000    1.0663949  -0.16914391  -0.16914391    1.4304446     1.003884  -0.16914391    1.5995885   421400 
  509000    1.0649072    -0.168672    -0.168672     1.428685    1.0053729    -0.168672     1.597357   421400 
  510000    1.0654975  -0.16900455  -0.16900455    1.4292379    1.0037162  -0.16900455    1.5982425   421400 
  511000    1.0644276  -0.16901269  -0.16901269    1.4276249    1.0019999  -0.16901269    1.5966376   421400 
  512000    1.0634664  -0.16851237  -0.16851237    1.4266835    1.0052298  -0.16851237    1.5951959   421400 
  513000    1.0629972   -0.1676087   -0.1676087    1.4268833    1.0056844   -0.1676087     1.594492   421400 
  514000    1.0635768  -0.16995267  -0.16995267    1.4254087    1.0013047  -0.16995267    1.5953614   421400 
  515000     1.063766  -0.16970606  -0.16970606    1.4259391    1.0011913  -0.16970606    1.5956452   421400 
  516000      1.06351  -0.17004487  -0.17004487    1.4252163    1.0007231  -0.17004487    1.5952612   421400 
  517000    1.0624294  -0.16960378  -0.16960378    1.4240366    1.0000871  -0.16960378    1.5936404   421400 
  518000    1.0627692  -0.16979048  -0.16979048    1.4243595    1.0022745  -0.16979048      1.59415   421400 
  519000     1.062272  -0.16911337  -0.16911337    1.4242909    1.0034052  -0.16911337    1.5934043   421400 
  520000    1.0622547  -0.16982687  -0.16982687    1.4235514    1.0013252  -0.16982687    1.5933783   421400 
  521000    1.0604631  -0.16928905  -0.16928905    1.4214018    1.0008636  -0.16928905    1.5906908   421400 
  522000    1.0603074  -0.16978358  -0.16978358    1.4206737   0.99970406  -0.16978358    1.5904573   421400 
  523000    1.0601229   -0.1704832   -0.1704832    1.4196974   0.99935599   -0.1704832    1.5901806   421400 
  524000    1.0589043  -0.16912881  -0.16912881    1.4192239    1.0025351  -0.16912881    1.5883528   421400 
  525000    1.0584361  -0.16973521  -0.16973521    1.4179151   0.99821296  -0.16973521    1.5876503   421400 
  526000    1.0586194  -0.17015828  -0.17015828     1.417767   0.99921855  -0.17015828    1.5879253   421400 
  527000    1.0575349  -0.16923329  -0.16923329    1.4170652   0.99952467  -0.16923329    1.5862985   421400 
  528000    1.0576548  -0.16975272  -0.16975272    1.4167257   0.99678558  -0.16975272    1.5864784   421400 
  529000    1.0582919  -0.17120729  -0.17120729    1.4162268   0.99380879  -0.17120729    1.5874341   421400 
  530000    1.0575659  -0.17020088  -0.17020088    1.4161442    0.9960671  -0.17020088    1.5863451   421400 
  531000    1.0574643  -0.17038154  -0.17038154    1.4158112   0.99731293  -0.17038154    1.5861927   421400 
  532000    1.0566182  -0.16903751  -0.16903751     1.415886    1.0004699  -0.16903751    1.5849235   421400 
  533000    1.0566081  -0.16937322  -0.16937322    1.4155352   0.99969119  -0.16937322    1.5849084   421400 
  534000    1.0563437  -0.17006775  -0.17006775     1.414444   0.99715885  -0.17006775    1.5845117   421400 
  535000    1.0559209  -0.16956188  -0.16956188    1.4143157   0.99716316  -0.16956188    1.5838776   421400 
  536000    1.0562232  -0.17046067  -0.17046067    1.4138704   0.99465668  -0.17046067    1.5843311   421400 
  537000    1.0555082  -0.17056847  -0.17056847    1.4126901   0.99468304  -0.17056847    1.5832585   421400 
  538000    1.0542528  -0.16946427  -0.16946427    1.4119112   0.99651319  -0.16946427    1.5813755   421400 
  539000    1.0540857  -0.17027464  -0.17027464    1.4108501   0.99595839  -0.17027464    1.5811247   421400 
  540000    1.0542065  -0.17076675  -0.17076675    1.4105392   0.99487187  -0.17076675    1.5813059   421400 
  541000    1.0534571   -0.1713834   -0.1713834    1.4087985   0.99248034   -0.1713834    1.5801819   421400 
  542000    1.0530353  -0.17129985  -0.17129985    1.4082494   0.99088088  -0.17129985    1.5795493   421400 
  543000    1.0520766  -0.17057762  -0.17057762    1.4075336   0.99438878  -0.17057762    1.5781112   421400 
  544000    1.0521029  -0.17124373  -0.17124373    1.4069069   0.99144839  -0.17124373    1.5781506   421400 
  545000    1.0516385  -0.17112863  -0.17112863    1.4063253   0.99331115  -0.17112863     1.577454   421400 
  546000    1.0518717  -0.17238914  -0.17238914    1.4054147   0.98923542  -0.17238914    1.5778038   421400 
  547000    1.0504174  -0.17065612  -0.17065612    1.4049663   0.99281794  -0.17065612    1.5756224   421400 
  548000    1.0506341  -0.17131107  -0.17131107    1.4046363   0.99138097  -0.17131107    1.5759474   421400 
  549000    1.0508615  -0.17169606  -0.17169606    1.4045924   0.99019438  -0.17169606    1.5762885   421400 
  550000      1.05013  -0.17168514  -0.17168514    1.4035062   0.99034661  -0.17168514    1.5751913   421400 
  551000    1.0503947  -0.17170482  -0.17170482    1.4038835   0.98882768  -0.17170482    1.5755883   421400 
  552000    1.0500707  -0.17219998  -0.17219998    1.4029024   0.98893252  -0.17219998    1.5751023   421400 
  553000    1.0485227  -0.17110982  -0.17110982    1.4016704   0.98869418  -0.17110982    1.5727803   421400 
  554000    1.0480208  -0.17111194  -0.17111194    1.4009155   0.98936665  -0.17111194    1.5720275   421400 
  555000    1.0483189  -0.17246899  -0.17246899    1.4000056   0.98549688  -0.17246899    1.5724746   421400 
  556000    1.0472497  -0.17155784  -0.17155784    1.3993129   0.98919791  -0.17155784    1.5708708   421400 
  557000    1.0474159  -0.17242313  -0.17242313     1.398697   0.98728372  -0.17242313    1.5711202   421400 
  558000    1.0477637  -0.17252875  -0.17252875     1.399113   0.98565604  -0.17252875    1.5716417   421400 
  559000    1.0467826  -0.17208959  -0.17208959    1.3980806   0.98664949  -0.17208959    1.5701702   421400 
  560000    1.0461797  -0.17081063  -0.17081063    1.3984552   0.98926906  -0.17081063    1.5692658   421400 
  561000    1.0456718  -0.17129964  -0.17129964    1.3972044   0.99048074  -0.17129964     1.568504   421400 
  562000    1.0451955  -0.17137106  -0.17137106    1.3964185   0.98863884  -0.17137106    1.5677896   421400 
  563000    1.0459566  -0.17134057  -0.17134057    1.3975906   0.98847984  -0.17134057    1.5689311   421400 
  564000    1.0465283  -0.17268237  -0.17268237    1.3971064   0.98508798  -0.17268237    1.5697888   421400 
  565000      1.04525  -0.17210784  -0.17210784    1.3957634   0.98549477  -0.17210784    1.5678712   421400 
  566000    1.0454243  -0.17259322  -0.17259322    1.3955395   0.98521811  -0.17259322    1.5681327   421400 
  567000    1.0448304  -0.17265845  -0.17265845    1.3945834   0.98399258  -0.17265845    1.5672419   421400 
  568000    1.0427192  -0.17144007  -0.17144007     1.392635   0.98599311  -0.17144007    1.5640751   421400 
  569000    1.0435015  -0.17318713  -0.17318713    1.3920613   0.98078649  -0.17318713    1.5652485   421400 
  570000    1.0436089  -0.17369903  -0.17369903    1.3917107   0.97992319  -0.17369903    1.5654097   421400 
  571000    1.0426973  -0.17317564  -0.17317564    1.3908666   0.98112822  -0.17317564    1.5640423   421400 
  572000    1.0421578  -0.17224461  -0.17224461    1.3909883   0.98410967  -0.17224461     1.563233   421400 
  573000    1.0423562  -0.17250619  -0.17250619    1.3910243   0.98231755  -0.17250619    1.5635305   421400 
  574000    1.0416537  -0.17222658  -0.17222658    1.3902502   0.98504499  -0.17222658    1.5624768   421400 
  575000    1.0410006  -0.17251473  -0.17251473    1.3889825   0.98381255  -0.17251473    1.5614972   421400 
  576000    1.0407162  -0.17276819  -0.17276819    1.3883024   0.98142077  -0.17276819    1.5610706   421400 
  577000    1.0395398  -0.17121144  -0.17121144    1.3880946   0.98478282  -0.17121144    1.5593061   421400 
  578000    1.0410085   -0.1735337   -0.1735337    1.3879753   0.97960713   -0.1735337     1.561509   421400 
  579000    1.0400021  -0.17258549  -0.17258549    1.3874139   0.98164703  -0.17258549    1.5599994   421400 
  580000    1.0408886    -0.174486    -0.174486    1.3868433   0.97586713    -0.174486    1.5613293   421400 
  581000    1.0403639  -0.17365746  -0.17365746    1.3868847   0.97925854  -0.17365746    1.5605422   421400 
  582000    1.0401398    -0.173618    -0.173618    1.3865879   0.97869714    -0.173618    1.5602059   421400 
  583000     1.039594    -0.173326    -0.173326    1.3860614   0.97826583    -0.173326    1.5593874   421400 
  584000    1.0381616  -0.17158999  -0.17158999    1.3856487   0.98377058  -0.17158999    1.5572387   421400 
  585000     1.037785  -0.17107171  -0.17107171    1.3856021   0.98421044  -0.17107171    1.5566738   421400 
  586000    1.0381559  -0.17213276  -0.17213276    1.3850974   0.98192033  -0.17213276    1.5572301   421400 
  587000     1.038328  -0.17292187  -0.17292187    1.3845665   0.97703247  -0.17292187    1.5574883   421400 
  588000    1.0381632  -0.17360012  -0.17360012    1.3836409   0.97747671  -0.17360012     1.557241   421400 
  589000    1.0378836  -0.17443356  -0.17443356    1.3823882   0.97450078  -0.17443356    1.5568217   421400 
  590000    1.0361569  -0.17286204  -0.17286204    1.3813697   0.97974501  -0.17286204    1.5542317   421400 
  591000     1.036824  -0.17501269  -0.17501269    1.3802196   0.97202733  -0.17501269    1.5552323   421400 
  592000    1.0355468  -0.17272545  -0.17272545    1.3805911   0.97749778  -0.17272545    1.5533165   421400 
  593000    1.0357116  -0.17367409  -0.17367409    1.3798897   0.97545579  -0.17367409    1.5535638   421400 
  594000     1.035917  -0.17370303  -0.17370303    1.3801687   0.97577698  -0.17370303    1.5538718   421400 
  595000    1.0367641  -0.17501004  -0.17501004    1.3801325   0.97435892  -0.17501004    1.5551425   421400 
  596000    1.0355735  -0.17414795  -0.17414795    1.3792087   0.97622422  -0.17414795    1.5533566   421400 
  597000    1.0354407  -0.17448683  -0.17448683    1.3786706   0.97386275  -0.17448683    1.5531574   421400 
  598000    1.0351192  -0.17458923  -0.17458923    1.3780858   0.97369027  -0.17458923    1.5526751   421400 
  599000    1.0339333  -0.17334088  -0.17334088    1.3775553   0.97445441  -0.17334088    1.5508962   421400 
  600000    1.0333477  -0.17383397  -0.17383397     1.376184   0.97530464  -0.17383397    1.5500179   421400 
  601000    1.0331681  -0.17432025  -0.17432025    1.3754282   0.97166135  -0.17432025    1.5497485   421400 
  602000     1.032778  -0.17464165  -0.17464165    1.3745217   0.97301636  -0.17464165    1.5491633   421400 
  603000    1.0322032  -0.17400206  -0.17400206    1.3742991   0.97260693  -0.17400206    1.5483012   421400 
  604000    1.0319995  -0.17429684  -0.17429684    1.3736988   0.97230089  -0.17429684    1.5479956   421400 
  605000    1.0318934  -0.17546733  -0.17546733    1.3723691   0.96886623  -0.17546733    1.5478364   421400 
  606000    1.0312268  -0.17394558  -0.17394558     1.372891   0.97136664  -0.17394558    1.5468365   421400 
  607000    1.0322679  -0.17674563  -0.17674563    1.3716525   0.96649004  -0.17674563    1.5483982   421400 
  608000    1.0301559  -0.17393284  -0.17393284    1.3712973   0.97291156  -0.17393284    1.5452301   421400 
  609000    1.0298262   -0.1746931   -0.1746931    1.3700425   0.97036549   -0.1746931    1.5447356   421400 
  610000    1.0296048  -0.17338362  -0.17338362    1.3710199   0.97356598  -0.17338362    1.5444035   421400 
  611000    1.0305519  -0.17454458  -0.17454458    1.3712796   0.97013307  -0.17454458    1.5458242   421400 
  612000    1.0305212  -0.17477313  -0.17477313     1.371005   0.97017478  -0.17477313    1.5457781   421400 
  613000    1.0297796  -0.17500979  -0.17500979     1.369656   0.97010832  -0.17500979    1.5446657   421400 
  614000    1.0285365   -0.1746871   -0.1746871     1.368114   0.97079686   -0.1746871    1.5428011   421400 
  615000     1.028394  -0.17512171  -0.17512171    1.3674656   0.96731008  -0.17512171    1.5425874   421400 
  616000    1.0272005  -0.17387472  -0.17387472    1.3669224   0.97062653  -0.17387472    1.5407971   421400 
  617000     1.028102  -0.17560953  -0.17560953    1.3665398   0.96583685  -0.17560953    1.5421493   421400 
  618000    1.0274576  -0.17515613  -0.17515613    1.3660266   0.96726473  -0.17515613    1.5411827   421400 
  619000    1.0265016  -0.17454648  -0.17454648    1.3652022   0.96710204  -0.17454648    1.5397487   421400 
  620000    1.0259138  -0.17475702  -0.17475702      1.36411   0.96682952  -0.17475702    1.5388671   421400 
  621000    1.0264022  -0.17538512  -0.17538512    1.3642145   0.96683464  -0.17538512    1.5395997   421400 
  622000    1.0260655  -0.17569221  -0.17569221    1.3634025   0.96563774  -0.17569221    1.5390947   421400 
  623000    1.0250597  -0.17451006  -0.17451006    1.3630758   0.96836855  -0.17451006    1.5375859   421400 
  624000     1.024991  -0.17502735  -0.17502735    1.3624556   0.96705063  -0.17502735    1.5374829   421400 
  625000    1.0247649  -0.17480804  -0.17480804    1.3623357   0.96666343  -0.17480804    1.5371437   421400 
  626000     1.025585  -0.17572373  -0.17572373    1.3626501   0.96488871  -0.17572373    1.5383738   421400 
  627000    1.0248748  -0.17607155  -0.17607155     1.361237   0.96413451  -0.17607155    1.5373085   421400 
  628000    1.0247479  -0.17535962  -0.17535962    1.3617586   0.96561218  -0.17535962    1.5371182   421400 
  629000    1.0248607  -0.17691224  -0.17691224    1.3603751   0.96404353  -0.17691224    1.5372873   421400 
  630000    1.0234554  -0.17526383  -0.17526383    1.3599156   0.96580747  -0.17526383    1.5351794   421400 
  631000    1.0235439  -0.17553657  -0.17553657    1.3597756   0.96470263  -0.17553657    1.5353122   421400 
  632000    1.0221888  -0.17505299  -0.17505299    1.3582266   0.96600279  -0.17505299    1.5332796   421400 
  633000    1.0227526  -0.17644253  -0.17644253    1.3576827   0.96192237  -0.17644253    1.5341253   421400 
  634000     1.021581  -0.17533679  -0.17533679    1.3570311   0.96308721  -0.17533679    1.5323679   421400 
  635000    1.0229665  -0.17711523  -0.17711523    1.3573309   0.96015179  -0.17711523    1.5344461   421400 
  636000    1.0224596  -0.17694362  -0.17694362    1.3567422   0.96063928  -0.17694362    1.5336858   421400 
  637000    1.0211275  -0.17566726  -0.17566726    1.3560204   0.96313307  -0.17566726    1.5316876   421400 
  638000    1.0206418  -0.17539196  -0.17539196    1.3555671   0.96253283  -0.17539196    1.5309591   421400 
  639000    1.0212068  -0.17638501  -0.17638501    1.3554216   0.96071684  -0.17638501    1.5318066   421400 
  640000    1.0208408  -0.17652634  -0.17652634    1.3547313   0.95882146  -0.17652634    1.5312576   421400 
  641000    1.0197965  -0.17568056  -0.17568056    1.3540105   0.96234171  -0.17568056    1.5296911   421400 
  642000    1.0202987  -0.17671697  -0.17671697    1.3537275   0.96070531  -0.17671697    1.5304444   421400 
  643000    1.0198802  -0.17721068  -0.17721068    1.3526059   0.95830064  -0.17721068    1.5298166   421400 
  644000    1.0182511  -0.17559761  -0.17559761    1.3517754   0.96111078  -0.17559761    1.5273731   421400 
  645000    1.0183139  -0.17619484  -0.17619484    1.3512723   0.96058068  -0.17619484    1.5274672   421400 
  646000    1.0182973  -0.17658058  -0.17658058    1.3508617    0.9582316  -0.17658058    1.5274423   421400 
  647000    1.0183018  -0.17650685  -0.17650685    1.3509423   0.95832927  -0.17650685    1.5274491   421400 
  648000    1.0182524  -0.17616148  -0.17616148    1.3512135   0.95896892  -0.17616148     1.527375   421400 
  649000    1.0179724  -0.17605115  -0.17605115    1.3509038   0.96176982  -0.17605115     1.526955   421400 
  650000    1.0171272  -0.17626053  -0.17626053    1.3494266   0.95990849  -0.17626053    1.5256871   421400 
  651000    1.0169841   -0.1762901   -0.1762901    1.3491824   0.95984261   -0.1762901    1.5254725   421400 
  652000     1.016808  -0.17731634  -0.17731634    1.3478921   0.95728045  -0.17731634    1.5252084   421400 
  653000    1.0172837  -0.17814964  -0.17814964    1.3477723   0.95376502  -0.17814964    1.5259219   421400 
  654000    1.0162033  -0.17811264  -0.17811264    1.3461886   0.95431641  -0.17811264    1.5243013   421400 
  655000      1.01554  -0.17620791  -0.17620791    1.3470985   0.95777321  -0.17620791    1.5233064   421400 
  656000    1.0160202  -0.17779383  -0.17779383    1.3462328   0.95481212  -0.17779383    1.5240267   421400 
  657000    1.0150005  -0.17690491  -0.17690491    1.3455922     0.955565  -0.17690491    1.5224971   421400 
  658000    1.0150251  -0.17749998  -0.17749998     1.345034    0.9552224  -0.17749998     1.522534   421400 
  659000    1.0145167  -0.17688471  -0.17688471    1.3448868   0.95587384  -0.17688471    1.5217715   421400 
  660000    1.0149476  -0.17769475  -0.17769475    1.3447231   0.95430711  -0.17769475    1.5224179   421400 
  661000    1.0139748  -0.17656578  -0.17656578    1.3443928   0.95614127  -0.17656578    1.5209586   421400 
  662000    1.0138061  -0.17642395  -0.17642395    1.3442816   0.95727156  -0.17642395    1.5207056   421400 
  663000    1.0141213  -0.17750235  -0.17750235     1.343676   0.95505917  -0.17750235    1.5211784   421400 
  664000    1.0131706  -0.17617798  -0.17617798    1.3435743    0.9564837  -0.17617798    1.5197522   421400 
  665000     1.012786  -0.17699617  -0.17699617    1.3421793    0.9546836  -0.17699617    1.5191754   421400 
  666000    1.0129885  -0.17741123  -0.17741123    1.3420679   0.95448192  -0.17741123    1.5194791   421400 
  667000     1.013528  -0.17870014  -0.17870014    1.3415883    0.9491246  -0.17870014    1.5202884   421400 
  668000    1.0119294  -0.17693174  -0.17693174    1.3409587   0.95494204  -0.17693174    1.5178905   421400 
  669000    1.0125118  -0.17766039  -0.17766039    1.3411037   0.95227422  -0.17766039    1.5187641   421400 
  670000    1.0118175  -0.17745648  -0.17745648    1.3402661   0.95350674  -0.17745648    1.5177226   421400 
  671000    1.0113647  -0.17756422  -0.17756422    1.3394793   0.95216955  -0.17756422    1.5170435   421400 
  672000    1.0111717  -0.17824339  -0.17824339    1.3385106    0.9505433  -0.17824339     1.516754   421400 
  673000    1.0116333  -0.17820554  -0.17820554    1.3392408   0.95109791  -0.17820554    1.5174463   421400 
  674000    1.0103918  -0.17635042  -0.17635042    1.3392337   0.95579591  -0.17635042    1.5155841   421400 
  675000    1.0111776  -0.17803411  -0.17803411    1.3387287   0.95092773  -0.17803411    1.5167628   421400 
  676000    1.0096389  -0.17702403  -0.17702403    1.3374307   0.95336947  -0.17702403    1.5144547   421400 
  677000    1.0089125  -0.17735919  -0.17735919     1.336006   0.95140878  -0.17735919    1.5133652   421400 
  678000     1.009377   -0.1783506   -0.1783506    1.3357113      0.95174   -0.1783506    1.5140619   421400 
  679000    1.0086108  -0.17855445  -0.17855445    1.3343582   0.94882991  -0.17855445    1.5129126   421400 
  680000    1.0078813  -0.17785435  -0.17785435    1.3339641   0.95141236  -0.17785435    1.5118184   421400 
  681000    1.0073939  -0.17843342  -0.17843342    1.3326539    0.9491637  -0.17843342    1.5110873   421400 
  682000    1.0066028  -0.17742373  -0.17742373    1.3324769   0.95262575  -0.17742373    1.5099006   421400 
[...]
23831000            0            0            0            0            0            0            0        0 
23832000            0            0            0            0            0            0            0        0 
23833000            0            0            0            0            0            0            0        0 
23834000            0            0            0            0            0            0            0        0 
23835000            0            0            0            0            0            0            0        0 
23836000            0            0            0            0            0            0            0        0 
23837000            0            0            0            0            0            0            0        0 
23838000            0            0            0            0            0            0            0        0 
23839000            0            0            0            0            0            0            0        0 
23840000            0            0            0            0            0            0            0        0 
23841000            0            0            0            0            0            0            0        0 
23842000            0            0            0            0            0            0            0        0 
23843000            0            0            0            0            0            0            0        0 
23844000            0            0            0            0            0            0            0        0 
23845000            0            0            0            0            0            0            0        0 
23846000            0            0            0            0            0            0            0        0 
23847000            0            0            0            0            0            0            0        0 
23848000            0            0            0            0            0            0            0        0 
23849000            0            0            0            0            0            0            0        0 
23850000            0            0            0            0            0            0            0        0 
23851000            0            0            0            0            0            0            0        0 
23852000            0            0            0            0            0            0            0        0 
23853000            0            0            0            0            0            0            0        0 
23854000            0            0            0            0            0            0            0        0 
23855000            0            0            0            0            0            0            0        0 
23856000            0            0            0            0            0            0            0        0 
23857000            0            0            0            0            0            0            0        0 
23858000            0            0            0            0            0            0            0        0 
23859000            0            0            0            0            0            0            0        0 
23860000            0            0            0            0            0            0            0        0 
23861000            0            0            0            0            0            0            0        0 
23862000            0            0            0            0            0            0            0        0 
23863000            0            0            0            0            0            0            0        0 
23864000            0            0            0            0            0            0            0        0 
23865000            0            0            0            0            0            0            0        0 
23866000            0            0            0            0            0            0            0        0 
23867000            0            0            0            0            0            0            0        0 
23868000            0            0            0            0            0            0            0        0 
23869000            0            0            0            0            0            0            0        0 
23870000            0            0            0            0            0            0            0        0 
23871000            0            0            0            0            0            0            0        0 
23872000            0            0            0            0            0            0            0        0 
23873000            0            0            0            0            0            0            0        0 
23874000            0            0            0            0            0            0            0        0 
23875000            0            0            0            0            0            0            0        0 
23876000            0            0            0            0            0            0            0        0 
23877000            0            0            0            0            0            0            0        0 
23878000            0            0            0            0            0            0            0        0 
23879000            0            0            0            0            0            0            0        0 
23880000            0            0            0            0            0            0            0        0 
23881000            0            0            0            0            0            0            0        0 
23882000            0            0            0            0            0            0            0        0 
23883000            0            0            0            0            0            0            0        0 
23884000            0            0            0            0            0            0            0        0 
23885000            0            0            0            0            0            0            0        0 
23886000            0            0            0            0            0            0            0        0 
23887000            0            0            0            0            0            0            0        0 
23888000            0            0            0            0            0            0            0        0 
23889000            0            0            0            0            0            0            0        0 
23890000            0            0            0            0            0            0            0        0 
23891000            0            0            0            0            0            0            0        0 
23892000            0            0            0            0            0            0            0        0 
23893000            0            0            0            0            0            0            0        0 
23894000            0            0            0            0            0            0            0        0 
23895000            0            0            0            0            0            0            0        0 
23896000            0            0            0            0            0            0            0        0 
23897000            0            0            0            0            0            0            0        0 
23898000            0            0            0            0            0            0            0        0 
23899000            0            0            0            0            0            0            0        0 
23900000            0            0            0            0            0            0            0        0 
23901000            0            0            0            0            0            0            0        0 
23902000            0            0            0            0            0            0            0        0 
23903000            0            0            0            0            0            0            0        0 
23904000            0            0            0            0            0            0            0        0 
23905000            0            0            0            0            0            0            0        0 
23906000            0            0            0            0            0            0            0        0 
23907000            0            0            0            0            0            0            0        0 
23908000            0            0            0            0            0            0            0        0 
23909000            0            0            0            0            0            0            0        0 
23910000            0            0            0            0            0            0            0        0 
23911000            0            0            0            0            0            0            0        0 
23912000            0            0            0            0            0            0            0        0 
23913000            0            0            0            0            0            0            0        0 
23914000            0            0            0            0            0            0            0        0 
23915000            0            0            0            0            0            0            0        0 
23916000            0            0            0            0            0            0            0        0 
23917000            0            0            0            0            0            0            0        0 
23918000            0            0            0            0            0            0            0        0 
23919000            0            0            0            0            0            0            0        0 
23920000            0            0            0            0            0            0            0        0 
23921000            0            0            0            0            0            0            0        0 
23922000            0            0            0            0            0            0            0        0 
23923000            0            0            0            0            0            0            0        0 
23924000            0            0            0            0            0            0            0        0 
23925000            0            0            0            0            0            0            0        0 
23926000            0            0            0            0            0            0            0        0 
23927000            0            0            0            0            0            0            0        0 
23928000            0            0            0            0            0            0            0        0 
23929000            0            0            0            0            0            0            0        0 
23930000            0            0            0            0            0            0            0        0 
23931000            0            0            0            0            0            0            0        0 
23932000            0            0            0            0            0            0            0        0 
23933000            0            0            0            0            0            0            0        0 
23934000            0            0            0            0            0            0            0        0 
23935000            0            0            0            0            0            0            0        0 
23936000            0            0            0            0            0            0            0        0 
23937000            0            0            0            0            0            0            0        0 
23938000            0            0            0            0            0            0            0        0 
23939000            0            0            0            0            0            0            0        0 
23940000            0            0            0            0            0            0            0        0 
23941000            0            0            0            0            0            0            0        0 
23942000            0            0            0            0            0            0            0        0 
23943000            0            0            0            0            0            0            0        0 
23944000            0            0            0            0            0            0            0        0 
23945000            0            0            0            0            0            0            0        0 
23946000            0            0            0            0            0            0            0        0 
23947000            0            0            0            0            0            0            0        0 
23948000            0            0            0            0            0            0            0        0 
23949000            0            0            0            0            0            0            0        0 
23950000            0            0            0            0            0            0            0        0 
23951000            0            0            0            0            0            0            0        0 
23952000            0            0            0            0            0            0            0        0 
23953000            0            0            0            0            0            0            0        0 
23954000            0            0            0            0            0            0            0        0 
23955000            0            0            0            0            0            0            0        0 
23956000            0            0            0            0            0            0            0        0 
23957000            0            0            0            0            0            0            0        0 
23958000            0            0            0            0            0            0            0        0 
23959000            0            0            0            0            0            0            0        0 
23960000            0            0            0            0            0            0            0        0 
23961000            0            0            0            0            0            0            0        0 
23962000            0            0            0            0            0            0            0        0 
23963000            0            0            0            0            0            0            0        0 
23964000            0            0            0            0            0            0            0        0 
23965000            0            0            0            0            0            0            0        0 
23966000            0            0            0            0            0            0            0        0 
23967000            0            0            0            0            0            0            0        0 
23968000            0            0            0            0            0            0            0        0 
23969000            0            0            0            0            0            0            0        0 
23970000            0            0            0            0            0            0            0        0 
23971000            0            0            0            0            0            0            0        0 
23972000            0            0            0            0            0            0            0        0 
23973000            0            0            0            0            0            0            0        0 
23974000            0            0            0            0            0            0            0        0 
23975000            0            0            0            0            0            0            0        0 
23976000            0            0            0            0            0            0            0        0 
23977000            0            0            0            0            0            0            0        0 
23978000            0            0            0            0            0            0            0        0 
23979000            0            0            0            0            0            0            0        0 
23980000            0            0            0            0            0            0            0        0 
23981000            0            0            0            0            0            0            0        0 
23982000            0            0            0            0            0            0            0        0 
23983000            0            0            0            0            0            0            0        0 
23984000            0            0            0            0            0            0            0        0 
23985000            0            0            0            0            0            0            0        0 
23986000            0            0            0            0            0            0            0        0 
23987000            0            0            0            0            0            0            0        0 
23988000            0            0            0            0            0            0            0        0 
23989000            0            0            0            0            0            0            0        0 
23990000            0            0            0            0            0            0            0        0 
23991000            0            0            0            0            0            0            0        0 
23992000            0            0            0            0            0            0            0        0 
23993000            0            0            0            0            0            0            0        0 
23994000            0            0            0            0            0            0            0        0 
23995000            0            0            0            0            0            0            0        0 
23996000            0            0            0            0            0            0            0        0 
23997000            0            0            0            0            0            0            0        0 
23998000            0            0            0            0            0            0            0        0 
23999000            0            0            0            0            0            0            0        0 
24000000            0            0            0            0            0            0            0        0 
Loop time of 5606.09 on 192 procs for 20000000 steps with 0 atoms

Performance: 1541180.406 tau/day, 3567.547 timesteps/s
80.3% CPU use with 192 MPI tasks x 1 OpenMP threads

MPI task timing breakdown:
Section |  min time  |  avg time  |  max time  |%varavg|  %CPU | %total
-----------------------------------------------------------------------
Pair    | 757.32     | 887.72     | 1043       | 226.9 |  86.1 | 15.83
Bond    | 12.164     | 12.811     | 13.445     |   7.2 |  84.6 |  0.23
Neigh   | 751.83     | 850.35     | 951.55     | 172.6 |  89.9 | 15.17
Comm    | 1164.7     | 1851.5     | 2049.3     | 557.6 |  82.2 | 33.03
Output  | 1084.4     | 1088.4     | 1088.4     |   0.9 |  64.9 | 19.41
Modify  | 451.96     | 581.23     | 1180.2     | 871.8 |  82.7 | 10.37
Other   |            | 334.1      |            |       |       |  5.96

Nlocal:         0.00000 ave           0 max           0 min
Histogram: 192 0 0 0 0 0 0 0 0 0
Nghost:         0.00000 ave           0 max           0 min
Histogram: 192 0 0 0 0 0 0 0 0 0
Neighs:         0.00000 ave           0 max           0 min
Histogram: 192 0 0 0 0 0 0 0 0 0

Total # of neighbors = 0
Neighbor list builds = 1881330
Dangerous builds = 1205045
Total wall time: 2:17:28
