LAMMPS (24 Dec 2020)
OMP_NUM_THREADS environment is not set. Defaulting to 1 thread. (src/comm.cpp:94)
  using 1 OpenMP thread(s) per MPI task
#Read the equilibrated lj fluid and add nanocubes

units           lj
atom_style      full
atom_modify     map array first cubes
dimension       3
boundary        p p f
pair_style      lj/cut/opt 2.5

variable        sigma           equal 1.0
variable        epsilon         equal 1.0
read_restart	restart.dat.10000000
Reading restart file ...
  restart file = 24 Dec 2020, LAMMPS = 24 Dec 2020
WARNING: Restart file used different # of processors: 288 vs. 768 (src/read_restart.cpp:697)
  restoring atom style full from restart
  orthogonal box = (0.0000000 0.0000000 0.0000000) to (120.00000 120.00000 240.00000)
  6 by 8 by 16 MPI processor grid
  restoring pair style lj/cut/opt from restart
  1553347 atoms
Finding 1-2 1-3 1-4 neighbors ...
  special bond factors lj:    0        0        0       
  special bond factors coul:  0        0        0       
     0 = max # of 1-2 neighbors
     0 = max # of 1-3 neighbors
     0 = max # of 1-4 neighbors
     1 = max # of special neighbors
  special bonds CPU = 9.093 seconds
  read_restart CPU = 10.352 seconds

group		solvent type 1
1553347 atoms in group solvent

read_data	data2_450.cubes group cubes add append
Reading data file ...
  orthogonal box = (0.0000000 0.0000000 0.0000000) to (120.00000 120.00000 240.00000)
  6 by 8 by 16 MPI processor grid
  reading atoms ...
  560070 atoms
  reading velocities ...
  560070 velocities
Finding 1-2 1-3 1-4 neighbors ...
  special bond factors lj:    0        0        0       
  special bond factors coul:  0        0        0       
     0 = max # of 1-2 neighbors
     0 = max # of 1-3 neighbors
     0 = max # of 1-4 neighbors
     1 = max # of special neighbors
  special bonds CPU = 0.384 seconds
  read_data CPU = 3.878 seconds

group 		hull  type 2
218540 atoms in group hull
group 		dummy type 3
341530 atoms in group dummy

neighbor      0.4 bin
neigh_modify  exclude molecule/intra cubes


pair_modify   shift yes

pair_coeff    1 1 1.0 1.0 #solvent
pair_coeff    2 2 1.0 1.0 1.12 #np
pair_coeff    3 3 0.0 0.0 0.0 #dummy
pair_coeff    2 3 0.0 0.0 0.0 #np dummy
pair_coeff    1 2 ${sol} 1.0  #np solvent
pair_coeff    1 2 .75 1.0  
pair_coeff    1 3 0.0 0.0 2.5 #dummy solvent

# delete solvent where the cubes are
delete_atoms  overlap 1.0 solvent cubes
System init for delete_atoms ...
Unused restart file peratom fix info:
  fix style: STORE, fix ID: bin1_COMPUTE_STORE
Neighbor list info ...
  update every 1 steps, delay 10 steps, check yes
  max neighbors/atom: 2000, page size: 100000
  master list distance cutoff = 2.9
  ghost atom cutoff = 2.9
  binsize = 1.45, bins = 83 83 166
  2 neighbor lists, perpetual/occasional/extra = 1 1 0
  (1) command delete_atoms, occasional
      attributes: full, newton on
      pair build: full/bin
      stencil: full/bin/3d
      bin: standard
  (2) pair lj/cut/opt, perpetual
      attributes: half, newton on
      pair build: half/bin/newton
      stencil: half/bin/3d/newton
      bin: standard
WARNING: Delete_atoms cutoff > minimum neighbor cutoff (src/delete_atoms.cpp:307)
WARNING: Ignoring 'compress yes' for molecular system (src/delete_atoms.cpp:125)
Deleted 399208 atoms, new total = 1714209

pair_coeff    1 1 1.0 1.0 #solvent
pair_coeff    2 2 1.0 1.0 1.12 #np
pair_coeff    3 3 0.0 0.0 0.0 #dummy
pair_coeff    2 3 0.0 0.0 0.0 #np dummy
pair_coeff    1 2 ${sol} 1.0  #np solvent
pair_coeff    1 2 .75 1.0  
pair_coeff    1 3 0.0 0.0 0.0 #dummy solvent


comm_modify   mode multi cutoff/multi 1 2.5 cutoff/multi 2 2.5 cutoff/multi 3 6.96

reset_timestep 	0

balance 	1.05 shift z 10 1.05
Balancing ...
Neighbor list info ...
  update every 1 steps, delay 10 steps, check yes
  max neighbors/atom: 2000, page size: 100000
  master list distance cutoff = 2.9
  ghost atom cutoff = 6.96
  binsize = 1.45, bins = 83 83 166
  1 neighbor lists, perpetual/occasional/extra = 1 0 0
  (1) pair lj/cut/opt, perpetual
      attributes: half, newton on
      pair build: half/bin/newton
      stencil: half/bin/3d/newton
      bin: standard
 rebalancing time: 0.014 seconds
  iteration count = 4
  initial/final maximal load/proc = 3285.0000 3272.0000
  initial/final imbalance factor  = 1.4717459 1.4659216
  x cuts: 0.0000000 0.16666667 0.33333333 0.50000000 0.66666667 0.83333333 1.0000000
  y cuts: 0.0000000 0.12500000 0.25000000 0.37500000 0.50000000 0.62500000 0.75000000 0.87500000 1.0000000
  z cuts: 0.0000000 0.050781250 0.097656250 0.14453125 0.19140625 0.24218750 0.28906250 0.33593750 0.38281250 0.43359375 0.47265625 0.53515625 0.57421875 0.63671875 0.67187500 0.73437500 1.0000000

####################### WALLS ###########################

variable       epsilonWall equal 2*${epsilon}
variable       epsilonWall equal 2*1
variable       repulsive   equal   0.7147*${sigma}
variable       repulsive   equal   0.7147*1
variable       full	   equal   3*${sigma}
variable       full	   equal   3*1
region         lowWall block EDGE EDGE EDGE EDGE EDGE 2

fix            topWall all wall/lj93 zhi EDGE 	       ${epsilonWall} ${sigma} ${repulsive} units box
fix            topWall all wall/lj93 zhi EDGE 	       2 ${sigma} ${repulsive} units box
fix            topWall all wall/lj93 zhi EDGE 	       2 1 ${repulsive} units box
fix            topWall all wall/lj93 zhi EDGE 	       2 1 0.7147 units box
fix            lowSol solvent wall/lj93 zlo EDGE                ${epsilonWall} ${sigma} ${full} units box
fix            lowSol solvent wall/lj93 zlo EDGE                2 ${sigma} ${full} units box
fix            lowSol solvent wall/lj93 zlo EDGE                2 1 ${full} units box
fix            lowSol solvent wall/lj93 zlo EDGE                2 1 3 units box
fix 	       lowCub cubes wall/lj93 zlo EDGE                ${epsilonWall} ${sigma} ${repulsive} units box
fix 	       lowCub cubes wall/lj93 zlo EDGE                2 ${sigma} ${repulsive} units box
fix 	       lowCub cubes wall/lj93 zlo EDGE                2 1 ${repulsive} units box
fix 	       lowCub cubes wall/lj93 zlo EDGE                2 1 0.7147 units box


###################### COMPUTES ##########################

compute        bin1 solvent chunk/atom bin/1d z lower 1.0 units box
compute        bin3 solvent chunk/atom bin/3d x lower 5.0 y lower 5.0 z lower 5.0 units box

compute 	pe solvent 	   pe/atom
compute 	pe2 all 	   pe/atom

######################  FIXES ############################


fix             peclet solvent ave/chunk 10 10 100000 bin1 density/number norm                  none ave one file density.profile

fix              temp solvent ave/chunk 10 10 100000 bin1 temp norm                  none ave one file temp.profile

fix 		 dens solvent ave/chunk 10 10 500000 bin3 density/number norm 		 none ave one file dens3.profile

fix 		pe solvent ave/chunk 1 1 500000 bin3 c_pe norm none ave one file pe3.profile
fix             1 cubes rigid/nve/small molecule
  create bodies CPU = 0.043 seconds
  490 rigid bodies with 560070 atoms
  6.9554839 = max distance from body owner to body atom

fix             2 solvent nve# temp ${temp} ${temp} 10


## Thermostat
region          regthermo block EDGE EDGE EDGE EDGE 0 15
group           thermo dynamic solvent region regthermo every 1000
dynamic group thermo defined
fix             3 thermo langevin ${temp} ${temp} 10 156453
fix             3 thermo langevin 1.0 ${temp} 10 156453
fix             3 thermo langevin 1.0 1.0 10 156453


#### Load balancing

fix             bal all balance 1000 1.05 shift z 10 1.05

############### Diagnostics and computes ###################


compute        	com cubes          rigid/local   1 mol x y z
compute        	quat cubes         rigid/local   1 mol quatw quati quatj quatk

compute 	cc2 cubes 	   chunk/atom 	 molecule
compute 	msd cubes 	   msd/chunk 	 cc2

fix 		msd all ave/time  1 1 10000 c_msd[*] file dump.msd ave one mode vector

dump            1 all custom 500000 dump.lammpstrj id mol type x y z vx vy vz c_pe2
dump		sol  solvent custom 500000 dump.soltrj id x y z vx vy vz c_pe
dump		cubetrj cubes custom 500000 cubes.lammpstrj id mol type x y z vx vy vz
#dump            com cubes local 100000 dump.*.xyz c_com[*]
#dump	        xyz hull xyz 100000 cubes.xyz
#dump            quat cubes      local 100000 dump.*.quat c_quat[*]
dump		order cubes 	local 500000 dump.*.order c_com[*] c_quat[*]
#dump		mol cubes molfile 10000 mol.xyz xyz


dump            2 all image 500000 image.*.png type type zoom 1.5 size 1280 720
dump_modify     2 pad 8
dump		image cubes image 500000 image_cubes.*.png type type zoom 1.5 size 1280 720
dump_modify	image pad 8
dump            3 all movie 10000 movie.avi type type zoom 1.5 size 1280 720
dump		4 cubes movie 10000 movie_cubes.avi type type size 1280 720


thermo          1000
thermo_style    custom step temp epair evdwl etotal press pe ke atoms

restart         1000000 restart.dat
timestep        0.005
timer           full
New timer settings: style=full  mode=nosync  timeout=off

run 		10000000
Per MPI rank memory allocation (min/avg/max) = 15.66 | 21.45 | 23.39 Mbytes
Step Temp E_pair E_vdwl TotEng Press PotEng KinEng Atoms 
       0    1.0088699   -2.1507702   -2.1507702   -1.1310313  -0.13644231   -2.1507702    1.0197389  1714209 
    1000    1.0142607   -2.1573104   -2.1573104   -1.1321226  0.055923175   -2.1573104    1.0251878  1714209 
    2000    1.0141971   -2.1574355   -2.1574355   -1.1323119  0.061896161   -2.1574355    1.0251235  1714209 
    3000    1.0144107   -2.1579082   -2.1579082   -1.1325687  0.060133237   -2.1579082    1.0253395  1714209 
    4000    1.0142334   -2.1582282   -2.1582282   -1.1330679    0.0645577   -2.1582282    1.0251602  1714209 
    5000    1.0146866   -2.1591653   -2.1591653    -1.133547  0.058954137   -2.1591653    1.0256183  1714209 
    6000    1.0138187   -2.1583719   -2.1583719   -1.1336308  0.064031265   -2.1583719     1.024741  1714209 
    7000    1.0141946   -2.1593346   -2.1593346   -1.1342136  0.061912931   -2.1593346     1.025121  1714209 
    8000    1.0137104   -2.1592675   -2.1592675    -1.134636  0.057825114   -2.1592675    1.0246316  1714209 
    9000    1.0131525   -2.1596868   -2.1596868   -1.1356192  0.055899629   -2.1596868    1.0240677  1714209 
   10000    1.0127784   -2.1591562   -2.1591562   -1.1354666  0.058337307   -2.1591562    1.0236896  1714209 
   11000    1.0130437   -2.1594189   -2.1594189   -1.1354613   0.05801164   -2.1594189    1.0239577  1714209 
   12000    1.0131371   -2.1596556   -2.1596556   -1.1356034  0.059368746   -2.1596556    1.0240522  1714209 
   13000    1.0131871   -2.1599374   -2.1599374   -1.1358347  0.061675453   -2.1599374    1.0241027  1714209 
   14000     1.012831   -2.1602524   -2.1602524   -1.1365097  0.059667739   -2.1602524    1.0237427  1714209 
   15000    1.0123807   -2.1602402   -2.1602402   -1.1369526  0.060482225   -2.1602402    1.0232875  1714209 
   16000    1.0122617   -2.1604606   -2.1604606   -1.1372933  0.055334508   -2.1604606    1.0231673  1714209 
   17000     1.012647    -2.161642    -2.161642   -1.1380852  0.051781227    -2.161642    1.0235568  1714209 
   18000    1.0122545   -2.1615805   -2.1615805   -1.1384206  0.057679909   -2.1615805      1.02316  1714209 
   19000    1.0126999   -2.1622273   -2.1622273   -1.1386171  0.057314355   -2.1622273    1.0236102  1714209 
   20000    1.0125535   -2.1624211   -2.1624211   -1.1389589  0.061763468   -2.1624211    1.0234622  1714209 
   21000     1.013227    -2.163545    -2.163545    -1.139402  0.063470394    -2.163545     1.024143  1714209 
   22000    1.0145533   -2.1646578   -2.1646578   -1.1391743  0.058707907   -2.1646578    1.0254835  1714209 
   23000    1.0142778   -2.1649189   -2.1649189   -1.1397138  0.063335541   -2.1649189    1.0252051  1714209 
   24000    1.0142465   -2.1651422   -2.1651422   -1.1399687  0.059293631   -2.1651422    1.0251735  1714209 
   25000    1.0144217   -2.1654662   -2.1654662   -1.1401156  0.057700474   -2.1654662    1.0253505  1714209 
   26000    1.0148604   -2.1661593   -2.1661593   -1.1403653  0.061235131   -2.1661593     1.025794  1714209 
   27000    1.0155678   -2.1668858   -2.1668858   -1.1403769  0.066029533   -2.1668858     1.026509  1714209 
   28000    1.0153997   -2.1672318   -2.1672318   -1.1408927  0.061334767   -2.1672318    1.0263391  1714209 
   29000    1.0157048   -2.1677089   -2.1677089   -1.1410614  0.061984318   -2.1677089    1.0266475  1714209 
   30000     1.015465    -2.167622    -2.167622   -1.1412169   0.06588001    -2.167622    1.0264051  1714209 
   31000    1.0167543   -2.1688732   -2.1688732   -1.1411648  0.066210754   -2.1688732    1.0277083  1714209 
   32000    1.0163705   -2.1683473   -2.1683473   -1.1410269  0.070176081   -2.1683473    1.0273203  1714209 
   33000     1.015486   -2.1676879   -2.1676879   -1.1412616  0.065653369   -2.1676879    1.0264263  1714209 
   34000    1.0150498   -2.1680167   -2.1680167   -1.1420312   0.07059039   -2.1680167    1.0259854  1714209 
   35000    1.0152729   -2.1683479   -2.1683479    -1.142137  0.065405733   -2.1683479     1.026211  1714209 
   36000    1.0156802   -2.1693364   -2.1693364   -1.1427138  0.066769312   -2.1693364    1.0266226  1714209 
   37000     1.015357   -2.1691797   -2.1691797   -1.1428837   0.06345984   -2.1691797     1.026296  1714209 
   38000    1.0155333   -2.1697684   -2.1697684   -1.1432944  0.061536456   -2.1697684    1.0264741  1714209 
   39000    1.0166004    -2.171264    -2.171264   -1.1437113  0.062954876    -2.171264    1.0275527  1714209 
   40000    1.0162049   -2.1710583   -2.1710583   -1.1439054  0.063096544   -2.1710583    1.0271529  1714209 
   41000    1.0150094   -2.1702221   -2.1702221   -1.1442775  0.066240158   -2.1702221    1.0259446  1714209 
   42000    1.0147153   -2.1700214   -2.1700214   -1.1443741  0.062620746   -2.1700214    1.0256473  1714209 
   43000    1.0161075    -2.171557    -2.171557   -1.1445025  0.061294395    -2.171557    1.0270545  1714209 
   44000    1.0153663   -2.1707123   -2.1707123    -1.144407  0.065020935   -2.1707123    1.0263053  1714209 
   45000    1.0151792   -2.1707482   -2.1707482    -1.144632  0.064773755   -2.1707482    1.0261162  1714209 
   46000    1.0153093   -2.1713651   -2.1713651   -1.1451173   0.06444053   -2.1713651    1.0262478  1714209 
   47000    1.0151216   -2.1710019   -2.1710019   -1.1449439  0.065968425   -2.1710019     1.026058  1714209 
   48000    1.0150841   -2.1710145   -2.1710145   -1.1449944  0.065490945   -2.1710145    1.0260201  1714209 
   49000    1.0153103   -2.1711472   -2.1711472   -1.1448985  0.067350602   -2.1711472    1.0262487  1714209 
   50000    1.0148639   -2.1712211   -2.1712211   -1.1454236  0.060244427   -2.1712211    1.0257975  1714209 
   51000    1.0143638   -2.1707004   -2.1707004   -1.1454084  0.064154404   -2.1707004    1.0252921  1714209 
   52000    1.0143557   -2.1707876   -2.1707876   -1.1455037  0.062418027   -2.1707876    1.0252839  1714209 
   53000    1.0142597   -2.1708841   -2.1708841   -1.1456973  0.068165883   -2.1708841    1.0251868  1714209 
   54000    1.0141585    -2.171337    -2.171337   -1.1462524  0.062542861    -2.171337    1.0250846  1714209 
   55000    1.0141174   -2.1715187   -2.1715187   -1.1464757   0.06847017   -2.1715187     1.025043  1714209 
   56000    1.0142938   -2.1717066   -2.1717066   -1.1464854  0.061032243   -2.1717066    1.0252213  1714209 
   57000    1.0126735   -2.1703969   -2.1703969   -1.1468134  0.066566574   -2.1703969    1.0235835  1714209 
   58000    1.0137389   -2.1710719   -2.1710719   -1.1464115    0.0611793   -2.1710719    1.0246604  1714209 
   59000    1.0131318   -2.1703997   -2.1703997   -1.1463529  0.062772572   -2.1703997    1.0240468  1714209 
   60000     1.013327   -2.1703653   -2.1703653   -1.1461213  0.057972516   -2.1703653     1.024244  1714209 
   61000    1.0133361   -2.1698315   -2.1698315   -1.1455782   0.06193905   -2.1698315    1.0242533  1714209 
   62000    1.0135667   -2.1700581   -2.1700581   -1.1455718  0.067223579   -2.1700581    1.0244863  1714209 
   63000    1.0131292   -2.1699337   -2.1699337   -1.1458896  0.064342793   -2.1699337    1.0240441  1714209 
   64000    1.0127932   -2.1690369   -2.1690369   -1.1453324  0.059329672   -2.1690369    1.0237045  1714209 
   65000    1.0131346   -2.1696364   -2.1696364   -1.1455868  0.057892458   -2.1696364    1.0240496  1714209 
   66000    1.0128765   -2.1697454   -2.1697454   -1.1459567  0.060614839   -2.1697454    1.0237887  1714209 
   67000    1.0127913   -2.1696294   -2.1696294   -1.1459267  0.058309426   -2.1696294    1.0237026  1714209 
   68000    1.0127472   -2.1697649   -2.1697649   -1.1461069  0.057951583   -2.1697649     1.023658  1714209 
   69000    1.0122957   -2.1691995   -2.1691995   -1.1459979  0.063040021   -2.1691995    1.0232016  1714209 
   70000    1.0131465   -2.1700343   -2.1700343   -1.1459726  0.064263629   -2.1700343    1.0240616  1714209 
   71000    1.0129502   -2.1698277   -2.1698277   -1.1459645   0.05740761   -2.1698277    1.0238632  1714209 
   72000    1.0134607   -2.1702186   -2.1702186   -1.1458394  0.061197742   -2.1702186    1.0243792  1714209 
   73000    1.0135177   -2.1698619   -2.1698619   -1.1454251  0.065420157   -2.1698619    1.0244368  1714209 
   74000    1.0118819   -2.1681879   -2.1681879   -1.1454045  0.065211597   -2.1681879    1.0227833  1714209 
   75000    1.0119695   -2.1688609   -2.1688609    -1.145989  0.059391518   -2.1688609    1.0228719  1714209 
   76000    1.0133837   -2.1702999   -2.1702999   -1.1459986  0.057563642   -2.1702999    1.0243013  1714209 
   77000     1.011688   -2.1688092   -2.1688092   -1.1462218  0.058094652   -2.1688092    1.0225874  1714209 
   78000    1.0128222   -2.1699687   -2.1699687   -1.1462348  0.057698607   -2.1699687    1.0237339  1714209 
   79000    1.0125218   -2.1699288   -2.1699288   -1.1464986    0.0638137   -2.1699288    1.0234301  1714209 
   80000    1.0125075   -2.1702239   -2.1702239   -1.1468082  0.067685777   -2.1702239    1.0234157  1714209 
   81000    1.0129561    -2.170593    -2.170593   -1.1467238  0.063806793    -2.170593    1.0238692  1714209 
   82000    1.0121898   -2.1697482   -2.1697482   -1.1466535  0.059956539   -2.1697482    1.0230946  1714209 
   83000    1.0129154   -2.1706531   -2.1706531    -1.146825  0.058986757   -2.1706531     1.023828  1714209 
   84000    1.0118075   -2.1697554   -2.1697554   -1.1470472  0.058689463   -2.1697554    1.0227082  1714209 
   85000    1.0118468   -2.1700006   -2.1700006   -1.1472526  0.064381705   -2.1700006    1.0227479  1714209 
   86000    1.0131161   -2.1709834   -2.1709834   -1.1469526  0.068018493   -2.1709834    1.0240308  1714209 
   87000    1.0134702    -2.171569    -2.171569   -1.1471802  0.056022161    -2.171569    1.0243888  1714209 
   88000    1.0128988   -2.1710204   -2.1710204   -1.1472092  0.066217853   -2.1710204    1.0238113  1714209 
   89000     1.013002   -2.1712935   -2.1712935    -1.147378  0.060536877   -2.1712935    1.0239155  1714209 
   90000    1.0141506   -2.1720124   -2.1720124   -1.1469358  0.063686236   -2.1720124    1.0250766  1714209 
   91000    1.0136613   -2.1715766   -2.1715766   -1.1469946  0.064122149   -2.1715766     1.024582  1714209 
   92000    1.0125843   -2.1707595   -2.1707595   -1.1472662  0.059837518   -2.1707595    1.0234933  1714209 
   93000    1.0138483   -2.1721654   -2.1721654   -1.1473944  0.059212565   -2.1721654    1.0247709  1714209 
   94000    1.0140487   -2.1721213   -2.1721213   -1.1471478  0.063908762   -2.1721213    1.0249735  1714209 
   95000    1.0141278   -2.1722218   -2.1722218   -1.1471684  0.059926132   -2.1722218    1.0250534  1714209 
   96000    1.0142827   -2.1725062   -2.1725062   -1.1472962  0.062135083   -2.1725062    1.0252101  1714209 
   97000    1.0149462   -2.1731169   -2.1731169   -1.1472362  0.069572984   -2.1731169    1.0258807  1714209 
   98000    1.0155386   -2.1737683   -2.1737683   -1.1472888  0.069285152   -2.1737683    1.0264794  1714209 
   99000    1.0146386   -2.1734268   -2.1734268    -1.147857  0.069069767   -2.1734268    1.0255698  1714209 
  100000    1.0149691   -2.1733946   -2.1733946   -1.1474907  0.070501095   -2.1733946    1.0259038  1714209 
  101000    1.0153725   -2.1743057   -2.1743057   -1.1479942  0.062483099   -2.1743057    1.0263116  1714209 
  102000    1.0146218   -2.1737709   -2.1737709   -1.1482181  0.067261386   -2.1737709    1.0255528  1714209 
  103000    1.0146268   -2.1741225   -2.1741225   -1.1485647  0.064596818   -2.1741225    1.0255578  1714209 
  104000    1.0131447   -2.1728108   -2.1728108    -1.148751  0.067224191   -2.1728108    1.0240598  1714209 
  105000    1.0139793   -2.1740939   -2.1740939   -1.1491905  0.065723134   -2.1740939    1.0249034  1714209 
  106000    1.0140908   -2.1742771   -2.1742771    -1.149261  0.067091748   -2.1742771    1.0250161  1714209 
  107000    1.0137411   -2.1743067   -2.1743067    -1.149644  0.063929997   -2.1743067    1.0246627  1714209 
  108000     1.013668   -2.1743613   -2.1743613   -1.1497726  0.058732907   -2.1743613    1.0245887  1714209 
  109000    1.0139485   -2.1747472   -2.1747472   -1.1498749  0.058504354   -2.1747472    1.0248722  1714209 
  110000    1.0146728   -2.1749498   -2.1749498   -1.1493454  0.064648184   -2.1749498    1.0256043  1714209 
  111000    1.0141833   -2.1747884   -2.1747884   -1.1496789  0.059998177   -2.1747884    1.0251096  1714209 
  112000    1.0145385   -2.1750162   -2.1750162   -1.1495476  0.063716882   -2.1750162    1.0254686  1714209 
  113000    1.0135228   -2.1744296   -2.1744296   -1.1499877  0.060176663   -2.1744296    1.0244419  1714209 
  114000    1.0141171   -2.1743619   -2.1743619   -1.1493192  0.063970946   -2.1743619    1.0250427  1714209 
  115000    1.0150262   -2.1747827   -2.1747827   -1.1488212  0.062116434   -2.1747827    1.0259616  1714209 
  116000    1.0152514   -2.1752896   -2.1752896   -1.1491004  0.067464983   -2.1752896    1.0261892  1714209 
  117000     1.014435   -2.1745573   -2.1745573   -1.1491933  0.065390344   -2.1745573     1.025364  1714209 
  118000    1.0144254   -2.1744849   -2.1744849   -1.1491306  0.063694794   -2.1744849    1.0253543  1714209 
  119000    1.0153832    -2.175401    -2.175401   -1.1490786  0.066973714    -2.175401    1.0263224  1714209 
  120000     1.014074   -2.1745698   -2.1745698   -1.1495708  0.063495726   -2.1745698    1.0249991  1714209 
  121000    1.0136882   -2.1746193   -2.1746193   -1.1500101  0.069113762   -2.1746193    1.0246092  1714209 
  122000    1.0143828   -2.1754408   -2.1754408   -1.1501295  0.064251253   -2.1754408    1.0253112  1714209 
  123000    1.0148908   -2.1756612   -2.1756612   -1.1498365  0.067211004   -2.1756612    1.0258247  1714209 
  124000    1.0135689   -2.1742601   -2.1742601   -1.1497715  0.065052204   -2.1742601    1.0244886  1714209 
  125000    1.0132044   -2.1740888   -2.1740888   -1.1499687  0.064684727   -2.1740888    1.0241201  1714209 
  126000    1.0124421   -2.1729872   -2.1729872   -1.1496375  0.067310073   -2.1729872    1.0233497  1714209 
  127000    1.0137634   -2.1741456   -2.1741456   -1.1494604  0.065917335   -2.1741456    1.0246852  1714209 
  128000    1.0134609    -2.174099    -2.174099   -1.1497196  0.063707525    -2.174099    1.0243794  1714209 
  129000    1.0138862   -2.1739433   -2.1739433    -1.149134  0.063906663   -2.1739433    1.0248093  1714209 
  130000      1.01296   -2.1731471   -2.1731471    -1.149274  0.066909886   -2.1731471    1.0238731  1714209 
  131000    1.0129985   -2.1736021   -2.1736021   -1.1496901  0.065482938   -2.1736021     1.023912  1714209 
  132000    1.0128252   -2.1730729   -2.1730729   -1.1493361  0.060634393   -2.1730729    1.0237369  1714209 
  133000    1.0128308   -2.1727903   -2.1727903   -1.1490478  0.064449619   -2.1727903    1.0237425  1714209 
  134000    1.0126305   -2.1726352   -2.1726352   -1.1490952  0.065395959   -2.1726352    1.0235401  1714209 
  135000    1.0128678   -2.1729443   -2.1729443   -1.1491643   0.06270072   -2.1729443      1.02378  1714209 
  136000    1.0122108   -2.1724441   -2.1724441   -1.1493283  0.061330273   -2.1724441    1.0231159  1714209 
  137000    1.0131325   -2.1731855   -2.1731855    -1.149138  0.058440175   -2.1731855    1.0240475  1714209 
  138000    1.0126778   -2.1726326   -2.1726326   -1.1490448  0.065463869   -2.1726326    1.0235879  1714209 
  139000    1.0128754   -2.1726862   -2.1726862   -1.1488986   0.06095525   -2.1726862    1.0237876  1714209 
  140000    1.0130458   -2.1729855   -2.1729855   -1.1490256  0.066109204   -2.1729855    1.0239598  1714209 
  141000    1.0132519   -2.1731091   -2.1731091    -1.148941  0.063734754   -2.1731091    1.0241681  1714209 
  142000    1.0133203   -2.1729895   -2.1729895   -1.1487522  0.065156283   -2.1729895    1.0242373  1714209 
  143000    1.0126136   -2.1722974   -2.1722974   -1.1487744  0.062688065   -2.1722974     1.023523  1714209 
  144000    1.0129828   -2.1728073   -2.1728073   -1.1489111  0.063242967   -2.1728073    1.0238962  1714209 
  145000    1.0132844   -2.1733362   -2.1733362   -1.1491352  0.059959266   -2.1733362     1.024201  1714209 
  146000     1.012386   -2.1728804   -2.1728804   -1.1495875  0.062729021   -2.1728804    1.0232929  1714209 
  147000    1.0125612   -2.1730046   -2.1730046   -1.1495346  0.057681789   -2.1730046      1.02347  1714209 
  148000    1.0131284   -2.1736524   -2.1736524   -1.1496091  0.058276263   -2.1736524    1.0240433  1714209 
  149000      1.01287   -2.1731029   -2.1731029   -1.1493208  0.065476871   -2.1731029    1.0237822  1714209 
  150000    1.0124875    -2.172692    -2.172692   -1.1492965  0.059581715    -2.172692    1.0233955  1714209 
  151000     1.012256   -2.1725487   -2.1725487   -1.1493872  0.063693289   -2.1725487    1.0231616  1714209 
  152000    1.0123938   -2.1730242   -2.1730242   -1.1497234   0.05600649   -2.1730242    1.0233008  1714209 
  153000    1.0119542   -2.1721709   -2.1721709   -1.1493143  0.062431824   -2.1721709    1.0228565  1714209 
  154000    1.0131955   -2.1740051   -2.1740051    -1.149894  0.059469813   -2.1740051    1.0241112  1714209 
  155000    1.0113616   -2.1722195   -2.1722195   -1.1499621  0.066907143   -2.1722195    1.0222575  1714209 
  156000    1.0133031   -2.1744132   -2.1744132   -1.1501933   0.05787294   -2.1744132    1.0242199  1714209 
  157000    1.0133699   -2.1741323   -2.1741323   -1.1498449  0.068547096   -2.1741323    1.0242874  1714209 
  158000    1.0136909   -2.1741401   -2.1741401   -1.1495282  0.060474723   -2.1741401    1.0246119  1714209 
  159000    1.0130826   -2.1744103   -2.1744103   -1.1504132  0.064991495   -2.1744103    1.0239971  1714209 
  160000    1.0123656    -2.173931    -2.173931   -1.1506587  0.063119794    -2.173931    1.0232723  1714209 
  161000    1.0119262   -2.1732506   -2.1732506   -1.1504224  0.063990563   -2.1732506    1.0228282  1714209 
  162000    1.0125867    -2.174015    -2.174015   -1.1505192  0.062021026    -2.174015    1.0234958  1714209 
  163000    1.0129315   -2.1745076   -2.1745076   -1.1506633  0.060793771   -2.1745076    1.0238443  1714209 
  164000     1.012437   -2.1742482   -2.1742482   -1.1509038  0.063067127   -2.1742482    1.0233444  1714209 
  165000    1.0137259   -2.1755163   -2.1755163   -1.1508691  0.066304012   -2.1755163    1.0246472  1714209 
  166000    1.0143042   -2.1761628   -2.1761628   -1.1509311  0.061678415   -2.1761628    1.0252317  1714209 
  167000     1.013441    -2.175668    -2.175668   -1.1513087  0.063965644    -2.175668    1.0243593  1714209 
  168000    1.0134851   -2.1762084   -2.1762084   -1.1518045  0.066173963   -2.1762084    1.0244039  1714209 
  169000    1.0130691   -2.1753717   -2.1753717   -1.1513883  0.067140052   -2.1753717    1.0239834  1714209 
  170000     1.013537   -2.1759473   -2.1759473    -1.151491  0.064121146   -2.1759473    1.0244563  1714209 
  171000    1.0137765   -2.1765846   -2.1765846   -1.1518863  0.064575733   -2.1765846    1.0246984  1714209 
  172000     1.012616   -2.1753676   -2.1753676   -1.1518421  0.064010779   -2.1753676    1.0235254  1714209 
  173000    1.0138562   -2.1764481   -2.1764481   -1.1516692  0.061652727   -2.1764481     1.024779  1714209 
  174000    1.0135781   -2.1766558   -2.1766558    -1.152158  0.067452689   -2.1766558    1.0244978  1714209 
  175000    1.0152029   -2.1775788   -2.1775788   -1.1514387  0.062473605   -2.1775788    1.0261401  1714209 
  176000    1.0139893   -2.1768251   -2.1768251   -1.1519116  0.063679468   -2.1768251    1.0249135  1714209 
  177000    1.0137424   -2.1768723   -2.1768723   -1.1522084  0.066116131   -2.1768723     1.024664  1714209 
  178000    1.0146782   -2.1776479   -2.1776479   -1.1520381  0.068956052   -2.1776479    1.0256098  1714209 
  179000    1.0144439   -2.1774142   -2.1774142   -1.1520413   0.06775351   -2.1774142     1.025373  1714209 
  180000    1.0145823     -2.17736     -2.17736   -1.1518471  0.067730916     -2.17736    1.0255129  1714209 
  181000    1.0154646   -2.1781455   -2.1781455   -1.1517407  0.065302825   -2.1781455    1.0264047  1714209 
  182000    1.0155328   -2.1782081   -2.1782081   -1.1517346  0.067779385   -2.1782081    1.0264736  1714209 
  183000     1.014672   -2.1776717   -2.1776717   -1.1520682  0.071155888   -2.1776717    1.0256035  1714209 
  184000    1.0152477   -2.1785181   -2.1785181   -1.1523326  0.070861909   -2.1785181    1.0261855  1714209 
  185000    1.0150004   -2.1781231   -2.1781231   -1.1521875  0.065583336   -2.1781231    1.0259355  1714209 
  186000    1.0146027   -2.1775386   -2.1775386   -1.1520052  0.065819585   -2.1775386    1.0255335  1714209 
  187000    1.0149642   -2.1775199   -2.1775199    -1.151621  0.067873262   -2.1775199    1.0258989  1714209 
  188000    1.0146912   -2.1772537   -2.1772537   -1.1516307  0.067746983   -2.1772537     1.025623  1714209 
  189000     1.015145   -2.1778911   -2.1778911   -1.1518095  0.065728522   -2.1778911    1.0260816  1714209 
  190000    1.0154428   -2.1785189   -2.1785189   -1.1521363  0.067290291   -2.1785189    1.0263827  1714209 
  191000     1.014386   -2.1772893   -2.1772893   -1.1519749  0.065696121   -2.1772893    1.0253144  1714209 
  192000     1.014811   -2.1779771   -2.1779771   -1.1522331  0.067009906   -2.1779771     1.025744  1714209 
  193000    1.0135998   -2.1767495   -2.1767495   -1.1522297  0.069580869   -2.1767495    1.0245198  1714209 
  194000    1.0142541   -2.1777632   -2.1777632   -1.1525821   0.06248985   -2.1777632    1.0251811  1714209 
  195000     1.013202   -2.1767144   -2.1767144   -1.1525967  0.063907251   -2.1767144    1.0241177  1714209 
  196000     1.012813    -2.176315    -2.176315   -1.1525905  0.061022447    -2.176315    1.0237245  1714209 
  197000    1.0136384   -2.1772053   -2.1772053   -1.1526465  0.063139811   -2.1772053    1.0245588  1714209 
  198000    1.0123702   -2.1760324   -2.1760324   -1.1527554  0.063128812   -2.1760324    1.0232769  1714209 
  199000    1.0125924   -2.1761498   -2.1761498   -1.1526483  0.063527727   -2.1761498    1.0235015  1714209 
  200000     1.013483   -2.1771368   -2.1771368   -1.1527351   0.06599848   -2.1771368    1.0244017  1714209 
  201000     1.013144   -2.1767567   -2.1767567   -1.1526976  0.066535558   -2.1767567    1.0240591  1714209 
  202000    1.0134566   -2.1768758   -2.1768758   -1.1525007  0.058268387   -2.1768758     1.024375  1714209 
  203000    1.0127673   -2.1764735   -2.1764735   -1.1527952   0.06695672   -2.1764735    1.0236783  1714209 
  204000    1.0123676   -2.1761526   -2.1761526   -1.1528783  0.062403395   -2.1761526    1.0232743  1714209 
  205000     1.012425   -2.1761999   -2.1761999   -1.1528676  0.065452044   -2.1761999    1.0233324  1714209 
  206000    1.0119321   -2.1753647   -2.1753647   -1.1525306  0.066164869   -2.1753647    1.0228341  1714209 
  207000    1.0115632    -2.175141    -2.175141   -1.1526796  0.066321041    -2.175141    1.0224613  1714209 
  208000    1.0122704   -2.1757247   -2.1757247   -1.1525486  0.065599972   -2.1757247     1.023176  1714209 
  209000     1.012538   -2.1759944   -2.1759944   -1.1525479  0.064894178   -2.1759944    1.0234465  1714209 
  210000    1.0122446   -2.1759529   -2.1759529   -1.1528029  0.060404283   -2.1759529      1.02315  1714209 
  211000    1.0118005    -2.175272    -2.175272   -1.1525708  0.064302808    -2.175272    1.0227012  1714209 
  212000    1.0126788    -2.176533    -2.176533   -1.1529441  0.059848794    -2.176533    1.0235889  1714209 
  213000    1.0123196    -2.175715    -2.175715   -1.1524892  0.064357384    -2.175715    1.0232258  1714209 
  214000    1.0130228   -2.1766292   -2.1766292   -1.1526927   0.05568228   -2.1766292    1.0239366  1714209 
  215000    1.0115845   -2.1755367   -2.1755367   -1.1530539  0.061571083   -2.1755367    1.0224828  1714209 
  216000    1.0132091   -2.1766074   -2.1766074   -1.1524825  0.063802152   -2.1766074    1.0241249  1714209 
  217000    1.0123822   -2.1761184   -2.1761184   -1.1528293   0.06162127   -2.1761184    1.0232891  1714209 
  218000    1.0120314   -2.1755773   -2.1755773   -1.1526428  0.058482423   -2.1755773    1.0229345  1714209 
  219000    1.0122427   -2.1760694   -2.1760694   -1.1529213  0.061793249   -2.1760694    1.0231481  1714209 
  220000     1.012395   -2.1762337   -2.1762337   -1.1529317  0.065851595   -2.1762337     1.023302  1714209 
  221000    1.0133779    -2.176965    -2.176965   -1.1526695  0.061222104    -2.176965    1.0242955  1714209 
  222000    1.0125619   -2.1761932   -2.1761932   -1.1527225  0.066581371   -2.1761932    1.0234707  1714209 
  223000    1.0136467   -2.1769208   -2.1769208   -1.1523536  0.064413281   -2.1769208    1.0245672  1714209 
  224000    1.0138035   -2.1772615   -2.1772615   -1.1525358  0.062072843   -2.1772615    1.0247257  1714209 
  225000    1.0138599   -2.1769367   -2.1769367    -1.152154  0.060805644   -2.1769367    1.0247827  1714209 
  226000    1.0141288   -2.1769246   -2.1769246   -1.1518701  0.062765464   -2.1769246    1.0250545  1714209 
  227000    1.0139763   -2.1763288   -2.1763288   -1.1514285  0.061191527   -2.1763288    1.0249004  1714209 
  228000    1.0138733   -2.1769039   -2.1769039   -1.1521077  0.063061944   -2.1769039    1.0247962  1714209 
  229000    1.0142302   -2.1773909   -2.1773909   -1.1522339  0.061919352   -2.1773909     1.025157  1714209 
  230000     1.014137   -2.1775686   -2.1775686   -1.1525058  0.064592251   -2.1775686    1.0250628  1714209 
  231000    1.0143499   -2.1775778   -2.1775778   -1.1522999  0.059909301   -2.1775778    1.0252779  1714209 
  232000    1.0143568   -2.1775514   -2.1775514   -1.1522664  0.065641884   -2.1775514     1.025285  1714209 
  233000    1.0136362   -2.1768245   -2.1768245    -1.152268  0.070544692   -2.1768245    1.0245566  1714209 
  234000    1.0144004   -2.1779103   -2.1779103   -1.1525813  0.066160687   -2.1779103     1.025329  1714209 
  235000     1.014593   -2.1777571   -2.1777571   -1.1522334  0.066013952   -2.1777571    1.0255237  1714209 
  236000    1.0149116   -2.1781894   -2.1781894   -1.1523437     0.062915   -2.1781894    1.0258457  1714209 
  237000    1.0137676   -2.1777087   -2.1777087   -1.1530193  0.064296395   -2.1777087    1.0246894  1714209 
  238000    1.0139474   -2.1782155   -2.1782155   -1.1533443  0.061534217   -2.1782155    1.0248712  1714209 
  239000    1.0145056   -2.1785046   -2.1785046   -1.1530693   0.06293387   -2.1785046    1.0254353  1714209 
  240000     1.014169   -2.1783554   -2.1783554   -1.1532602  0.064480525   -2.1783554    1.0250951  1714209 
  241000    1.0141088   -2.1785613   -2.1785613   -1.1535271  0.067395536   -2.1785613    1.0250343  1714209 
  242000    1.0143576   -2.1782391   -2.1782391   -1.1529533  0.065523005   -2.1782391    1.0252858  1714209 
  243000    1.0147539   -2.1790211   -2.1790211   -1.1533347  0.061278196   -2.1790211    1.0256864  1714209 
  244000    1.0139545   -2.1780986   -2.1780986   -1.1532203  0.067757845   -2.1780986    1.0248783  1714209 
  245000    1.0141442   -2.1785243   -2.1785243   -1.1534542  0.071026595   -2.1785243    1.0250701  1714209 
  246000    1.0146642   -2.1792865   -2.1792865   -1.1536909  0.062656327   -2.1792865    1.0255957  1714209 
  247000     1.014115   -2.1786013   -2.1786013   -1.1535608  0.064198423   -2.1786013    1.0250405  1714209 
  248000    1.0138336   -2.1781868   -2.1781868   -1.1534307  0.063574402   -2.1781868    1.0247561  1714209 
  249000    1.0139785   -2.1787044   -2.1787044   -1.1538018  0.064083873   -2.1787044    1.0249026  1714209 
  250000    1.0136962   -2.1784241   -2.1784241   -1.1538069  0.064850137   -2.1784241    1.0246172  1714209 
  251000    1.0136635   -2.1786072   -2.1786072   -1.1540231  0.060217119   -2.1786072    1.0245842  1714209 
  252000    1.0132604   -2.1781049   -2.1781049   -1.1539281  0.063073516   -2.1781049    1.0241768  1714209 
  253000    1.0135556   -2.1784045   -2.1784045   -1.1539293  0.059903655   -2.1784045    1.0244751  1714209 
  254000    1.0138037   -2.1786066   -2.1786066   -1.1538807  0.059527854   -2.1786066    1.0247259  1714209 
  255000    1.0119716   -2.1772087   -2.1772087   -1.1543346  0.065122788   -2.1772087    1.0228741  1714209 
  256000    1.0137252   -2.1791142   -2.1791142   -1.1544677  0.064789536   -2.1791142    1.0246465  1714209 
  257000    1.0130192    -2.178618    -2.178618   -1.1546851  0.063857556    -2.178618    1.0239329  1714209 
  258000    1.0124826   -2.1784747   -2.1784747   -1.1550841  0.061939244   -2.1784747    1.0233905  1714209 
  259000    1.0126291   -2.1783115   -2.1783115   -1.1547729  0.063344145   -2.1783115    1.0235386  1714209 
  260000    1.0118972   -2.1772403   -2.1772403   -1.1544414  0.064239364   -2.1772403    1.0227989  1714209 
  261000    1.0119766   -2.1773706   -2.1773706   -1.1544915  0.066822354   -2.1773706    1.0228791  1714209 
  262000    1.0129116   -2.1782281   -2.1782281    -1.154404  0.066807596   -2.1782281    1.0238242  1714209 
  263000    1.0139568   -2.1789841   -2.1789841   -1.1541034  0.062771177   -2.1789841    1.0248807  1714209 
  264000    1.0137638   -2.1783146   -2.1783146    -1.153629  0.066629012   -2.1783146    1.0246856  1714209 
  265000    1.0130223   -2.1780055   -2.1780055   -1.1540695  0.069009127   -2.1780055    1.0239361  1714209 
  266000    1.0131061   -2.1785314   -2.1785314   -1.1545106  0.064027712   -2.1785314    1.0240208  1714209 
  267000    1.0133952   -2.1787014   -2.1787014   -1.1543883  0.068037003   -2.1787014     1.024313  1714209 
  268000    1.0136607   -2.1787365   -2.1787365   -1.1541551  0.064352751   -2.1787365    1.0245814  1714209 
  269000    1.0128689   -2.1777282   -2.1777282   -1.1539472   0.06612289   -2.1777282     1.023781  1714209 
  270000    1.0133103   -2.1779362   -2.1779362    -1.153709  0.064563372   -2.1779362    1.0242271  1714209 
  271000    1.0140418   -2.1788897   -2.1788897   -1.1539231  0.058782979   -2.1788897    1.0249666  1714209 
  272000     1.012515   -2.1772236   -2.1772236   -1.1538003  0.060624822   -2.1772236    1.0234233  1714209 
  273000    1.0139399   -2.1785262   -2.1785262   -1.1536627  0.063588251   -2.1785262    1.0248636  1714209 
  274000    1.0137008   -2.1785432   -2.1785432   -1.1539213  0.065882441   -2.1785432    1.0246219  1714209 
  275000    1.0140096   -2.1788216   -2.1788216   -1.1538875  0.059871604   -2.1788216     1.024934  1714209 
  276000    1.0132902   -2.1781471   -2.1781471   -1.1539403  0.062656502   -2.1781471    1.0242068  1714209 
  277000    1.0135161   -2.1787893   -2.1787893   -1.1543541  0.063193624   -2.1787893    1.0244352  1714209 
  278000    1.0141308   -2.1796385   -2.1796385    -1.154582  0.059385891   -2.1796385    1.0250565  1714209 
  279000     1.012444    -2.177901    -2.177901   -1.1545495  0.068063707    -2.177901    1.0233515  1714209 
  280000    1.0133671    -2.178696    -2.178696   -1.1544114  0.064989318    -2.178696    1.0242846  1714209 
  281000    1.0129593   -2.1786707   -2.1786707   -1.1547983  0.066504798   -2.1786707    1.0238724  1714209 
  282000    1.0119563   -2.1776874   -2.1776874   -1.1548288  0.065591921   -2.1776874    1.0228586  1714209 
  283000    1.0130439     -2.17899     -2.17899    -1.155032  0.064522048     -2.17899     1.023958  1714209 
  284000     1.012757   -2.1788296   -2.1788296   -1.1551617  0.068163223   -2.1788296    1.0236679  1714209 
  285000    1.0132314   -2.1795978   -2.1795978   -1.1554505  0.067940059   -2.1795978    1.0241474  1714209 
  286000    1.0128465   -2.1788624   -2.1788624    -1.155104  0.063912708   -2.1788624    1.0237583  1714209 
  287000    1.0125392    -2.178872    -2.178872   -1.1554242   0.06410471    -2.178872    1.0234478  1714209 
  288000    1.0126831   -2.1788449   -2.1788449   -1.1552517  0.065201729   -2.1788449    1.0235932  1714209 
  289000    1.0124516   -2.1790918   -2.1790918   -1.1557326  0.064601685   -2.1790918    1.0233592  1714209 
  290000    1.0127625   -2.1795873   -2.1795873   -1.1559139  0.065169674   -2.1795873    1.0236735  1714209 
  291000    1.0134787   -2.1802168   -2.1802168   -1.1558194  0.063365135   -2.1802168    1.0243974  1714209 
  292000    1.0128471   -2.1792436   -2.1792436   -1.1554846  0.066148413   -2.1792436     1.023759  1714209 
  293000    1.0128014   -2.1793033   -2.1793033   -1.1555906   0.06273556   -2.1793033    1.0237127  1714209 
  294000    1.0125779   -2.1790858   -2.1790858   -1.1555988  0.068026419   -2.1790858    1.0234869  1714209 
  295000     1.012273    -2.178824    -2.178824   -1.1556453  0.065125215    -2.178824    1.0231787  1714209 
  296000    1.0127723   -2.1795883   -2.1795883   -1.1559049  0.065244565   -2.1795883    1.0236834  1714209 
  297000    1.0124681   -2.1790826   -2.1790826   -1.1557067  0.062350656   -2.1790826    1.0233759  1714209 
  298000    1.0122293   -2.1790954   -2.1790954   -1.1559608  0.061684862   -2.1790954    1.0231345  1714209 
  299000    1.0126239   -2.1793797   -2.1793797   -1.1558464   0.06643149   -2.1793797    1.0235333  1714209 
  300000    1.0129184    -2.179565    -2.179565   -1.1557339  0.062618427    -2.179565    1.0238311  1714209 
  301000    1.0130788   -2.1792165   -2.1792165   -1.1552233  0.067745089   -2.1792165    1.0239932  1714209 
  302000    1.0138301   -2.1805179   -2.1805179   -1.1557653  0.064792526   -2.1805179    1.0247526  1714209 
  303000    1.0138405    -2.180593    -2.180593   -1.1558299  0.061605975    -2.180593    1.0247631  1714209 
  304000    1.0141381   -2.1812814   -2.1812814   -1.1562175  0.066941252   -2.1812814    1.0250638  1714209 
  305000    1.0139988   -2.1809141   -2.1809141    -1.155991  0.062268221   -2.1809141    1.0249231  1714209 
  306000    1.0136937   -2.1805031   -2.1805031   -1.1558884  0.071958754   -2.1805031    1.0246147  1714209 
  307000    1.0139511   -2.1805545   -2.1805545   -1.1556795  0.068848268   -2.1805545    1.0248749  1714209 
  308000    1.0133904   -2.1806549   -2.1806549   -1.1563468  0.066331459   -2.1806549    1.0243081  1714209 
  309000    1.0137422   -2.1810068   -2.1810068   -1.1563431  0.066389474   -2.1810068    1.0246637  1714209 
  310000    1.0134809   -2.1804086   -2.1804086    -1.156009  0.064971095   -2.1804086    1.0243996  1714209 
  311000      1.01443   -2.1807524   -2.1807524   -1.1553935  0.067710676   -2.1807524    1.0253589  1714209 
  312000    1.0141022   -2.1810579   -2.1810579   -1.1560303  0.062608889   -2.1810579    1.0250276  1714209 
  313000    1.0140803   -2.1807286   -2.1807286   -1.1557231  0.065442832   -2.1807286    1.0250055  1714209 
  314000    1.0135686   -2.1803141   -2.1803141   -1.1558258   0.06475137   -2.1803141    1.0244883  1714209 
  315000    1.0131542   -2.1803068   -2.1803068   -1.1562374  0.067763062   -2.1803068    1.0240694  1714209 
  316000    1.0137707   -2.1811804   -2.1811804   -1.1564878  0.067706311   -2.1811804    1.0246925  1714209 
  317000    1.0143201    -2.182045    -2.182045   -1.1567972  0.060849699    -2.182045    1.0252478  1714209 
  318000    1.0133402   -2.1808499   -2.1808499   -1.1565925  0.066671344   -2.1808499    1.0242574  1714209 
  319000    1.0140545    -2.181979    -2.181979   -1.1569997   0.06299405    -2.181979    1.0249794  1714209 
  320000    1.0131444   -2.1815612   -2.1815612   -1.1575017  0.066613401   -2.1815612    1.0240595  1714209 
  321000    1.0133299   -2.1815942   -2.1815942   -1.1573472  0.063432214   -2.1815942     1.024247  1714209 
  322000    1.0128106    -2.180879    -2.180879    -1.157157  0.064197742    -2.180879    1.0237221  1714209 
  323000    1.0138647   -2.1820072   -2.1820072   -1.1572197   0.06337222   -2.1820072    1.0247875  1714209 
  324000    1.0136149   -2.1812835   -2.1812835   -1.1567484  0.070683759   -2.1812835    1.0245351  1714209 
  325000    1.0138342    -2.181456    -2.181456   -1.1566993  0.065946838    -2.181456    1.0247567  1714209 
  326000    1.0132726   -2.1816337   -2.1816337   -1.1574446  0.062311117   -2.1816337    1.0241891  1714209 
  327000    1.0137375   -2.1820247   -2.1820247   -1.1573657  0.066185466   -2.1820247    1.0246589  1714209 
  328000    1.0129975   -2.1810229   -2.1810229   -1.1571119  0.066247117   -2.1810229     1.023911  1714209 
  329000     1.013927   -2.1816334   -2.1816334   -1.1567829  0.063195385   -2.1816334    1.0248505  1714209 
  330000    1.0126996   -2.1803081   -2.1803081   -1.1566982  0.065330541   -2.1803081    1.0236099  1714209 
  331000    1.0129094   -2.1805632   -2.1805632   -1.1567412  0.065617581   -2.1805632     1.023822  1714209 
  332000    1.0122896   -2.1802848   -2.1802848   -1.1570893  0.063062518   -2.1802848    1.0231955  1714209 
  333000    1.0129151   -2.1810052   -2.1810052   -1.1571775  0.062474911   -2.1810052    1.0238277  1714209 
  334000    1.0129865   -2.1808936   -2.1808936   -1.1569936  0.063968161   -2.1808936    1.0238999  1714209 
  335000    1.0127416   -2.1805849   -2.1805849   -1.1569325  0.062667097   -2.1805849    1.0236524  1714209 
  336000    1.0123575   -2.1803692   -2.1803692   -1.1571051  0.061994753   -2.1803692    1.0232641  1714209 
  337000    1.0132761   -2.1809455   -2.1809455   -1.1567529  0.069776176   -2.1809455    1.0241926  1714209 
  338000    1.0130828   -2.1813603   -2.1813603   -1.1573631  0.060124428   -2.1813603    1.0239972  1714209 
  339000    1.0136596   -2.1817555   -2.1817555   -1.1571753  0.063677451   -2.1817555    1.0245802  1714209 
  340000    1.0133673   -2.1811518   -2.1811518   -1.1568671  0.062504468   -2.1811518    1.0242848  1714209 
  341000    1.0135726   -2.1813477   -2.1813477   -1.1568554  0.060132235   -2.1813477    1.0244923  1714209 
  342000    1.0131607   -2.1807684   -2.1807684   -1.1566925  0.063126698   -2.1807684    1.0240759  1714209 
  343000     1.012966   -2.1804313   -2.1804313   -1.1565521  0.064980241   -2.1804313    1.0238791  1714209 
  344000    1.0132945   -2.1806246   -2.1806246   -1.1564134   0.06640793   -2.1806246    1.0242112  1714209 
  345000     1.012338   -2.1798535   -2.1798535   -1.1566092   0.06579655   -2.1798535    1.0232444  1714209 
  346000    1.0136017   -2.1809199   -2.1809199   -1.1563981  0.064413175   -2.1809199    1.0245218  1714209 
  347000    1.0133493   -2.1807102   -2.1807102   -1.1564435  0.064260873   -2.1807102    1.0242666  1714209 
  348000    1.0130095   -2.1806422   -2.1806422    -1.156719  0.068015684   -2.1806422    1.0239232  1714209 
  349000    1.0129107   -2.1807109   -2.1807109   -1.1568876  0.065799956   -2.1807109    1.0238233  1714209 
  350000    1.0123263   -2.1804666   -2.1804666    -1.157234  0.067936736   -2.1804666    1.0232326  1714209 
  351000    1.0139286    -2.182028    -2.182028   -1.1571759  0.060496207    -2.182028    1.0248521  1714209 
  352000    1.0135381   -2.1812382   -2.1812382   -1.1567807  0.061168293   -2.1812382    1.0244575  1714209 
  353000    1.0139229   -2.1816427   -2.1816427   -1.1567963  0.063256732   -2.1816427    1.0248464  1714209 
  354000    1.0132857   -2.1808398   -2.1808398   -1.1566375  0.071797073   -2.1808398    1.0242023  1714209 
  355000    1.0136655   -2.1810021   -2.1810021   -1.1564159  0.066807961   -2.1810021    1.0245862  1714209 
  356000    1.0137109   -2.1816104   -2.1816104   -1.1569783  0.068675983   -2.1816104    1.0246321  1714209 
  357000    1.0133721   -2.1813266   -2.1813266    -1.157037  0.068610327   -2.1813266    1.0242897  1714209 
  358000    1.0134795   -2.1811959   -2.1811959   -1.1567976  0.063712598   -2.1811959    1.0243983  1714209 
  359000    1.0132839   -2.1811087   -2.1811087   -1.1569083  0.068641218   -2.1811087    1.0242005  1714209 
  360000    1.0116952   -2.1796145   -2.1796145   -1.1570198  0.065587876   -2.1796145    1.0225947  1714209 
  361000    1.0126381   -2.1808346   -2.1808346   -1.1572869  0.062799145   -2.1808346    1.0235477  1714209 
  362000    1.0120601   -2.1802832   -2.1802832   -1.1573197  0.058861039   -2.1802832    1.0229636  1714209 
  363000    1.0123688   -2.1811527   -2.1811527   -1.1578771  0.063256173   -2.1811527    1.0232755  1714209 
  364000    1.0118704   -2.1805135   -2.1805135   -1.1577417  0.063013215   -2.1805135    1.0227718  1714209 
  365000    1.0125312   -2.1809161   -2.1809161   -1.1574763  0.062058688   -2.1809161    1.0234397  1714209 
  366000     1.012626   -2.1810798   -2.1810798   -1.1575444  0.063273563   -2.1810798    1.0235355  1714209 
  367000    1.0126523   -2.1806746   -2.1806746   -1.1571125  0.069855694   -2.1806746    1.0235621  1714209 
  368000    1.0146252   -2.1825239   -2.1825239   -1.1569677  0.067205324   -2.1825239    1.0255562  1714209 
  369000    1.0132288   -2.1812661   -2.1812661   -1.1571213  0.063147643   -2.1812661    1.0241448  1714209 
  370000    1.0129036   -2.1812276   -2.1812276   -1.1574115  0.065449026   -2.1812276    1.0238161  1714209 
  371000    1.0133985   -2.1820675   -2.1820675   -1.1577512  0.068010492   -2.1820675    1.0243163  1714209 
  372000    1.0132339   -2.1815775   -2.1815775   -1.1574275   0.06325562   -2.1815775    1.0241499  1714209 
  373000    1.0127244   -2.1810177   -2.1810177   -1.1573827  0.065896917   -2.1810177     1.023635  1714209 
  374000    1.0134411   -2.1821373   -2.1821373    -1.157778  0.064045414   -2.1821373    1.0243594  1714209 
  375000    1.0133626   -2.1820793   -2.1820793   -1.1577992  0.060475322   -2.1820793    1.0242801  1714209 
  376000    1.0134939   -2.1823254   -2.1823254   -1.1579126  0.063876749   -2.1823254    1.0244127  1714209 
  377000    1.0134333   -2.1821661   -2.1821661   -1.1578146  0.069055141   -2.1821661    1.0243515  1714209 
  378000    1.0134254   -2.1822962   -2.1822962   -1.1579527   0.06734025   -2.1822962    1.0243435  1714209 
  379000    1.0128291   -2.1817594   -2.1817594   -1.1580187  0.065250626   -2.1817594    1.0237408  1714209 
  380000    1.0132454   -2.1821075   -2.1821075    -1.157946  0.069436376   -2.1821075    1.0241615  1714209 
  381000    1.0135651   -2.1823944   -2.1823944   -1.1579098  0.062059651   -2.1823944    1.0244847  1714209 
  382000    1.0132569   -2.1817857   -2.1817857   -1.1576125   0.05983344   -2.1817857    1.0241732  1714209 
  383000     1.013231   -2.1817871   -2.1817871     -1.15764  0.062885369   -2.1817871     1.024147  1714209 
  384000    1.0132997   -2.1823844   -2.1823844   -1.1581679  0.068248337   -2.1823844    1.0242165  1714209 
  385000    1.0130335   -2.1817007   -2.1817007   -1.1577532  0.065981045   -2.1817007    1.0239474  1714209 
  386000    1.0127925   -2.1814995   -2.1814995   -1.1577957  0.065383047   -2.1814995    1.0237038  1714209 
  387000    1.0124417   -2.1813608   -2.1813608   -1.1580116  0.069562613   -2.1813608    1.0233492  1714209 
  388000    1.0136593   -2.1830194   -2.1830194   -1.1584395  0.064719909   -2.1830194    1.0245799  1714209 
  389000    1.0125071   -2.1818445   -2.1818445   -1.1584293   0.05736859   -2.1818445    1.0234153  1714209 
  390000    1.0133361   -2.1825598   -2.1825598   -1.1583065  0.066228894   -2.1825598    1.0242533  1714209 
  391000     1.013218   -2.1825971   -2.1825971   -1.1584632  0.066006478   -2.1825971    1.0241339  1714209 
  392000    1.0125799   -2.1814819   -2.1814819    -1.157993  0.067953821   -2.1814819    1.0234889  1714209 
  393000    1.0134194   -2.1827399   -2.1827399   -1.1584024  0.067142292   -2.1827399    1.0243375  1714209 
  394000    1.0132055   -2.1823171   -2.1823171   -1.1581958  0.064751928   -2.1823171    1.0241213  1714209 
  395000    1.0130792   -2.1826832   -2.1826832   -1.1586896  0.066628726   -2.1826832    1.0239936  1714209 
  396000    1.0137373   -2.1831678   -2.1831678   -1.1585091  0.064656689   -2.1831678    1.0246588  1714209 
  397000    1.0140722   -2.1830231   -2.1830231   -1.1580258  0.067141835   -2.1830231    1.0249972  1714209 
  398000    1.0142187   -2.1833206   -2.1833206   -1.1581753  0.063684529   -2.1833206    1.0251453  1714209 
  399000    1.0137986   -2.1833613   -2.1833613   -1.1586405  0.062116947   -2.1833613    1.0247207  1714209 
  400000    1.0136765   -2.1829281   -2.1829281   -1.1583308   0.06385377   -2.1829281    1.0245973  1714209 
  401000    1.0127871   -2.1823447   -2.1823447   -1.1586464  0.064314116   -2.1823447    1.0236983  1714209 
  402000    1.0142876   -2.1836434   -2.1836434   -1.1584285  0.066304389   -2.1836434     1.025215  1714209 
  403000    1.0127413   -2.1826603   -2.1826603   -1.1590082   0.06723203   -2.1826603    1.0236521  1714209 
  404000    1.0136219   -2.1833872   -2.1833872    -1.158845  0.061675615   -2.1833872    1.0245422  1714209 
  405000    1.0139432   -2.1831692   -2.1831692   -1.1583023  0.068814612   -2.1831692    1.0248669  1714209 
  406000    1.0134209   -2.1828732   -2.1828732   -1.1585343   0.06183608   -2.1828732     1.024339  1714209 
  407000    1.0132314   -2.1828202   -2.1828202   -1.1586728  0.069180498   -2.1828202    1.0241474  1714209 
  408000    1.0127814   -2.1822955   -2.1822955    -1.158603   0.07083646   -2.1822955    1.0236926  1714209 
  409000    1.0130842   -2.1828608   -2.1828608   -1.1588621  0.060945598   -2.1828608    1.0239987  1714209 
  410000    1.0128619   -2.1824171   -2.1824171   -1.1586431  0.065918427   -2.1824171     1.023774  1714209 
  411000    1.0127832   -2.1828283   -2.1828283   -1.1591339   0.06326582   -2.1828283    1.0236944  1714209 
  412000    1.0137054   -2.1841396   -2.1841396   -1.1595131  0.061744157   -2.1841396    1.0246265  1714209 
  413000    1.0133588   -2.1837223   -2.1837223   -1.1594461  0.068179229   -2.1837223    1.0242762  1714209 
  414000    1.0130355   -2.1834056   -2.1834056   -1.1594562  0.065040407   -2.1834056    1.0239495  1714209 
  415000    1.0139108   -2.1842054   -2.1842054   -1.1593712  0.066572498   -2.1842054    1.0248342  1714209 
  416000    1.0133645   -2.1834742   -2.1834742   -1.1591922  0.063798492   -2.1834742     1.024282  1714209 
  417000    1.0130418    -2.183153    -2.183153   -1.1591972  0.060924869    -2.183153    1.0239558  1714209 
  418000    1.0132148   -2.1832247   -2.1832247   -1.1590941  0.067470375   -2.1832247    1.0241306  1714209 
  419000    1.0123327   -2.1823035   -2.1823035   -1.1590644  0.066433534   -2.1823035    1.0232391  1714209 
  420000    1.0132192   -2.1829648   -2.1829648   -1.1588297   0.06649726   -2.1829648    1.0241351  1714209 
  421000    1.0132362    -2.183518    -2.183518   -1.1593657  0.064122463    -2.183518    1.0241522  1714209 
  422000    1.0124994   -2.1827092   -2.1827092   -1.1593017  0.065153713   -2.1827092    1.0234075  1714209 
  423000    1.0129727   -2.1837748   -2.1837748   -1.1598888  0.063275025   -2.1837748    1.0238859  1714209 
  424000    1.0125569   -2.1829281   -2.1829281   -1.1594624   0.06711343   -2.1829281    1.0234657  1714209 
  425000    1.0131379   -2.1835522   -2.1835522   -1.1594993  0.068221651   -2.1835522    1.0240529  1714209 
  426000    1.0142953   -2.1844244   -2.1844244   -1.1592016  0.066568788   -2.1844244    1.0252228  1714209 
  427000     1.013553   -2.1839973   -2.1839973   -1.1595249  0.067302375   -2.1839973    1.0244725  1714209 
  428000    1.0134521   -2.1842902   -2.1842902   -1.1599196  0.065458487   -2.1842902    1.0243706  1714209 
  429000    1.0136238   -2.1843886   -2.1843886   -1.1598445  0.064883796   -2.1843886    1.0245441  1714209 
  430000    1.0132652   -2.1845365   -2.1845365   -1.1603549  0.065345423   -2.1845365    1.0241816  1714209 
  431000      1.01298   -2.1839482   -2.1839482   -1.1600548  0.070772153   -2.1839482    1.0238933  1714209 
  432000    1.0131848   -2.1843858   -2.1843858   -1.1602854  0.060844967   -2.1843858    1.0241004  1714209 
  433000    1.0120414   -2.1836577   -2.1836577   -1.1607131   0.06408868   -2.1836577    1.0229446  1714209 
  434000     1.012988   -2.1843971   -2.1843971   -1.1604957  0.064030559   -2.1843971    1.0239014  1714209 
  435000    1.0125249   -2.1841026   -2.1841026   -1.1606693   0.06697103   -2.1841026    1.0234333  1714209 
  436000    1.0122503   -2.1836789   -2.1836789   -1.1605231  0.067923469   -2.1836789    1.0231557  1714209 
  437000    1.0129904   -2.1846263   -2.1846263   -1.1607225  0.066767171   -2.1846263    1.0239039  1714209 
  438000    1.0126514   -2.1838598   -2.1838598   -1.1602986   0.06160627   -2.1838598    1.0235611  1714209 
  439000     1.012107   -2.1833914   -2.1833914   -1.1603805  0.065749251   -2.1833914    1.0230109  1714209 
  440000    1.0132076   -2.1839708   -2.1839708   -1.1598474  0.069856432   -2.1839708    1.0241234  1714209 
  441000    1.0131177   -2.1842798   -2.1842798   -1.1602474  0.069498946   -2.1842798    1.0240325  1714209 
  442000    1.0130923   -2.1843956   -2.1843956   -1.1603888  0.064664732   -2.1843956    1.0240068  1714209 
  443000    1.0135351   -2.1845272   -2.1845272   -1.1600728  0.067413563   -2.1845272    1.0244544  1714209 
  444000    1.0140038   -2.1854882   -2.1854882   -1.1605601  0.064534417   -2.1854882    1.0249281  1714209 
  445000    1.0129169   -2.1845446   -2.1845446   -1.1607151  0.067702112   -2.1845446    1.0238296  1714209 
  446000    1.0116739   -2.1831586   -2.1831586   -1.1605855   0.06795275   -2.1831586    1.0225731  1714209 
  447000    1.0133086   -2.1844771   -2.1844771   -1.1602517  0.064450881   -2.1844771    1.0242254  1714209 
  448000    1.0131821   -2.1841907   -2.1841907   -1.1600931  0.069019117   -2.1841907    1.0240976  1714209 
  449000     1.013278    -2.184366    -2.184366   -1.1601715  0.068189271    -2.184366    1.0241945  1714209 
  450000    1.0145893   -2.1855378   -2.1855378   -1.1600179  0.065884403   -2.1855378    1.0255199  1714209 
  451000    1.0127491   -2.1840494   -2.1840494   -1.1603894   0.06714509   -2.1840494      1.02366  1714209 
  452000    1.0132722   -2.1848114   -2.1848114   -1.1606227  0.069236369   -2.1848114    1.0241887  1714209 
  453000     1.013164   -2.1849807   -2.1849807   -1.1609014  0.065077769   -2.1849807    1.0240793  1714209 
  454000    1.0134121   -2.1850532   -2.1850532   -1.1607231  0.069941675   -2.1850532    1.0243301  1714209 
  455000    1.0142281   -2.1859156   -2.1859156   -1.1607607  0.065602702   -2.1859156    1.0251549  1714209 
  456000     1.013756   -2.1859001   -2.1859001   -1.1612224  0.067879514   -2.1859001    1.0246777  1714209 
  457000    1.0132147   -2.1854329   -2.1854329   -1.1613024   0.06941678   -2.1854329    1.0241305  1714209 
  458000    1.0128975   -2.1850888   -2.1850888   -1.1612789  0.069286796   -2.1850888    1.0238099  1714209 
  459000    1.0121644   -2.1845876   -2.1845876   -1.1615187  0.066415653   -2.1845876    1.0230689  1714209 
  460000    1.0123102   -2.1847173   -2.1847173    -1.161501  0.067260426   -2.1847173    1.0232163  1714209 
  461000    1.0118512   -2.1841797   -2.1841797   -1.1614274   0.06502401   -2.1841797    1.0227523  1714209 
  462000    1.0117122   -2.1838376   -2.1838376   -1.1612258  0.066811581   -2.1838376    1.0226118  1714209 
  463000    1.0122327   -2.1841751   -2.1841751   -1.1610372  0.065677244   -2.1841751     1.023138  1714209 
  464000    1.0125841    -2.184591    -2.184591   -1.1610979  0.060167963    -2.184591    1.0234932  1714209 
  465000     1.012734   -2.1849527   -2.1849527   -1.1613081  0.066136374   -2.1849527    1.0236446  1714209 
  466000     1.011766   -2.1837399   -2.1837399   -1.1610737  0.072936064   -2.1837399    1.0226662  1714209 
  467000    1.0128295   -2.1848375   -2.1848375   -1.1610963  0.066330385   -2.1848375    1.0237412  1714209 
  468000    1.0127554   -2.1848739   -2.1848739   -1.1612076  0.067396239   -2.1848739    1.0236663  1714209 
  469000     1.012532   -2.1851427   -2.1851427   -1.1617022  0.063396406   -2.1851427    1.0234405  1714209 
  470000    1.0129972    -2.185664    -2.185664   -1.1617533   0.06412084    -2.185664    1.0239107  1714209 
  471000    1.0121163   -2.1841541   -2.1841541   -1.1611338  0.063611159   -2.1841541    1.0230203  1714209 
  472000    1.0130593   -2.1852722   -2.1852722   -1.1612987  0.063074024   -2.1852722    1.0239735  1714209 
  473000    1.0123159   -2.1843165   -2.1843165   -1.1610944  0.063797231   -2.1843165     1.023222  1714209 
  474000    1.0125675   -2.1843879   -2.1843879   -1.1609115    0.0630901   -2.1843879    1.0234764  1714209 
  475000    1.0134027   -2.1850434   -2.1850434   -1.1607229  0.067087007   -2.1850434    1.0243205  1714209 
  476000    1.0122646   -2.1839802   -2.1839802     -1.16081  0.067966866   -2.1839802    1.0231702  1714209 
  477000    1.0122322   -2.1843926   -2.1843926   -1.1612551  0.064141666   -2.1843926    1.0231375  1714209 
  478000    1.0125447   -2.1850185   -2.1850185   -1.1615652  0.061113349   -2.1850185    1.0234534  1714209 
  479000    1.0120568   -2.1847298   -2.1847298   -1.1617697  0.061811534   -2.1847298    1.0229602  1714209 
  480000    1.0127874   -2.1853478   -2.1853478   -1.1616492  0.067058398   -2.1853478    1.0236986  1714209 
  481000    1.0122497   -2.1846457   -2.1846457   -1.1614905  0.069100251   -2.1846457    1.0231552  1714209 
  482000    1.0123512   -2.1848794   -2.1848794   -1.1616216  0.063002397   -2.1848794    1.0232578  1714209 
  483000    1.0120741   -2.1848214   -2.1848214   -1.1618438   0.06329538   -2.1848214    1.0229777  1714209 
  484000    1.0120639    -2.184304    -2.184304   -1.1613367  0.067644404    -2.184304    1.0229674  1714209 
  485000    1.0127529    -2.184994    -2.184994   -1.1613303  0.065141159    -2.184994    1.0236637  1714209 
  486000    1.0129284   -2.1854734   -2.1854734   -1.1616322  0.065166366   -2.1854734    1.0238412  1714209 
  487000    1.0131383   -2.1855404   -2.1855404   -1.1614871  0.066199442   -2.1855404    1.0240533  1714209 
  488000    1.0140445   -2.1862751   -2.1862751   -1.1613059  0.063480128   -2.1862751    1.0249692  1714209 
  489000    1.0135769   -2.1860037   -2.1860037    -1.161507  0.064540475   -2.1860037    1.0244966  1714209 
  490000    1.0142194   -2.1863432   -2.1863432   -1.1611971  0.062644904   -2.1863432    1.0251461  1714209 
  491000    1.0133412   -2.1852165   -2.1852165   -1.1609581  0.065573898   -2.1852165    1.0242584  1714209 
  492000    1.0134746   -2.1857188   -2.1857188   -1.1613255  0.062458815   -2.1857188    1.0243933  1714209 
  493000    1.0126011   -2.1852865   -2.1852865   -1.1617762  0.066756991   -2.1852865    1.0235103  1714209 
  494000    1.0129623    -2.185357    -2.185357   -1.1614816  0.067347441    -2.185357    1.0238754  1714209 
  495000    1.0132094   -2.1854359   -2.1854359   -1.1613107  0.064126835   -2.1854359    1.0241252  1714209 
  496000    1.0127078   -2.1852114   -2.1852114   -1.1615932  0.066294099   -2.1852114    1.0236182  1714209 
  497000    1.0133446    -2.185653    -2.185653   -1.1613912  0.065534667    -2.185653    1.0242618  1714209 
  498000    1.0130524   -2.1855632   -2.1855632   -1.1615967  0.067052656   -2.1855632    1.0239665  1714209 
  499000    1.0129556    -2.185278    -2.185278   -1.1614094  0.063888997    -2.185278    1.0238687  1714209 
  500000    1.0133607   -2.1854635   -2.1854635   -1.1611854  0.064676318   -2.1854635    1.0242781  1714209 
  501000    1.0136908   -2.1857077   -2.1857077   -1.1610959  0.066443727   -2.1857077    1.0246118  1714209 
  502000    1.0140947   -2.1864749   -2.1864749   -1.1614548  0.064165508   -2.1864749      1.02502  1714209 
  503000    1.0132159   -2.1855509   -2.1855509   -1.1614191  0.066144465   -2.1855509    1.0241318  1714209 
  504000    1.0132863   -2.1851028   -2.1851028   -1.1608999  0.068733401   -2.1851028    1.0242029  1714209 
  505000    1.0133241   -2.1850376   -2.1850376   -1.1607964  0.069387257   -2.1850376    1.0242411  1714209 
  506000    1.0133561   -2.1854838   -2.1854838   -1.1612103  0.070464965   -2.1854838    1.0242734  1714209 
  507000    1.0130139   -2.1848775   -2.1848775   -1.1609499  0.073136707   -2.1848775    1.0239276  1714209 
  508000    1.0132546   -2.1852547   -2.1852547   -1.1610838  0.068282857   -2.1852547    1.0241709  1714209 
  509000    1.0128737   -2.1848765   -2.1848765   -1.1610907  0.065702332   -2.1848765    1.0237859  1714209 
  510000    1.0127762   -2.1848934   -2.1848934    -1.161206  0.066065736   -2.1848934    1.0236874  1714209 
  511000    1.0129009   -2.1852223   -2.1852223   -1.1614089  0.065036039   -2.1852223    1.0238134  1714209 
  512000    1.0133577   -2.1854498   -2.1854498   -1.1611747  0.067740847   -2.1854498    1.0242751  1714209 
  513000    1.0131897   -2.1850171   -2.1850171   -1.1609118  0.067009264   -2.1850171    1.0241053  1714209 
  514000     1.013184   -2.1846524   -2.1846524   -1.1605529    0.0659447   -2.1846524    1.0240995  1714209 
  515000     1.013312   -2.1852739   -2.1852739    -1.161045  0.064899445   -2.1852739    1.0242289  1714209 
  516000    1.0123791   -2.1846818   -2.1846818   -1.1613959  0.067622017   -2.1846818    1.0232859  1714209 
  517000     1.012694   -2.1847594   -2.1847594   -1.1611552  0.064204407   -2.1847594    1.0236042  1714209 
  518000    1.0126951   -2.1848238   -2.1848238   -1.1612185  0.068177409   -2.1848238    1.0236053  1714209 
  519000    1.0117404   -2.1842724   -2.1842724    -1.161632  0.069897072   -2.1842724    1.0226404  1714209 
  520000    1.0127537   -2.1850827   -2.1850827   -1.1614182  0.063792111   -2.1850827    1.0236646  1714209 
  521000    1.0128743   -2.1847921   -2.1847921   -1.1610057  0.069206627   -2.1847921    1.0237865  1714209 
  522000    1.0126925   -2.1841734   -2.1841734   -1.1605707  0.065105295   -2.1841734    1.0236027  1714209 
  523000    1.0114926   -2.1833529   -2.1833529    -1.160963  0.068190719   -2.1833529    1.0223899  1714209 
  524000    1.0120249   -2.1834521   -2.1834521   -1.1605242  0.068491323   -2.1834521    1.0229279  1714209 
  525000    1.0115188   -2.1833247   -2.1833247   -1.1609082  0.066305768   -2.1833247    1.0224164  1714209 
  526000     1.011639   -2.1835985   -2.1835985   -1.1610606  0.068537413   -2.1835985    1.0225379  1714209 
  527000    1.0120248   -2.1841821   -2.1841821   -1.1612542  0.065882055   -2.1841821    1.0229279  1714209 
  528000    1.0115667   -2.1834116   -2.1834116   -1.1609468  0.068003525   -2.1834116    1.0224648  1714209 
  529000    1.0126733    -2.184449    -2.184449   -1.1608657  0.066253296    -2.184449    1.0235833  1714209 
  530000    1.0123597   -2.1839985   -2.1839985   -1.1607322   0.06690059   -2.1839985    1.0232663  1714209 
  531000     1.012491   -2.1842398   -2.1842398   -1.1608408  0.062397262   -2.1842398     1.023399  1714209 
  532000    1.0112038   -2.1829629   -2.1829629    -1.160865  0.064039251   -2.1829629    1.0220979  1714209 
  533000    1.0125337   -2.1842816   -2.1842816   -1.1608394  0.063232783   -2.1842816    1.0234423  1714209 
  534000    1.0126698   -2.1845296   -2.1845296   -1.1609499  0.069089422   -2.1845296    1.0235798  1714209 
  535000    1.0127895    -2.184552    -2.184552   -1.1608513  0.067364363    -2.184552    1.0237007  1714209 
  536000    1.0122057   -2.1837708   -2.1837708   -1.1606601  0.069188779   -2.1837708    1.0231107  1714209 
  537000    1.0123856   -2.1839657   -2.1839657   -1.1606731  0.064864029   -2.1839657    1.0232925  1714209 
  538000    1.0122964   -2.1843552   -2.1843552   -1.1611529  0.063575314   -2.1843552    1.0232023  1714209 
  539000    1.0117253   -2.1837884   -2.1837884   -1.1611633  0.068868467   -2.1837884    1.0226251  1714209 
  540000    1.0120634   -2.1842216   -2.1842216   -1.1612547  0.067804332   -2.1842216    1.0229668  1714209 
  541000    1.0129563   -2.1852025   -2.1852025   -1.1613331  0.069387572   -2.1852025    1.0238694  1714209 
  542000    1.0126196   -2.1848091   -2.1848091     -1.16128  0.064842188   -2.1848091    1.0235291  1714209 
  543000     1.010989   -2.1838825   -2.1838825   -1.1620017  0.061905707   -2.1838825    1.0218808  1714209 
  544000    1.0131965    -2.185995    -2.185995   -1.1618828  0.062774377    -2.185995    1.0241122  1714209 
  545000    1.0129452   -2.1861833   -2.1861833   -1.1623252  0.064263042   -2.1861833    1.0238581  1714209 
  546000      1.01159   -2.1845018   -2.1845018   -1.1620134  0.069607995   -2.1845018    1.0224884  1714209 
  547000    1.0124776   -2.1857003   -2.1857003   -1.1623148  0.066319821   -2.1857003    1.0233856  1714209 
  548000    1.0141289   -2.1869996   -2.1869996    -1.161945  0.066387995   -2.1869996    1.0250546  1714209 
  549000     1.013842   -2.1866885   -2.1866885    -1.161924  0.062066531   -2.1866885    1.0247646  1714209 
  550000    1.0128913    -2.185533    -2.185533   -1.1617293   0.06517265    -2.185533    1.0238037  1714209 
  551000    1.0127824    -2.185965    -2.185965   -1.1622714  0.069507901    -2.185965    1.0236936  1714209 
  552000    1.0127631   -2.1860504   -2.1860504   -1.1623763  0.064764657   -2.1860504    1.0236741  1714209 
  553000    1.0131271   -2.1863637   -2.1863637   -1.1623216  0.065225037   -2.1863637     1.024042  1714209 
  554000    1.0134338   -2.1868763   -2.1868763   -1.1625244  0.066554426   -2.1868763     1.024352  1714209 
  555000    1.0137743   -2.1870708   -2.1870708   -1.1623746   0.06570275   -2.1870708    1.0246962  1714209 
  556000    1.0130275   -2.1867919   -2.1867919   -1.1628505  0.065006349   -2.1867919    1.0239414  1714209 
  557000    1.0133317   -2.1870547   -2.1870547   -1.1628059  0.068015794   -2.1870547    1.0242488  1714209 
  558000    1.0133767   -2.1867979   -2.1867979   -1.1625036  0.063030642   -2.1867979    1.0242943  1714209 
  559000    1.0134228   -2.1867916   -2.1867916   -1.1624507  0.065711402   -2.1867916    1.0243409  1714209 
  560000     1.013986   -2.1874754   -2.1874754   -1.1625653  0.062299636   -2.1874754    1.0249101  1714209 
  561000    1.0141529   -2.1876422   -2.1876422   -1.1625634  0.071712618   -2.1876422    1.0250789  1714209 
  562000    1.0140227   -2.1874958   -2.1874958   -1.1625485  0.064762749   -2.1874958    1.0249473  1714209 
  563000    1.0146711   -2.1882235   -2.1882235   -1.1626209  0.068533358   -2.1882235    1.0256026  1714209 
  564000    1.0138646   -2.1874021   -2.1874021   -1.1626146  0.067600461   -2.1874021    1.0247874  1714209 
  565000    1.0137267   -2.1872502   -2.1872502   -1.1626021  0.066966183   -2.1872502    1.0246481  1714209 
  566000    1.0130309   -2.1868304   -2.1868304   -1.1628856  0.067387712   -2.1868304    1.0239448  1714209 
  567000    1.0133117   -2.1870958   -2.1870958   -1.1628672  0.068902654   -2.1870958    1.0242286  1714209 
  568000    1.0132825   -2.1871372   -2.1871372   -1.1629381  0.069712845   -2.1871372    1.0241991  1714209 
  569000    1.0124759   -2.1865604   -2.1865604   -1.1631766  0.068543528   -2.1865604    1.0233838  1714209 
  570000     1.013011   -2.1866156   -2.1866156   -1.1626909  0.064373597   -2.1866156    1.0239247  1714209 
  571000    1.0142755   -2.1878698   -2.1878698    -1.162667  0.063630339   -2.1878698    1.0252028  1714209 
  572000    1.0127078   -2.1872744   -2.1872744   -1.1636562  0.063368797   -2.1872744    1.0236182  1714209 
  573000     1.012541   -2.1872689   -2.1872689   -1.1638193  0.065576627   -2.1872689    1.0234496  1714209 
  574000    1.0127822   -2.1872263   -2.1872263   -1.1635329  0.065942863   -2.1872263    1.0236934  1714209 
  575000    1.0122919   -2.1870953   -2.1870953   -1.1638975  0.065594166   -2.1870953    1.0231978  1714209 
  576000    1.0119522   -2.1868608   -2.1868608   -1.1640064   0.06213895   -2.1868608    1.0228544  1714209 
  577000    1.0128188   -2.1877476   -2.1877476   -1.1640172  0.069971253   -2.1877476    1.0237304  1714209 
  578000    1.0126981   -2.1873128   -2.1873128   -1.1637044  0.062688893   -2.1873128    1.0236084  1714209 
  579000    1.0122298   -2.1867499   -2.1867499   -1.1636148  0.065135358   -2.1867499     1.023135  1714209 
  580000      1.01231   -2.1870482   -2.1870482   -1.1638321   0.06120488   -2.1870482    1.0232161  1714209 
  581000    1.0122223   -2.1871559   -2.1871559   -1.1640284  0.066069148   -2.1871559    1.0231275  1714209 
  582000    1.0117007   -2.1868389   -2.1868389   -1.1642386  0.068184227   -2.1868389    1.0226002  1714209 
  583000    1.0123025   -2.1872945   -2.1872945    -1.164086  0.066582075   -2.1872945    1.0232085  1714209 
  584000    1.0122722   -2.1870112   -2.1870112   -1.1638333  0.067324828   -2.1870112    1.0231779  1714209 
  585000    1.0130118   -2.1873641   -2.1873641   -1.1634386  0.064993662   -2.1873641    1.0239255  1714209 
  586000    1.0127136   -2.1872349   -2.1872349   -1.1636109  0.068933857   -2.1872349     1.023624  1714209 
  587000    1.0119024   -2.1867187   -2.1867187   -1.1639147  0.061697148   -2.1867187    1.0228041  1714209 
  588000    1.0114418   -2.1857479   -2.1857479   -1.1634094  0.070005716   -2.1857479    1.0223386  1714209 
  589000    1.0131208   -2.1874124   -2.1874124   -1.1633767  0.064657312   -2.1874124    1.0240357  1714209 
  590000    1.0128634   -2.1876901   -2.1876901   -1.1639147  0.064321723   -2.1876901    1.0237754  1714209 
  591000    1.0123982   -2.1870915   -2.1870915   -1.1637862  0.063454996   -2.1870915    1.0233052  1714209 
  592000    1.0125224   -2.1871511   -2.1871511   -1.1637202  0.070333642   -2.1871511    1.0234308  1714209 
  593000    1.0125227   -2.1873535   -2.1873535   -1.1639223   0.06493946   -2.1873535    1.0234311  1714209 
  594000    1.0120798   -2.1869848   -2.1869848   -1.1640013   0.06965275   -2.1869848    1.0229834  1714209 
  595000     1.012404   -2.1872626   -2.1872626   -1.1639515  0.067434676   -2.1872626    1.0233111  1714209 
  596000    1.0121468   -2.1869508   -2.1869508   -1.1638996  0.066981961   -2.1869508    1.0230512  1714209 
  597000    1.0127103    -2.187562    -2.187562   -1.1639413  0.066106386    -2.187562    1.0236207  1714209 
  598000    1.0131318   -2.1877842   -2.1877842   -1.1637375    0.0644966   -2.1877842    1.0240467  1714209 
  599000    1.0123978   -2.1868094   -2.1868094   -1.1635046  0.069876734   -2.1868094    1.0233048  1714209 
  600000    1.0128946   -2.1877441   -2.1877441    -1.163937  0.064493509   -2.1877441     1.023807  1714209 
  601000    1.0125516   -2.1873161   -2.1873161   -1.1638558  0.068069325   -2.1873161    1.0234603  1714209 
  602000    1.0127736   -2.1873112   -2.1873112   -1.1636265  0.066413271   -2.1873112    1.0236847  1714209 
  603000    1.0128064   -2.1870335   -2.1870335   -1.1633156  0.065322952   -2.1870335    1.0237178  1714209 
  604000     1.012411   -2.1870152   -2.1870152    -1.163697   0.06847956   -2.1870152    1.0233182  1714209 
  605000    1.0137012   -2.1880006   -2.1880006   -1.1633783  0.068815989   -2.1880006    1.0246223  1714209 
  606000    1.0130009   -2.1871864   -2.1871864    -1.163272  0.066073809   -2.1871864    1.0239144  1714209 
  607000    1.0144088   -2.1889007   -2.1889007   -1.1635631  0.068614291   -2.1889007    1.0253375  1714209 
  608000    1.0130251   -2.1872589   -2.1872589     -1.16332   0.07049558   -2.1872589    1.0239389  1714209 
  609000    1.0131987   -2.1875089   -2.1875089   -1.1633945  0.066401912   -2.1875089    1.0241144  1714209 
  610000    1.0129723    -2.187594    -2.187594   -1.1637084  0.066021444    -2.187594    1.0238856  1714209 
  611000    1.0133592   -2.1878696   -2.1878696    -1.163593    0.0675459   -2.1878696    1.0242766  1714209 
  612000    1.0132332    -2.187683    -2.187683   -1.1635337  0.064522608    -2.187683    1.0241492  1714209 
  613000    1.0126855   -2.1872624   -2.1872624   -1.1636667  0.067901284   -2.1872624    1.0235957  1714209 
  614000    1.0129686   -2.1876947   -2.1876947   -1.1638129  0.065242062   -2.1876947    1.0238818  1714209 
  615000    1.0134117    -2.188005    -2.188005   -1.1636753  0.069855085    -2.188005    1.0243296  1714209 
  616000    1.0128748   -2.1878129   -2.1878129   -1.1640259  0.066481387   -2.1878129     1.023787  1714209 
  617000    1.0126502    -2.187526    -2.187526   -1.1639661   0.06525878    -2.187526    1.0235599  1714209 
  618000    1.0126499   -2.1874398   -2.1874398   -1.1638802  0.063928209   -2.1874398    1.0235597  1714209 
  619000    1.0137475   -2.1884014   -2.1884014   -1.1637323   0.06855207   -2.1884014    1.0246691  1714209 
  620000    1.0120219   -2.1873488   -2.1873488   -1.1644239  0.068696199   -2.1873488    1.0229249  1714209 
  621000    1.0125375   -2.1878555   -2.1878555   -1.1644094  0.066887365   -2.1878555    1.0234461  1714209 
  622000    1.0119183   -2.1871591   -2.1871591    -1.164339  0.062647723   -2.1871591    1.0228202  1714209 
  623000    1.0115569   -2.1872724   -2.1872724   -1.1648176  0.062678131   -2.1872724    1.0224549  1714209 
  624000       1.0116   -2.1868364   -2.1868364   -1.1643379   0.06497444   -2.1868364    1.0224985  1714209 
  625000    1.0119334   -2.1876098   -2.1876098   -1.1647744  0.065531495   -2.1876098    1.0228354  1714209 
  626000    1.0113959   -2.1868741   -2.1868741    -1.164582  0.066698903   -2.1868741    1.0222921  1714209 
  627000    1.0114806   -2.1871779   -2.1871779   -1.1648002  0.061721884   -2.1871779    1.0223777  1714209 
  628000     1.011674   -2.1873216   -2.1873216   -1.1647483  0.064139821   -2.1873216    1.0225733  1714209 
  629000    1.0123536   -2.1874594   -2.1874594   -1.1641993  0.067972432   -2.1874594    1.0232602  1714209 
  630000    1.0124352   -2.1874702   -2.1874702   -1.1641275  0.062909064   -2.1874702    1.0233427  1714209 
  631000    1.0125125   -2.1880529   -2.1880529   -1.1646321  0.068133446   -2.1880529    1.0234208  1714209 
  632000    1.0123768    -2.188297    -2.188297   -1.1650134  0.065286352    -2.188297    1.0232836  1714209 
  633000    1.0114749    -2.187125    -2.187125    -1.164753  0.067683641    -2.187125     1.022372  1714209 
  634000    1.0115779   -2.1871166   -2.1871166   -1.1646405  0.070609937   -2.1871166    1.0224761  1714209 
  635000    1.0124513   -2.1875968   -2.1875968   -1.1642379   0.06687356   -2.1875968     1.023359  1714209 
  636000    1.0125506   -2.1876687   -2.1876687   -1.1642095  0.064167811   -2.1876687    1.0234593  1714209 
  637000    1.0125151   -2.1875716   -2.1875716   -1.1641482  0.066850453   -2.1875716    1.0234234  1714209 
  638000    1.0122447   -2.1876207   -2.1876207   -1.1644706  0.065890375   -2.1876207    1.0231501  1714209 
  639000    1.0122999   -2.1873292   -2.1873292   -1.1641234  0.070393706   -2.1873292    1.0232059  1714209 
  640000    1.0135186   -2.1883724   -2.1883724   -1.1639347  0.069591804   -2.1883724    1.0244377  1714209 
  641000    1.0129056   -2.1880283   -2.1880283   -1.1642102   0.06458528   -2.1880283    1.0238181  1714209 
  642000    1.0122497   -2.1877511   -2.1877511   -1.1645959  0.064797621   -2.1877511    1.0231552  1714209 
[...]
 9832000    1.0122785   -2.2056041   -2.2056041   -1.1824198  0.073164266   -2.2056041    1.0231843  1714209 
 9833000    1.0120552   -2.2051277   -2.2051277   -1.1821692  0.072784038   -2.2051277    1.0229586  1714209 
 9834000    1.0126325   -2.2055235   -2.2055235   -1.1819814  0.076400209   -2.2055235    1.0235421  1714209 
 9835000    1.0115726   -2.2051338   -2.2051338   -1.1826631  0.071602692   -2.2051338    1.0224707  1714209 
 9836000    1.0117166   -2.2052766   -2.2052766   -1.1826603  0.070916589   -2.2052766    1.0226163  1714209 
 9837000    1.0117356   -2.2058675   -2.2058675    -1.183232   0.07397614   -2.2058675    1.0226355  1714209 
 9838000     1.011399   -2.2054678   -2.2054678   -1.1831725  0.066403315   -2.2054678    1.0222952  1714209 
 9839000    1.0113364   -2.2052263   -2.2052263   -1.1829942  0.074914341   -2.2052263     1.022232  1714209 
 9840000    1.0107028   -2.2047855   -2.2047855    -1.183194  0.070124158   -2.2047855    1.0215915  1714209 
 9841000    1.0110183   -2.2053453   -2.2053453   -1.1834348  0.074067818   -2.2053453    1.0219105  1714209 
 9842000    1.0112609    -2.205567    -2.205567   -1.1834112  0.069837206    -2.205567    1.0221558  1714209 
 9843000    1.0119996   -2.2063208   -2.2063208   -1.1834185  0.071181783   -2.2063208    1.0229023  1714209 
 9844000    1.0128738   -2.2066324   -2.2066324   -1.1828464  0.069735607   -2.2066324     1.023786  1714209 
 9845000    1.0129456   -2.2063925   -2.2063925   -1.1825339  0.066920413   -2.2063925    1.0238586  1714209 
 9846000    1.0113051   -2.2053775   -2.2053775   -1.1831771  0.072695357   -2.2053775    1.0222004  1714209 
 9847000    1.0122479   -2.2063373   -2.2063373    -1.183184  0.071109019   -2.2063373    1.0231534  1714209 
 9848000    1.0121278   -2.2062559   -2.2062559   -1.1832239  0.075690481   -2.2062559     1.023032  1714209 
 9849000    1.0123122   -2.2067637   -2.2067637   -1.1835453   0.06927213   -2.2067637    1.0232183  1714209 
 9850000    1.0122769   -2.2063884   -2.2063884   -1.1832058  0.076289298   -2.2063884    1.0231826  1714209 
 9851000    1.0126964   -2.2067749   -2.2067749   -1.1831683  0.070506464   -2.2067749    1.0236067  1714209 
 9852000    1.0117995   -2.2057849   -2.2057849   -1.1830848  0.076367352   -2.2057849    1.0227001  1714209 
 9853000    1.0115238   -2.2052285   -2.2052285    -1.182807  0.069866595   -2.2052285    1.0224215  1714209 
 9854000    1.0124076   -2.2058021   -2.2058021   -1.1824874  0.077114212   -2.2058021    1.0233148  1714209 
 9855000    1.0129939   -2.2067658   -2.2067658   -1.1828584   0.06653573   -2.2067658    1.0239074  1714209 
 9856000    1.0128776   -2.2066906   -2.2066906   -1.1829008  0.070601842   -2.2066906    1.0237898  1714209 
 9857000    1.0126641   -2.2063518   -2.2063518   -1.1827778  0.073110161   -2.2063518     1.023574  1714209 
 9858000    1.0127517   -2.2066043   -2.2066043   -1.1829417  0.072397724   -2.2066043    1.0236626  1714209 
 9859000    1.0126979   -2.2068588   -2.2068588   -1.1832506  0.067660031   -2.2068588    1.0236082  1714209 
 9860000    1.0130997   -2.2069143   -2.2069143      -1.1829  0.071736686   -2.2069143    1.0240143  1714209 
 9861000    1.0117889   -2.2060333   -2.2060333   -1.1833439  0.072198605   -2.2060333    1.0226894  1714209 
 9862000     1.011827    -2.205904    -2.205904   -1.1831761  0.069509663    -2.205904    1.0227279  1714209 
 9863000    1.0117806   -2.2057024   -2.2057024   -1.1830214  0.071829949   -2.2057024     1.022681  1714209 
 9864000    1.0119402   -2.2057574   -2.2057574   -1.1829151  0.069327217   -2.2057574    1.0228423  1714209 
 9865000    1.0125437   -2.2060954   -2.2060954   -1.1826431  0.069973593   -2.2060954    1.0234523  1714209 
 9866000    1.0116606   -2.2051605   -2.2051605   -1.1826007  0.070750882   -2.2051605    1.0225597  1714209 
 9867000    1.0115872    -2.205129    -2.205129   -1.1826435  0.064678862    -2.205129    1.0224855  1714209 
 9868000    1.0115735   -2.2050231   -2.2050231   -1.1825514  0.072561906   -2.2050231    1.0224717  1714209 
 9869000    1.0120385   -2.2053069   -2.2053069   -1.1823653  0.069217652   -2.2053069    1.0229416  1714209 
 9870000    1.0122901   -2.2057193   -2.2057193   -1.1825232  0.067855889   -2.2057193     1.023196  1714209 
 9871000    1.0120051   -2.2057084   -2.2057084   -1.1828005   0.07401708   -2.2057084    1.0229079  1714209 
 9872000    1.0111883   -2.2053192   -2.2053192   -1.1832368  0.073879285   -2.2053192    1.0220824  1714209 
 9873000    1.0112984   -2.2053913   -2.2053913   -1.1831977  0.065594301   -2.2053913    1.0221936  1714209 
 9874000    1.0112932   -2.2049186   -2.2049186   -1.1827303  0.071618294   -2.2049186    1.0221884  1714209 
 9875000     1.010901   -2.2048937   -2.2048937   -1.1831017  0.071023647   -2.2048937    1.0217919  1714209 
 9876000    1.0119576   -2.2058668   -2.2058668   -1.1830068  0.075469062   -2.2058668      1.02286  1714209 
 9877000    1.0121553   -2.2057596   -2.2057596   -1.1826999  0.069452109   -2.2057596    1.0230597  1714209 
 9878000    1.0125084   -2.2055301   -2.2055301   -1.1821135  0.070436409   -2.2055301    1.0234166  1714209 
 9879000    1.0114772   -2.2048374   -2.2048374   -1.1824631  0.071019068   -2.2048374    1.0223743  1714209 
 9880000    1.0116822   -2.2050844   -2.2050844   -1.1825029  0.071904234   -2.2050844    1.0225815  1714209 
 9881000    1.0113276   -2.2047556   -2.2047556   -1.1825325  0.067058306   -2.2047556    1.0222231  1714209 
 9882000    1.0106089   -2.2039487   -2.2039487    -1.182452  0.071035772   -2.2039487    1.0214967  1714209 
 9883000    1.0108601   -2.2040123   -2.2040123   -1.1822617  0.068234062   -2.2040123    1.0217506  1714209 
 9884000    1.0117899   -2.2046731   -2.2046731   -1.1819827  0.067308842   -2.2046731    1.0226904  1714209 
 9885000    1.0119664   -2.2048799   -2.2048799    -1.182011  0.069859768   -2.2048799    1.0228688  1714209 
 9886000    1.0122634   -2.2051281   -2.2051281   -1.1819591  0.070719205   -2.2051281     1.023169  1714209 
 9887000    1.0115405      -2.2046      -2.2046   -1.1821617  0.070266394      -2.2046    1.0224384  1714209 
 9888000    1.0114119   -2.2048554   -2.2048554    -1.182547  0.073444186   -2.2048554    1.0223084  1714209 
 9889000    1.0123858   -2.2050435   -2.2050435   -1.1817508  0.070436575   -2.2050435    1.0232927  1714209 
 9890000    1.0124625   -2.2052892   -2.2052892    -1.181919  0.068681261   -2.2052892    1.0233702  1714209 
 9891000    1.0121848    -2.205177    -2.205177   -1.1820874  0.068247825    -2.205177    1.0230896  1714209 
 9892000    1.0123089   -2.2049318   -2.2049318   -1.1817168  0.069908597   -2.2049318     1.023215  1714209 
 9893000    1.0120648   -2.2050105   -2.2050105   -1.1820423  0.070010154   -2.2050105    1.0229683  1714209 
 9894000    1.0128516   -2.2056277   -2.2056277   -1.1818642  0.068451902   -2.2056277    1.0237635  1714209 
 9895000    1.0118615   -2.2049592   -2.2049592   -1.1821965   0.07420467   -2.2049592    1.0227628  1714209 
 9896000    1.0106194   -2.2041487   -2.2041487   -1.1826414  0.076065646   -2.2041487    1.0215073  1714209 
 9897000    1.0110124   -2.2044324   -2.2044324   -1.1825279  0.072618868   -2.2044324    1.0219045  1714209 
 9898000    1.0116815   -2.2046095   -2.2046095   -1.1820287   0.06983867   -2.2046095    1.0225808  1714209 
 9899000    1.0123216   -2.2052418   -2.2052418    -1.182014  0.066560956   -2.2052418    1.0232278  1714209 
 9900000     1.011318   -2.2044884   -2.2044884    -1.182275  0.066724731   -2.2044884    1.0222134  1714209 
 9901000    1.0122699   -2.2058242   -2.2058242   -1.1826487  0.067220115   -2.2058242    1.0231755  1714209 
 9902000    1.0115809   -2.2052547   -2.2052547   -1.1827756  0.074023534   -2.2052547    1.0224791  1714209 
 9903000    1.0118215   -2.2051194   -2.2051194   -1.1823971  0.072897774   -2.2051194    1.0227223  1714209 
 9904000     1.011662   -2.2050333   -2.2050333   -1.1824722  0.071331785   -2.2050333    1.0225611  1714209 
 9905000    1.0122862   -2.2057145   -2.2057145   -1.1825225  0.071459845   -2.2057145     1.023192  1714209 
 9906000    1.0123691   -2.2055885   -2.2055885   -1.1823126  0.072645737   -2.2055885    1.0232758  1714209 
 9907000    1.0117284   -2.2048276   -2.2048276   -1.1821993  0.068322463   -2.2048276    1.0226282  1714209 
 9908000     1.012264   -2.2053106   -2.2053106    -1.182141  0.072115659   -2.2053106    1.0231696  1714209 
 9909000    1.0123593   -2.2055278   -2.2055278   -1.1822619  0.070253079   -2.2055278    1.0232659  1714209 
 9910000    1.0120427   -2.2052466   -2.2052466   -1.1823006  0.074898653   -2.2052466     1.022946  1714209 
 9911000    1.0131609   -2.2059346   -2.2059346   -1.1818585   0.07334117   -2.2059346    1.0240761  1714209 
 9912000    1.0123259   -2.2046743   -2.2046743   -1.1814422  0.073346822   -2.2046743    1.0232322  1714209 
 9913000    1.0122423   -2.2046788   -2.2046788   -1.1815312  0.075047709   -2.2046788    1.0231476  1714209 
 9914000    1.0126842   -2.2052769   -2.2052769   -1.1816826  0.068966833   -2.2052769    1.0235943  1714209 
 9915000    1.0119229   -2.2049715   -2.2049715   -1.1821466  0.063707184   -2.2049715    1.0228249  1714209 
 9916000    1.0122993   -2.2052008   -2.2052008   -1.1819955  0.071280425   -2.2052008    1.0232053  1714209 
 9917000    1.0122925   -2.2050266   -2.2050266   -1.1818282  0.066921004   -2.2050266    1.0231984  1714209 
 9918000    1.0119746    -2.203767    -2.203767   -1.1808899  0.071754687    -2.203767    1.0228771  1714209 
 9919000    1.0123807   -2.2044823   -2.2044823   -1.1811947  0.078869555   -2.2044823    1.0232876  1714209 
 9920000    1.0118403   -2.2041807   -2.2041807   -1.1814394  0.071221565   -2.2041807    1.0227413  1714209 
 9921000    1.0121745   -2.2044792   -2.2044792   -1.1814001  0.068715651   -2.2044792    1.0230791  1714209 
 9922000    1.0124168    -2.204722    -2.204722    -1.181398   0.06719783    -2.204722    1.0233241  1714209 
 9923000    1.0121591   -2.2041904   -2.2041904   -1.1811268   0.06738542   -2.2041904    1.0230635  1714209 
 9924000    1.0125979   -2.2047773   -2.2047773   -1.1812702  0.071596215   -2.2047773    1.0235071  1714209 
 9925000    1.0129107   -2.2047302   -2.2047302   -1.1809069  0.069891524   -2.2047302    1.0238233  1714209 
 9926000    1.0119881   -2.2037868   -2.2037868   -1.1808961  0.068085869   -2.2037868    1.0228907  1714209 
 9927000    1.0107469   -2.2028076   -2.2028076   -1.1811715   0.06884207   -2.2028076    1.0216361  1714209 
 9928000    1.0112005   -2.2031705   -2.2031705   -1.1810759  0.076510261   -2.2031705    1.0220946  1714209 
 9929000    1.0107637   -2.2029846   -2.2029846   -1.1813315  0.068673334   -2.2029846    1.0216532  1714209 
 9930000    1.0113722   -2.2037018   -2.2037018   -1.1814336  0.066816856   -2.2037018    1.0222682  1714209 
 9931000    1.0121454   -2.2039747   -2.2039747    -1.180925  0.069598759   -2.2039747    1.0230497  1714209 
 9932000    1.0112177   -2.2031406   -2.2031406   -1.1810286  0.065515849   -2.2031406     1.022112  1714209 
 9933000    1.0104828   -2.2020521   -2.2020521   -1.1806829  0.069330178   -2.2020521    1.0213692  1714209 
 9934000    1.0106181   -2.2024905   -2.2024905   -1.1809845  0.069994373   -2.2024905     1.021506  1714209 
 9935000    1.0113759   -2.2032268   -2.2032268   -1.1809549  0.063843953   -2.2032268    1.0222719  1714209 
 9936000    1.0107228   -2.2020422   -2.2020422   -1.1804304  0.071862587   -2.2020422    1.0216118  1714209 
 9937000    1.0108845   -2.2025953   -2.2025953     -1.18082  0.068781199   -2.2025953    1.0217753  1714209 
 9938000    1.0115862   -2.2031602   -2.2031602   -1.1806757  0.070799726   -2.2031602    1.0224845  1714209 
 9939000    1.0113317   -2.2029607   -2.2029607   -1.1807335  0.067343828   -2.2029607    1.0222273  1714209 
 9940000    1.0122704   -2.2039355   -2.2039355   -1.1807594   0.07164615   -2.2039355    1.0231761  1714209 
 9941000    1.0117923   -2.2036254   -2.2036254   -1.1809326  0.068933254   -2.2036254    1.0226928  1714209 
 9942000    1.0115461   -2.2031599   -2.2031599    -1.180716  0.074947119   -2.2031599    1.0224439  1714209 
 9943000    1.0119342   -2.2035597   -2.2035597   -1.1807235  0.069818415   -2.2035597    1.0228362  1714209 
 9944000    1.0116599    -2.203434    -2.203434    -1.180875  0.072312302    -2.203434     1.022559  1714209 
 9945000    1.0111958   -2.2028971   -2.2028971   -1.1808072  0.072892462   -2.2028971    1.0220899  1714209 
 9946000    1.0121581   -2.2037707   -2.2037707   -1.1807081    0.0663303   -2.2037707    1.0230625  1714209 
 9947000    1.0121221   -2.2037221   -2.2037221   -1.1806959  0.070957559   -2.2037221    1.0230261  1714209 
 9948000    1.0115789   -2.2033576   -2.2033576   -1.1808805  0.067255969   -2.2033576    1.0224771  1714209 
 9949000    1.0113086   -2.2027368   -2.2027368   -1.1805329  0.068469598   -2.2027368    1.0222039  1714209 
 9950000    1.0124595   -2.2040451   -2.2040451   -1.1806779  0.065575551   -2.2040451    1.0233672  1714209 
 9951000     1.011632   -2.2033877   -2.2033877   -1.1808569  0.074720762   -2.2033877    1.0225308  1714209 
 9952000    1.0132508    -2.204781    -2.204781    -1.180614  0.074860645    -2.204781     1.024167  1714209 
 9953000    1.0127643   -2.2044425   -2.2044425   -1.1807672  0.069062651   -2.2044425    1.0236753  1714209 
 9954000     1.013224   -2.2049636   -2.2049636   -1.1808236   0.07293853   -2.2049636      1.02414  1714209 
 9955000    1.0117547   -2.2034115   -2.2034115   -1.1807567   0.07223194   -2.2034115    1.0226548  1714209 
 9956000    1.0116003   -2.2033913   -2.2033913   -1.1808926  0.072381332   -2.2033913    1.0224987  1714209 
 9957000    1.0120734   -2.2038539   -2.2038539   -1.1808769  0.075849566   -2.2038539    1.0229769  1714209 
 9958000    1.0128618   -2.2047693   -2.2047693   -1.1809955  0.073021456   -2.2047693    1.0237738  1714209 
 9959000    1.0134875   -2.2050014   -2.2050014   -1.1805951  0.070476688   -2.2050014    1.0244063  1714209 
 9960000    1.0135515   -2.2052121   -2.2052121   -1.1807411  0.074335222   -2.2052121     1.024471  1714209 
 9961000    1.0132373   -2.2051319   -2.2051319   -1.1809786  0.073878825   -2.2051319    1.0241534  1714209 
 9962000    1.0125466   -2.2047136   -2.2047136   -1.1812583  0.073729863   -2.2047136    1.0234552  1714209 
 9963000    1.0125115   -2.2050304   -2.2050304   -1.1816106  0.068793673   -2.2050304    1.0234198  1714209 
 9964000    1.0127648   -2.2051467   -2.2051467   -1.1814708  0.074203296   -2.2051467    1.0236759  1714209 
 9965000    1.0124907   -2.2055042   -2.2055042   -1.1821055  0.075203144   -2.2055042    1.0233987  1714209 
 9966000     1.011104    -2.204102    -2.204102   -1.1821048  0.073280964    -2.204102    1.0219971  1714209 
 9967000    1.0125287   -2.2057739   -2.2057739   -1.1823368  0.070320055   -2.2057739    1.0234372  1714209 
 9968000    1.0132479    -2.206341    -2.206341   -1.1821769  0.069680456    -2.206341    1.0241641  1714209 
 9969000    1.0117118   -2.2050317   -2.2050317   -1.1824203  0.074306557   -2.2050317    1.0226115  1714209 
 9970000    1.0112434   -2.2047203   -2.2047203   -1.1825823  0.071190227   -2.2047203     1.022138  1714209 
 9971000     1.012088   -2.2051408   -2.2051408   -1.1821491  0.070629921   -2.2051408    1.0229917  1714209 
 9972000    1.0110161   -2.2045742   -2.2045742   -1.1826659  0.075760901   -2.2045742    1.0219083  1714209 
 9973000    1.0129958   -2.2059516   -2.2059516   -1.1820423  0.071992641   -2.2059516    1.0239093  1714209 
 9974000    1.0127663   -2.2058828   -2.2058828   -1.1822055   0.07508062   -2.2058828    1.0236773  1714209 
 9975000     1.011974   -2.2048183   -2.2048183   -1.1819419  0.068137589   -2.2048183    1.0228765  1714209 
 9976000    1.0122514   -2.2052323   -2.2052323   -1.1820755   0.07208354   -2.2052323    1.0231568  1714209 
 9977000    1.0122933   -2.2050859   -2.2050859   -1.1818867  0.070912595   -2.2050859    1.0231992  1714209 
 9978000    1.0125903   -2.2055087   -2.2055087   -1.1820093  0.074758836   -2.2055087    1.0234994  1714209 
 9979000    1.0120437     -2.20481     -2.20481   -1.1818631  0.066266668     -2.20481    1.0229469  1714209 
 9980000    1.0128411   -2.2050361   -2.2050361   -1.1812831  0.075420832   -2.2050361    1.0237529  1714209 
 9981000    1.0118128   -2.2039033   -2.2039033   -1.1811898  0.077006798   -2.2039033    1.0227135  1714209 
 9982000    1.0124334   -2.2040545   -2.2040545   -1.1807137  0.074999135   -2.2040545    1.0233408  1714209 
 9983000    1.0116578   -2.2037896   -2.2037896   -1.1812327  0.078413497   -2.2037896    1.0225569  1714209 
 9984000    1.0117492   -2.2044202   -2.2044202   -1.1817709  0.069402513   -2.2044202    1.0226493  1714209 
 9985000    1.0117516   -2.2041598   -2.2041598    -1.181508  0.074458023   -2.2041598    1.0226517  1714209 
 9986000    1.0116076    -2.204154    -2.204154   -1.1816479  0.072906545    -2.204154    1.0225061  1714209 
 9987000    1.0116112   -2.2038464   -2.2038464   -1.1813366  0.070736247   -2.2038464    1.0225098  1714209 
 9988000      1.01195   -2.2041434   -2.2041434   -1.1812912  0.069104495   -2.2041434    1.0228522  1714209 
 9989000    1.0113471   -2.2037995   -2.2037995   -1.1815567  0.069125877   -2.2037995    1.0222429  1714209 
 9990000    1.0114988    -2.203937    -2.203937   -1.1815409  0.071044876    -2.203937    1.0223962  1714209 
 9991000    1.0114462   -2.2034521   -2.2034521   -1.1811092  0.067337814   -2.2034521     1.022343  1714209 
 9992000    1.0118332   -2.2035707   -2.2035707   -1.1808366  0.066057897   -2.2035707    1.0227341  1714209 
 9993000    1.0119176   -2.2035889   -2.2035889   -1.1807694   0.07067904   -2.2035889    1.0228195  1714209 
 9994000    1.0111319   -2.2029551   -2.2029551   -1.1809298    0.0665703   -2.2029551    1.0220253  1714209 
 9995000    1.0119696   -2.2036082   -2.2036082   -1.1807361  0.070434989   -2.2036082    1.0228721  1714209 
 9996000    1.0125143   -2.2040685   -2.2040685    -1.180646  0.069850196   -2.2040685    1.0234226  1714209 
 9997000    1.0117194   -2.2032216   -2.2032216   -1.1806025  0.073049574   -2.2032216    1.0226191  1714209 
 9998000    1.0119768   -2.2034378   -2.2034378   -1.1805585  0.071144024   -2.2034378    1.0228793  1714209 
 9999000    1.0114483   -2.2026602   -2.2026602   -1.1803151   0.07257579   -2.2026602    1.0223451  1714209 
10000000    1.0132773   -2.2041305   -2.2041305   -1.1799367  0.069429236   -2.2041305    1.0241938  1714209 
Loop time of 19513.1 on 768 procs for 10000000 steps with 1714209 atoms

Performance: 221389.667 tau/day, 512.476 timesteps/s
91.6% CPU use with 768 MPI tasks x 1 OpenMP threads

MPI task timing breakdown:
Section |  min time  |  avg time  |  max time  |%varavg|  %CPU | %total
-----------------------------------------------------------------------
Pair    | 1587.8     | 4471.5     | 6596.6     |1414.2 |  92.9 | 22.92
Bond    | 6.3161     | 6.8335     | 7.3006     |   5.7 | 100.0 |  0.04
Neigh   | 1676.9     | 4264.5     | 5315.1     |1076.8 |  98.8 | 21.85
Comm    | 4034       | 6640.4     | 11568      |1615.2 |  88.6 | 34.03
Output  | 516.92     | 518.11     | 519.65     |   2.6 |  80.7 |  2.66
Modify  | 2597.1     | 3286.8     | 4154.1     | 555.2 |  89.8 | 16.84
Other   |            | 324.9      |            |       |       |  1.66

Nlocal:        2232.04 ave        2956 max        1639 min
Histogram: 4 23 134 142 185 135 89 43 11 2
Nghost:        5662.15 ave        8581 max        1872 min
Histogram: 45 41 38 39 61 141 172 131 71 29
Neighs:        42815.5 ave       69092 max       12166 min
Histogram: 47 1 12 93 155 155 165 77 28 35

Total # of neighbors = 32882303
Ave neighs/atom = 19.182202
Ave special neighs/atom = 0.0000000
Neighbor list builds = 1000000
Dangerous builds = 990000

Total wall time: 5:25:31
