LAMMPS (24 Dec 2020)
OMP_NUM_THREADS environment is not set. Defaulting to 1 thread. (src/comm.cpp:94)
  using 1 OpenMP thread(s) per MPI task
# Simple rigid body system
# needed variables: startTemp, temp

units		lj
atom_style	full
dimension 	3
boundary	p p f
pair_style	lj/cut/opt 2.5

variable 	gcmcdisplace	equal 0
variable 	sigma		equal 1.0
variable 	epsilon 	equal 1.0


read_restart	restart.dat.3000000
Reading restart file ...
  restart file = 24 Dec 2020, LAMMPS = 24 Dec 2020
WARNING: Restart file used different # of processors: 48 vs. 192 (src/read_restart.cpp:697)
  restoring atom style full from restart
  orthogonal box = (0.0000000 0.0000000 0.0000000) to (80.000000 80.000000 160.00000)
  6 by 4 by 8 MPI processor grid
  restoring pair style lj/cut/opt from restart
  439061 atoms
Finding 1-2 1-3 1-4 neighbors ...
  special bond factors lj:    0        0        0       
  special bond factors coul:  0        0        0       
     0 = max # of 1-2 neighbors
     0 = max # of 1-3 neighbors
     0 = max # of 1-4 neighbors
     1 = max # of special neighbors
  special bonds CPU = 1.409 seconds
  read_restart CPU = 1.704 seconds

mass		1 1.0
mass		2 1.0
mass		3 1.0


group		solvent type 1
439061 atoms in group solvent


neighbor 	0.4 bin

pair_coeff	1 1 1.0 1.0
pair_coeff	2 2 0.0 0.0
pair_coeff	3 3 0.0 0.0
pair_coeff	2 3 0.0 0.0
pair_coeff	1 2*3 0.0 0.0

pair_modify 	shift yes


balance 	1.05 shift z 10 1.05
Balancing ...
Neighbor list info ...
  update every 1 steps, delay 10 steps, check yes
  max neighbors/atom: 2000, page size: 100000
  master list distance cutoff = 2.9
  ghost atom cutoff = 2.9
  binsize = 1.45, bins = 56 56 111
  1 neighbor lists, perpetual/occasional/extra = 1 0 0
  (1) pair lj/cut/opt, perpetual
      attributes: half, newton on
      pair build: half/bin/newton
      stencil: half/bin/3d/newton
      bin: standard
 rebalancing time: 0.022 seconds
  iteration count = 5
  initial/final maximal load/proc = 3162.0000 2575.0000
  initial/final imbalance factor  = 1.3827327 1.1260394
  x cuts: 0.0000000 0.16666667 0.33333333 0.50000000 0.66666667 0.83333333 1.0000000
  y cuts: 0.0000000 0.25000000 0.50000000 0.75000000 1.0000000
  z cuts: 0.0000000 0.097656250 0.18359375 0.27734375 0.37890625 0.47656250 0.57031250 0.67968750 1.0000000


####################### WALLS ###########################


variable       epsilonWall equal 2*${epsilon}
variable       epsilonWall equal 2*1

variable       cutoffTop   equal   0.7147*${sigma}
variable       cutoffTop   equal   0.7147*1

variable       cutoffLow   equal   3*${sigma}
variable       cutoffLow   equal   3*1


fix            topWall all wall/lj93 zhi EDGE                ${epsilonWall} ${sigma} ${cutoffTop} units box
fix            topWall all wall/lj93 zhi EDGE                2 ${sigma} ${cutoffTop} units box
fix            topWall all wall/lj93 zhi EDGE                2 1 ${cutoffTop} units box
fix            topWall all wall/lj93 zhi EDGE                2 1 0.7147 units box

fix            lowWall all wall/lj93 zlo EDGE                ${epsilonWall} ${sigma} ${cutoffLow} units box
fix            lowWall all wall/lj93 zlo EDGE                2 ${sigma} ${cutoffLow} units box
fix            lowWall all wall/lj93 zlo EDGE                2 1 ${cutoffLow} units box
fix            lowWall all wall/lj93 zlo EDGE                2 1 3 units box


###################### COMPUTES ##########################

compute        bin1 solvent chunk/atom bin/1d z upper 1.0



######################	FIXES ############################


fix 		peclet solvent ave/chunk 1000 1 1000 bin1 density/number norm 		 none ave one file density.profile

fix 		 temp solvent ave/chunk 1000 1 1000 bin1 temp norm none ave one file temp.profile

fix 		2 solvent nve

## Thermostat


region		regthermo block EDGE EDGE EDGE EDGE 0 20

group 		thermo dynamic solvent region regthermo every 1000
dynamic group thermo defined

fix 		3 thermo langevin ${startTemp} ${temp} 10 156453
fix 		3 thermo langevin 1.0 ${temp} 10 156453
fix 		3 thermo langevin 1.0 1.0 10 156453


## Evaporation

region		regevap block EDGE EDGE EDGE EDGE 140 158
fix 		gcmc solvent gcmc 100 100 0 1 780493 ${temp} ${mu} ${gcmcdisplace} region regevap
fix 		gcmc solvent gcmc 100 100 0 1 780493 1.0 ${mu} ${gcmcdisplace} region regevap
fix 		gcmc solvent gcmc 100 100 0 1 780493 1.0 -3.3 ${gcmcdisplace} region regevap
fix 		gcmc solvent gcmc 100 100 0 1 780493 1.0 -3.3 0 region regevap


#### Load balancing

fix 		bal all balance 1000 1.05 shift z 10 1.05

############### Diagnostics and computes ###################
#compute 	com cube	  rigid/local	1 mol x y z
#compute 	quat cube	  rigid/local	1 mol quatw quati quatj quatk

thermo 		1000
thermo_style 	custom step temp epair etotal press pe ke atoms

dump		1 all custom 100000 dump.lammpstrj id mol type x y z
dump 		2 all image 10000 image.*.png type type
dump 		3 all movie 1000 movie.avi type type
#dump 		com cube local 1000 dump.*.xyz c_com[*]
#dump		quat cube      local 1000 dump.*.quat c_quat[*]


restart 	1000000 restart.dat
timestep 	0.005
timer 		full
New timer settings: style=full  mode=nosync  timeout=off


run		5000000
Per MPI rank memory allocation (min/avg/max) = 9.923 | 9.986 | 10.01 Mbytes
Step Temp E_pair TotEng Press PotEng KinEng Atoms 
 3000000     1.016004   -3.1352716   -1.6112691  0.079025997   -3.1352716    1.5240025   439061 
 3001000    1.0151427   -3.1351247   -1.6122199  0.073568174   -3.1351247    1.5229048   439005 
 3002000     1.015029   -3.1358758   -1.6129889   0.07760744   -3.1358758    1.5228869   438961 
 3003000    1.0138093   -3.1360221   -1.6146982  0.078527538   -3.1360221    1.5213238   438884 
 3004000    1.0141017    -3.136667   -1.6146895  0.075518296    -3.136667    1.5219775   438822 
 3005000     1.014022   -3.1367916   -1.6146908  0.072463596   -3.1367916    1.5221007   438752 
 3006000    1.0140716   -3.1376483   -1.6151191  0.071026921   -3.1376483    1.5225292   438650 
 3007000    1.0132001   -3.1369264   -1.6152824  0.073929684   -3.1369264     1.521644   438528 
 3008000    1.0131327    -3.136972   -1.6150856  0.077664332    -3.136972    1.5218863   438429 
 3009000     1.012915   -3.1385583   -1.6165687  0.075530106   -3.1385583    1.5219896   438305 
 3010000    1.0130973   -3.1397552   -1.6173458  0.070509144   -3.1397552    1.5224094   438263 
 3011000     1.013084   -3.1391288   -1.6165968  0.071969287   -3.1391288     1.522532   438222 
 3012000    1.0133439    -3.138158   -1.6148949  0.076976017    -3.138158    1.5232631   438124 
 3013000    1.0134347   -3.1382284   -1.6145924  0.080035261   -3.1382284    1.5236361   438056 
 3014000    1.0124092   -3.1387873   -1.6164531  0.078015741   -3.1387873    1.5223342   437987 
 3015000    1.0119699   -3.1394161   -1.6175237  0.076100088   -3.1394161    1.5218924   437924 
 3016000     1.012854    -3.139154     -1.61565  0.076011874    -3.139154     1.523504   437843 
 3017000    1.0117823   -3.1389667    -1.616901  0.074105932   -3.1389667    1.5220657   437793 
 3018000       1.0125   -3.1412938   -1.6179572  0.075291432   -3.1412938    1.5233367   437738 
 3019000    1.0110449    -3.138964   -1.6177261   0.07392319    -3.138964    1.5212378   437712 
 3020000     1.010908   -3.1395934   -1.6183391  0.067691051   -3.1395934    1.5212543   437648 
 3021000    1.0106844    -3.139755   -1.6186147  0.071819711    -3.139755    1.5211403   437584 
 3022000    1.0103332   -3.1395103   -1.6187283  0.070469391   -3.1395103     1.520782   437535 
 3023000    1.0080878   -3.1381491   -1.6204798  0.076043144   -3.1381491    1.5176693   437458 
 3024000    1.0074223   -3.1367163   -1.6197195  0.073991291   -3.1367163    1.5169968   437363 
 3025000    1.0084744   -3.1383718   -1.6196588  0.070672107   -3.1383718     1.518713   437325 
 3026000    1.0087364   -3.1385766    -1.619066  0.070335693   -3.1385766    1.5195106   437209 
 3027000    1.0079925   -3.1384633   -1.6197815   0.06973856   -3.1384633    1.5186818   437125 
 3028000    1.0068257   -3.1374469   -1.6203427   0.07183607   -3.1374469    1.5171043   437073 
 3029000    1.0078749   -3.1392117   -1.6203214  0.074575345   -3.1392117    1.5188903   437014 
 3030000    1.0076068   -3.1396076    -1.620972  0.066485152   -3.1396076    1.5186356   436971 
 3031000    1.0078811   -3.1393066   -1.6199063  0.072662925   -3.1393066    1.5194003   436870 
 3032000    1.0078633   -3.1393414   -1.6197349  0.072904751   -3.1393414    1.5196065   436803 
 3033000    1.0073761   -3.1391929     -1.62006  0.073967987   -3.1391929    1.5191328   436728 
 3034000    1.0074963   -3.1398197   -1.6203561  0.070336582   -3.1398197    1.5194637   436685 
 3035000    1.0083633   -3.1411906   -1.6202243  0.067128134   -3.1411906    1.5209663   436629 
 3036000     1.007789   -3.1421601   -1.6219486  0.070520108   -3.1421601    1.5202115   436597 
 3037000    1.0066503    -3.141011   -1.6221554  0.069761107    -3.141011    1.5188556   436493 
 3038000    1.0072703   -3.1426915   -1.6226672    0.0703062   -3.1426915    1.5200244   436426 
 3039000    1.0047956   -3.1403547   -1.6237242  0.071683842   -3.1403547    1.5166305   436328 
 3040000     1.004899   -3.1404509    -1.623414  0.069845327   -3.1404509    1.5170368   436256 
 3041000    1.0053555    -3.141505    -1.623612  0.067021972    -3.141505     1.517893   436208 
 3042000    1.0035492   -3.1388421   -1.6235616  0.072604933   -3.1388421    1.5152805   436175 
 3043000    1.0055308   -3.1422549   -1.6238362  0.072275579   -3.1422549    1.5184187   436133 
 3044000    1.0068872   -3.1439602    -1.623242  0.073104549   -3.1439602    1.5207181   436061 
 3045000    1.0032873   -3.1400867    -1.624538  0.075853848   -3.1400867    1.5155487   435984 
 3046000     1.002448   -3.1410253   -1.6264144  0.072079726   -3.1410253    1.5146109   435889 
 3047000    1.0044013    -3.143227   -1.6255011  0.070570011    -3.143227    1.5177259   435842 
 3048000    1.0029178   -3.1428197   -1.6272033  0.071147427   -3.1428197    1.5156163   435804 
 3049000    1.0037401   -3.1436921   -1.6266208  0.069404374   -3.1436921    1.5170713   435743 
 3050000     1.004361   -3.1427627    -1.624537  0.073170941   -3.1427627    1.5182257   435681 
 3051000    1.0025439   -3.1404787   -1.6248397  0.074157238   -3.1404787     1.515639   435635 
 3052000    1.0039374   -3.1441377   -1.6261238  0.069596289   -3.1441377     1.518014   435558 
 3053000    1.0029656   -3.1433994    -1.626639  0.061470896   -3.1433994    1.5167604   435496 
 3054000    1.0026949   -3.1435326    -1.626896  0.069349812   -3.1435326    1.5166366   435414 
 3055000    1.0019468    -3.142026   -1.6262668  0.069717547    -3.142026    1.5157592   435341 
 3056000    1.0026777   -3.1432552   -1.6262056  0.071507191   -3.1432552    1.5170496   435288 
 3057000    1.0017876   -3.1429432   -1.6272089  0.069342452   -3.1429432    1.5157342   435279 
 3058000    1.0021967   -3.1432535   -1.6267574   0.06660528   -3.1432535    1.5164961   435238 
 3059000    1.0025454   -3.1428819   -1.6257291  0.073543129   -3.1428819    1.5171528   435201 
 3060000    1.0012015   -3.1412585   -1.6259027   0.07231086   -3.1412585    1.5153558   435133 
 3061000     1.002245   -3.1435639   -1.6264126   0.06958783   -3.1435639    1.5171513   435071 
 3062000    1.0026553   -3.1450306   -1.6271117  0.067066019   -3.1450306     1.517919   435029 
 3063000    1.0011474   -3.1441242   -1.6282965  0.069220636   -3.1441242    1.5158278   434974 
 3064000     1.002809   -3.1457872   -1.6271783  0.067663044   -3.1457872    1.5186089   434898 
 3065000    1.0003846   -3.1430865    -1.627853  0.071136734   -3.1430865    1.5152336   434813 
 3066000    1.0033295   -3.1469868   -1.6271319  0.072984197   -3.1469868     1.519855   434767 
 3067000    1.0015711   -3.1447062   -1.6273578  0.073839598   -3.1447062    1.5173484   434722 
 3068000    1.0002362   -3.1440498    -1.628382  0.070310926   -3.1440498    1.5156678   434624 
 3069000    1.0003344   -3.1461151    -1.630072  0.071749194   -3.1461151    1.5160432   434559 
 3070000   0.99955674   -3.1448893   -1.6295887  0.071406604   -3.1448893    1.5153005   434434 
 3071000   0.99923504   -3.1459342   -1.6307935  0.069543767   -3.1459342    1.5151407   434340 
 3072000   0.99842632   -3.1456186   -1.6314671  0.068476014   -3.1456186    1.5141515   434272 
 3073000   0.99880668   -3.1462846   -1.6313121  0.067117256   -3.1462846    1.5149725   434202 
 3074000   0.99711015   -3.1458854   -1.6332667  0.066250432   -3.1458854    1.5126187   434139 
 3075000   0.99905802   -3.1470286   -1.6312455  0.066907692   -3.1470286    1.5157831   434079 
 3076000   0.99729941   -3.1456608   -1.6322565  0.071472947   -3.1456608    1.5134043   433996 
 3077000   0.99763172      -3.1458   -1.6317414  0.068413795      -3.1458    1.5140586   433953 
 3078000   0.99754888   -3.1467051   -1.6325349  0.067878372   -3.1467051    1.5141702   433885 
 3079000   0.99833701   -3.1491839   -1.6336253  0.067073149   -3.1491839    1.5155586   433830 
 3080000   0.99764713   -3.1497256   -1.6351306  0.067135196   -3.1497256    1.5145951   433806 
 3081000   0.99645976   -3.1479397   -1.6348543   0.07170849   -3.1479397    1.5130854   433722 
 3082000   0.99690741   -3.1486285   -1.6347098  0.069318978   -3.1486285    1.5139187   433678 
 3083000   0.99658164   -3.1479524   -1.6342492  0.068311986   -3.1479524    1.5137032   433598 
 3084000   0.99631506   -3.1479983   -1.6345639  0.068384076   -3.1479983    1.5134345   433559 
 3085000   0.99604106   -3.1493373   -1.6361829  0.067733498   -3.1493373    1.5131544   433520 
 3086000   0.99809122   -3.1522452   -1.6358189  0.063761697   -3.1522452    1.5164263   433475 
 3087000    0.9956592   -3.1498106   -1.6367023  0.067592151   -3.1498106    1.5131083   433367 
 3088000   0.99806822   -3.1538321   -1.6368843  0.070756233   -3.1538321    1.5169478   433316 
 3089000   0.99699031   -3.1519387   -1.6363879  0.071147325   -3.1519387    1.5155508   433247 
 3090000   0.99625826   -3.1514773   -1.6367351   0.06413982   -3.1514773    1.5147422   433160 
 3091000   0.99650268   -3.1510569   -1.6357856   0.06796294   -3.1510569    1.5152712   433115 
 3092000   0.99750597   -3.1530332   -1.6360087  0.073532157   -3.1530332    1.5170245   433050 
 3093000   0.99654329   -3.1526724   -1.6368984  0.070617818   -3.1526724     1.515774   432989 
 3094000   0.99686058   -3.1539608   -1.6375431  0.065687883   -3.1539608    1.5164177   432943 
 3095000   0.99527168   -3.1529505   -1.6386805  0.071206489   -3.1529505    1.5142699   432866 
 3096000   0.99736145   -3.1555195   -1.6378632  0.070107342   -3.1555195    1.5176563   432807 
 3097000   0.99614726   -3.1552813   -1.6391363  0.070819904   -3.1552813     1.516145   432711 
 3098000   0.99487685   -3.1548193   -1.6404224  0.070338224   -3.1548193    1.5143969   432658 
 3099000   0.99488639   -3.1543243   -1.6397133  0.073307132   -3.1543243     1.514611   432601 
 3100000   0.99488595   -3.1541131   -1.6394363  0.068128289   -3.1541131    1.5146768   432582 
 3101000   0.99524543   -3.1566929   -1.6412375  0.071046704   -3.1566929    1.5154554   432516 
 3102000   0.99257611   -3.1540935   -1.6424476  0.066269516   -3.1540935    1.5116459   432443 
 3103000   0.99261351    -3.154085   -1.6421758  0.070310027    -3.154085    1.5119092   432384 
 3104000   0.99388058   -3.1559533   -1.6417885   0.06961954   -3.1559533    1.5141648   432291 
 3105000   0.99403223   -3.1574825   -1.6426521  0.065586432   -3.1574825    1.5148304   432167 
 3106000   0.99335727    -3.156367   -1.6423375  0.064905248    -3.156367    1.5140295   432102 
 3107000   0.99183913   -3.1557659   -1.6438508  0.068490619   -3.1557659     1.511915   432045 
 3108000   0.99251594   -3.1559547   -1.6427698  0.066007056   -3.1559547    1.5131849   431977 
 3109000   0.99157527   -3.1553505   -1.6434423  0.062974583   -3.1553505    1.5119083   431932 
 3110000   0.99152445   -3.1558862   -1.6437404  0.069032075   -3.1558862    1.5121458   431842 
 3111000   0.99128417   -3.1561366   -1.6441856  0.067994527   -3.1561366     1.511951   431793 
 3112000   0.99187324   -3.1580411   -1.6450339  0.064811636   -3.1580411    1.5130071   431748 
 3113000   0.99193906   -3.1575511   -1.6442228  0.064723489   -3.1575511    1.5133283   431685 
 3114000    0.9897618   -3.1545095   -1.6442999  0.064614783   -3.1545095    1.5102096   431627 
 3115000   0.99105062   -3.1559927   -1.6436239   0.06295542   -3.1559927    1.5123688   431572 
 3116000   0.99110793   -3.1568254   -1.6440887  0.068328695   -3.1568254    1.5127367   431492 
 3117000   0.99012598   -3.1560182    -1.644514  0.067642532   -3.1560182    1.5115041   431416 
 3118000   0.98895002   -3.1546558   -1.6446984  0.064656098   -3.1546558    1.5099574   431345 
 3119000    0.9898896   -3.1578125   -1.6461611  0.065748916   -3.1578125    1.5116514   431271 
 3120000   0.98827461   -3.1558852   -1.6464831   0.06519872   -3.1558852    1.5094021   431209 
 3121000   0.98782611   -3.1550362   -1.6461476  0.066773774   -3.1550362    1.5088886   431160 
 3122000   0.98954775   -3.1586014    -1.646799    0.0590134   -3.1586014    1.5118024   431079 
 3123000   0.98858479   -3.1576827   -1.6471448  0.064167192   -3.1576827    1.5105379   431020 
 3124000   0.98733491   -3.1565856   -1.6477019  0.065269615   -3.1565856    1.5088837   430947 
 3125000   0.98867501   -3.1599816   -1.6486817  0.063815045   -3.1599816    1.5112999   430842 
 3126000   0.98734647   -3.1582233   -1.6487895  0.064604565   -3.1582233    1.5094337   430795 
 3127000   0.98636605   -3.1597739   -1.6515063  0.062055843   -3.1597739    1.5082675   430700 
 3128000   0.98648673    -3.159792   -1.6511333  0.063176876    -3.159792    1.5086587   430641 
 3129000   0.98649729   -3.1586907   -1.6499283  0.063378732   -3.1586907    1.5087624   430616 
 3130000   0.98841384   -3.1616476   -1.6498767  0.066541015   -3.1616476    1.5117709   430594 
 3131000   0.98779572   -3.1609367   -1.6499533   0.06398494   -3.1609367    1.5109834   430549 
 3132000   0.98851093   -3.1622202    -1.649788  0.065992418   -3.1622202    1.5124322   430448 
 3133000   0.98703547   -3.1615493   -1.6510236    0.0652446   -3.1615493    1.5105256   430348 
 3134000   0.98668954   -3.1620519   -1.6517854  0.063232919   -3.1620519    1.5102665   430271 
 3135000   0.98805331   -3.1633451   -1.6508224  0.065271658   -3.1633451    1.5125226   430223 
 3136000   0.98862271   -3.1642068   -1.6507034  0.064422702   -3.1642068    1.5135033   430192 
 3137000   0.98785196   -3.1644811   -1.6519925   0.06221791   -3.1644811    1.5124886   430145 
 3138000   0.98811298   -3.1660215   -1.6530348  0.063822015   -3.1660215    1.5129868   430117 
 3139000   0.98735869   -3.1647758   -1.6526768  0.068876879   -3.1647758     1.512099   430041 
 3140000   0.98720086   -3.1677636   -1.6554632   0.06059593   -3.1677636    1.5123004   429915 
 3141000     0.986332   -3.1665877   -1.6553864  0.066629044   -3.1665877    1.5112014   429849 
 3142000   0.98827899   -3.1690521   -1.6547021  0.063830646   -3.1690521      1.51435   429802 
 3143000   0.98709141   -3.1681143   -1.6553975  0.064831712   -3.1681143    1.5127168   429749 
 3144000   0.98723307   -3.1682356   -1.6551221  0.066323878   -3.1682356    1.5131135   429698 
 3145000   0.98438579   -3.1658166   -1.6567791  0.070106166   -3.1658166    1.5090375   429616 
 3146000   0.98644014    -3.168346   -1.6559023  0.063884776    -3.168346    1.5124437   429543 
 3147000   0.98324108   -3.1652715    -1.657652  0.065663827   -3.1652715    1.5076195   429520 
 3148000   0.98524949   -3.1686414    -1.657587  0.067765565   -3.1686414    1.5110544   429419 
 3149000   0.98538354   -3.1694692   -1.6579523  0.065692228   -3.1694692    1.5115169   429346 
 3150000   0.98401749   -3.1686674    -1.659049  0.064505967   -3.1686674    1.5096184   429290 
 3151000   0.98489612   -3.1674683   -1.6564527  0.067062584   -3.1674683    1.5110156   429276 
 3152000   0.98316887   -3.1664039   -1.6578695  0.068327869   -3.1664039    1.5085344   429228 
 3153000   0.98269602   -3.1655176   -1.6573187  0.063111332   -3.1655176    1.5081989   429117 
 3154000   0.98406885   -3.1666354   -1.6561747  0.062653909   -3.1666354    1.5104607   429073 
 3155000   0.98283696   -3.1651289   -1.6563797  0.065110005   -3.1651289    1.5087492   429022 
 3156000   0.98339877   -3.1661182    -1.656401   0.05926728   -3.1661182    1.5097172   428992 
 3157000   0.98261402   -3.1643253   -1.6556546  0.063260585   -3.1643253    1.5086707   428947 
 3158000   0.98178915   -3.1648297   -1.6572849  0.066944984   -3.1648297    1.5075448   428907 
 3159000   0.98165251   -3.1653545   -1.6577278  0.060334087   -3.1653545    1.5076267   428824 
 3160000   0.98326425   -3.1676075     -1.65728  0.063630576   -3.1676075    1.5103275   428760 
 3161000   0.98029384   -3.1627568   -1.6569252  0.063867316   -3.1627568    1.5058315   428741 
 3162000   0.97999988   -3.1620616   -1.6565798  0.054314755   -3.1620616    1.5054818   428712 
 3163000    0.9787854   -3.1616853    -1.657971  0.061075519   -3.1616853    1.5037143   428684 
 3164000   0.98193574   -3.1653025   -1.6564596  0.062964224   -3.1653025    1.5088428   428602 
 3165000   0.98055171    -3.164436   -1.6573858  0.065241577    -3.164436    1.5070502   428507 
 3166000   0.97903725   -3.1638577   -1.6587488  0.057374198   -3.1638577    1.5051089   428397 
 3167000   0.98049492   -3.1665894   -1.6589686  0.056431808   -3.1665894    1.5076208   428320 
 3168000   0.98031069    -3.166825   -1.6592341  0.060753746    -3.166825     1.507591   428248 
 3169000   0.98005013   -3.1667637   -1.6593658  0.060077963   -3.1667637    1.5073979   428189 
 3170000   0.97853579   -3.1660651   -1.6607045  0.061682643   -3.1660651    1.5053606   428106 
 3171000   0.97948885   -3.1655532   -1.6584061  0.064031863   -3.1655532    1.5071471   428015 
 3172000   0.97946019    -3.167218   -1.6600269  0.059353395    -3.167218     1.507191   427990 
 3173000   0.97853951   -3.1665055   -1.6604708  0.068521883   -3.1665055    1.5060347   427916 
 3174000    0.9762251   -3.1651577   -1.6625727  0.067522303   -3.1651577     1.502585   427884 
 3175000   0.97683433    -3.165936   -1.6621497  0.063821185    -3.165936    1.5037863   427809 
 3176000   0.97848492   -3.1682425   -1.6617778  0.061613294   -3.1682425    1.5064646   427770 
 3177000   0.97819548   -3.1692184   -1.6631889     0.061656   -3.1692184    1.5060296   427767 
 3178000   0.97772821   -3.1689524   -1.6633571  0.059397806   -3.1689524    1.5055953   427686 
 3179000   0.97773562   -3.1699225   -1.6641644  0.061476765   -3.1699225    1.5057581   427643 
 3180000   0.97721119   -3.1694418   -1.6643436  0.067171584   -3.1694418    1.5050983   427601 
 3181000   0.97680781   -3.1705737   -1.6657765  0.061966328   -3.1705737    1.5047972   427510 
 3182000   0.97619777   -3.1707093   -1.6668448  0.058716468   -3.1707093    1.5038645   427508 
 3183000   0.97538218    -3.170819   -1.6679157   0.05646382    -3.170819    1.5029033   427424 
 3184000   0.97782674   -3.1745558   -1.6678153  0.063246853   -3.1745558    1.5067405   427404 
 3185000   0.97608039   -3.1715552   -1.6673649  0.060057112   -3.1715552    1.5041903   427364 
 3186000   0.97791696   -3.1759124   -1.6687261  0.059987763   -3.1759124    1.5071863   427317 
 3187000   0.97732216   -3.1756764   -1.6692446  0.059335497   -3.1756764    1.5064318   427271 
 3188000    0.9771186   -3.1753199   -1.6689904  0.057371081   -3.1753199    1.5063295   427211 
 3189000    0.9782133   -3.1775957   -1.6692821  0.063913759   -3.1775957    1.5083137   427127 
 3190000   0.97718948   -3.1758197   -1.6688589  0.060695257   -3.1758197    1.5069608   427063 
 3191000   0.97708587   -3.1772786   -1.6702553  0.062751114   -3.1772786    1.5070234   427000 
 3192000   0.97673837   -3.1783299   -1.6716202  0.064051338   -3.1783299    1.5067097   426937 
 3193000   0.97550837   -3.1777771   -1.6726722  0.060142453   -3.1777771    1.5051049   426854 
 3194000   0.97453235   -3.1762591   -1.6725015   0.06490233   -3.1762591    1.5037576   426809 
 3195000   0.97890811   -3.1816476   -1.6709681   0.06080648   -3.1816476    1.5106795   426761 
 3196000   0.97695653   -3.1795665   -1.6716054  0.062323153   -3.1795665     1.507961   426678 
 3197000   0.97592336   -3.1794071   -1.6729137  0.061805281   -3.1794071    1.5064934   426642 
 3198000    0.9745766   -3.1764606   -1.6719509  0.067441908   -3.1764606    1.5045097   426615 
 3199000   0.97523451   -3.1791035   -1.6733734  0.065156324   -3.1791035    1.5057301   426557 
 3200000   0.97644444   -3.1804298   -1.6727221  0.065935849   -3.1804298    1.5077077   426526 
 3201000    0.9763959   -3.1805163   -1.6725123  0.065543522   -3.1805163     1.508004   426421 
 3202000   0.97603332   -3.1815202    -1.673818  0.057846155   -3.1815202    1.5077021   426348 
 3203000   0.97499353   -3.1799321   -1.6736771  0.060417177   -3.1799321    1.5062549   426303 
 3204000   0.97440901   -3.1799113   -1.6744252  0.069203853   -3.1799113    1.5054861   426265 
 3205000   0.97434762    -3.180662   -1.6750235  0.060455535    -3.180662    1.5056385   426195 
 3206000   0.97322162   -3.1792003   -1.6750617  0.059089103   -3.1792003    1.5041385   426127 
 3207000   0.97381301   -3.1813439   -1.6760689  0.055933473   -3.1813439    1.5052751   426064 
 3208000   0.97325084   -3.1809348   -1.6763133  0.059225277   -3.1809348    1.5046215   426003 
 3209000    0.9718631   -3.1794442   -1.6767671  0.057001644   -3.1794442    1.5026771   425946 
 3210000   0.97300537   -3.1833136   -1.6785629  0.061288641   -3.1833136    1.5047506   425859 
 3211000   0.97266626   -3.1825153   -1.6781018   0.06007654   -3.1825153    1.5044135   425806 
 3212000   0.97139553   -3.1814603   -1.6787405  0.059314449   -3.1814603    1.5027198   425729 
 3213000   0.97118769   -3.1797075   -1.6769739   0.05882534   -3.1797075    1.5027336   425634 
 3214000   0.97161112   -3.1808599   -1.6771107  0.060939517   -3.1808599    1.5037491   425532 
 3215000   0.97171962   -3.1798576   -1.6758946  0.059662553   -3.1798576     1.503963   425519 
 3216000   0.97024398   -3.1795149   -1.6777193  0.061523065   -3.1795149    1.5017956   425486 
 3217000   0.97035164   -3.1802594   -1.6780819  0.059496886   -3.1802594    1.5021776   425425 
 3218000   0.97078394   -3.1805356    -1.677544  0.067667378   -3.1805356    1.5029916   425384 
 3219000   0.97073849   -3.1809081   -1.6778278  0.063726268   -3.1809081    1.5030803   425339 
 3220000   0.97208374    -3.182477   -1.6771155  0.059765679    -3.182477    1.5053614   425283 
 3221000   0.96941959   -3.1786861   -1.6773268  0.067280098   -3.1786861    1.5013593   425248 
 3222000   0.96995372   -3.1797665   -1.6774705   0.06237818   -3.1797665    1.5022961   425217 
 3223000    0.9725098   -3.1833933   -1.6769222  0.061330883   -3.1833933    1.5064711   425156 
 3224000    0.9715079   -3.1820419   -1.6768821  0.059916253   -3.1820419    1.5051598   425088 
 3225000   0.97295877   -3.1857915   -1.6781285  0.059228929   -3.1857915    1.5076631   425016 
 3226000   0.97102267   -3.1830603   -1.6781991  0.061564789   -3.1830603    1.5048612   424960 
 3227000   0.97239078   -3.1858057   -1.6787001  0.065133388   -3.1858057    1.5071056   424925 
 3228000   0.97022368    -3.185237   -1.6812849  0.061632507    -3.185237    1.5039521   424867 
 3229000   0.96985606   -3.1866505   -1.6830064  0.059079273   -3.1866505    1.5036441   424793 
 3230000   0.96963716   -3.1872742   -1.6838915  0.058227323   -3.1872742    1.5033826   424771 
 3231000   0.96986298   -3.1865745   -1.6827603  0.062610457   -3.1865745    1.5038142   424748 
 3232000   0.96936668   -3.1859767    -1.682741  0.060880449   -3.1859767    1.5032357   424694 
 3233000   0.96869373   -3.1854366   -1.6831348  0.059703423   -3.1854366    1.5023018   424663 
 3234000    0.9707286   -3.1880421   -1.6823753  0.059709826   -3.1880421    1.5056668   424604 
 3235000   0.97078029   -3.1892347   -1.6832039  0.059596506   -3.1892347    1.5060307   424524 
 3236000   0.96997655   -3.1880027   -1.6829459  0.062833884   -3.1880027    1.5050568   424447 
 3237000   0.96896526   -3.1865884   -1.6829909  0.063105343   -3.1865884    1.5035975   424416 
 3238000   0.96869513   -3.1875802   -1.6842106  0.062139432   -3.1875802    1.5033696   424362 
 3239000   0.96920131   -3.1877161   -1.6833589  0.064690784   -3.1877161    1.5043572   424305 
 3240000   0.97070481   -3.1900871   -1.6831653  0.061798982   -3.1900871    1.5069217   424240 
 3241000   0.96925491   -3.1887145   -1.6837988  0.061455592   -3.1887145    1.5049157   424171 
 3242000   0.96879549   -3.1881111   -1.6837775  0.065871886   -3.1881111    1.5043336   424134 
 3243000   0.96969002   -3.1907916   -1.6848843   0.06289086   -3.1907916    1.5059072   424082 
 3244000    0.9709258   -3.1920911   -1.6840905  0.058989105   -3.1920911    1.5080006   424033 
 3245000   0.96989197    -3.189917   -1.6835292  0.059405544    -3.189917    1.5063878   424035 
 3246000   0.96825901   -3.1888427   -1.6847677  0.062620738   -3.1888427     1.504075   423972 
 3247000   0.96861207   -3.1898439   -1.6850962  0.061702724   -3.1898439    1.5047477   423937 
 3248000   0.96858245   -3.1907787   -1.6858676  0.058759944   -3.1907787    1.5049111   423878 
 3249000   0.96808742   -3.1920556   -1.6875799  0.058164951   -3.1920556    1.5044756   423784 
 3250000   0.96806477   -3.1916445   -1.6870657  0.061466985   -3.1916445    1.5045789   423745 
 3251000   0.96813701   -3.1910505   -1.6862812  0.063631238   -3.1910505    1.5047693   423723 
 3252000   0.96759097   -3.1900224   -1.6859492  0.059441629   -3.1900224    1.5040732   423680 
 3253000   0.96757622   -3.1909242   -1.6866253   0.06040081   -3.1909242    1.5042988   423610 
 3254000   0.96857616   -3.1928839    -1.686778  0.060252251   -3.1928839    1.5061059   423539 
 3255000   0.96864444   -3.1940413   -1.6876585  0.062783582   -3.1940413    1.5063828   423491 
 3256000   0.96725088   -3.1930258   -1.6887782  0.063741225   -3.1930258    1.5042475   423482 
 3257000   0.96620571   -3.1927224   -1.6899477  0.063546932   -3.1927224    1.5027747   423439 
 3258000    0.9646928   -3.1911476   -1.6905275  0.060429752   -3.1911476    1.5006201   423383 
 3259000    0.9666369   -3.1939683   -1.6900684  0.059820606   -3.1939683       1.5039   423311 
 3260000   0.96643687   -3.1928381   -1.6890966  0.061004617   -3.1928381    1.5037415   423268 
 3261000   0.96415437   -3.1903138   -1.6899146  0.062981053   -3.1903138    1.5003992   423209 
 3262000   0.96717754   -3.1957434   -1.6904867  0.056574871   -3.1957434    1.5052567   423166 
 3263000   0.96658594   -3.1950709   -1.6905216  0.058318256   -3.1950709    1.5045493   423106 
 3264000   0.96557329   -3.1927714   -1.6895568  0.061218686   -3.1927714    1.5032146   423038 
 3265000   0.96489001   -3.1929398   -1.6906291  0.056951475   -3.1929398    1.5023107   422993 
 3266000   0.96424858   -3.1919465   -1.6904463  0.058261149   -3.1919465    1.5015002   422940 
 3267000   0.96449631   -3.1948557   -1.6927532  0.059193334   -3.1948557    1.5021026   422879 
 3268000   0.96468803   -3.1955721   -1.6929826  0.060222266   -3.1955721    1.5025895   422826 
 3269000   0.96348359   -3.1926541   -1.6917064  0.058963627   -3.1926541    1.5009477   422760 
 3270000    0.9625678   -3.1933373   -1.6937737  0.058667809   -3.1933373    1.4995636   422748 
 3271000   0.96461788   -3.1958417   -1.6930203  0.052403405   -3.1958417    1.5028214   422730 
 3272000   0.96362253   -3.1946688   -1.6932596  0.057487119   -3.1946688    1.5014092   422691 
 3273000   0.96341693   -3.1954632   -1.6940618  0.060479578   -3.1954632    1.5014014   422603 
 3274000    0.9623047   -3.1949276   -1.6951495   0.05514337   -3.1949276    1.4997782   422572 
 3275000    0.9634867   -3.1969461   -1.6951943   0.05908783   -3.1969461    1.5017518   422535 
 3276000   0.96315367   -3.1987657    -1.697501  0.056346104   -3.1987657    1.5012647   422526 
 3277000   0.96226111   -3.1961002   -1.6960989  0.055909266   -3.1961002    1.5000013   422490 
 3278000   0.96169795   -3.1952862   -1.6960528  0.058231071   -3.1952862    1.4992334   422459 
 3279000   0.96238554   -3.1972989   -1.6968799  0.058982177   -3.1972989     1.500419   422427 
 3280000   0.96441373   -3.2004813   -1.6966866   0.06076975   -3.2004813    1.5037947   422367 
 3281000   0.96400994   -3.2002168    -1.696913  0.059202956   -3.2002168    1.5033038   422328 
 3282000   0.96414331   -3.2002641   -1.6966313  0.058831565   -3.2002641    1.5036329   422294 
 3283000   0.96352586   -3.1992498   -1.6964161  0.057149254   -3.1992498    1.5028336   422248 
 3284000   0.96069152   -3.1966097   -1.6978774  0.061211331   -3.1966097    1.4987323   422158 
 3285000   0.96120998   -3.1976163   -1.6978869  0.059921952   -3.1976163    1.4997294   422105 
 3286000    0.9598402   -3.1966978    -1.698914  0.058956592   -3.1966978    1.4977838   422051 
 3287000   0.96132126   -3.1985868   -1.6984492  0.058261454   -3.1985868    1.5001376   422039 
 3288000   0.96117226    -3.198291   -1.6981976  0.061145546    -3.198291    1.5000935   421986 
 3289000   0.96065143   -3.1994765   -1.7000112  0.061988356   -3.1994765    1.4994654   421934 
 3290000   0.96144691   -3.2003344   -1.6995953  0.062538243   -3.2003344     1.500739   421925 
 3291000   0.96179966   -3.2012886   -1.6998957    0.0563555   -3.2012886    1.5013928   421896 
 3292000   0.96144126   -3.2002866   -1.6990938  0.059369178   -3.2002866    1.5011928   421795 
 3293000   0.96311921   -3.2024543   -1.6985239  0.060487407   -3.2024543    1.5039304   421762 
 3294000   0.96225352   -3.2007978   -1.6981088  0.055300736   -3.2007978     1.502689   421731 
 3295000   0.96081198   -3.1987639   -1.6982513   0.05714643   -3.1987639    1.5005126   421710 
 3296000   0.96021624    -3.197966   -1.6981135  0.059935734    -3.197966    1.4998525   421634 
 3297000   0.95913038   -3.1974742   -1.6991295  0.058795621   -3.1974742    1.4983447   421581 
 3298000   0.95991448   -3.1988717    -1.699206  0.055465174   -3.1988717    1.4996657   421554 
 3299000   0.95902636   -3.1989472   -1.7006121  0.055522868   -3.1989472    1.4983351   421538 
 3300000   0.96091909   -3.2020767   -1.7006812   0.05848607   -3.2020767    1.5013955   421509 
 3301000   0.96015114   -3.1997733   -1.6995848  0.058028854   -3.1997733    1.5001885   421511 
 3302000   0.96003334   -3.1983464   -1.6983456  0.055647858   -3.1983464    1.5000009   421512 
 3303000    0.9604652   -3.1999361   -1.6989863  0.053570387   -3.1999361    1.5009498   421435 
 3304000   0.96046842   -3.1999172   -1.6989196  0.058827375   -3.1999172    1.5009976   421423 
 3305000   0.95988344   -3.1992095   -1.6990442  0.059081273   -3.1992095    1.5001652   421400 
 3306000   0.96032366   -3.1988156   -1.6977308  0.058722417   -3.1988156    1.5010848   421335 
 3307000   0.96039627   -3.1990674   -1.6976197  0.057595634   -3.1990674    1.5014477   421265 
 3308000   0.95946959   -3.1995044   -1.6992241  0.056990593   -3.1995044    1.5002804   421186 
 3309000    0.9602511   -3.2016088   -1.7001243  0.053072681   -3.2016088    1.5014845   421191 
 3310000   0.95955482   -3.1985896   -1.6981047  0.053899075   -3.1985896    1.5004849   421166 
 3311000   0.96022191    -3.199658   -1.6978198  0.054908948    -3.199658    1.5018382   421079 
 3312000   0.95860154   -3.1980455    -1.698535  0.062120144   -3.1980455    1.4995104   421021 
 3313000   0.95932665   -3.1999201   -1.6991114  0.054044759   -3.1999201    1.5008087   420975 
 3314000   0.95993791   -3.2002252   -1.6984745  0.058988114   -3.2002252    1.5017507   420979 
 3315000    0.9583505    -3.198378   -1.6989611  0.055664687    -3.198378    1.4994169   420937 
 3316000   0.95884483   -3.1991911   -1.6988832  0.059471883   -3.1991911     1.500308   420904 
 3317000   0.95830084   -3.1998632   -1.7001463  0.058234078   -3.1998632    1.4997169   420831 
 3318000   0.95788908   -3.1978299   -1.6985152   0.06203974   -3.1978299    1.4993147   420763 
 3319000   0.95981311   -3.2024926   -1.6999127  0.056729404   -3.2024926    1.5025798   420692 
 3320000   0.95877495   -3.2013046   -1.7001965  0.060308978   -3.2013046     1.501108   420649 
 3321000   0.95925649   -3.2027604   -1.7007449  0.056455498   -3.2027604    1.5020155   420606 
 3322000   0.95981193   -3.2041105   -1.7010895   0.05815934   -3.2041105     1.503021   420568 
 3323000   0.95716262   -3.2020541   -1.7028467  0.060512075   -3.2020541    1.4992074   420474 
 3324000   0.95780779   -3.2033408   -1.7030516  0.063426136   -3.2033408    1.5002893   420454 
 3325000   0.95739693   -3.2028844   -1.7032708  0.061372201   -3.2028844    1.4996136   420463 
 3326000   0.95887728   -3.2051671   -1.7030669   0.05482964   -3.2051671    1.5021003   420416 
 3327000   0.95720746   -3.2033108    -1.703755  0.058033149   -3.2033108    1.4995558   420396 
 3328000   0.95749251   -3.2039115   -1.7038699  0.057636133   -3.2039115    1.5000416   420385 
 3329000   0.95739746   -3.2034046   -1.7033906  0.055419712   -3.2034046     1.500014   420351 
 3330000   0.95701691   -3.2039766   -1.7044696  0.056947983   -3.2039766     1.499507   420326 
 3331000   0.95864223    -3.205208   -1.7030258  0.059008003    -3.205208    1.5021823   420290 
 3332000   0.95701982   -3.2034215   -1.7036209  0.061659005   -3.2034215    1.4998005   420245 
 3333000    0.9573399   -3.2046146   -1.7041553   0.05754731   -3.2046146    1.5004593   420201 
 3334000   0.95724183   -3.2046398   -1.7041021  0.061583955   -3.2046398    1.5005377   420136 
 3335000   0.95796966   -3.2064535   -1.7045819  0.060837217   -3.2064535    1.5018716   420082 
 3336000   0.95814976   -3.2064885   -1.7042702  0.059710531   -3.2064885    1.5022184   420064 
 3337000   0.95740561   -3.2074964   -1.7061589  0.058786154   -3.2074964    1.5013376   419984 
 3338000   0.95647995   -3.2051154   -1.7049687   0.05652017   -3.2051154    1.5001468   419911 
 3339000   0.95716787   -3.2065572   -1.7052492  0.056724893   -3.2065572    1.5013079   419888 
 3340000   0.95558004   -3.2057364   -1.7066584  0.057138233   -3.2057364    1.4990781   419815 
 3341000   0.95664589   -3.2060576   -1.7051931  0.057195795   -3.2060576    1.5008645   419783 
 3342000   0.95614557   -3.2055208   -1.7054019  0.062514502   -3.2055208    1.5001189   419772 
 3343000   0.95504556   -3.2038343   -1.7052199  0.055896575   -3.2038343    1.4986144   419710 
 3344000   0.95701254   -3.2060694   -1.7042075  0.060973275   -3.2060694    1.5018619   419665 
 3345000   0.95758368   -3.2070937   -1.7041099  0.056808602   -3.2070937    1.5029839   419602 
 3346000   0.95538164   -3.2059226   -1.7062448  0.062656977   -3.2059226    1.4996777   419560 
 3347000   0.95581518   -3.2059609   -1.7055525  0.060175981   -3.2059609    1.5004083   419546 
 3348000   0.95729836   -3.2068517    -1.704065  0.057309416   -3.2068517    1.5027867   419532 
 3349000   0.95727335   -3.2082239   -1.7054549  0.061413488   -3.2082239     1.502769   419526 
 3350000   0.95532399   -3.2054402   -1.7056743  0.057559219   -3.2054402     1.499766   419510 
 3351000   0.95476386   -3.2042648    -1.705321  0.058881261   -3.2042648    1.4989438   419494 
 3352000   0.95553572   -3.2061455   -1.7057217   0.05709089   -3.2061455    1.5004238   419419 
 3353000   0.95430639   -3.2069351   -1.7083058   0.05857486   -3.2069351    1.4986293   419381 
 3354000   0.95425777   -3.2070691   -1.7082231  0.054167219   -3.2070691     1.498846   419299 
 3355000   0.95349358   -3.2068176   -1.7090184  0.057329519   -3.2068176    1.4977993   419256 
 3356000   0.95325425   -3.2061604   -1.7085406  0.057444755   -3.2061604    1.4976198   419201 
 3357000    0.9551171   -3.2100425   -1.7092239  0.056861017   -3.2100425    1.5008185   419125 
 3358000   0.95308393   -3.2080385    -1.710229  0.050585413   -3.2080385    1.4978096   419073 
 3359000   0.95308462   -3.2085232   -1.7106125    0.0565192   -3.2085232    1.4979107   419045 
 3360000   0.95226749   -3.2082729   -1.7115464  0.058760214   -3.2082729    1.4967265   419017 
 3361000   0.95250711   -3.2082937   -1.7110798  0.057686811   -3.2082937    1.4972139   418986 
 3362000   0.95276399    -3.208215   -1.7105365   0.05883672    -3.208215    1.4976784   418969 
 3363000   0.95171363    -3.208751   -1.7125522  0.054113774    -3.208751    1.4961988   418921 
 3364000   0.95219674   -3.2095992   -1.7125051  0.056405982   -3.2095992    1.4970941   418883 
 3365000   0.95167859   -3.2109524   -1.7144908  0.053583332   -3.2109524    1.4964616   418832 
 3366000    0.9520596   -3.2124466   -1.7152321  0.056705579   -3.2124466    1.4972144   418789 
 3367000   0.95221229   -3.2130083   -1.7154715  0.060140488   -3.2130083    1.4975368   418766 
 3368000   0.95101349   -3.2112277   -1.7155477  0.049908466   -3.2112277      1.49568   418758 
 3369000   0.95286415   -3.2137292   -1.7150455  0.056932015   -3.2137292    1.4986836   418732 
 3370000   0.95324971   -3.2138102   -1.7143268  0.060178598   -3.2138102    1.4994834   418678 
 3371000    0.9529834    -3.213404   -1.7142285  0.057586611    -3.213404    1.4991755   418647 
 3372000   0.95353145   -3.2145274   -1.7143357  0.060717531   -3.2145274    1.5001918   418604 
 3373000   0.95546767   -3.2182102   -1.7149506  0.056338773   -3.2182102    1.5032596   418598 
 3374000   0.95440248   -3.2169251   -1.7152769  0.056903246   -3.2169251    1.5016483   418580 
 3375000   0.95334493   -3.2162727   -1.7162561  0.059469717   -3.2162727    1.5000166   418571 
 3376000    0.9528687   -3.2170898   -1.7175288  0.058904426   -3.2170898     1.499561   418489 
 3377000    0.9522111   -3.2160127   -1.7174078  0.058453108   -3.2160127    1.4986049   418467 
 3378000   0.95192966   -3.2166195   -1.7183072  0.061539666   -3.2166195    1.4983124   418425 
 3379000   0.95129122   -3.2155087   -1.7180008  0.061507969   -3.2155087    1.4975079   418369 
 3380000   0.95359969   -3.2187741   -1.7177076  0.055989795   -3.2187741    1.5010665   418390 
 3381000   0.95234987    -3.218431   -1.7190667  0.060256323    -3.218431    1.4993644   418316 
 3382000   0.95217565   -3.2188902   -1.7195528  0.062334891   -3.2188902    1.4993374   418247 
 3383000   0.95094426   -3.2161242   -1.7186757  0.062897551   -3.2161242    1.4974485   418233 
 3384000   0.95078504   -3.2168031   -1.7197163  0.058040035   -3.2168031    1.4970868   418264 
 3385000   0.95241466   -3.2187716    -1.719022   0.05981221   -3.2187716    1.4997496   418237 
 3386000   0.95079025   -3.2163887   -1.7189177  0.060654686   -3.2163887    1.4974709   418159 
 3387000   0.95173781   -3.2189861   -1.7199296  0.054953696   -3.2189861    1.4990565   418133 
 3388000   0.95028913    -3.217437   -1.7205226  0.057613886    -3.217437    1.4969144   418094 
 3389000   0.95141422   -3.2189327    -1.720056  0.056227648   -3.2189327    1.4988766   418041 
 3390000   0.94984724   -3.2170321    -1.720506  0.067047764   -3.2170321    1.4965261   418008 
 3391000   0.95122442   -3.2203035   -1.7215036   0.05876994   -3.2203035    1.4987999   417979 
 3392000   0.95070864   -3.2198145   -1.7215692   0.05604458   -3.2198145    1.4982453   417907 
 3393000   0.95056872   -3.2198538   -1.7217106  0.053990254   -3.2198538    1.4981431   417874 
 3394000   0.94880271   -3.2179118   -1.7224697  0.058745052   -3.2179118    1.4954421   417851 
 3395000   0.94986692   -3.2189023    -1.721618  0.054707186   -3.2189023    1.4972843   417805 
 3396000    0.9487523   -3.2175898   -1.7219373  0.051881771   -3.2175898    1.4956526   417770 
 3397000   0.94869551   -3.2178533   -1.7224191  0.049858989   -3.2178533    1.4954342   417806 
 3398000   0.94953516   -3.2175551   -1.7206362  0.052404747   -3.2175551     1.496919   417761 
 3399000   0.95052499   -3.2189346   -1.7202579  0.054271454   -3.2189346    1.4986767   417706 
 3400000   0.94923666   -3.2182002    -1.721458    0.0554064   -3.2182002    1.4967422   417679 
 3401000   0.94925902   -3.2183374   -1.7214345  0.055296704   -3.2183374    1.4969029   417644 
 3402000   0.94953688   -3.2191413   -1.7216963   0.06027474   -3.2191413     1.497445   417615 
 3403000   0.94789566   -3.2179992   -1.7230708  0.053833756   -3.2179992    1.4949283   417595 
 3404000   0.94886313    -3.218434   -1.7219512  0.056310286    -3.218434    1.4964828   417587 
 3405000   0.94934666   -3.2199723   -1.7225692  0.055822865   -3.2199723    1.4974032   417543 
 3406000   0.94973605   -3.2204218   -1.7223291  0.056066105   -3.2204218    1.4980927   417522 
 3407000   0.94921483   -3.2190709   -1.7216999  0.053360103   -3.2190709     1.497371   417494 
 3408000   0.94906982   -3.2188576   -1.7214823  0.057923943   -3.2188576    1.4973754   417429 
 3409000   0.95003404   -3.2206121   -1.7214964  0.055846672   -3.2206121    1.4991157   417368 
 3410000   0.94827956   -3.2198368   -1.7232135  0.057020236   -3.2198368    1.4966233   417291 
 3411000   0.94727172   -3.2190591   -1.7239118  0.057179434   -3.2190591    1.4951473   417259 
 3412000   0.94849976   -3.2202067    -1.722938  0.055850476   -3.2202067    1.4972686   417208 
 3413000   0.94685652   -3.2191578   -1.7243362  0.055891652   -3.2191578    1.4948216   417167 
 3414000   0.94775671    -3.219634   -1.7232801  0.053483015    -3.219634    1.4963539   417136 
 3415000   0.94833703   -3.2205601   -1.7232469  0.056751312   -3.2205601    1.4973132   417124 
 3416000   0.94787553   -3.2196627   -1.7229884   0.05748984   -3.2196627    1.4966743   417099 
 3417000   0.94759281    -3.221242   -1.7248562  0.057537461    -3.221242    1.4963857   417055 
 3418000   0.94620344   -3.2192961   -1.7250077   0.05811046   -3.2192961    1.4942885   417028 
 3419000   0.94651242   -3.2208433   -1.7259056   0.05119892   -3.2208433    1.4949377   416983 
 3420000   0.94579628   -3.2210274   -1.7270022  0.056910611   -3.2210274    1.4940252   416922 
 3421000   0.94493343     -3.21837   -1.7256255  0.053583486     -3.21837    1.4927445   416899 
 3422000   0.94644489   -3.2206559   -1.7255523  0.055832071   -3.2206559    1.4951036   416907 
 3423000   0.94552537   -3.2172956   -1.7234583  0.056248901   -3.2172956    1.4938373   416855 
 3424000   0.94576441   -3.2186025   -1.7243804  0.057037468   -3.2186025    1.4942221   416853 
 3425000   0.94608491   -3.2198545   -1.7249216  0.061871781   -3.2198545    1.4949329   416796 
 3426000   0.94838851    -3.221596   -1.7230555  0.059923534    -3.221596    1.4985405   416805 
 3427000   0.94833299     -3.22128   -1.7226869  0.060919778     -3.22128     1.498593   416766 
 3428000   0.94759666   -3.2205489   -1.7229614  0.058788055   -3.2205489    1.4975876   416722 
 3429000   0.94659549   -3.2198189   -1.7236556  0.057741768   -3.2198189    1.4961633   416678 
 3430000   0.94530293   -3.2206576   -1.7263544  0.051845566   -3.2206576    1.4943032   416627 
 3431000   0.94557429   -3.2217674    -1.726924  0.054763279   -3.2217674    1.4948434   416596 
 3432000   0.94597622   -3.2217767   -1.7262226  0.057396964   -3.2217767    1.4955542   416575 
 3433000   0.94443877   -3.2204699   -1.7271994  0.056767872   -3.2204699    1.4932705   416534 
 3434000    0.9449483   -3.2222089   -1.7279714  0.054774351   -3.2222089    1.4942375   416489 
 3435000   0.94528186   -3.2222793   -1.7272953  0.055876249   -3.2222793     1.494984   416428 
 3436000   0.94395304   -3.2207988   -1.7277264  0.049749062   -3.2207988    1.4930724   416375 
 3437000   0.94277858   -3.2197382   -1.7283945  0.053575078   -3.2197382    1.4913437   416339 
 3438000    0.9446983   -3.2216574     -1.72718  0.049569106   -3.2216574    1.4944774   416312 
 3439000   0.94525867   -3.2219407   -1.7263865  0.052956314   -3.2219407    1.4955542   416259 
 3440000   0.94376715   -3.2204088   -1.7270996  0.061311781   -3.2204088    1.4933092   416227 
 3441000   0.94416603   -3.2226511   -1.7284882  0.049318059   -3.2226511    1.4941629   416165 
 3442000   0.94474484   -3.2242277   -1.7291524  0.053736687   -3.2242277    1.4950753   416166 
 3443000   0.94549621   -3.2258361   -1.7295143   0.05243602   -3.2258361    1.4963219   416150 
 3444000   0.94214606    -3.220987    -1.729709  0.057166796    -3.220987     1.491278   416078 
 3445000   0.94302006   -3.2228697   -1.7300001  0.051808357   -3.2228697    1.4928695   416020 
 3446000   0.94524287   -3.2265946   -1.7299436  0.050145028   -3.2265946     1.496651   415947 
 3447000   0.94202687   -3.2236819   -1.7319401  0.053231864   -3.2236819    1.4917419   415896 
 3448000   0.94258602   -3.2232694   -1.7306062  0.053955343   -3.2232694    1.4926632   415886 
 3449000    0.9430114   -3.2258869   -1.7324674  0.056131043   -3.2258869    1.4934194   415863 
 3450000   0.94336115   -3.2271917   -1.7332975  0.055594514   -3.2271917    1.4938943   415885 
 3451000   0.94361641   -3.2282463   -1.7336459  0.056982942   -3.2282463    1.4946004   415801 
 3452000    0.9435612   -3.2284619   -1.7338232  0.060531619   -3.2284619    1.4946387   415766 
 3453000    0.9414875   -3.2256913    -1.734237   0.05576969   -3.2256913    1.4914544   415738 
 3454000   0.94301907   -3.2279664    -1.734093  0.052957349   -3.2279664    1.4938734   415740 
 3455000   0.94338124   -3.2282131   -1.7335646  0.054177785   -3.2282131    1.4946485   415684 
 3456000   0.94111522   -3.2246283   -1.7335413  0.058491698   -3.2246283     1.491087   415676 
 3457000   0.94248502   -3.2266677   -1.7332919  0.050434778   -3.2266677    1.4933758   415643 
 3458000   0.94384237   -3.2278936   -1.7322195  0.051821576   -3.2278936    1.4956741   415602 
 3459000    0.9429276   -3.2260554   -1.7317267  0.058208919   -3.2260554    1.4943288   415573 
 3460000   0.94354727   -3.2284153    -1.733198  0.054038003   -3.2284153    1.4952172   415599 
 3461000   0.94453863   -3.2320913   -1.7350509  0.056376795   -3.2320913    1.4970404   415529 
 3462000   0.94226317   -3.2291034   -1.7355401  0.063052084   -3.2291034    1.4935633   415493 
 3463000   0.94301506   -3.2290142   -1.7342339  0.055442904   -3.2290142    1.4947803   415486 
 3464000   0.94146299   -3.2279049    -1.735513  0.055127651   -3.2279049    1.4923919   415466 
 3465000   0.94302936   -3.2291111    -1.734247   0.05084257   -3.2291111    1.4948641   415469 
 3466000    0.9404719   -3.2270081   -1.7359001  0.056218993   -3.2270081     1.491108   415386 
 3467000   0.94070998   -3.2277104   -1.7359736  0.054492277   -3.2277104    1.4917369   415316 
 3468000   0.94115784    -3.228852   -1.7363403  0.055457323    -3.228852    1.4925117   415298 
 3469000   0.94141141   -3.2295501   -1.7364385  0.056412923   -3.2295501    1.4931116   415243 
 3470000     0.941032   -3.2284823   -1.7358394  0.052928924   -3.2284823    1.4926428   415206 
 3471000   0.94011854   -3.2260221   -1.7347851   0.05838188   -3.2260221     1.491237   415194 
 3472000   0.94312211   -3.2313804   -1.7352312  0.051654209   -3.2313804    1.4961491   415153 
 3473000   0.94079381   -3.2279748   -1.7354078  0.055825567   -3.2279748     1.492567   415122 
 3474000   0.94131117   -3.2296736   -1.7362066  0.049010751   -3.2296736    1.4934669   415100 
 3475000   0.94006201   -3.2279555   -1.7364489  0.050961408   -3.2279555    1.4915066   415094 
 3476000   0.94053081   -3.2293151   -1.7369245  0.055903208   -3.2293151    1.4923906   415055 
 3477000    0.9391785   -3.2284626   -1.7381173  0.053843035   -3.2284626    1.4903454   415027 
 3478000   0.93810245   -3.2273443   -1.7385271  0.053765003   -3.2273443    1.4888172   414977 
 3479000   0.93922634   -3.2299814   -1.7392224  0.051146455   -3.2299814    1.4907589   414933 
 3480000   0.93915578   -3.2298066   -1.7390015  0.052103652   -3.2298066     1.490805   414889 
 3481000   0.93793938   -3.2271106   -1.7382364  0.055372268   -3.2271106    1.4888741   414889 
 3482000   0.93881183   -3.2293286   -1.7390444  0.050322848   -3.2293286    1.4902842   414882 
 3483000   0.93941267   -3.2295053   -1.7382889  0.051892964   -3.2295053    1.4912164   414888 
 3484000   0.94150059   -3.2326855   -1.7381295  0.047895013   -3.2326855     1.494556   414881 
 3485000     0.939484   -3.2302044   -1.7387418  0.049975486   -3.2302044    1.4914626   414851 
 3486000   0.93966383   -3.2297531   -1.7376993  0.054721321   -3.2297531    1.4920538   414766 
 3487000   0.94100328   -3.2324412    -1.737983  0.051108999   -3.2324412    1.4944581   414689 
 3488000   0.94115891   -3.2326468   -1.7378442  0.053598892   -3.2326468    1.4948026   414662 
 3489000   0.94101113   -3.2342962   -1.7395877  0.055941419   -3.2342962    1.4947085   414623 
 3490000   0.93961563   -3.2324204   -1.7398385  0.053531145   -3.2324204    1.4925819   414598 
 3491000   0.94048726   -3.2334945   -1.7394128  0.051778992   -3.2334945    1.4940818   414566 
 3492000    0.9394868   -3.2330686   -1.7405438  0.055181952   -3.2330686    1.4925248   414557 
 3493000   0.93883429   -3.2327524   -1.7410375  0.057614122   -3.2327524    1.4917149   414494 
 3494000   0.93944821   -3.2345746    -1.741787  0.049587261   -3.2345746    1.4927876   414467 
 3495000   0.93874869   -3.2347277   -1.7429688  0.059727285   -3.2347277    1.4917588   414444 
 3496000   0.93758284   -3.2330294   -1.7430082  0.058934744   -3.2330294    1.4900212   414412 
 3497000   0.93802524     -3.23407    -1.743191  0.058958878     -3.23407     1.490879   414369 
 3498000   0.93723346   -3.2345876   -1.7448592  0.051519749   -3.2345876    1.4897284   414339 
 3499000   0.93791743    -3.236254   -1.7451973  0.049216528    -3.236254    1.4910567   414272 
 3500000   0.93847503   -3.2383165   -1.7463338  0.051981584   -3.2383165    1.4919828   414261 
 3501000   0.93684192   -3.2357585   -1.7462462  0.054589975   -3.2357585    1.4895123   414226 
 3502000   0.93732554   -3.2365523   -1.7461523  0.053637705   -3.2365523       1.4904   414193 
 3503000   0.93860333   -3.2371788   -1.7445453  0.056491742   -3.2371788    1.4926335   414137 
 3504000   0.93698345   -3.2359644   -1.7459322  0.056815938   -3.2359644    1.4900323   414144 
 3505000     0.937692   -3.2347981   -1.7436102  0.056991339   -3.2347981    1.4911879   414136 
 3506000   0.93713989   -3.2350103   -1.7446393  0.055900419   -3.2350103     1.490371   414119 
 3507000   0.93747686   -3.2370405   -1.7460363  0.051105968   -3.2370405    1.4910041   414092 
 3508000   0.93814463   -3.2371357   -1.7450299  0.056826182   -3.2371357    1.4921058   414081 
 3509000   0.93661833   -3.2351913   -1.7454231  0.056183435   -3.2351913    1.4897682   414056 
 3510000   0.93796074   -3.2382083   -1.7462616  0.050592397   -3.2382083    1.4919467   414044 
 3511000   0.93827468   -3.2376677   -1.7451063  0.057281655   -3.2376677    1.4925614   414012 
 3512000   0.93689619   -3.2354006   -1.7449169  0.053995138   -3.2354006    1.4904837   413980 
 3513000   0.93717594   -3.2368818   -1.7457297  0.052742228   -3.2368818    1.4911521   413918 
 3514000   0.93699387   -3.2368551   -1.7458594  0.051806845   -3.2368551    1.4909957   413881 
 3515000    0.9363785   -3.2367108   -1.7465359  0.052407756   -3.2367108    1.4901749   413837 
 3516000   0.93663529   -3.2370684   -1.7462471   0.05717256   -3.2370684    1.4908213   413771 
 3517000   0.93703228   -3.2370093   -1.7454696  0.056600621   -3.2370093    1.4915397   413747 
 3518000   0.93661779   -3.2356307   -1.7446498  0.053871777   -3.2356307    1.4909809   413719 
 3519000   0.93578938   -3.2354804   -1.7455914  0.050457113   -3.2354804     1.489889   413656 
 3520000   0.93611233    -3.236527     -1.74594  0.057187217    -3.236527     1.490587   413605 
 3521000   0.93505277   -3.2359311   -1.7469269  0.048240567   -3.2359311    1.4890042   413576 
 3522000   0.93615774   -3.2375657   -1.7467154  0.048211136   -3.2375657    1.4908503   413552 
 3523000   0.93485964   -3.2363277   -1.7473394  0.058355941   -3.2363277    1.4889883   413495 
 3524000   0.93622007    -3.238366   -1.7470846  0.056676828    -3.238366    1.4912813   413460 
 3525000   0.93652937   -3.2385926   -1.7466165  0.057536322   -3.2385926    1.4919761   413404 
 3526000   0.93702156   -3.2384706   -1.7456563  0.057717439   -3.2384706    1.4928143   413389 
 3527000   0.93584653   -3.2349543   -1.7438893  0.051132428   -3.2349543     1.491065   413355 
 3528000   0.93665452    -3.237533   -1.7452312   0.05470145    -3.237533    1.4923018   413369 
 3529000   0.93691512   -3.2389222   -1.7461113   0.05233585   -3.2389222    1.4928109   413343 
 3530000   0.93482649   -3.2361326   -1.7464947  0.056723902   -3.2361326     1.489638   413300 
 3531000   0.93388559   -3.2348604   -1.7465345  0.056331236   -3.2348604    1.4883259   413248 
 3532000   0.93277182   -3.2346226   -1.7478558  0.054909532   -3.2346226    1.4867668   413188 
 3533000    0.9329571   -3.2366871    -1.749499  0.056822064   -3.2366871    1.4871881   413153 
 3534000   0.93185859   -3.2366102   -1.7508208  0.048089873   -3.2366102    1.4857894   413055 
 3535000    0.9325017   -3.2371688   -1.7502388  0.049668494   -3.2371688      1.48693   413023 
 3536000   0.93271707   -3.2373609   -1.7498642  0.052237926   -3.2373609    1.4874967   412961 
 3537000   0.93273661   -3.2387958   -1.7511886  0.049249762   -3.2387958    1.4876071   412939 
 3538000   0.93239517   -3.2387924    -1.751719  0.052601735   -3.2387924    1.4870734   412936 
 3539000    0.9339719   -3.2398705   -1.7502283  0.057161457   -3.2398705    1.4896422   412921 
 3540000   0.93427074   -3.2411186   -1.7509637  0.054645526   -3.2411186    1.4901549   412911 
 3541000   0.93321433   -3.2398763   -1.7514171  0.050577126   -3.2398763    1.4884592   412914 
 3542000   0.93390326   -3.2379527   -1.7482504  0.058485077   -3.2379527    1.4897023   412874 
 3543000    0.9365488   -3.2418917   -1.7478572  0.050127701   -3.2418917    1.4940345   412843 
 3544000   0.93396085   -3.2378911   -1.7480031  0.053848384   -3.2378911     1.489888   412848 
 3545000   0.93431683    -3.241047   -1.7502878   0.05387083    -3.241047    1.4907592   412764 
 3546000    0.9348412   -3.2413411   -1.7497308  0.051015204   -3.2413411    1.4916103   412760 
 3547000   0.93323453    -3.239779   -1.7506926  0.049656214    -3.239779    1.4890864   412749 
 3548000   0.93350639   -3.2400446    -1.750398   0.05039521   -3.2400446    1.4896465   412714 
 3549000   0.93298888   -3.2391708   -1.7501986  0.049913653   -3.2391708    1.4889722   412672 
 3550000   0.93231469   -3.2388817   -1.7508015  0.053037569   -3.2388817    1.4880802   412621 
 3551000   0.93414529   -3.2412395   -1.7502194  0.052452568   -3.2412395    1.4910201   412616 
 3552000   0.93147776   -3.2377968   -1.7510741  0.051956211   -3.2377968    1.4867227   412627 
 3553000   0.93068769   -3.2382849   -1.7527512  0.053693564   -3.2382849    1.4855337   412607 
 3554000   0.93126561   -3.2373986   -1.7510433  0.049557938   -3.2373986    1.4863553   412635 
 3555000   0.93124839   -3.2367515   -1.7502111  0.052891703   -3.2367515    1.4865404   412576 
 3556000   0.93096707   -3.2380714   -1.7518324  0.048582402   -3.2380714     1.486239   412535 
 3557000   0.93128763   -3.2380657   -1.7510806  0.050496293   -3.2380657     1.486985   412470 
 3558000   0.93120277   -3.2374643   -1.7507265   0.05154028   -3.2374643    1.4867378   412501 
 3559000    0.9326445   -3.2400127   -1.7508178  0.053491233   -3.2400127    1.4891949   412458 
 3560000   0.93231521    -3.238938   -1.7502689  0.054816215    -3.238938    1.4886691   412458 
 3561000   0.93219026   -3.2383587   -1.7497953  0.053621712   -3.2383587    1.4885634   412432 
 3562000   0.93392881   -3.2427171    -1.751193  0.050313364   -3.2427171     1.491524   412381 
 3563000   0.93015469   -3.2373534   -1.7517523  0.053457476   -3.2373534    1.4856011   412352 
 3564000   0.93058869   -3.2383977   -1.7520458  0.050300091   -3.2383977    1.4863519   412336 
 3565000   0.93048725   -3.2390143   -1.7526874  0.049536203   -3.2390143    1.4863269   412298 
 3566000   0.93219275   -3.2416429   -1.7525483  0.051463666   -3.2416429    1.4890945   412286 
 3567000   0.93119513   -3.2410203   -1.7534653  0.049248423   -3.2410203     1.487555   412271 
 3568000   0.92989819   -3.2390824   -1.7534911  0.051937742   -3.2390824    1.4855913   412241 
 3569000     0.931242     -3.24146   -1.7535991  0.052115671     -3.24146    1.4878609   412207 
 3570000   0.93119946   -3.2420576   -1.7541564  0.048980145   -3.2420576    1.4879012   412177 
 3571000   0.93275893   -3.2448107    -1.754255   0.05094028   -3.2448107    1.4905557   412132 
 3572000   0.93200384   -3.2447663   -1.7552655  0.053754886   -3.2447663    1.4895009   412090 
 3573000    0.9312134   -3.2442779   -1.7558597  0.056706865   -3.2442779    1.4884182   412040 
 3574000   0.93226567   -3.2452069   -1.7551104  0.053833571   -3.2452069    1.4900965   412041 
 3575000    0.9319856    -3.245622   -1.7559189  0.052555506    -3.245622    1.4897031   412026 
 3576000   0.93175922   -3.2462035   -1.7567285  0.050729159   -3.2462035     1.489475   411989 
 3577000    0.9300832    -3.242682   -1.7559584  0.054635534    -3.242682    1.4867236   412009 
 3578000   0.93317819   -3.2467117   -1.7549104  0.049015038   -3.2467117    1.4918012   411973 
 3579000   0.93196079   -3.2457035   -1.7557182  0.052925661   -3.2457035    1.4899853   411937 
 3580000   0.93111025   -3.2448839   -1.7561789  0.057007346   -3.2448839    1.4887049   411915 
 3581000   0.93227711   -3.2475399   -1.7568861  0.058041545   -3.2475399    1.4906538   411892 
 3582000   0.93276948   -3.2501138   -1.7585387  0.052945036   -3.2501138    1.4915751   411855 
 3583000   0.93185864   -3.2492602   -1.7590331   0.05387739   -3.2492602    1.4902271   411825 
 3584000   0.93104792   -3.2483451   -1.7592011  0.052244355   -3.2483451    1.4891439   411766 
 3585000   0.93159813   -3.2482056   -1.7581636  0.052639916   -3.2482056    1.4900421   411761 
 3586000   0.93025054   -3.2471599   -1.7590564  0.052157735   -3.2471599    1.4881035   411701 
 3587000   0.93048064   -3.2487594   -1.7601901  0.054098274   -3.2487594    1.4885692   411674 
 3588000     0.930146   -3.2474013   -1.7591613  0.054042149   -3.2474013    1.4882399   411617 
 3589000   0.93084861   -3.2490493   -1.7597033  0.057371113   -3.2490493     1.489346   411622 
 3590000   0.93142341   -3.2509267   -1.7605741  0.056244092   -3.2509267    1.4903526   411598 
 3591000   0.93161279   -3.2506642   -1.7598746  0.056453475   -3.2506642    1.4907896   411561 
 3592000   0.93112844    -3.250645   -1.7605871  0.058117956    -3.250645     1.490058   411549 
 3593000   0.93066659   -3.2507169   -1.7613365  0.055544933   -3.2507169    1.4893804   411532 
 3594000   0.92910362     -3.25012   -1.7629951  0.058353758     -3.25012    1.4871249   411464 
 3595000   0.93055176   -3.2521041   -1.7626613  0.057599706   -3.2521041    1.4894428   411464 
 3596000   0.92951045   -3.2500388   -1.7622085  0.053350512   -3.2500388    1.4878303   411449 
 3597000   0.92915484   -3.2499267   -1.7625029  0.057220927   -3.2499267    1.4874238   411404 
 3598000   0.92866062   -3.2485988   -1.7620095  0.052569048   -3.2485988    1.4865892   411416 
 3599000   0.92826421   -3.2491264   -1.7631284  0.048657618   -3.2491264     1.485998   411404 
 3600000   0.92950566   -3.2514432   -1.7633023  0.052120185   -3.2514432    1.4881409   411361 
 3601000    0.9279005    -3.248201   -1.7626083  0.053915706    -3.248201    1.4855927   411355 
 3602000   0.92900277   -3.2500382   -1.7627422  0.049418344   -3.2500382     1.487296   411372 
 3603000   0.92892947   -3.2496865   -1.7624138  0.057193708   -3.2496865    1.4872727   411346 
 3604000    0.9287466    -3.248167   -1.7611257   0.05317581    -3.248167    1.4870413   411329 
 3605000   0.92882427   -3.2490909   -1.7617444  0.048089414   -3.2490909    1.4873465   411279 
 3606000   0.92808256   -3.2474453   -1.7613624  0.053946908   -3.2474453    1.4860829   411300 
 3607000    0.9287785   -3.2481956    -1.760785  0.054378576   -3.2481956    1.4874106   411241 
 3608000    0.9291178   -3.2487049   -1.7608413   0.05340435   -3.2487049    1.4878636   411266 
 3609000   0.92964073    -3.249098     -1.76035  0.058048744    -3.249098     1.488748   411253 
 3610000   0.92992621   -3.2506353   -1.7612998  0.050412276   -3.2506353    1.4893356   411217 
 3611000   0.92955821   -3.2492353   -1.7605615  0.053533335   -3.2492353    1.4886738   411237 
 3612000   0.92885944   -3.2484003   -1.7607841  0.054126416   -3.2484003    1.4876162   411220 
 3613000    0.9294543   -3.2500316   -1.7613178  0.055758727   -3.2500316    1.4887137   411180 
 3614000   0.92839052   -3.2481659   -1.7611091  0.054905592   -3.2481659    1.4870569   411167 
 3615000   0.92813452   -3.2465934   -1.7599429  0.050891258   -3.2465934    1.4866504   411166 
 3616000   0.92922905   -3.2486029   -1.7601414  0.053667208   -3.2486029    1.4884615   411150 
 3617000   0.92909861   -3.2476868   -1.7593256  0.050544735   -3.2476868    1.4883612   411120 
 3618000   0.92973167   -3.2489155   -1.7594533   0.05284662   -3.2489155    1.4894623   411096 
 3619000   0.92835407   -3.2472407   -1.7598805  0.057947643   -3.2472407    1.4873602   411067 
 3620000   0.92944184   -3.2498471   -1.7604253  0.051924465   -3.2498471    1.4894218   410979 
 3621000   0.92895274   -3.2487871   -1.7599824  0.051573006   -3.2487871    1.4888047   410933 
 3622000   0.92867919   -3.2493884   -1.7610149  0.054882753   -3.2493884    1.4883735   410931 
 3623000   0.92773541   -3.2489926   -1.7620919  0.055275325   -3.2489926    1.4869008   410920 
 3624000   0.92842416   -3.2497576   -1.7617277  0.056199029   -3.2497576      1.48803   410913 
 3625000   0.92768368   -3.2468935   -1.7602819  0.051397029   -3.2468935    1.4866116   410977 
 3626000   0.92994979    -3.249394   -1.7590893  0.054254565    -3.249394    1.4903047   410960 
 3627000   0.92841805    -3.247081   -1.7590101  0.058249098    -3.247081    1.4880709   410899 
 3628000   0.92972378   -3.2478188   -1.7575499  0.049878404   -3.2478188    1.4902689   410870 
 3629000   0.92857452   -3.2481708   -1.7598201  0.057208955   -3.2481708    1.4883507   410891 
 3630000   0.92987086   -3.2506603    -1.760152  0.051445812   -3.2506603    1.4905083   410869 
 3631000   0.92703219   -3.2472774   -1.7613337  0.055035881   -3.2472774    1.4859437   410873 
 3632000   0.92845479   -3.2500052   -1.7617813  0.052688869   -3.2500052    1.4882239   410873 
 3633000    0.9278054   -3.2486248   -1.7613331  0.053977081   -3.2486248    1.4872916   410843 
 3634000   0.92550151   -3.2462681   -1.7626624  0.053148903   -3.2462681    1.4836057   410841 
 3635000   0.92534943   -3.2466127   -1.7632038  0.048329234   -3.2466127    1.4834088   410828 
 3636000   0.92572315   -3.2476092   -1.7635073  0.050976198   -3.2476092    1.4841018   410802 
 3637000    0.9269472   -3.2490161   -1.7628469  0.048039228   -3.2490161    1.4861691   410773 
 3638000   0.92620036   -3.2485328   -1.7634201  0.051922604   -3.2485328    1.4851127   410734 
 3639000   0.92647305   -3.2487126   -1.7631662  0.051858041   -3.2487126    1.4855464   410735 
 3640000   0.92635525   -3.2491745   -1.7637049  0.052882824   -3.2491745    1.4854696   410704 
 3641000   0.92771512   -3.2514805   -1.7636056  0.055687932   -3.2514805    1.4878748   410642 
 3642000   0.92659971   -3.2500484   -1.7637814  0.051741324   -3.2500484    1.4862669   410592 
 3643000   0.92705745   -3.2503262   -1.7632201  0.054941651   -3.2503262    1.4871062   410563 
 3644000   0.92602276   -3.2504209   -1.7649021  0.056165113   -3.2504209    1.4855188   410543 
 3645000   0.92687187   -3.2530432   -1.7658906  0.045453532   -3.2530432    1.4871526   410468 
 3646000   0.92628516   -3.2516083   -1.7652015  0.057461809   -3.2516083    1.4864068   410414 
 3647000   0.92674647   -3.2518288   -1.7645658     0.055535   -3.2518288     1.487263   410382 
 3648000   0.92703451   -3.2512648   -1.7635432  0.057502735   -3.2512648    1.4877216   410383 
 3649000   0.92851028    -3.253383   -1.7630861  0.050870112    -3.253383    1.4902969   410326 
 3650000   0.92716898   -3.2523515   -1.7640514  0.055716232   -3.2523515    1.4883001   410283 
 3651000   0.92574489   -3.2513089   -1.7652549  0.057513513   -3.2513089     1.486054   410272 
 3652000   0.92806118   -3.2544009   -1.7644907  0.058937758   -3.2544009    1.4899102   410234 
 3653000   0.92592383   -3.2518851   -1.7653773  0.055348458   -3.2518851    1.4865079   410226 
 3654000   0.92761759    -3.253796   -1.7644854  0.051934506    -3.253796    1.4893106   410203 
 3655000   0.92785872   -3.2557276   -1.7661497  0.052889481   -3.2557276    1.4895779   410236 
 3656000   0.92518095   -3.2530591    -1.767599  0.046608255   -3.2530591    1.4854601   410186 
 3657000   0.92389219    -3.251423   -1.7680285  0.052108201    -3.251423    1.4833945   410185 
 3658000   0.92423183   -3.2530583   -1.7690498  0.046942572   -3.2530583    1.4840085   410166 
 3659000   0.92387446   -3.2536344   -1.7700839   0.05181314   -3.2536344    1.4835504   410134 
 3660000   0.92487122    -3.255267   -1.7699929  0.050037046    -3.255267    1.4852742   410100 
 3661000   0.92547064    -3.254993   -1.7686946  0.051834741    -3.254993    1.4862984   410083 
 3662000   0.92555209   -3.2545959   -1.7680724  0.052031854   -3.2545959    1.4865235   410057 
 3663000    0.9252761   -3.2531116   -1.7669879  0.052301693   -3.2531116    1.4861237   410045 
 3664000   0.92634996   -3.2534289   -1.7655007  0.054092915   -3.2534289    1.4879283   410023 
 3665000   0.92594112    -3.252456     -1.76513   0.05891204    -3.252456     1.487326   410008 
 3666000   0.92525416   -3.2513014   -1.7652129  0.056303415   -3.2513014    1.4860884   410045 
 3667000   0.92721485   -3.2552675   -1.7659863  0.052516302   -3.2552675    1.4892812   410033 
 3668000   0.92810496   -3.2552271   -1.7644363  0.056342177   -3.2552271    1.4907909   410011 
 3669000   0.92594707   -3.2539989   -1.7666633  0.054035091   -3.2539989    1.4873356   410008 
 3670000   0.92494782   -3.2539437   -1.7680284  0.053327255   -3.2539437    1.4859153   409957 
 3671000   0.92584274   -3.2545682   -1.7672225  0.050553559   -3.2545682    1.4873457   409959 
 3672000   0.92413812   -3.2509277   -1.7664037  0.054736489   -3.2509277     1.484524   409982 
 3673000   0.92488094   -3.2529816   -1.7671846  0.052282197   -3.2529816     1.485797   409960 
 3674000   0.92333231    -3.252147   -1.7686497  0.052307247    -3.252147    1.4834973   409908 
 3675000   0.92383939   -3.2530478    -1.768562   0.05135892   -3.2530478    1.4844859   409860 
 3676000   0.92521049   -3.2562522   -1.7695196   0.05182692   -3.2562522    1.4867326   409848 
 3677000   0.92402478   -3.2542141     -1.76951  0.047316866   -3.2542141    1.4847041   409882 
 3678000   0.92413918   -3.2535753   -1.7685062  0.055741367   -3.2535753    1.4850691   409832 
 3679000    0.9241182   -3.2525398   -1.7674972  0.053707251   -3.2525398    1.4850426   409830 
 3680000   0.92407694   -3.2512884   -1.7663483  0.052475334   -3.2512884    1.4849401   409840 
 3681000   0.92513925   -3.2530533   -1.7661812  0.051279543   -3.2530533    1.4868721   409778 
 3682000   0.92393657    -3.251335   -1.7663995  0.051662219    -3.251335    1.4849355   409779 
 3683000   0.92326072   -3.2514608   -1.7674848    0.0537745   -3.2514608     1.483976   409744 
 3684000    0.9219281   -3.2504207   -1.7684709  0.054159726   -3.2504207    1.4819498   409712 
 3685000   0.92253999   -3.2515755   -1.7686891  0.050719436   -3.2515755    1.4828864   409725 
 3686000    0.9233934   -3.2534943   -1.7691818  0.050826116   -3.2534943    1.4843125   409710 
 3687000   0.92283213   -3.2520815   -1.7686061   0.05133345   -3.2520815    1.4834754   409692 
 3688000   0.92397761   -3.2536389   -1.7683692   0.05310451   -3.2536389    1.4852697   409705 
 3689000    0.9225245   -3.2502871   -1.7673642  0.052752495   -3.2502871     1.482923   409708 
 3690000   0.92260847    -3.250912   -1.7678758  0.053595759    -3.250912    1.4830362   409714 
 3691000   0.92347884   -3.2510165    -1.766563  0.050016205   -3.2510165    1.4844534   409709 
 3692000   0.92416111   -3.2523334   -1.7666527  0.048166984   -3.2523334    1.4856807   409673 
 3693000   0.92360907   -3.2511383   -1.7662798  0.051448553   -3.2511383    1.4848585   409655 
 3694000   0.92413365   -3.2511969   -1.7654225  0.054409522   -3.2511969    1.4857744   409635 
 3695000   0.92406957   -3.2522597   -1.7666646  0.051423364   -3.2522597    1.4855952   409656 
 3696000   0.92365189   -3.2528833   -1.7677747  0.052869516   -3.2528833    1.4851086   409605 
 3697000   0.92332475   -3.2520977   -1.7674173  0.048816881   -3.2520977    1.4846805   409578 
 3698000   0.92216971   -3.2502124   -1.7673168  0.055055917   -3.2502124    1.4828956   409558 
 3699000   0.92447341   -3.2552096   -1.7685914  0.050469039   -3.2552096    1.4866182   409553 
 3700000   0.92357438   -3.2538056   -1.7686912  0.050963841   -3.2538056    1.4851145   409569 
 3701000   0.92239217   -3.2537034   -1.7704319  0.050508931   -3.2537034    1.4832714   409553 
 3702000   0.92235705   -3.2542507   -1.7709199  0.054282174   -3.2542507    1.4833308   409521 
 3703000   0.92324881   -3.2563395   -1.7714295  0.050092762   -3.2563395      1.48491   409481 
 3704000   0.92312962   -3.2572309   -1.7723386  0.050908815   -3.2572309    1.4848924   409433 
 3705000   0.92171533   -3.2547729     -1.77196  0.052269914   -3.2547729     1.482813   409379 
 3706000   0.92408858   -3.2570914   -1.7704749   0.05038674   -3.2570914    1.4866164   409383 
 3707000   0.92356902   -3.2557407   -1.7698912   0.05331273   -3.2557407    1.4858496   409364 
 3708000   0.92311633   -3.2563348   -1.7710793  0.052061109   -3.2563348    1.4852555   409327 
 3709000   0.92554982    -3.259936    -1.770736  0.051080613    -3.259936       1.4892   409319 
 3710000   0.92444295   -3.2589732    -1.771427  0.044976707   -3.2589732    1.4875463   409284 
 3711000   0.92404633   -3.2573454   -1.7704591  0.051526492   -3.2573454    1.4868862   409290 
 3712000   0.92522471   -3.2599906   -1.7709608  0.051099306   -3.2599906    1.4890298   409222 
 3713000   0.92265348   -3.2573256   -1.7724085  0.053392821   -3.2573256    1.4849171   409215 
 3714000   0.92219553   -3.2570451   -1.7727127  0.048122425   -3.2570451    1.4843324   409173 
 3715000   0.92348265   -3.2602789   -1.7737367  0.049316299   -3.2602789    1.4865422   409135 
 3716000   0.92179432   -3.2595782   -1.7758118  0.049932638   -3.2595782    1.4837664   409151 
 3717000    0.9213387   -3.2579417   -1.7749231  0.055378974   -3.2579417    1.4830186   409155 
 3718000   0.92221076   -3.2605131   -1.7760074  0.048801238   -3.2605131    1.4845057   409132 
 3719000   0.92032302   -3.2564042   -1.7749191  0.047104219   -3.2564042    1.4814851   409127 
 3720000   0.91970437   -3.2555621   -1.7749861   0.05287122   -3.2555621     1.480576   409103 
 3721000   0.92147257   -3.2593908   -1.7759175  0.052149021   -3.2593908    1.4834733   409089 
 3722000   0.92288515   -3.2602943   -1.7744016  0.056774205   -3.2602943    1.4858927   409049 
 3723000   0.92213685   -3.2577178   -1.7730153  0.053070689   -3.2577178    1.4847024   409045 
 3724000    0.9216145   -3.2570817   -1.7732203  0.054565367   -3.2570817    1.4838614   409045 
 3725000   0.92207417   -3.2578887   -1.7731964   0.05404089   -3.2578887    1.4846923   409020 
 3726000   0.92212828    -3.258697   -1.7737833  0.047824153    -3.258697    1.4849137   408983 
 3727000   0.92137782   -3.2566721   -1.7728036  0.048989354   -3.2566721    1.4838685   408938 
 3728000   0.92205865   -3.2584272    -1.773484  0.052375159   -3.2584272    1.4849432   408944 
 3729000   0.92229108    -3.257988   -1.7727104  0.054695943    -3.257988    1.4852776   408955 
 3730000   0.92385998   -3.2605021   -1.7726398  0.054411673   -3.2605021    1.4878624   408939 
 3731000   0.92222052   -3.2564781   -1.7712924  0.051757454   -3.2564781    1.4851857   408949 
 3732000   0.92124577   -3.2563892   -1.7726717  0.049689015   -3.2563892    1.4837175   408921 
 3733000   0.92238414   -3.2580732   -1.7723733  0.047386264   -3.2580732    1.4856999   408880 
 3734000   0.92243913   -3.2588037   -1.7727644  0.052901146   -3.2588037    1.4860392   408811 
 3735000   0.92153422   -3.2576836   -1.7730731  0.050997277   -3.2576836    1.4846105   408803 
 3736000   0.92079943   -3.2572671   -1.7737751  0.051014587   -3.2572671     1.483492   408785 
 3737000   0.92040636   -3.2569296    -1.773835  0.049447925   -3.2569296    1.4830946   408720 
 3738000   0.92091084   -3.2564296   -1.7723297  0.059462032   -3.2564296    1.4840999   408667 
 3739000   0.92044796   -3.2551156   -1.7714639  0.054834097   -3.2551156    1.4836517   408585 
 3740000   0.92122624   -3.2573194   -1.7721588  0.053837741   -3.2573194    1.4851606   408515 
 3741000   0.92156677    -3.258831   -1.7729068  0.056401702    -3.258831    1.4859242   408456 
 3742000   0.92237966   -3.2603316   -1.7731658  0.047798412   -3.2603316    1.4871657   408475 
 3743000    0.9199935   -3.2573656   -1.7740471  0.050897111   -3.2573656    1.4833185   408475 
 3744000   0.92152547   -3.2583934   -1.7725831  0.053038055   -3.2583934    1.4858103   408469 
 3745000   0.92118108     -3.25794    -1.772634  0.053587378     -3.25794     1.485306   408455 
 3746000   0.92062065   -3.2568561   -1.7724865   0.05324657   -3.2568561    1.4843696   408464 
 3747000   0.91929981   -3.2556199   -1.7732892  0.053335401   -3.2556199    1.4823307   408439 
 3748000   0.92021423   -3.2567464   -1.7728868  0.049993509   -3.2567464    1.4838596   408424 
 3749000   0.91971043   -3.2577475   -1.7746675  0.053120007   -3.2577475    1.4830799   408415 
 3750000   0.92054818   -3.2581823   -1.7736642  0.048444812   -3.2581823    1.4845181   408391 
 3751000   0.92052819   -3.2592376   -1.7746827  0.049575021   -3.2592376    1.4845549   408372 
 3752000   0.92064667   -3.2581519   -1.7734568  0.052657598   -3.2581519    1.4846951   408386 
 3753000   0.92076543   -3.2597863   -1.7746306  0.052873135   -3.2597863    1.4851557   408312 
 3754000   0.91988932   -3.2580003    -1.774036  0.057056852   -3.2580003    1.4839643   408251 
 3755000   0.91942969   -3.2568687   -1.7736059  0.052060505   -3.2568687    1.4832628   408240 
 3756000   0.92084474   -3.2600859    -1.774362   0.05263863   -3.2600859    1.4857239   408191 
 3757000   0.91792618   -3.2561781   -1.7750578  0.053807442   -3.2561781    1.4811203   408162 
 3758000   0.91997205   -3.2577289   -1.7732748  0.051131895   -3.2577289    1.4844541   408153 
 3759000   0.91783673   -3.2564974   -1.7754743  0.053649686   -3.2564974    1.4810231   408149 
 3760000   0.91893644   -3.2578324   -1.7749512  0.050174588   -3.2578324    1.4828811   408126 
 3761000    0.9184191   -3.2583039   -1.7762031  0.049628369   -3.2583039    1.4821008   408111 
 3762000   0.91855316   -3.2600441   -1.7774945  0.046641377   -3.2600441    1.4825496   408047 
 3763000   0.91933115   -3.2606871   -1.7767654  0.049415053   -3.2606871    1.4839217   408015 
 3764000   0.91829898   -3.2589947   -1.7766556  0.051024855   -3.2589947    1.4823392   407992 
 3765000   0.91984774   -3.2610676   -1.7760755  0.056442548   -3.2610676    1.4849921   407950 
 3766000   0.91904729   -3.2597437   -1.7760293  0.053674763   -3.2597437    1.4837144   407946 
 3767000    0.9195608   -3.2607816    -1.776271  0.048029488   -3.2607816    1.4845107   407955 
 3768000   0.91815602    -3.259185   -1.7768549  0.051346033    -3.259185      1.48233   407931 
 3769000   0.91688108    -3.256659   -1.7761841  0.054506155    -3.256659    1.4804749   407875 
[...]
 7812000   0.77302411   -3.1940963   -1.7191707  0.048046551   -3.1940963    1.4749255   345174 
 7813000   0.77450758   -3.1941551    -1.716489  0.051640227   -3.1941551    1.4776661   345195 
 7814000   0.77347038   -3.1937091   -1.7178295  0.052470091   -3.1937091    1.4758796   345150 
 7815000   0.77418679   -3.1948927   -1.7177573   0.04966516   -3.1948927    1.4771354   345176 
 7816000    0.7746013    -3.195904   -1.7180078  0.050189981    -3.195904    1.4778963   345183 
 7817000   0.77252207   -3.1932849    -1.719155  0.049465193   -3.1932849    1.4741299   345136 
 7818000   0.77188302   -3.1914484   -1.7184739  0.049212543   -3.1914484    1.4729745   345121 
 7819000   0.77159252   -3.1916869     -1.71919  0.043397969   -3.1916869     1.472497   345103 
 7820000   0.77235261   -3.1895984   -1.7157192  0.050952628   -3.1895984    1.4738792   345119 
 7821000   0.77322305    -3.189741   -1.7140126  0.049137892    -3.189741    1.4757284   345075 
 7822000   0.77318013   -3.1894139   -1.7136734  0.049818892   -3.1894139    1.4757405   345053 
 7823000   0.77174975   -3.1881494   -1.7150151  0.052741015   -3.1881494    1.4731342   345024 
 7824000   0.77346444   -3.1913115     -1.71487  0.049387092   -3.1913115    1.4764415   345016 
 7825000   0.77180309   -3.1895322    -1.716121  0.054835646   -3.1895322    1.4734111   344983 
 7826000   0.77019889   -3.1877413   -1.7172648  0.049517525   -3.1877413    1.4704765   344953 
 7827000   0.77012804   -3.1878984   -1.7174591  0.051265157   -3.1878984    1.4704393   344930 
 7828000   0.77159624   -3.1886201   -1.7154586  0.044552188   -3.1886201    1.4731614   344949 
 7829000   0.77129489   -3.1879705   -1.7153716  0.050548214   -3.1879705    1.4725989   344946 
 7830000   0.77227585   -3.1884296   -1.7139322  0.049304842   -3.1884296    1.4744974   344940 
 7831000    0.7732718   -3.1897271   -1.7131654  0.053843778   -3.1897271    1.4765617   344902 
 7832000   0.77416228   -3.1905173   -1.7120109  0.054946781   -3.1905173    1.4785064   344845 
 7833000   0.77207243   -3.1862509   -1.7116074  0.056762697   -3.1862509    1.4746434   344815 
 7834000   0.77267416    -3.189038   -1.7131725  0.052594741    -3.189038    1.4758655   344798 
 7835000   0.77265624   -3.1900961   -1.7143547  0.051036439   -3.1900961    1.4757414   344819 
 7836000   0.77215597   -3.1894769   -1.7146396  0.049650213   -3.1894769    1.4748372   344807 
 7837000   0.77180211   -3.1901634   -1.7160192  0.049161638   -3.1901634    1.4741442   344811 
 7838000   0.77240574   -3.1891078   -1.7137251  0.055450582   -3.1891078    1.4753828   344791 
 7839000   0.77165911    -3.189811   -1.7157775  0.051887808    -3.189811    1.4740336   344773 
 7840000   0.77250172   -3.1900609   -1.7143578  0.052585267   -3.1900609    1.4757031   344759 
 7841000   0.77253674   -3.1917911   -1.7157343  0.050080683   -3.1917911    1.4760568   344692 
 7842000   0.77277566   -3.1912327   -1.7145866   0.04876359   -3.1912327    1.4766461   344661 
 7843000   0.77239427   -3.1914614   -1.7154841  0.051645272   -3.1914614    1.4759773   344647 
 7844000   0.77329754   -3.1932804   -1.7155385  0.047541652   -3.1932804    1.4777419   344638 
 7845000   0.77129978   -3.1900424    -1.716054  0.058112338   -3.1900424    1.4739885   344623 
 7846000   0.77191249    -3.190446   -1.7151368  0.053285896    -3.190446    1.4753092   344588 
 7847000   0.77366207   -3.1938342   -1.7151726  0.052976706   -3.1938342    1.4786616   344586 
 7848000   0.77242102   -3.1921203   -1.7157492  0.053390133   -3.1921203    1.4763711   344567 
 7849000   0.77174397   -3.1928046   -1.7176548  0.051565082   -3.1928046    1.4751498   344550 
 7850000   0.77097492   -3.1928051   -1.7189884  0.051605736   -3.1928051    1.4738167   344518 
 7851000   0.77089895   -3.1931379    -1.719552  0.050540149   -3.1931379    1.4735859   344538 
 7852000   0.77248915   -3.1944957    -1.717733  0.050886534   -3.1944957    1.4767628   344506 
 7853000   0.77236677   -3.1943054   -1.7178752  0.047411766   -3.1943054    1.4764302   344529 
 7854000   0.77344815   -3.1940104   -1.7153285  0.053201927   -3.1940104    1.4786819   344486 
 7855000   0.77234835   -3.1921863   -1.7155127  0.057175105   -3.1921863    1.4766736   344464 
 7856000   0.77321375   -3.1947359   -1.7163477  0.056120067   -3.1947359    1.4783883   344450 
 7857000   0.77186833   -3.1941784   -1.7181911  0.054681861   -3.1941784    1.4759872   344410 
 7858000   0.77252748   -3.1943216   -1.7170138  0.057007599   -3.1943216    1.4773077   344396 
 7859000   0.77285332   -3.1950776   -1.7171596   0.05654306   -3.1950776     1.477918   344399 
 7860000   0.77225585    -3.195605   -1.7188167  0.050593567    -3.195605    1.4767883   344396 
 7861000   0.77142758   -3.1957645    -1.720303  0.052923851   -3.1957645    1.4754614   344336 
 7862000   0.77123431   -3.1946752   -1.7194935  0.051815844   -3.1946752    1.4751818   344315 
 7863000   0.77019784   -3.1946276    -1.721454  0.050850547   -3.1946276    1.4731736   344321 
 7864000   0.77031234   -3.1930234    -1.719648   0.04918481   -3.1930234    1.4733754   344325 
 7865000   0.77030097   -3.1923449   -1.7189912  0.051609928   -3.1923449    1.4733537   344325 
 7866000   0.77107849   -3.1946584   -1.7193676  0.056609593   -3.1946584    1.4752907   344220 
 7867000    0.7704324   -3.1932918   -1.7193228  0.051961519   -3.1932918     1.473969   344240 
 7868000   0.77160831   -3.1942764   -1.7181606  0.050449076   -3.1942764    1.4761158   344264 
 7869000   0.77257903   -3.1939793   -1.7158133  0.054617729   -3.1939793     1.478166   344219 
 7870000   0.77138621   -3.1936218   -1.7176308  0.049734153   -3.1936218     1.475991   344194 
 7871000   0.77228568    -3.195409   -1.7175381  0.046236626    -3.195409    1.4778709   344157 
 7872000   0.77216728   -3.1968457   -1.7192915  0.046071552   -3.1968457    1.4775542   344178 
 7873000   0.77070134   -3.1933126   -1.7185035  0.050796682   -3.1933126    1.4748091   344164 
 7874000   0.77015483   -3.1916422   -1.7179175  0.050821857   -3.1916422    1.4737247   344173 
 7875000   0.77056248   -3.1938296   -1.7191662  0.047520105   -3.1938296    1.4746633   344136 
 7876000   0.76969683   -3.1919348   -1.7190179  0.048890565   -3.1919348    1.4729168   344157 
 7877000   0.77122456   -3.1942717   -1.7182641  0.050380103   -3.1942717    1.4760076   344118 
 7878000   0.77055421   -3.1932369   -1.7184823  0.053873276   -3.1932369    1.4747546   344111 
 7879000   0.77114675   -3.1935852   -1.7176707  0.054421078   -3.1935852    1.4759144   344105 
 7880000   0.77140987   -3.1954548   -1.7189853  0.058267416   -3.1954548    1.4764695   344093 
 7881000   0.77192317   -3.1948805   -1.7172525  0.053379595   -3.1948805     1.477628   344052 
 7882000   0.77091726   -3.1926081   -1.7168284  0.057788107   -3.1926081    1.4757797   344034 
 7883000   0.77131158   -3.1944633   -1.7178386  0.056373095   -3.1944633    1.4766247   344013 
 7884000    0.7700012   -3.1919458   -1.7178425  0.056252954   -3.1919458    1.4741032   344016 
 7885000   0.77074468   -3.1953807    -1.719764  0.048461157   -3.1953807    1.4756166   343995 
 7886000   0.76990776   -3.1935082   -1.7192539  0.049771809   -3.1935082    1.4742543   343939 
 7887000   0.77053095   -3.1926392   -1.7170157  0.049555095   -3.1926392    1.4756235   343898 
 7888000   0.77134685   -3.1942203   -1.7171503   0.05416248   -3.1942203    1.4770701   343925 
 7889000   0.77038533   -3.1932398   -1.7178823  0.051972298   -3.1932398    1.4753575   343895 
 7890000   0.77174047   -3.1931201   -1.7150986  0.054535718   -3.1931201    1.4780215   343879 
 7891000   0.77130847   -3.1933131    -1.716119  0.049384023   -3.1933131    1.4771941   343879 
 7892000   0.77142167   -3.1930925   -1.7157546  0.052545802   -3.1930925    1.4773379   343896 
 7893000   0.77018499   -3.1909205   -1.7157879  0.049744262   -3.1909205    1.4751326   343858 
 7894000   0.77106308   -3.1916746   -1.7148086  0.050747614   -3.1916746    1.4768659   343846 
 7895000   0.76973906   -3.1917196   -1.7170937   0.04911049   -3.1917196    1.4746258   343777 
 7896000   0.76877655   -3.1905799   -1.7178151  0.051026939   -3.1905799    1.4727648   343781 
 7897000   0.76946353   -3.1916041   -1.7176047  0.050098482   -3.1916041    1.4739994   343800 
 7898000   0.77104687   -3.1936171   -1.7165631  0.052398402   -3.1936171    1.4770539   343795 
 7899000   0.76978309   -3.1909668   -1.7160807  0.055981732   -3.1909668    1.4748861   343736 
 7900000   0.76901295   -3.1908958    -1.717511  0.050022983   -3.1908958    1.4733848   343742 
 7901000    0.7700043   -3.1923294   -1.7168693  0.056375396   -3.1923294    1.4754602   343701 
 7902000   0.77012946   -3.1925719   -1.7168934  0.052583045   -3.1925719    1.4756785   343706 
 7903000   0.77070906   -3.1954313   -1.7184101  0.048631739   -3.1954313    1.4770212   343652 
 7904000   0.76948398    -3.196225   -1.7213756  0.051898858    -3.196225    1.4748493   343611 
 7905000   0.76880177   -3.1936306    -1.720136  0.054230018   -3.1936306    1.4734946   343622 
 7906000   0.77118682   -3.1971949   -1.7191162  0.049679496   -3.1971949    1.4780787   343619 
 7907000   0.77279786   -3.1996598   -1.7185494  0.050646765   -3.1996598    1.4811104   343632 
 7908000   0.77149049   -3.1995532   -1.7206859  0.058724471   -3.1995532    1.4788673   343571 
 7909000   0.77157884    -3.199161   -1.7199779  0.052003662    -3.199161     1.479183   343537 
 7910000   0.77130661   -3.1989377   -1.7201732  0.052757559   -3.1989377    1.4787645   343513 
 7911000   0.77122559    -3.197754    -1.719218    0.0536309    -3.197754     1.478536   343530 
 7912000   0.77170783   -3.1990603   -1.7195825  0.053938559   -3.1990603    1.4794777   343526 
 7913000   0.77114024   -3.1976584   -1.7193032  0.053492624   -3.1976584    1.4783551   343534 
 7914000   0.77245848   -3.1990542   -1.7182064  0.057444564   -3.1990542    1.4808479   343542 
 7915000   0.77205128   -3.1965969    -1.716534  0.054977443   -3.1965969    1.4800629   343543 
 7916000   0.76962747   -3.1935846   -1.7180995  0.056520046   -3.1935846    1.4754851   343527 
 7917000   0.77105413   -3.1970891   -1.7187785  0.055739385   -3.1970891    1.4783105   343506 
 7918000    0.7700658   -3.1942917    -1.718005  0.049947905   -3.1942917    1.4762867   343536 
 7919000   0.77055679   -3.1942091   -1.7172476  0.052607593   -3.1942091    1.4769614   343598 
 7920000   0.76956166   -3.1908336   -1.7155992  0.052348403   -3.1908336    1.4752344   343556 
 7921000   0.77120932   -3.1923155   -1.7140517  0.052556525   -3.1923155    1.4782638   343586 
 7922000    0.7703104   -3.1903682   -1.7138962  0.051526041   -3.1903682     1.476472   343602 
 7923000   0.77065256   -3.1921682     -1.71492  0.048937162   -3.1921682    1.4772482   343574 
 7924000   0.77174074   -3.1926207   -1.7131445  0.053856865   -3.1926207    1.4794762   343541 
 7925000   0.77004703   -3.1906431   -1.7142893  0.053223282   -3.1906431    1.4763539   343512 
 7926000   0.77133651   -3.1922098   -1.7133837  0.052826556   -3.1922098    1.4788261   343512 
 7927000   0.76996015   -3.1887315   -1.7125958  0.048370924   -3.1887315    1.4761357   343524 
 7928000   0.76984239   -3.1874862    -1.711486  0.053725254   -3.1874862    1.4760002   343503 
 7929000   0.77089932    -3.189907   -1.7116954  0.049273928    -3.189907    1.4782117   343460 
 7930000   0.76988088   -3.1895899    -1.713503  0.048807638   -3.1895899    1.4760869   343500 
 7931000    0.7707047   -3.1913852   -1.7134219  0.048925834   -3.1913852    1.4779633   343431 
 7932000   0.76801154   -3.1874088   -1.7144214  0.048225294   -3.1874088    1.4729874   343387 
 7933000   0.76838175   -3.1868925   -1.7131994  0.047394407   -3.1868925    1.4736931   343388 
 7934000   0.76985454   -3.1894027   -1.7128376  0.047979144   -3.1894027    1.4765651   343377 
 7935000   0.76946766   -3.1884462   -1.7125285   0.04453283   -3.1884462    1.4759176   343355 
 7936000   0.76969571   -3.1878148   -1.7113995  0.051196258   -3.1878148    1.4764153   343341 
 7937000   0.76927594   -3.1882921    -1.712682  0.049232969   -3.1882921    1.4756101   343341 
 7938000   0.77113477   -3.1918855   -1.7127055  0.051583873   -3.1918855      1.47918   343340 
 7939000   0.77052643   -3.1896176   -1.7113893   0.05207451   -3.1896176    1.4782283   343290 
 7940000   0.77037744   -3.1903319   -1.7124325  0.054705171   -3.1903319    1.4778994   343300 
 7941000   0.77065662   -3.1925756   -1.7139597  0.054928879   -3.1925756    1.4786159   343258 
 7942000   0.76969349   -3.1915658   -1.7146558  0.050248396   -3.1915658      1.47691   343225 
 7943000   0.76851093   -3.1906041   -1.7158902  0.053638902   -3.1906041    1.4747139   343208 
 7944000   0.76799207   -3.1905081   -1.7167211  0.047763936   -3.1905081     1.473787   343192 
 7945000   0.76801468   -3.1923515   -1.7184954  0.049543356   -3.1923515    1.4738561   343186 
 7946000   0.76860773   -3.1923436   -1.7173666  0.051801548   -3.1923436     1.474977   343190 
 7947000    0.7693086   -3.1939564   -1.7175871  0.052191327   -3.1939564    1.4763693   343179 
 7948000   0.76919875    -3.194848   -1.7187626  0.051437059    -3.194848    1.4760854   343196 
 7949000   0.76830859   -3.1924048   -1.7178256  0.053035705   -3.1924048    1.4745791   343149 
 7950000   0.76890571   -3.1940572   -1.7182503  0.057002377   -3.1940572    1.4758069   343130 
 7951000   0.77038945   -3.1960227   -1.7173249  0.050441744   -3.1960227    1.4786978   343120 
 7952000   0.76950989   -3.1919514   -1.7149935  0.053927765   -3.1919514    1.4769579   343132 
 7953000   0.76929935   -3.1910729   -1.7145062  0.056010039   -3.1910729    1.4765667   343129 
 7954000   0.76897209   -3.1917885   -1.7158284  0.053781614   -3.1917885    1.4759601   343124 
 7955000   0.77015594   -3.1936457   -1.7154392  0.052302552   -3.1936457    1.4782065   343130 
 7956000   0.76874406   -3.1914703   -1.7159565  0.056804448   -3.1914703    1.4755138   343126 
 7957000   0.76936434   -3.1930123   -1.7162089  0.052030385   -3.1930123    1.4768034   343103 
 7958000   0.76690368   -3.1908129   -1.7186084  0.051261962   -3.1908129    1.4722045   343074 
 7959000   0.76819851   -3.1909342   -1.7161968  0.054761488   -3.1909342    1.4747375   343063 
 7960000   0.76870908   -3.1896941    -1.713899  0.049672544   -3.1896941     1.475795   343045 
 7961000   0.76812398   -3.1892706   -1.7143968  0.051089159   -3.1892706    1.4748738   342998 
 7962000   0.76774158   -3.1888856    -1.714832  0.054949962   -3.1888856    1.4740536   343018 
 7963000   0.76806426   -3.1886825   -1.7138373  0.051316365   -3.1886825    1.4748452   342978 
 7964000   0.76765741   -3.1885055   -1.7142653  0.052301819   -3.1885055    1.4742401   342937 
 7965000   0.76729214   -3.1888836   -1.7150355  0.052101832   -3.1888836    1.4738481   342865 
 7966000   0.76726068   -3.1904896    -1.716689   0.05096887   -3.1904896    1.4738006   342862 
 7967000   0.76668917   -3.1895533   -1.7168032  0.045700791   -3.1895533      1.47275   342851 
 7968000   0.76758652   -3.1895822    -1.715001  0.044137883   -3.1895822    1.4745813   342826 
 7969000   0.76534998   -3.1856683   -1.7153149  0.050107404   -3.1856683    1.4703534   342810 
 7970000   0.76656668   -3.1885554   -1.7156798  0.049290667   -3.1885554    1.4728756   342767 
 7971000   0.76785817   -3.1900607   -1.7145659  0.049482163   -3.1900607    1.4754948   342735 
 7972000   0.76765729   -3.1912306   -1.7161907  0.046570774   -3.1912306    1.4750399   342751 
 7973000   0.76830271   -3.1908152   -1.7143412  0.046735101   -3.1908152     1.476474   342706 
 7974000   0.76773845   -3.1903059   -1.7148905   0.05323218   -3.1903059    1.4754154   342700 
 7975000    0.7676601   -3.1902357     -1.71479  0.050017145   -3.1902357    1.4754457   342658 
 7976000   0.76860074   -3.1928438   -1.7153574  0.051860077   -3.1928438    1.4774864   342604 
 7977000   0.76759418   -3.1904337   -1.7147961  0.050611044   -3.1904337    1.4756377   342584 
 7978000   0.76783535   -3.1897873   -1.7136602  0.051927249   -3.1897873    1.4761271   342578 
 7979000   0.76751143   -3.1889385   -1.7136279   0.04816583   -3.1889385    1.4753106   342623 
 7980000   0.76913256   -3.1918186   -1.7133617  0.054410828   -3.1918186     1.478457   342616 
 7981000   0.76769495   -3.1908105   -1.7151212  0.054364942   -3.1908105    1.4756892   342617 
 7982000   0.76802418   -3.1912957   -1.7149736  0.049410842   -3.1912957    1.4763221   342617 
 7983000   0.76827659   -3.1908441   -1.7141704  0.049231756   -3.1908441    1.4766737   342648 
 7984000   0.76843232   -3.1904196   -1.7132613  0.053671034   -3.1904196    1.4771584   342605 
 7985000   0.76671354   -3.1874564   -1.7136236  0.053395112   -3.1874564    1.4738328   342610 
 7986000   0.76796816   -3.1896269   -1.7132531  0.051748907   -3.1896269    1.4763738   342580 
 7987000   0.76851077    -3.191271    -1.713785  0.055561598    -3.191271     1.477486   342564 
 7988000   0.76910045   -3.1933249   -1.7147311  0.049049305   -3.1933249    1.4785938   342570 
 7989000   0.76765991   -3.1903817   -1.7144152  0.055495938   -3.1903817    1.4759665   342537 
 7990000   0.76722073   -3.1892469   -1.7139784   0.05060637   -3.1892469    1.4752685   342503 
 7991000   0.76693383   -3.1883327    -1.713547  0.047581431   -3.1883327    1.4747858   342487 
 7992000   0.76666624    -3.186796   -1.7124301  0.050791292    -3.186796    1.4743659   342465 
 7993000   0.76703629   -3.1881613   -1.7129503  0.051360717   -3.1881613    1.4752111   342434 
 7994000    0.7668587   -3.1869404   -1.7120579  0.047482996   -3.1869404    1.4748825   342431 
 7995000   0.76708038   -3.1882699   -1.7127758   0.05252129   -3.1882699    1.4754941   342388 
 7996000   0.76760254   -3.1878083   -1.7113918  0.051503682   -3.1878083    1.4764165   342407 
 7997000   0.76758885   -3.1868957   -1.7103847  0.049643995   -3.1868957     1.476511   342379 
 7998000   0.76655305   -3.1847045   -1.7101817  0.048228765   -3.1847045    1.4745228   342378 
 7999000   0.76853454   -3.1883935    -1.710003  0.045911527   -3.1883935    1.4783905   342365 
 8000000   0.76807796   -3.1881162   -1.7107032  0.048213548   -3.1881162    1.4774129   342388 
Loop time of 9583.95 on 192 procs for 5000000 steps with 342388 atoms

Performance: 225376.700 tau/day, 521.705 timesteps/s
99.1% CPU use with 192 MPI tasks x 1 OpenMP threads

MPI task timing breakdown:
Section |  min time  |  avg time  |  max time  |%varavg|  %CPU | %total
-----------------------------------------------------------------------
Pair    | 1126.3     | 2699.3     | 3054.4     |1103.5 |  99.1 | 28.17
Bond    | 3.1257     | 3.347      | 3.6187     |   4.7 | 100.0 |  0.03
Neigh   | 719.19     | 1316.8     | 1471.3     | 587.6 |  99.5 | 13.74
Comm    | 1297.9     | 1930.8     | 4170.7     |1851.7 |  98.9 | 20.15
Output  | 283.9      | 288.74     | 288.78     |   2.1 |  98.7 |  3.01
Modify  | 3173.8     | 3255.2     | 3604.7     | 249.2 |  99.2 | 33.96
Other   |            | 89.66      |            |       |       |  0.94

Nlocal:        1783.27 ave        2066 max        1582 min
Histogram: 3 4 13 51 90 27 2 0 1 1
Nghost:        2948.61 ave        3315 max        2079 min
Histogram: 1 22 21 4 1 1 8 9 69 56
Neighs:        47359.6 ave       56909 max        7994 min
Histogram: 13 10 1 0 0 0 0 3 72 93

Total # of neighbors = 9093037
Ave neighs/atom = 26.557698
Ave special neighs/atom = 0.0000000
Neighbor list builds = 505000
Dangerous builds = 450000

write_restart   restart_write.dat
System init for write_restart ...
write_data	data.write
System init for write_data ...
WARNING: Not all mixed pair coeffs generated from mixing. Use write_data with 'pair ij' option to store all pair coeffs. (src/write_data.cpp:312)

Total wall time: 2:39:47
