#LAMMPS data file for rigid bodies
1143 atoms
2 atom types

0 40 xlo xhi
0 40 ylo yhi
0 40 zlo zhi

Masses

1 1
2 1

Atoms

15	1	1	0	16	18	15
16	1	1	0	16	19	15
17	1	1	0	16	20	15
18	1	1	0	16	21	15
19	1	1	0	16	22	15
25	1	1	0	17	17	15
26	1	1	0	17	18	15
27	1	1	0	17	19	15
28	1	1	0	17	20	15
29	1	1	0	17	21	15
30	1	1	0	17	22	15
31	1	1	0	17	23	15
35	1	1	0	18	16	15
36	1	1	0	18	17	15
37	1	1	0	18	18	15
38	1	1	0	18	19	15
39	1	1	0	18	20	15
40	1	1	0	18	21	15
41	1	1	0	18	22	15
42	1	1	0	18	23	15
43	1	1	0	18	24	15
46	1	1	0	19	16	15
47	1	1	0	19	17	15
48	1	1	0	19	18	15
49	1	1	0	19	19	15
50	1	1	0	19	20	15
51	1	1	0	19	21	15
52	1	1	0	19	22	15
53	1	1	0	19	23	15
54	1	1	0	19	24	15
57	1	1	0	20	16	15
58	1	1	0	20	17	15
59	1	1	0	20	18	15
60	1	1	0	20	19	15
61	1	1	0	20	20	15
62	1	1	0	20	21	15
63	1	1	0	20	22	15
64	1	1	0	20	23	15
65	1	1	0	20	24	15
68	1	1	0	21	16	15
69	1	1	0	21	17	15
70	1	1	0	21	18	15
71	1	1	0	21	19	15
72	1	1	0	21	20	15
73	1	1	0	21	21	15
74	1	1	0	21	22	15
75	1	1	0	21	23	15
76	1	1	0	21	24	15
79	1	1	0	22	16	15
80	1	1	0	22	17	15
81	1	1	0	22	18	15
82	1	1	0	22	19	15
83	1	1	0	22	20	15
84	1	1	0	22	21	15
85	1	1	0	22	22	15
86	1	1	0	22	23	15
87	1	1	0	22	24	15
91	1	1	0	23	17	15
92	1	1	0	23	18	15
93	1	1	0	23	19	15
94	1	1	0	23	20	15
95	1	1	0	23	21	15
96	1	1	0	23	22	15
97	1	1	0	23	23	15
103	1	1	0	24	18	15
104	1	1	0	24	19	15
105	1	1	0	24	20	15
106	1	1	0	24	21	15
107	1	1	0	24	22	15
125	1	1	0	15	18	16
126	1	1	0	15	19	16
127	1	1	0	15	20	16
128	1	1	0	15	21	16
129	1	1	0	15	22	16
134	1	1	0	16	16	16
135	1	1	0	16	17	16
136	1	2	0	16	18	16
137	1	2	0	16	19	16
138	1	2	0	16	20	16
139	1	2	0	16	21	16
140	1	2	0	16	22	16
141	1	1	0	16	23	16
142	1	1	0	16	24	16
145	1	1	0	17	16	16
146	1	2	0	17	17	16
147	1	2	0	17	18	16
148	1	2	0	17	19	16
149	1	2	0	17	20	16
150	1	2	0	17	21	16
151	1	2	0	17	22	16
152	1	2	0	17	23	16
153	1	1	0	17	24	16
155	1	1	0	18	15	16
156	1	2	0	18	16	16
157	1	2	0	18	17	16
158	1	2	0	18	18	16
159	1	2	0	18	19	16
160	1	2	0	18	20	16
161	1	2	0	18	21	16
162	1	2	0	18	22	16
163	1	2	0	18	23	16
164	1	2	0	18	24	16
165	1	1	0	18	25	16
166	1	1	0	19	15	16
167	1	2	0	19	16	16
168	1	2	0	19	17	16
169	1	2	0	19	18	16
170	1	2	0	19	19	16
171	1	2	0	19	20	16
172	1	2	0	19	21	16
173	1	2	0	19	22	16
174	1	2	0	19	23	16
175	1	2	0	19	24	16
176	1	1	0	19	25	16
177	1	1	0	20	15	16
178	1	2	0	20	16	16
179	1	2	0	20	17	16
180	1	2	0	20	18	16
181	1	2	0	20	19	16
182	1	2	0	20	20	16
183	1	2	0	20	21	16
184	1	2	0	20	22	16
185	1	2	0	20	23	16
186	1	2	0	20	24	16
187	1	1	0	20	25	16
188	1	1	0	21	15	16
189	1	2	0	21	16	16
190	1	2	0	21	17	16
191	1	2	0	21	18	16
192	1	2	0	21	19	16
193	1	2	0	21	20	16
194	1	2	0	21	21	16
195	1	2	0	21	22	16
196	1	2	0	21	23	16
197	1	2	0	21	24	16
198	1	1	0	21	25	16
199	1	1	0	22	15	16
200	1	2	0	22	16	16
201	1	2	0	22	17	16
202	1	2	0	22	18	16
203	1	2	0	22	19	16
204	1	2	0	22	20	16
205	1	2	0	22	21	16
206	1	2	0	22	22	16
207	1	2	0	22	23	16
208	1	2	0	22	24	16
209	1	1	0	22	25	16
211	1	1	0	23	16	16
212	1	2	0	23	17	16
213	1	2	0	23	18	16
214	1	2	0	23	19	16
215	1	2	0	23	20	16
216	1	2	0	23	21	16
217	1	2	0	23	22	16
218	1	2	0	23	23	16
219	1	1	0	23	24	16
222	1	1	0	24	16	16
223	1	1	0	24	17	16
224	1	2	0	24	18	16
225	1	2	0	24	19	16
226	1	2	0	24	20	16
227	1	2	0	24	21	16
228	1	2	0	24	22	16
229	1	1	0	24	23	16
230	1	1	0	24	24	16
235	1	1	0	25	18	16
236	1	1	0	25	19	16
237	1	1	0	25	20	16
238	1	1	0	25	21	16
239	1	1	0	25	22	16
245	1	1	0	15	17	17
246	1	1	0	15	18	17
247	1	1	0	15	19	17
248	1	1	0	15	20	17
249	1	1	0	15	21	17
250	1	1	0	15	22	17
251	1	1	0	15	23	17
255	1	1	0	16	16	17
256	1	2	0	16	17	17
257	1	2	0	16	18	17
258	1	2	0	16	19	17
259	1	2	0	16	20	17
260	1	2	0	16	21	17
261	1	2	0	16	22	17
262	1	2	0	16	23	17
263	1	1	0	16	24	17
265	1	1	0	17	15	17
266	1	2	0	17	16	17
267	1	2	0	17	17	17
268	1	2	0	17	18	17
269	1	2	0	17	19	17
270	1	2	0	17	20	17
271	1	2	0	17	21	17
272	1	2	0	17	22	17
273	1	2	0	17	23	17
274	1	2	0	17	24	17
275	1	1	0	17	25	17
276	1	1	0	18	15	17
277	1	2	0	18	16	17
278	1	2	0	18	17	17
279	1	2	0	18	18	17
280	1	2	0	18	19	17
281	1	2	0	18	20	17
282	1	2	0	18	21	17
283	1	2	0	18	22	17
284	1	2	0	18	23	17
285	1	2	0	18	24	17
286	1	1	0	18	25	17
287	1	1	0	19	15	17
288	1	2	0	19	16	17
289	1	2	0	19	17	17
290	1	2	0	19	18	17
291	1	2	0	19	19	17
292	1	2	0	19	20	17
293	1	2	0	19	21	17
294	1	2	0	19	22	17
295	1	2	0	19	23	17
296	1	2	0	19	24	17
297	1	1	0	19	25	17
298	1	1	0	20	15	17
299	1	2	0	20	16	17
300	1	2	0	20	17	17
301	1	2	0	20	18	17
302	1	2	0	20	19	17
303	1	2	0	20	20	17
304	1	2	0	20	21	17
305	1	2	0	20	22	17
306	1	2	0	20	23	17
307	1	2	0	20	24	17
308	1	1	0	20	25	17
309	1	1	0	21	15	17
310	1	2	0	21	16	17
311	1	2	0	21	17	17
312	1	2	0	21	18	17
313	1	2	0	21	19	17
314	1	2	0	21	20	17
315	1	2	0	21	21	17
316	1	2	0	21	22	17
317	1	2	0	21	23	17
318	1	2	0	21	24	17
319	1	1	0	21	25	17
320	1	1	0	22	15	17
321	1	2	0	22	16	17
322	1	2	0	22	17	17
323	1	2	0	22	18	17
324	1	2	0	22	19	17
325	1	2	0	22	20	17
326	1	2	0	22	21	17
327	1	2	0	22	22	17
328	1	2	0	22	23	17
329	1	2	0	22	24	17
330	1	1	0	22	25	17
331	1	1	0	23	15	17
332	1	2	0	23	16	17
333	1	2	0	23	17	17
334	1	2	0	23	18	17
335	1	2	0	23	19	17
336	1	2	0	23	20	17
337	1	2	0	23	21	17
338	1	2	0	23	22	17
339	1	2	0	23	23	17
340	1	2	0	23	24	17
341	1	1	0	23	25	17
343	1	1	0	24	16	17
344	1	2	0	24	17	17
345	1	2	0	24	18	17
346	1	2	0	24	19	17
347	1	2	0	24	20	17
348	1	2	0	24	21	17
349	1	2	0	24	22	17
350	1	2	0	24	23	17
351	1	1	0	24	24	17
355	1	1	0	25	17	17
356	1	1	0	25	18	17
357	1	1	0	25	19	17
358	1	1	0	25	20	17
359	1	1	0	25	21	17
360	1	1	0	25	22	17
361	1	1	0	25	23	17
365	1	1	0	15	16	18
366	1	1	0	15	17	18
367	1	1	0	15	18	18
368	1	1	0	15	19	18
369	1	1	0	15	20	18
370	1	1	0	15	21	18
371	1	1	0	15	22	18
372	1	1	0	15	23	18
373	1	1	0	15	24	18
375	1	1	0	16	15	18
376	1	2	0	16	16	18
377	1	2	0	16	17	18
378	1	2	0	16	18	18
379	1	2	0	16	19	18
380	1	2	0	16	20	18
381	1	2	0	16	21	18
382	1	2	0	16	22	18
383	1	2	0	16	23	18
384	1	2	0	16	24	18
385	1	1	0	16	25	18
386	1	1	0	17	15	18
387	1	2	0	17	16	18
388	1	2	0	17	17	18
389	1	2	0	17	18	18
390	1	2	0	17	19	18
391	1	2	0	17	20	18
392	1	2	0	17	21	18
393	1	2	0	17	22	18
394	1	2	0	17	23	18
395	1	2	0	17	24	18
396	1	1	0	17	25	18
397	1	1	0	18	15	18
398	1	2	0	18	16	18
399	1	2	0	18	17	18
400	1	2	0	18	18	18
401	1	2	0	18	19	18
402	1	2	0	18	20	18
403	1	2	0	18	21	18
404	1	2	0	18	22	18
405	1	2	0	18	23	18
406	1	2	0	18	24	18
407	1	1	0	18	25	18
408	1	1	0	19	15	18
409	1	2	0	19	16	18
410	1	2	0	19	17	18
411	1	2	0	19	18	18
412	1	2	0	19	19	18
413	1	2	0	19	20	18
414	1	2	0	19	21	18
415	1	2	0	19	22	18
416	1	2	0	19	23	18
417	1	2	0	19	24	18
418	1	1	0	19	25	18
419	1	1	0	20	15	18
420	1	2	0	20	16	18
421	1	2	0	20	17	18
422	1	2	0	20	18	18
423	1	2	0	20	19	18
424	1	2	0	20	20	18
425	1	2	0	20	21	18
426	1	2	0	20	22	18
427	1	2	0	20	23	18
428	1	2	0	20	24	18
429	1	1	0	20	25	18
430	1	1	0	21	15	18
431	1	2	0	21	16	18
432	1	2	0	21	17	18
433	1	2	0	21	18	18
434	1	2	0	21	19	18
435	1	2	0	21	20	18
436	1	2	0	21	21	18
437	1	2	0	21	22	18
438	1	2	0	21	23	18
439	1	2	0	21	24	18
440	1	1	0	21	25	18
441	1	1	0	22	15	18
442	1	2	0	22	16	18
443	1	2	0	22	17	18
444	1	2	0	22	18	18
445	1	2	0	22	19	18
446	1	2	0	22	20	18
447	1	2	0	22	21	18
448	1	2	0	22	22	18
449	1	2	0	22	23	18
450	1	2	0	22	24	18
451	1	1	0	22	25	18
452	1	1	0	23	15	18
453	1	2	0	23	16	18
454	1	2	0	23	17	18
455	1	2	0	23	18	18
456	1	2	0	23	19	18
457	1	2	0	23	20	18
458	1	2	0	23	21	18
459	1	2	0	23	22	18
460	1	2	0	23	23	18
461	1	2	0	23	24	18
462	1	1	0	23	25	18
463	1	1	0	24	15	18
464	1	2	0	24	16	18
465	1	2	0	24	17	18
466	1	2	0	24	18	18
467	1	2	0	24	19	18
468	1	2	0	24	20	18
469	1	2	0	24	21	18
470	1	2	0	24	22	18
471	1	2	0	24	23	18
472	1	2	0	24	24	18
473	1	1	0	24	25	18
475	1	1	0	25	16	18
476	1	1	0	25	17	18
477	1	1	0	25	18	18
478	1	1	0	25	19	18
479	1	1	0	25	20	18
480	1	1	0	25	21	18
481	1	1	0	25	22	18
482	1	1	0	25	23	18
483	1	1	0	25	24	18
486	1	1	0	15	16	19
487	1	1	0	15	17	19
488	1	1	0	15	18	19
489	1	1	0	15	19	19
490	1	1	0	15	20	19
491	1	1	0	15	21	19
492	1	1	0	15	22	19
493	1	1	0	15	23	19
494	1	1	0	15	24	19
496	1	1	0	16	15	19
497	1	2	0	16	16	19
498	1	2	0	16	17	19
499	1	2	0	16	18	19
500	1	2	0	16	19	19
501	1	2	0	16	20	19
502	1	2	0	16	21	19
503	1	2	0	16	22	19
504	1	2	0	16	23	19
505	1	2	0	16	24	19
506	1	1	0	16	25	19
507	1	1	0	17	15	19
508	1	2	0	17	16	19
509	1	2	0	17	17	19
510	1	2	0	17	18	19
511	1	2	0	17	19	19
512	1	2	0	17	20	19
513	1	2	0	17	21	19
514	1	2	0	17	22	19
515	1	2	0	17	23	19
516	1	2	0	17	24	19
517	1	1	0	17	25	19
518	1	1	0	18	15	19
519	1	2	0	18	16	19
520	1	2	0	18	17	19
521	1	2	0	18	18	19
522	1	2	0	18	19	19
523	1	2	0	18	20	19
524	1	2	0	18	21	19
525	1	2	0	18	22	19
526	1	2	0	18	23	19
527	1	2	0	18	24	19
528	1	1	0	18	25	19
529	1	1	0	19	15	19
530	1	2	0	19	16	19
531	1	2	0	19	17	19
532	1	2	0	19	18	19
533	1	2	0	19	19	19
534	1	2	0	19	20	19
535	1	2	0	19	21	19
536	1	2	0	19	22	19
537	1	2	0	19	23	19
538	1	2	0	19	24	19
539	1	1	0	19	25	19
540	1	1	0	20	15	19
541	1	2	0	20	16	19
542	1	2	0	20	17	19
543	1	2	0	20	18	19
544	1	2	0	20	19	19
545	1	2	0	20	20	19
546	1	2	0	20	21	19
547	1	2	0	20	22	19
548	1	2	0	20	23	19
549	1	2	0	20	24	19
550	1	1	0	20	25	19
551	1	1	0	21	15	19
552	1	2	0	21	16	19
553	1	2	0	21	17	19
554	1	2	0	21	18	19
555	1	2	0	21	19	19
556	1	2	0	21	20	19
557	1	2	0	21	21	19
558	1	2	0	21	22	19
559	1	2	0	21	23	19
560	1	2	0	21	24	19
561	1	1	0	21	25	19
562	1	1	0	22	15	19
563	1	2	0	22	16	19
564	1	2	0	22	17	19
565	1	2	0	22	18	19
566	1	2	0	22	19	19
567	1	2	0	22	20	19
568	1	2	0	22	21	19
569	1	2	0	22	22	19
570	1	2	0	22	23	19
571	1	2	0	22	24	19
572	1	1	0	22	25	19
573	1	1	0	23	15	19
574	1	2	0	23	16	19
575	1	2	0	23	17	19
576	1	2	0	23	18	19
577	1	2	0	23	19	19
578	1	2	0	23	20	19
579	1	2	0	23	21	19
580	1	2	0	23	22	19
581	1	2	0	23	23	19
582	1	2	0	23	24	19
583	1	1	0	23	25	19
584	1	1	0	24	15	19
585	1	2	0	24	16	19
586	1	2	0	24	17	19
587	1	2	0	24	18	19
588	1	2	0	24	19	19
589	1	2	0	24	20	19
590	1	2	0	24	21	19
591	1	2	0	24	22	19
592	1	2	0	24	23	19
593	1	2	0	24	24	19
594	1	1	0	24	25	19
596	1	1	0	25	16	19
597	1	1	0	25	17	19
598	1	1	0	25	18	19
599	1	1	0	25	19	19
600	1	1	0	25	20	19
601	1	1	0	25	21	19
602	1	1	0	25	22	19
603	1	1	0	25	23	19
604	1	1	0	25	24	19
607	1	1	0	15	16	20
608	1	1	0	15	17	20
609	1	1	0	15	18	20
610	1	1	0	15	19	20
611	1	1	0	15	20	20
612	1	1	0	15	21	20
613	1	1	0	15	22	20
614	1	1	0	15	23	20
615	1	1	0	15	24	20
617	1	1	0	16	15	20
618	1	2	0	16	16	20
619	1	2	0	16	17	20
620	1	2	0	16	18	20
621	1	2	0	16	19	20
622	1	2	0	16	20	20
623	1	2	0	16	21	20
624	1	2	0	16	22	20
625	1	2	0	16	23	20
626	1	2	0	16	24	20
627	1	1	0	16	25	20
628	1	1	0	17	15	20
629	1	2	0	17	16	20
630	1	2	0	17	17	20
631	1	2	0	17	18	20
632	1	2	0	17	19	20
633	1	2	0	17	20	20
634	1	2	0	17	21	20
635	1	2	0	17	22	20
636	1	2	0	17	23	20
637	1	2	0	17	24	20
638	1	1	0	17	25	20
639	1	1	0	18	15	20
640	1	2	0	18	16	20
641	1	2	0	18	17	20
642	1	2	0	18	18	20
643	1	2	0	18	19	20
644	1	2	0	18	20	20
645	1	2	0	18	21	20
646	1	2	0	18	22	20
647	1	2	0	18	23	20
648	1	2	0	18	24	20
649	1	1	0	18	25	20
650	1	1	0	19	15	20
651	1	2	0	19	16	20
652	1	2	0	19	17	20
653	1	2	0	19	18	20
654	1	2	0	19	19	20
655	1	2	0	19	20	20
656	1	2	0	19	21	20
657	1	2	0	19	22	20
658	1	2	0	19	23	20
659	1	2	0	19	24	20
660	1	1	0	19	25	20
661	1	1	0	20	15	20
662	1	2	0	20	16	20
663	1	2	0	20	17	20
664	1	2	0	20	18	20
665	1	2	0	20	19	20
666	1	2	0	20	20	20
667	1	2	0	20	21	20
668	1	2	0	20	22	20
669	1	2	0	20	23	20
670	1	2	0	20	24	20
671	1	1	0	20	25	20
672	1	1	0	21	15	20
673	1	2	0	21	16	20
674	1	2	0	21	17	20
675	1	2	0	21	18	20
676	1	2	0	21	19	20
677	1	2	0	21	20	20
678	1	2	0	21	21	20
679	1	2	0	21	22	20
680	1	2	0	21	23	20
681	1	2	0	21	24	20
682	1	1	0	21	25	20
683	1	1	0	22	15	20
684	1	2	0	22	16	20
685	1	2	0	22	17	20
686	1	2	0	22	18	20
687	1	2	0	22	19	20
688	1	2	0	22	20	20
689	1	2	0	22	21	20
690	1	2	0	22	22	20
691	1	2	0	22	23	20
692	1	2	0	22	24	20
693	1	1	0	22	25	20
694	1	1	0	23	15	20
695	1	2	0	23	16	20
696	1	2	0	23	17	20
697	1	2	0	23	18	20
698	1	2	0	23	19	20
699	1	2	0	23	20	20
700	1	2	0	23	21	20
701	1	2	0	23	22	20
702	1	2	0	23	23	20
703	1	2	0	23	24	20
704	1	1	0	23	25	20
705	1	1	0	24	15	20
706	1	2	0	24	16	20
707	1	2	0	24	17	20
708	1	2	0	24	18	20
709	1	2	0	24	19	20
710	1	2	0	24	20	20
711	1	2	0	24	21	20
712	1	2	0	24	22	20
713	1	2	0	24	23	20
714	1	2	0	24	24	20
715	1	1	0	24	25	20
717	1	1	0	25	16	20
718	1	1	0	25	17	20
719	1	1	0	25	18	20
720	1	1	0	25	19	20
721	1	1	0	25	20	20
722	1	1	0	25	21	20
723	1	1	0	25	22	20
724	1	1	0	25	23	20
725	1	1	0	25	24	20
728	1	1	0	15	16	21
729	1	1	0	15	17	21
730	1	1	0	15	18	21
731	1	1	0	15	19	21
732	1	1	0	15	20	21
733	1	1	0	15	21	21
734	1	1	0	15	22	21
735	1	1	0	15	23	21
736	1	1	0	15	24	21
738	1	1	0	16	15	21
739	1	2	0	16	16	21
740	1	2	0	16	17	21
741	1	2	0	16	18	21
742	1	2	0	16	19	21
743	1	2	0	16	20	21
744	1	2	0	16	21	21
745	1	2	0	16	22	21
746	1	2	0	16	23	21
747	1	2	0	16	24	21
748	1	1	0	16	25	21
749	1	1	0	17	15	21
750	1	2	0	17	16	21
751	1	2	0	17	17	21
752	1	2	0	17	18	21
753	1	2	0	17	19	21
754	1	2	0	17	20	21
755	1	2	0	17	21	21
756	1	2	0	17	22	21
757	1	2	0	17	23	21
758	1	2	0	17	24	21
759	1	1	0	17	25	21
760	1	1	0	18	15	21
761	1	2	0	18	16	21
762	1	2	0	18	17	21
763	1	2	0	18	18	21
764	1	2	0	18	19	21
765	1	2	0	18	20	21
766	1	2	0	18	21	21
767	1	2	0	18	22	21
768	1	2	0	18	23	21
769	1	2	0	18	24	21
770	1	1	0	18	25	21
771	1	1	0	19	15	21
772	1	2	0	19	16	21
773	1	2	0	19	17	21
774	1	2	0	19	18	21
775	1	2	0	19	19	21
776	1	2	0	19	20	21
777	1	2	0	19	21	21
778	1	2	0	19	22	21
779	1	2	0	19	23	21
780	1	2	0	19	24	21
781	1	1	0	19	25	21
782	1	1	0	20	15	21
783	1	2	0	20	16	21
784	1	2	0	20	17	21
785	1	2	0	20	18	21
786	1	2	0	20	19	21
787	1	2	0	20	20	21
788	1	2	0	20	21	21
789	1	2	0	20	22	21
790	1	2	0	20	23	21
791	1	2	0	20	24	21
792	1	1	0	20	25	21
793	1	1	0	21	15	21
794	1	2	0	21	16	21
795	1	2	0	21	17	21
796	1	2	0	21	18	21
797	1	2	0	21	19	21
798	1	2	0	21	20	21
799	1	2	0	21	21	21
800	1	2	0	21	22	21
801	1	2	0	21	23	21
802	1	2	0	21	24	21
803	1	1	0	21	25	21
804	1	1	0	22	15	21
805	1	2	0	22	16	21
806	1	2	0	22	17	21
807	1	2	0	22	18	21
808	1	2	0	22	19	21
809	1	2	0	22	20	21
810	1	2	0	22	21	21
811	1	2	0	22	22	21
812	1	2	0	22	23	21
813	1	2	0	22	24	21
814	1	1	0	22	25	21
815	1	1	0	23	15	21
816	1	2	0	23	16	21
817	1	2	0	23	17	21
818	1	2	0	23	18	21
819	1	2	0	23	19	21
820	1	2	0	23	20	21
821	1	2	0	23	21	21
822	1	2	0	23	22	21
823	1	2	0	23	23	21
824	1	2	0	23	24	21
825	1	1	0	23	25	21
826	1	1	0	24	15	21
827	1	2	0	24	16	21
828	1	2	0	24	17	21
829	1	2	0	24	18	21
830	1	2	0	24	19	21
831	1	2	0	24	20	21
832	1	2	0	24	21	21
833	1	2	0	24	22	21
834	1	2	0	24	23	21
835	1	2	0	24	24	21
836	1	1	0	24	25	21
838	1	1	0	25	16	21
839	1	1	0	25	17	21
840	1	1	0	25	18	21
841	1	1	0	25	19	21
842	1	1	0	25	20	21
843	1	1	0	25	21	21
844	1	1	0	25	22	21
845	1	1	0	25	23	21
846	1	1	0	25	24	21
849	1	1	0	15	16	22
850	1	1	0	15	17	22
851	1	1	0	15	18	22
852	1	1	0	15	19	22
853	1	1	0	15	20	22
854	1	1	0	15	21	22
855	1	1	0	15	22	22
856	1	1	0	15	23	22
857	1	1	0	15	24	22
859	1	1	0	16	15	22
860	1	2	0	16	16	22
861	1	2	0	16	17	22
862	1	2	0	16	18	22
863	1	2	0	16	19	22
864	1	2	0	16	20	22
865	1	2	0	16	21	22
866	1	2	0	16	22	22
867	1	2	0	16	23	22
868	1	2	0	16	24	22
869	1	1	0	16	25	22
870	1	1	0	17	15	22
871	1	2	0	17	16	22
872	1	2	0	17	17	22
873	1	2	0	17	18	22
874	1	2	0	17	19	22
875	1	2	0	17	20	22
876	1	2	0	17	21	22
877	1	2	0	17	22	22
878	1	2	0	17	23	22
879	1	2	0	17	24	22
880	1	1	0	17	25	22
881	1	1	0	18	15	22
882	1	2	0	18	16	22
883	1	2	0	18	17	22
884	1	2	0	18	18	22
885	1	2	0	18	19	22
886	1	2	0	18	20	22
887	1	2	0	18	21	22
888	1	2	0	18	22	22
889	1	2	0	18	23	22
890	1	2	0	18	24	22
891	1	1	0	18	25	22
892	1	1	0	19	15	22
893	1	2	0	19	16	22
894	1	2	0	19	17	22
895	1	2	0	19	18	22
896	1	2	0	19	19	22
897	1	2	0	19	20	22
898	1	2	0	19	21	22
899	1	2	0	19	22	22
900	1	2	0	19	23	22
901	1	2	0	19	24	22
902	1	1	0	19	25	22
903	1	1	0	20	15	22
904	1	2	0	20	16	22
905	1	2	0	20	17	22
906	1	2	0	20	18	22
907	1	2	0	20	19	22
908	1	2	0	20	20	22
909	1	2	0	20	21	22
910	1	2	0	20	22	22
911	1	2	0	20	23	22
912	1	2	0	20	24	22
913	1	1	0	20	25	22
914	1	1	0	21	15	22
915	1	2	0	21	16	22
916	1	2	0	21	17	22
917	1	2	0	21	18	22
918	1	2	0	21	19	22
919	1	2	0	21	20	22
920	1	2	0	21	21	22
921	1	2	0	21	22	22
922	1	2	0	21	23	22
923	1	2	0	21	24	22
924	1	1	0	21	25	22
925	1	1	0	22	15	22
926	1	2	0	22	16	22
927	1	2	0	22	17	22
928	1	2	0	22	18	22
929	1	2	0	22	19	22
930	1	2	0	22	20	22
931	1	2	0	22	21	22
932	1	2	0	22	22	22
933	1	2	0	22	23	22
934	1	2	0	22	24	22
935	1	1	0	22	25	22
936	1	1	0	23	15	22
937	1	2	0	23	16	22
938	1	2	0	23	17	22
939	1	2	0	23	18	22
940	1	2	0	23	19	22
941	1	2	0	23	20	22
942	1	2	0	23	21	22
943	1	2	0	23	22	22
944	1	2	0	23	23	22
945	1	2	0	23	24	22
946	1	1	0	23	25	22
947	1	1	0	24	15	22
948	1	2	0	24	16	22
949	1	2	0	24	17	22
950	1	2	0	24	18	22
951	1	2	0	24	19	22
952	1	2	0	24	20	22
953	1	2	0	24	21	22
954	1	2	0	24	22	22
955	1	2	0	24	23	22
956	1	2	0	24	24	22
957	1	1	0	24	25	22
959	1	1	0	25	16	22
960	1	1	0	25	17	22
961	1	1	0	25	18	22
962	1	1	0	25	19	22
963	1	1	0	25	20	22
964	1	1	0	25	21	22
965	1	1	0	25	22	22
966	1	1	0	25	23	22
967	1	1	0	25	24	22
971	1	1	0	15	17	23
972	1	1	0	15	18	23
973	1	1	0	15	19	23
974	1	1	0	15	20	23
975	1	1	0	15	21	23
976	1	1	0	15	22	23
977	1	1	0	15	23	23
981	1	1	0	16	16	23
982	1	2	0	16	17	23
983	1	2	0	16	18	23
984	1	2	0	16	19	23
985	1	2	0	16	20	23
986	1	2	0	16	21	23
987	1	2	0	16	22	23
988	1	2	0	16	23	23
989	1	1	0	16	24	23
991	1	1	0	17	15	23
992	1	2	0	17	16	23
993	1	2	0	17	17	23
994	1	2	0	17	18	23
995	1	2	0	17	19	23
996	1	2	0	17	20	23
997	1	2	0	17	21	23
998	1	2	0	17	22	23
999	1	2	0	17	23	23
1000	1	2	0	17	24	23
1001	1	1	0	17	25	23
1002	1	1	0	18	15	23
1003	1	2	0	18	16	23
1004	1	2	0	18	17	23
1005	1	2	0	18	18	23
1006	1	2	0	18	19	23
1007	1	2	0	18	20	23
1008	1	2	0	18	21	23
1009	1	2	0	18	22	23
1010	1	2	0	18	23	23
1011	1	2	0	18	24	23
1012	1	1	0	18	25	23
1013	1	1	0	19	15	23
1014	1	2	0	19	16	23
1015	1	2	0	19	17	23
1016	1	2	0	19	18	23
1017	1	2	0	19	19	23
1018	1	2	0	19	20	23
1019	1	2	0	19	21	23
1020	1	2	0	19	22	23
1021	1	2	0	19	23	23
1022	1	2	0	19	24	23
1023	1	1	0	19	25	23
1024	1	1	0	20	15	23
1025	1	2	0	20	16	23
1026	1	2	0	20	17	23
1027	1	2	0	20	18	23
1028	1	2	0	20	19	23
1029	1	2	0	20	20	23
1030	1	2	0	20	21	23
1031	1	2	0	20	22	23
1032	1	2	0	20	23	23
1033	1	2	0	20	24	23
1034	1	1	0	20	25	23
1035	1	1	0	21	15	23
1036	1	2	0	21	16	23
1037	1	2	0	21	17	23
1038	1	2	0	21	18	23
1039	1	2	0	21	19	23
1040	1	2	0	21	20	23
1041	1	2	0	21	21	23
1042	1	2	0	21	22	23
1043	1	2	0	21	23	23
1044	1	2	0	21	24	23
1045	1	1	0	21	25	23
1046	1	1	0	22	15	23
1047	1	2	0	22	16	23
1048	1	2	0	22	17	23
1049	1	2	0	22	18	23
1050	1	2	0	22	19	23
1051	1	2	0	22	20	23
1052	1	2	0	22	21	23
1053	1	2	0	22	22	23
1054	1	2	0	22	23	23
1055	1	2	0	22	24	23
1056	1	1	0	22	25	23
1057	1	1	0	23	15	23
1058	1	2	0	23	16	23
1059	1	2	0	23	17	23
1060	1	2	0	23	18	23
1061	1	2	0	23	19	23
1062	1	2	0	23	20	23
1063	1	2	0	23	21	23
1064	1	2	0	23	22	23
1065	1	2	0	23	23	23
1066	1	2	0	23	24	23
1067	1	1	0	23	25	23
1069	1	1	0	24	16	23
1070	1	2	0	24	17	23
1071	1	2	0	24	18	23
1072	1	2	0	24	19	23
1073	1	2	0	24	20	23
1074	1	2	0	24	21	23
1075	1	2	0	24	22	23
1076	1	2	0	24	23	23
1077	1	1	0	24	24	23
1081	1	1	0	25	17	23
1082	1	1	0	25	18	23
1083	1	1	0	25	19	23
1084	1	1	0	25	20	23
1085	1	1	0	25	21	23
1086	1	1	0	25	22	23
1087	1	1	0	25	23	23
1093	1	1	0	15	18	24
1094	1	1	0	15	19	24
1095	1	1	0	15	20	24
1096	1	1	0	15	21	24
1097	1	1	0	15	22	24
1102	1	1	0	16	16	24
1103	1	1	0	16	17	24
1104	1	2	0	16	18	24
1105	1	2	0	16	19	24
1106	1	2	0	16	20	24
1107	1	2	0	16	21	24
1108	1	2	0	16	22	24
1109	1	1	0	16	23	24
1110	1	1	0	16	24	24
1113	1	1	0	17	16	24
1114	1	2	0	17	17	24
1115	1	2	0	17	18	24
1116	1	2	0	17	19	24
1117	1	2	0	17	20	24
1118	1	2	0	17	21	24
1119	1	2	0	17	22	24
1120	1	2	0	17	23	24
1121	1	1	0	17	24	24
1123	1	1	0	18	15	24
1124	1	2	0	18	16	24
1125	1	2	0	18	17	24
1126	1	2	0	18	18	24
1127	1	2	0	18	19	24
1128	1	2	0	18	20	24
1129	1	2	0	18	21	24
1130	1	2	0	18	22	24
1131	1	2	0	18	23	24
1132	1	2	0	18	24	24
1133	1	1	0	18	25	24
1134	1	1	0	19	15	24
1135	1	2	0	19	16	24
1136	1	2	0	19	17	24
1137	1	2	0	19	18	24
1138	1	2	0	19	19	24
1139	1	2	0	19	20	24
1140	1	2	0	19	21	24
1141	1	2	0	19	22	24
1142	1	2	0	19	23	24
1143	1	2	0	19	24	24
1144	1	1	0	19	25	24
1145	1	1	0	20	15	24
1146	1	2	0	20	16	24
1147	1	2	0	20	17	24
1148	1	2	0	20	18	24
1149	1	2	0	20	19	24
1150	1	2	0	20	20	24
1151	1	2	0	20	21	24
1152	1	2	0	20	22	24
1153	1	2	0	20	23	24
1154	1	2	0	20	24	24
1155	1	1	0	20	25	24
1156	1	1	0	21	15	24
1157	1	2	0	21	16	24
1158	1	2	0	21	17	24
1159	1	2	0	21	18	24
1160	1	2	0	21	19	24
1161	1	2	0	21	20	24
1162	1	2	0	21	21	24
1163	1	2	0	21	22	24
1164	1	2	0	21	23	24
1165	1	2	0	21	24	24
1166	1	1	0	21	25	24
1167	1	1	0	22	15	24
1168	1	2	0	22	16	24
1169	1	2	0	22	17	24
1170	1	2	0	22	18	24
1171	1	2	0	22	19	24
1172	1	2	0	22	20	24
1173	1	2	0	22	21	24
1174	1	2	0	22	22	24
1175	1	2	0	22	23	24
1176	1	2	0	22	24	24
1177	1	1	0	22	25	24
1179	1	1	0	23	16	24
1180	1	2	0	23	17	24
1181	1	2	0	23	18	24
1182	1	2	0	23	19	24
1183	1	2	0	23	20	24
1184	1	2	0	23	21	24
1185	1	2	0	23	22	24
1186	1	2	0	23	23	24
1187	1	1	0	23	24	24
1190	1	1	0	24	16	24
1191	1	1	0	24	17	24
1192	1	2	0	24	18	24
1193	1	2	0	24	19	24
1194	1	2	0	24	20	24
1195	1	2	0	24	21	24
1196	1	2	0	24	22	24
1197	1	1	0	24	23	24
1198	1	1	0	24	24	24
1203	1	1	0	25	18	24
1204	1	1	0	25	19	24
1205	1	1	0	25	20	24
1206	1	1	0	25	21	24
1207	1	1	0	25	22	24
1225	1	1	0	16	18	25
1226	1	1	0	16	19	25
1227	1	1	0	16	20	25
1228	1	1	0	16	21	25
1229	1	1	0	16	22	25
1235	1	1	0	17	17	25
1236	1	1	0	17	18	25
1237	1	1	0	17	19	25
1238	1	1	0	17	20	25
1239	1	1	0	17	21	25
1240	1	1	0	17	22	25
1241	1	1	0	17	23	25
1245	1	1	0	18	16	25
1246	1	1	0	18	17	25
1247	1	1	0	18	18	25
1248	1	1	0	18	19	25
1249	1	1	0	18	20	25
1250	1	1	0	18	21	25
1251	1	1	0	18	22	25
1252	1	1	0	18	23	25
1253	1	1	0	18	24	25
1256	1	1	0	19	16	25
1257	1	1	0	19	17	25
1258	1	1	0	19	18	25
1259	1	1	0	19	19	25
1260	1	1	0	19	20	25
1261	1	1	0	19	21	25
1262	1	1	0	19	22	25
1263	1	1	0	19	23	25
1264	1	1	0	19	24	25
1267	1	1	0	20	16	25
1268	1	1	0	20	17	25
1269	1	1	0	20	18	25
1270	1	1	0	20	19	25
1271	1	1	0	20	20	25
1272	1	1	0	20	21	25
1273	1	1	0	20	22	25
1274	1	1	0	20	23	25
1275	1	1	0	20	24	25
1278	1	1	0	21	16	25
1279	1	1	0	21	17	25
1280	1	1	0	21	18	25
1281	1	1	0	21	19	25
1282	1	1	0	21	20	25
1283	1	1	0	21	21	25
1284	1	1	0	21	22	25
1285	1	1	0	21	23	25
1286	1	1	0	21	24	25
1289	1	1	0	22	16	25
1290	1	1	0	22	17	25
1291	1	1	0	22	18	25
1292	1	1	0	22	19	25
1293	1	1	0	22	20	25
1294	1	1	0	22	21	25
1295	1	1	0	22	22	25
1296	1	1	0	22	23	25
1297	1	1	0	22	24	25
1301	1	1	0	23	17	25
1302	1	1	0	23	18	25
1303	1	1	0	23	19	25
1304	1	1	0	23	20	25
1305	1	1	0	23	21	25
1306	1	1	0	23	22	25
1307	1	1	0	23	23	25
1313	1	1	0	24	18	25
1314	1	1	0	24	19	25
1315	1	1	0	24	20	25
1316	1	1	0	24	21	25
1317	1	1	0	24	22	25
