LAMMPS (24 Dec 2020)
OMP_NUM_THREADS environment is not set. Defaulting to 1 thread. (src/comm.cpp:94)
  using 1 OpenMP thread(s) per MPI task
#Read the equilibrated lj fluid and add nanocubes

units           lj
atom_style      full
atom_modify     map array first cubes
dimension       3
boundary        p p f
pair_style      lj/cut/opt 2.5

variable        sigma           equal 1.0
variable        epsilon         equal 1.0
read_restart	restart.dat.3000000
Reading restart file ...
  restart file = 24 Dec 2020, LAMMPS = 24 Dec 2020
WARNING: Restart file used different # of processors: 48 vs. 288 (src/read_restart.cpp:697)
  restoring atom style full from restart
  orthogonal box = (0.0000000 0.0000000 0.0000000) to (80.000000 80.000000 160.00000)
  6 by 4 by 12 MPI processor grid
  restoring pair style lj/cut/opt from restart
  518400 atoms
Finding 1-2 1-3 1-4 neighbors ...
  special bond factors lj:    0        0        0       
  special bond factors coul:  0        0        0       
     0 = max # of 1-2 neighbors
     0 = max # of 1-3 neighbors
     0 = max # of 1-4 neighbors
     1 = max # of special neighbors
  special bonds CPU = 2.425 seconds
  read_restart CPU = 2.763 seconds

group		solvent type 1
518400 atoms in group solvent

read_data	data_96.cubes group cubes add append
Reading data file ...
  orthogonal box = (0.0000000 0.0000000 0.0000000) to (80.000000 80.000000 160.00000)
  6 by 4 by 12 MPI processor grid
  reading atoms ...
  109728 atoms
  reading velocities ...
  109728 velocities
Finding 1-2 1-3 1-4 neighbors ...
  special bond factors lj:    0        0        0       
  special bond factors coul:  0        0        0       
     0 = max # of 1-2 neighbors
     0 = max # of 1-3 neighbors
     0 = max # of 1-4 neighbors
     1 = max # of special neighbors
  special bonds CPU = 0.062 seconds
  read_data CPU = 0.432 seconds

group 		hull  type 2
42816 atoms in group hull
group 		dummy type 3
66912 atoms in group dummy

neighbor      0.4 bin
neigh_modify  exclude molecule/intra cubes


pair_modify   shift yes

pair_coeff    1 1 1.0 1.0 #solvent
pair_coeff    2 2 1.0 1.0 1.12 #np
pair_coeff    3 3 0.0 0.0 0.0 #dummy
pair_coeff    2 3 0.0 0.0 0.0 #np dummy
pair_coeff    1 2 ${eps} ${sig} ${nscut} #np solvent
pair_coeff    1 2 2.0 ${sig} ${nscut} 
pair_coeff    1 2 2.0 2.0 ${nscut} 
pair_coeff    1 2 2.0 2.0 4.0 
pair_coeff    1 3 0.0 0.0 2.5 #dummy solvent

# delete solvent where the cubes are
delete_atoms  overlap 2.0 solvent cubes
System init for delete_atoms ...
Neighbor list info ...
  update every 1 steps, delay 10 steps, check yes
  max neighbors/atom: 2000, page size: 100000
  master list distance cutoff = 4.4
  ghost atom cutoff = 4.4
  binsize = 2.2, bins = 37 37 73
  2 neighbor lists, perpetual/occasional/extra = 1 1 0
  (1) command delete_atoms, occasional
      attributes: full, newton on
      pair build: full/bin
      stencil: full/bin/3d
      bin: standard
  (2) pair lj/cut/opt, perpetual
      attributes: half, newton on
      pair build: half/bin/newton
      stencil: half/bin/3d/newton
      bin: standard
WARNING: Delete_atoms cutoff > minimum neighbor cutoff (src/delete_atoms.cpp:307)
WARNING: Ignoring 'compress yes' for molecular system (src/delete_atoms.cpp:125)
Deleted 107525 atoms, new total = 520603



pair_coeff    1 1 1.0 1.0 #solvent
pair_coeff    2 2 1.0 1.0 1.12 #np
pair_coeff    3 3 0.0 0.0 0.0 #dummy
pair_coeff    2 3 0.0 0.0 0.0 #np dummy
pair_coeff    1 2 ${eps} ${sig} ${nscut} #np solvent
pair_coeff    1 2 2.0 ${sig} ${nscut} 
pair_coeff    1 2 2.0 2.0 ${nscut} 
pair_coeff    1 2 2.0 2.0 4.0 
pair_coeff    1 3 0.0 0.0 0.0 #dummy solvent


comm_modify   mode multi cutoff/multi 1 2.5 cutoff/multi 2 2.5 cutoff/multi 3 6.95

reset_timestep 	0

balance 	1.05 shift z 10 1.05
Balancing ...
Neighbor list info ...
  update every 1 steps, delay 10 steps, check yes
  max neighbors/atom: 2000, page size: 100000
  master list distance cutoff = 4.4
  ghost atom cutoff = 6.95
  binsize = 2.2, bins = 37 37 73
  1 neighbor lists, perpetual/occasional/extra = 1 0 0
  (1) pair lj/cut/opt, perpetual
      attributes: half, newton on
      pair build: half/bin/newton
      stencil: half/bin/3d/newton
      bin: standard
 rebalancing time: 0.006 seconds
  iteration count = 4
  initial/final maximal load/proc = 2217.0000 2502.0000
  initial/final imbalance factor  = 1.2264547 1.3841180
  x cuts: 0.0000000 0.16666667 0.33333333 0.50000000 0.66666667 0.83333333 1.0000000
  y cuts: 0.0000000 0.25000000 0.50000000 0.75000000 1.0000000
  z cuts: 0.0000000 0.078125000 0.16145833 0.25520833 0.34895833 0.42187500 0.49479167 0.57812500 0.65104167 0.72395833 0.78645833 0.85937500 1.0000000

####################### WALLS ###########################

variable       epsilonWall equal 2*${epsilon}
variable       epsilonWall equal 2*1
variable       repulsive   equal   0.7147*${sigma}
variable       repulsive   equal   0.7147*1
variable       full	   equal   3*${sigma}
variable       full	   equal   3*1
region         lowWall block EDGE EDGE EDGE EDGE EDGE 2

fix            topWall all wall/lj93 zhi EDGE 	       ${epsilonWall} ${sigma} ${repulsive} units box
fix            topWall all wall/lj93 zhi EDGE 	       2 ${sigma} ${repulsive} units box
fix            topWall all wall/lj93 zhi EDGE 	       2 1 ${repulsive} units box
fix            topWall all wall/lj93 zhi EDGE 	       2 1 0.7147 units box
fix            lowSol solvent wall/lj93 zlo EDGE                ${epsilonWall} ${sigma} ${full} units box
fix            lowSol solvent wall/lj93 zlo EDGE                2 ${sigma} ${full} units box
fix            lowSol solvent wall/lj93 zlo EDGE                2 1 ${full} units box
fix            lowSol solvent wall/lj93 zlo EDGE                2 1 3 units box
fix 	       lowCub cubes wall/lj93 zlo EDGE                ${epsilonWall} ${sigma} ${repulsive} units box
fix 	       lowCub cubes wall/lj93 zlo EDGE                2 ${sigma} ${repulsive} units box
fix 	       lowCub cubes wall/lj93 zlo EDGE                2 1 ${repulsive} units box
fix 	       lowCub cubes wall/lj93 zlo EDGE                2 1 0.7147 units box


###################### COMPUTES ##########################

compute        bin1 solvent chunk/atom bin/1d z lower 1.0 units box


######################  FIXES ############################


fix             peclet solvent ave/chunk 10 10 10000 bin1 density/number norm                  none ave one file density.profile

fix              temp solvent ave/chunk 10 10 10000 bin1 temp norm                  none ave one file temp.profile

fix             1 cubes rigid/nve/small molecule
  create bodies CPU = 0.002 seconds
  96 rigid bodies with 109728 atoms
  6.9282032 = max distance from body owner to body atom

fix             2 solvent nve# temp ${temp} ${temp} 10


## Thermostat
region          regthermo block EDGE EDGE EDGE EDGE 0 15
group           thermo dynamic solvent region regthermo every 1000
dynamic group thermo defined
fix             3 thermo langevin ${temp} ${temp} 10 156453
fix             3 thermo langevin 1.0 ${temp} 10 156453
fix             3 thermo langevin 1.0 1.0 10 156453


#### Load balancing

fix             bal all balance 1000 1.05 shift z 10 1.05

############### Diagnostics and computes ###################

compute        	com cubes          rigid/local   1 mol x y z
compute        	quat cubes         rigid/local   1 mol quatw quati quatj quatk

compute 	cc2 cubes 	   chunk/atom 	 molecule
compute 	msd cubes 	   msd/chunk 	 cc2

fix 		msd all ave/time  1 1 10000 c_msd[*] file dump.msd ave one mode vector

dump            1 all custom 500000 dump.lammpstrj id mol type x y z
dump		cubetrj hull custom 500000 cubes.lammpstrj id mol type x y z
dump            com cubes local 10000 dump.*.xyz c_com[*]
dump	        xyz hull xyz 100000 cubes.xyz
dump            quat cubes      local 10000 dump.*.quat c_quat[*]
#dump		mol cubes molfile 10000 mol.xyz xyz


dump            2 all image 10000 image.*.png type type
dump_modify     2 pad 8
dump		image cubes image 10000 image_cubes.*.png type type
dump_modify	image pad 8
dump            3 all movie 5000 movie.avi type type
dump		4 cubes movie 5000 movie_cubes.avi type type


thermo          1000
thermo_style    custom step temp epair evdwl etotal press pe ke atoms

restart         1000000 restart.dat
timestep        0.005
timer           full
New timer settings: style=full  mode=nosync  timeout=off

run 		4000000
Per MPI rank memory allocation (min/avg/max) = 15.55 | 19.74 | 23.37 Mbytes
Step Temp E_pair E_vdwl TotEng Press PotEng KinEng Atoms 
       0   0.99072986   -3.3283507   -3.3283507   -2.1549363   -1.7045526   -3.3283507    1.1734144   520603 
    1000    1.5323202   -4.0108635   -4.0108635   -2.1959929   0.42681491   -4.0108635    1.8148706   520603 
    2000    1.5830801   -4.1150144   -4.1150144   -2.2400241   0.46727178   -4.1150144    1.8749903   520603 
    3000    1.6059972   -4.1838137   -4.1838137   -2.2816804   0.53519688   -4.1838137    1.9021332   520603 
    4000     1.599762   -4.2179848   -4.2179848   -2.3232365   0.53500172   -4.2179848    1.8947483   520603 
    5000    1.5775107   -4.2363195   -4.2363195   -2.3679255   0.49367243   -4.2363195     1.868394   520603 
    6000    1.5506648   -4.2478087   -4.2478087   -2.4112108   0.46470082   -4.2478087    1.8365979   520603 
    7000    1.5396545   -4.2731117   -4.2731117   -2.4495543   0.45695245   -4.2731117    1.8235574   520603 
    8000     1.549019   -4.3159127   -4.3159127   -2.4812641   0.48759661   -4.3159127    1.8346486   520603 
    9000    1.5599574   -4.3531264   -4.3531264   -2.5055225   0.56129657   -4.3531264    1.8476039   520603 
   10000     1.570595   -4.3883376   -4.3883376   -2.5281345   0.57957646   -4.3883376    1.8602031   520603 
   11000    1.5690765   -4.4057092   -4.4057092   -2.5473046   0.61050091   -4.4057092    1.8584046   520603 
   12000    1.5593974    -4.411623    -4.411623   -2.5646823   0.59006965    -4.411623    1.8469407   520603 
   13000    1.5501988   -4.4157031   -4.4157031   -2.5796571   0.58209287   -4.4157031     1.836046   520603 
   14000    1.5420338   -4.4199714   -4.4199714   -2.5935961   0.54147747   -4.4199714    1.8263753   520603 
   15000    1.5344146   -4.4229595   -4.4229595   -2.6056083   0.52539431   -4.4229595    1.8173512   520603 
   16000    1.5220988   -4.4195982   -4.4195982   -2.6168337   0.48229607   -4.4195982    1.8027645   520603 
   17000    1.5139152   -4.4191191   -4.4191191   -2.6260472   0.49943771   -4.4191191    1.7930719   520603 
   18000     1.504905   -4.4194382   -4.4194382   -2.6370379   0.45746135   -4.4194382    1.7824003   520603 
   19000    1.4980938   -4.4224609   -4.4224609   -2.6481277   0.46167064   -4.4224609    1.7743332   520603 
   20000    1.4902911   -4.4254268   -4.4254268   -2.6603351   0.49013626   -4.4254268    1.7650917   520603 
   21000    1.4816922   -4.4304092   -4.4304092   -2.6755021   0.45213844   -4.4304092    1.7549071   520603 
   22000    1.4716293   -4.4321746   -4.4321746   -2.6891859    0.4581641   -4.4321746    1.7429887   520603 
   23000    1.4642701   -4.4382261   -4.4382261   -2.7039535   0.42045565   -4.4382261    1.7342725   520603 
   24000    1.4545897   -4.4400948   -4.4400948   -2.7172877   0.41198875   -4.4400948    1.7228071   520603 
   25000    1.4489532   -4.4458973   -4.4458973    -2.729766   0.39751222   -4.4458973    1.7161313   520603 
   26000    1.4391468   -4.4459792   -4.4459792   -2.7414625   0.42480717   -4.4459792    1.7045167   520603 
   27000    1.4357919   -4.4538282   -4.4538282   -2.7532851   0.37795736   -4.4538282    1.7005431   520603 
   28000    1.4325565    -4.459541    -4.459541   -2.7628298   0.39467798    -4.459541    1.6967111   520603 
   29000    1.4316616   -4.4681021   -4.4681021   -2.7724509   0.37244986   -4.4681021    1.6956512   520603 
   30000    1.4318161   -4.4776828   -4.4776828   -2.7818486   0.41100952   -4.4776828    1.6958342   520603 
   31000    1.4294482   -4.4829654   -4.4829654   -2.7899357   0.39431017   -4.4829654    1.6930297   520603 
   32000    1.4319046   -4.4928772   -4.4928772   -2.7969381   0.41653388   -4.4928772    1.6959391   520603 
   33000    1.4302236   -4.4990237   -4.4990237   -2.8050757   0.41308717   -4.4990237     1.693948   520603 
   34000    1.4302114   -4.5051844   -4.5051844   -2.8112508   0.41318343   -4.5051844    1.6939336   520603 
   35000    1.4312892   -4.5132138   -4.5132138   -2.8180036   0.42698065   -4.5132138    1.6952102   520603 
   36000     1.429166   -4.5177152   -4.5177152   -2.8250198   0.41896388   -4.5177152    1.6926954   520603 
   37000    1.4278946   -4.5225779   -4.5225779   -2.8313883   0.41140551   -4.5225779    1.6911896   520603 
   38000    1.4243009   -4.5246057   -4.5246057   -2.8376724    0.3846212   -4.5246057    1.6869332   520603 
   39000    1.4162646   -4.5222246   -4.5222246   -2.8448094   0.37974641   -4.5222246    1.6774151   520603 
   40000    1.4139385   -4.5253248   -4.5253248   -2.8506648   0.38354587   -4.5253248    1.6746601   520603 
   41000    1.4083105   -4.5250346   -4.5250346   -2.8570403   0.38386369   -4.5250346    1.6679943   520603 
   42000    1.4023667   -4.5238326   -4.5238326   -2.8628781   0.39454751   -4.5238326    1.6609545   520603 
   43000    1.4015498   -4.5289626   -4.5289626   -2.8689756   0.38699606   -4.5289626     1.659987   520603 
   44000     1.395919   -4.5278849   -4.5278849   -2.8745669   0.37471087   -4.5278849    1.6533179   520603 
   45000    1.3946993   -4.5330186   -4.5330186   -2.8811453   0.35482761   -4.5330186    1.6518733   520603 
   46000    1.3892705    -4.533257    -4.533257   -2.8878135   0.36913296    -4.533257    1.6454435   520603 
   47000    1.3868821   -4.5384988   -4.5384988   -2.8958841   0.36504895   -4.5384988    1.6426147   520603 
   48000    1.3823079   -4.5399541   -4.5399541   -2.9027571    0.3487876   -4.5399541     1.637197   520603 
   49000     1.381927   -4.5463937   -4.5463937   -2.9096478   0.36945092   -4.5463937    1.6367459   520603 
   50000    1.3783993   -4.5489065   -4.5489065   -2.9163388   0.35254586   -4.5489065    1.6325677   520603 
   51000    1.3733586   -4.5498713   -4.5498713   -2.9232738   0.35051753   -4.5498713    1.6265975   520603 
   52000    1.3715324   -4.5531115   -4.5531115    -2.928677    0.3286433   -4.5531115    1.6244345   520603 
   53000    1.3714002   -4.5573794   -4.5573794   -2.9331014   0.34790295   -4.5573794     1.624278   520603 
   54000    1.3722612    -4.564557    -4.564557   -2.9392593   0.36184667    -4.564557    1.6252977   520603 
   55000    1.3718652   -4.5683104   -4.5683104   -2.9434817   0.33126812   -4.5683104    1.6248287   520603 
   56000    1.3705413   -4.5723245   -4.5723245   -2.9490638     0.357834   -4.5723245    1.6232607   520603 
   57000    1.3654367   -4.5721715   -4.5721715   -2.9549566    0.3643515   -4.5721715    1.6172149   520603 
   58000    1.3665163    -4.578491    -4.578491   -2.9599975   0.36890163    -4.578491    1.6184935   520603 
   59000    1.3659156   -4.5823683   -4.5823683   -2.9645861   0.35700269   -4.5823683    1.6177821   520603 
   60000    1.3632556   -4.5840923   -4.5840923   -2.9694608   0.37944975   -4.5840923    1.6146315   520603 
   61000     1.361449   -4.5877265   -4.5877265   -2.9752346   0.32371551   -4.5877265    1.6124919   520603 
   62000    1.3577115    -4.588621    -4.588621   -2.9805557     0.362406    -4.588621    1.6080652   520603 
   63000    1.3553128   -4.5896275   -4.5896275   -2.9844034   0.32780585   -4.5896275    1.6052241   520603 
   64000    1.3522784   -4.5906199   -4.5906199   -2.9889897   0.33863229   -4.5906199    1.6016302   520603 
   65000    1.3529012   -4.5961845   -4.5961845   -2.9938166   0.34305656   -4.5961845    1.6023679   520603 
   66000    1.3455678    -4.591832    -4.591832   -2.9981497   0.34460711    -4.591832    1.5936823   520603 
   67000    1.3437745    -4.594617    -4.594617   -3.0030587   0.32529891    -4.594617    1.5915582   520603 
   68000     1.341247   -4.5963456   -4.5963456   -3.0077809   0.33047876   -4.5963456    1.5885647   520603 
   69000    1.3394727   -4.5994931   -4.5994931   -3.0130298   0.33584094   -4.5994931    1.5864633   520603 
   70000     1.337977   -4.6018027   -4.6018027    -3.017111   0.31366147   -4.6018027    1.5846917   520603 
   71000    1.3370459   -4.6057182   -4.6057182   -3.0221292   0.31665001   -4.6057182     1.583589   520603 
   72000    1.3342736   -4.6065294   -4.6065294    -3.026224   0.30280707   -4.6065294    1.5803055   520603 
   73000    1.3313616   -4.6084311   -4.6084311   -3.0315745   0.31705105   -4.6084311    1.5768565   520603 
   74000    1.3299249   -4.6111421   -4.6111421   -3.0359872   0.32768271   -4.6111421    1.5751549   520603 
   75000    1.3268238   -4.6119521   -4.6119521   -3.0404701   0.31790122   -4.6119521     1.571482   520603 
   76000    1.3249032   -4.6149203   -4.6149203   -3.0457131   0.30058452   -4.6149203    1.5692072   520603 
   77000    1.3233535   -4.6180657   -4.6180657   -3.0506939   0.31064528   -4.6180657    1.5673718   520603 
   78000    1.3229772    -4.622058    -4.622058   -3.0551319   0.29920821    -4.622058    1.5669261   520603 
   79000    1.3235728   -4.6267798   -4.6267798   -3.0591483   0.28926707   -4.6267798    1.5676315   520603 
   80000    1.3200461   -4.6275817   -4.6275817   -3.0641272   0.28082051   -4.6275817    1.5634545   520603 
   81000    1.3204325   -4.6308396   -4.6308396   -3.0669273   0.29261898   -4.6308396    1.5639122   520603 
   82000     1.317136   -4.6307309   -4.6307309   -3.0707231   0.28696423   -4.6307309    1.5600078   520603 
   83000    1.3150395   -4.6323231   -4.6323231   -3.0747983   0.28268737   -4.6323231    1.5575247   520603 
   84000    1.3147777   -4.6354736   -4.6354736   -3.0782589   0.31689306   -4.6354736    1.5572147   520603 
   85000    1.3129882   -4.6370112   -4.6370112   -3.0819161   0.30511818   -4.6370112    1.5550951   520603 
   86000    1.3117383   -4.6411424   -4.6411424   -3.0875276   0.30452502   -4.6411424    1.5536148   520603 
   87000     1.307581   -4.6407132   -4.6407132   -3.0920223   0.28392869   -4.6407132    1.5486909   520603 
   88000    1.3065403   -4.6430835   -4.6430835   -3.0956252   0.28896861   -4.6430835    1.5474584   520603 
   89000    1.3036329   -4.6428392   -4.6428392   -3.0988244   0.30077658   -4.6428392    1.5440148   520603 
   90000    1.3038791   -4.6467219   -4.6467219   -3.1024155   0.28279438   -4.6467219    1.5443064   520603 
   91000    1.3008886   -4.6483757   -4.6483757   -3.1076111   0.31105073   -4.6483757    1.5407645   520603 
   92000    1.2981161   -4.6487257   -4.6487257   -3.1112449   0.31217544   -4.6487257    1.5374808   520603 
   93000     1.297983   -4.6529319   -4.6529319   -3.1156088   0.27496396   -4.6529319    1.5373231   520603 
   94000    1.2969068   -4.6543168   -4.6543168   -3.1182684   0.27836873   -4.6543168    1.5360484   520603 
   95000    1.2942153   -4.6558144   -4.6558144   -3.1229537   0.27718252   -4.6558144    1.5328607   520603 
   96000    1.2924188   -4.6571037   -4.6571037   -3.1263708   0.29051223   -4.6571037    1.5307329   520603 
   97000     1.291075   -4.6589896   -4.6589896   -3.1298482    0.2703685   -4.6589896    1.5291414   520603 
   98000    1.2897976   -4.6605778   -4.6605778   -3.1329494   0.27096027   -4.6605778    1.5276284   520603 
   99000    1.2886826   -4.6630541   -4.6630541   -3.1367464   0.25415546   -4.6630541    1.5263077   520603 
  100000    1.2896522   -4.6669265   -4.6669265   -3.1394704   0.26532607   -4.6669265    1.5274561   520603 
  101000    1.2883254   -4.6696375   -4.6696375   -3.1437528    0.2680944   -4.6696375    1.5258847   520603 
  102000    1.2860363   -4.6699909   -4.6699909   -3.1468174   0.27727341   -4.6699909    1.5231735   520603 
  103000    1.2842612   -4.6716744   -4.6716744   -3.1506034      0.29691   -4.6716744     1.521071   520603 
  104000    1.2818138   -4.6707953   -4.6707953    -3.152623   0.27460708   -4.6707953    1.5181724   520603 
  105000      1.28175   -4.6728813   -4.6728813   -3.1547844    0.2740487   -4.6728813    1.5180969   520603 
  106000    1.2804484   -4.6740792   -4.6740792   -3.1575239   0.27105542   -4.6740792    1.5165553   520603 
  107000    1.2797858   -4.6758184   -4.6758184   -3.1600478   0.26330767   -4.6758184    1.5157705   520603 
  108000    1.2776708   -4.6770323   -4.6770323   -3.1637668   0.29350003   -4.6770323    1.5132655   520603 
  109000    1.2769709    -4.680014    -4.680014   -3.1675776   0.25464639    -4.680014    1.5124365   520603 
  110000    1.2739472    -4.679408    -4.679408   -3.1705527   0.27652014    -4.679408    1.5088553   520603 
  111000    1.2739955   -4.6835548   -4.6835548   -3.1746423    0.2883357   -4.6835548    1.5089125   520603 
  112000    1.2742333   -4.6850043   -4.6850043   -3.1758102   0.27077481   -4.6850043    1.5091941   520603 
  113000    1.2716627   -4.6860376   -4.6860376    -3.179888   0.26548115   -4.6860376    1.5061495   520603 
  114000    1.2703859   -4.6875365   -4.6875365   -3.1828992   0.27218513   -4.6875365    1.5046372   520603 
  115000    1.2691779   -4.6887156   -4.6887156   -3.1855091    0.2477327   -4.6887156    1.5032065   520603 
  116000    1.2677488    -4.689737    -4.689737   -3.1882232   0.25860285    -4.689737    1.5015139   520603 
  117000     1.265935   -4.6895048   -4.6895048   -3.1901391   0.28651063   -4.6895048    1.4993657   520603 
  118000    1.2653609   -4.6921058   -4.6921058   -3.1934201   0.26183452   -4.6921058    1.4986857   520603 
  119000    1.2627761   -4.6912931   -4.6912931   -3.1956689    0.2718146   -4.6912931    1.4956242   520603 
  120000     1.263044   -4.6932651   -4.6932651   -3.1973236   0.24308721   -4.6932651    1.4959415   520603 
  121000    1.2623087   -4.6965038   -4.6965038   -3.2014331   0.26194275   -4.6965038    1.4950706   520603 
  122000    1.2607054   -4.6982966   -4.6982966   -3.2051249   0.26484549   -4.6982966    1.4931717   520603 
  123000    1.2585567   -4.6987676   -4.6987676   -3.2081407   0.24806052   -4.6987676    1.4906269   520603 
  124000    1.2578712   -4.7013055   -4.7013055   -3.2114905   0.26088193   -4.7013055     1.489815   520603 
  125000    1.2578089   -4.7035871   -4.7035871   -3.2138459   0.24499645   -4.7035871    1.4897411   520603 
  126000    1.2554713   -4.7031312   -4.7031312   -3.2161588   0.25104102   -4.7031312    1.4869725   520603 
  127000    1.2531652   -4.7039158   -4.7039158   -3.2196746   0.26121234   -4.7039158    1.4842412   520603 
  128000     1.252782   -4.7064337   -4.7064337   -3.2226464   0.24810481   -4.7064337    1.4837873   520603 
  129000    1.2517862   -4.7068845   -4.7068845   -3.2242766    0.2486215   -4.7068845    1.4826079   520603 
  130000    1.2510584   -4.7091824   -4.7091824   -3.2274365   0.23795355   -4.7091824    1.4817459   520603 
  131000    1.2517516   -4.7121943   -4.7121943   -3.2296273   0.24724977   -4.7121943     1.482567   520603 
  132000    1.2495669   -4.7132949   -4.7132949   -3.2333155   0.23746401   -4.7132949    1.4799794   520603 
  133000    1.2475879   -4.7125673   -4.7125673   -3.2349319   0.25330532   -4.7125673    1.4776354   520603 
  134000    1.2480222   -4.7151697   -4.7151697   -3.2370198   0.23665343   -4.7151697    1.4781499   520603 
  135000    1.2453889    -4.713693    -4.713693   -3.2386621   0.22530256    -4.713693     1.475031   520603 
  136000    1.2432355   -4.7127589   -4.7127589   -3.2402784   0.24467375   -4.7127589    1.4724805   520603 
  137000    1.2438073   -4.7159918   -4.7159918    -3.242834   0.24650777   -4.7159918    1.4731578   520603 
  138000    1.2437092   -4.7176514   -4.7176514   -3.2446098   0.23680969   -4.7176514    1.4730416   520603 
  139000     1.242097   -4.7191563   -4.7191563   -3.2480242   0.24097503   -4.7191563    1.4711321   520603 
  140000    1.2419694   -4.7220535   -4.7220535   -3.2510726   0.23546924   -4.7220535    1.4709809   520603 
  141000    1.2411135   -4.7233414   -4.7233414   -3.2533742   0.25020343   -4.7233414    1.4699672   520603 
  142000    1.2390104   -4.7234056   -4.7234056   -3.2559293   0.23933084   -4.7234056    1.4674763   520603 
  143000    1.2380682   -4.7241825   -4.7241825   -3.2578221   0.23957731   -4.7241825    1.4663604   520603 
  144000    1.2365754   -4.7242499   -4.7242499   -3.2596576   0.23987518   -4.7242499    1.4645924   520603 
  145000    1.2372471   -4.7267105   -4.7267105   -3.2613226   0.23651506   -4.7267105    1.4653879   520603 
  146000    1.2367108   -4.7288092   -4.7288092   -3.2640565   0.23069809   -4.7288092    1.4647527   520603 
  147000    1.2350884   -4.7293321   -4.7293321    -3.266501   0.23202573   -4.7293321    1.4628311   520603 
  148000    1.2329217   -4.7293622   -4.7293622   -3.2690973   0.22457841   -4.7293622    1.4602649   520603 
  149000    1.2344208   -4.7336234   -4.7336234    -3.271583   0.22534438   -4.7336234    1.4620404   520603 
  150000    1.2330754   -4.7343913   -4.7343913   -3.2739444   0.23626754   -4.7343913    1.4604469   520603 
  151000    1.2306812   -4.7341485   -4.7341485   -3.2765372   0.22359019   -4.7341485    1.4576113   520603 
  152000    1.2311286   -4.7373664   -4.7373664   -3.2792252   0.23320057   -4.7373664    1.4581412   520603 
  153000    1.2308192   -4.7400455   -4.7400455   -3.2822707   0.21095598   -4.7400455    1.4577748   520603 
  154000    1.2282293    -4.738726    -4.738726   -3.2840188   0.24152156    -4.738726    1.4547072   520603 
  155000    1.2278777   -4.7412994   -4.7412994   -3.2870086   0.23798101   -4.7412994    1.4542908   520603 
  156000    1.2247507   -4.7396236   -4.7396236   -3.2890364   0.21487615   -4.7396236    1.4505872   520603 
  157000    1.2270015   -4.7437283   -4.7437283   -3.2904753   0.21979969   -4.7437283     1.453253   520603 
  158000     1.224025   -4.7425545   -4.7425545   -3.2928268    0.2066973   -4.7425545    1.4497277   520603 
  159000    1.2248111   -4.7462733   -4.7462733   -3.2956145   0.20868251   -4.7462733    1.4506588   520603 
  160000    1.2246219   -4.7482118   -4.7482118   -3.2977772   0.21921647   -4.7482118    1.4504346   520603 
  161000    1.2215588    -4.745959    -4.745959   -3.2991523   0.22171036    -4.745959    1.4468067   520603 
  162000    1.2199678   -4.7460767   -4.7460767   -3.3011543   0.23626007   -4.7460767    1.4449224   520603 
  163000    1.2214498   -4.7494246   -4.7494246   -3.3027469   0.21386886   -4.7494246    1.4466777   520603 
  164000    1.2188515   -4.7486981   -4.7486981   -3.3050978   0.22747092   -4.7486981    1.4436003   520603 
  165000     1.218346   -4.7501605   -4.7501605    -3.307159   0.22311537   -4.7501605    1.4430015   520603 
  166000    1.2178814   -4.7514783   -4.7514783   -3.3090271   0.19851202   -4.7514783    1.4424512   520603 
  167000    1.2178268   -4.7526505   -4.7526505   -3.3102639   0.20082298   -4.7526505    1.4423866   520603 
  168000    1.2151844   -4.7519047   -4.7519047   -3.3126477   0.23685386   -4.7519047     1.439257   520603 
  169000    1.2171406   -4.7565678   -4.7565678    -3.314994   0.22483333   -4.7565678    1.4415738   520603 
  170000    1.2162296   -4.7576368   -4.7576368   -3.3171419   0.21991411   -4.7576368    1.4404949   520603 
  171000    1.2139851   -4.7564554   -4.7564554   -3.3186189   0.20311912   -4.7564554    1.4378365   520603 
  172000    1.2135146   -4.7585689   -4.7585689   -3.3212897   0.19403425   -4.7585689    1.4372792   520603 
  173000    1.2124768   -4.7587166   -4.7587166   -3.3226666   0.20025509   -4.7587166      1.43605   520603 
  174000    1.2100978   -4.7585172   -4.7585172   -3.3252848   0.21362897   -4.7585172    1.4332324   520603 
  175000    1.2109157    -4.760804    -4.760804   -3.3266029   0.19818861    -4.760804    1.4342011   520603 
  176000    1.2108339   -4.7629588   -4.7629588   -3.3288546   0.20095381   -4.7629588    1.4341042   520603 
  177000    1.2061069   -4.7590234   -4.7590234   -3.3305178   0.21689761   -4.7590234    1.4285056   520603 
  178000    1.2070926   -4.7623412   -4.7623412   -3.3326682    0.2104882   -4.7623412     1.429673   520603 
  179000    1.2069599   -4.7641667   -4.7641667   -3.3346508   0.20065347   -4.7641667    1.4295159   520603 
  180000    1.2067867   -4.7661362   -4.7661362   -3.3368254   0.20341827   -4.7661362    1.4293108   520603 
  181000    1.2043351   -4.7647142   -4.7647142   -3.3383071   0.22605967   -4.7647142    1.4264071   520603 
  182000    1.2039352   -4.7662663   -4.7662663   -3.3403328   0.19849722   -4.7662663    1.4259335   520603 
  183000    1.2041829   -4.7675259   -4.7675259   -3.3412991   0.20278706   -4.7675259    1.4262268   520603 
  184000    1.2040742   -4.7688948   -4.7688948   -3.3427967   0.21408555   -4.7688948    1.4260981   520603 
  185000    1.2034953   -4.7702884   -4.7702884   -3.3448759   0.20122414   -4.7702884    1.4254125   520603 
  186000    1.2015114   -4.7702728   -4.7702728     -3.34721   0.22670728   -4.7702728    1.4230628   520603 
  187000    1.2028247   -4.7733404   -4.7733404   -3.3487222   0.20260127   -4.7733404    1.4246182   520603 
  188000    1.2012391   -4.7724602   -4.7724602     -3.34972   0.21118221   -4.7724602    1.4227402   520603 
  189000    1.2014989   -4.7741107   -4.7741107   -3.3510628    0.2012482   -4.7741107    1.4230479   520603 
  190000    1.1997769    -4.773447    -4.773447   -3.3524386   0.22059062    -4.773447    1.4210084   520603 
  191000    1.1985773   -4.7742019   -4.7742019   -3.3546143   0.22269056   -4.7742019    1.4195876   520603 
  192000    1.1980487   -4.7747495   -4.7747495   -3.3557879   0.21693196   -4.7747495    1.4189615   520603 
  193000    1.1961853   -4.7743044   -4.7743044   -3.3575499   0.19186726   -4.7743044    1.4167545   520603 
  194000    1.1957335   -4.7758644   -4.7758644   -3.3596449      0.18251   -4.7758644    1.4162195   520603 
  195000    1.1929259    -4.774261    -4.774261   -3.3613669   0.19537403    -4.774261    1.4128941   520603 
  196000    1.1965938   -4.7802295   -4.7802295   -3.3629911   0.18419799   -4.7802295    1.4172384   520603 
  197000    1.1953452    -4.779515    -4.779515   -3.3637555   0.19756225    -4.779515    1.4157595   520603 
  198000    1.1929755   -4.7785772   -4.7785772   -3.3656243   0.20059956   -4.7785772    1.4129529   520603 
  199000    1.1929145   -4.7810743   -4.7810743   -3.3681937   0.21232422   -4.7810743    1.4128806   520603 
  200000    1.1917563   -4.7819184   -4.7819184   -3.3704095   0.19725388   -4.7819184    1.4115089   520603 
  201000    1.1914244   -4.7830733   -4.7830733   -3.3719576   0.19616288   -4.7830733    1.4111157   520603 
  202000    1.1920909   -4.7850082   -4.7850082   -3.3731031    0.2030699   -4.7850082    1.4119052   520603 
  203000    1.1904059   -4.7849795   -4.7849795     -3.37507   0.17390967   -4.7849795    1.4099095   520603 
  204000     1.189474   -4.7859051   -4.7859051   -3.3770994   0.19086537   -4.7859051    1.4088057   520603 
  205000    1.1903675   -4.7886058   -4.7886058   -3.3787419   0.20380748   -4.7886058    1.4098639   520603 
  206000    1.1881764   -4.7881475   -4.7881475   -3.3808786    0.1896321   -4.7881475    1.4072689   520603 
  207000    1.1888464   -4.7900105   -4.7900105   -3.3819481   0.18763518   -4.7900105    1.4080624   520603 
  208000    1.1860256   -4.7881839   -4.7881839   -3.3834624   0.19165326   -4.7881839    1.4047215   520603 
  209000    1.1868569   -4.7907174   -4.7907174   -3.3850113   0.19250152   -4.7907174    1.4057061   520603 
  210000    1.1849682   -4.7909608   -4.7909608   -3.3874917   0.18875288   -4.7909608    1.4034691   520603 
  211000    1.1851507   -4.7920939   -4.7920939   -3.3884086   0.20218002   -4.7920939    1.4036852   520603 
  212000    1.1849644    -4.793391    -4.793391   -3.3899265   0.19396286    -4.793391    1.4034646   520603 
  213000    1.1835105   -4.7921648   -4.7921648   -3.3904222   0.22041244   -4.7921648    1.4017426   520603 
  214000    1.1849506   -4.7957671   -4.7957671   -3.3923189   0.19148003   -4.7957671    1.4034482   520603 
  215000    1.1817835   -4.7946771   -4.7946771     -3.39498   0.18486507   -4.7946771    1.3996972   520603 
  216000    1.1807029   -4.7956434   -4.7956434   -3.3972262   0.18722402   -4.7956434    1.3984173   520603 
  217000    1.1818619   -4.7991952   -4.7991952   -3.3994052   0.17114294   -4.7991952    1.3997899   520603 
  218000     1.182439   -4.8021038   -4.8021038   -3.4016303    0.1731504   -4.8021038    1.4004735   520603 
  219000    1.1791514   -4.8000289   -4.8000289   -3.4034492   0.18582742   -4.8000289    1.3965797   520603 
  220000    1.1805343    -4.802666    -4.802666   -3.4044485   0.20475032    -4.802666    1.3982176   520603 
  221000    1.1799792    -4.803583    -4.803583   -3.4060228   0.20345287    -4.803583    1.3975602   520603 
  222000    1.1803463   -4.8045267   -4.8045267   -3.4065319   0.19092113   -4.8045267    1.3979949   520603 
  223000    1.1779873   -4.8035996   -4.8035996   -3.4083987   0.18599775   -4.8035996     1.395201   520603 
  224000    1.1759508    -4.803157    -4.803157   -3.4103681   0.17796549    -4.803157    1.3927889   520603 
  225000    1.1765245   -4.8043231   -4.8043231   -3.4108546   0.18118123   -4.8043231    1.3934684   520603 
  226000    1.1768783   -4.8071785   -4.8071785   -3.4132911   0.17490862   -4.8071785    1.3938875   520603 
  227000    1.1741033   -4.8045753   -4.8045753   -3.4139745   0.19100158   -4.8045753    1.3906008   520603 
  228000     1.174406   -4.8063206   -4.8063206   -3.4153614   0.18022422   -4.8063206    1.3909592   520603 
  229000    1.1716571   -4.8044159   -4.8044159   -3.4167124    0.1857376   -4.8044159    1.3877035   520603 
  230000    1.1732963   -4.8075369   -4.8075369   -3.4178919   0.17932759   -4.8075369    1.3896449   520603 
  231000    1.1737659   -4.8096269   -4.8096269   -3.4194258   0.18161104   -4.8096269    1.3902011   520603 
  232000    1.1737735   -4.8095014   -4.8095014   -3.4192913    0.1943496   -4.8095014    1.3902101   520603 
  233000     1.173769   -4.8117463   -4.8117463   -3.4215415   0.15315925   -4.8117463    1.3902048   520603 
  234000    1.1732005   -4.8135175   -4.8135175    -3.423986   0.18507859   -4.8135175    1.3895315   520603 
  235000    1.1718607   -4.8134132   -4.8134132   -3.4254686   0.17073821   -4.8134132    1.3879446   520603 
  236000    1.1710175   -4.8138889   -4.8138889    -3.426943    0.1876386   -4.8138889    1.3869459   520603 
  237000    1.1706612    -4.814781    -4.814781    -3.428257   0.15926961    -4.814781     1.386524   520603 
  238000    1.1696277   -4.8155329   -4.8155329    -3.430233   0.15966792   -4.8155329    1.3852999   520603 
  239000    1.1691562   -4.8154945   -4.8154945   -3.4307531   0.17501828   -4.8154945    1.3847414   520603 
  240000    1.1689468   -4.8161579   -4.8161579   -3.4316644   0.17573749   -4.8161579    1.3844935   520603 
  241000    1.1676085   -4.8156436   -4.8156436   -3.4327352   0.17356109   -4.8156436    1.3829083   520603 
  242000    1.1660295   -4.8155024   -4.8155024   -3.4344642   0.17568069   -4.8155024    1.3810382   520603 
  243000    1.1666878   -4.8174317   -4.8174317   -3.4356138   0.17770189   -4.8174317    1.3818179   520603 
  244000    1.1682455   -4.8197556   -4.8197556   -3.4360928   0.16976326   -4.8197556    1.3836628   520603 
  245000    1.1655848   -4.8188033   -4.8188033   -3.4382918      0.18311   -4.8188033    1.3805115   520603 
  246000    1.1647589   -4.8195652   -4.8195652    -3.440032   0.15998993   -4.8195652    1.3795333   520603 
  247000     1.165557   -4.8212964   -4.8212964   -3.4408179   0.17413873   -4.8212964    1.3804785   520603 
  248000    1.1642981   -4.8212399   -4.8212399   -3.4422524   0.16789433   -4.8212399    1.3789875   520603 
  249000    1.1656799   -4.8240747   -4.8240747   -3.4434506   0.20411958   -4.8240747    1.3806241   520603 
  250000    1.1635655   -4.8232245   -4.8232245   -3.4451047   0.16462613   -4.8232245    1.3781198   520603 
  251000    1.1648825   -4.8256827   -4.8256827    -3.446003   0.16805283   -4.8256827    1.3796796   520603 
  252000    1.1626221   -4.8236439   -4.8236439   -3.4466415   0.16227707   -4.8236439    1.3770025   520603 
  253000    1.1634866   -4.8263508   -4.8263508   -3.4483244    0.1877274   -4.8263508    1.3780264   520603 
  254000    1.1609841   -4.8248865   -4.8248865    -3.449824   0.15947188   -4.8248865    1.3750625   520603 
  255000    1.1596697   -4.8245384   -4.8245384   -3.4510327   0.16256592   -4.8245384    1.3735057   520603 
  256000    1.1606715   -4.8261372   -4.8261372    -3.451445    0.1598507   -4.8261372    1.3746922   520603 
  257000     1.160453   -4.8261688   -4.8261688   -3.4517354   0.18257005   -4.8261688    1.3744334   520603 
  258000    1.1597995   -4.8266227   -4.8266227   -3.4529633   0.17213193   -4.8266227    1.3736594   520603 
  259000    1.1603926   -4.8294429   -4.8294429    -3.455081   0.17230924   -4.8294429    1.3743619   520603 
  260000    1.1585768   -4.8285525   -4.8285525   -3.4563413   0.16973246   -4.8285525    1.3722112   520603 
  261000    1.1573007   -4.8285807   -4.8285807   -3.4578808   0.16532247   -4.8285807    1.3706999   520603 
  262000    1.1565511   -4.8291729   -4.8291729   -3.4593609   0.16204189   -4.8291729     1.369812   520603 
  263000    1.1563165   -4.8302566   -4.8302566   -3.4607225   0.15385658   -4.8302566    1.3695342   520603 
  264000    1.1555694   -4.8315735   -4.8315735   -3.4629242   0.15672041   -4.8315735    1.3686493   520603 
  265000    1.1560379   -4.8330466   -4.8330466   -3.4638424    0.1629193   -4.8330466    1.3692042   520603 
  266000    1.1549476   -4.8327708   -4.8327708   -3.4648579   0.15154862   -4.8327708    1.3679129   520603 
  267000    1.1557027   -4.8339488   -4.8339488   -3.4651416   0.16629129   -4.8339488    1.3688072   520603 
  268000     1.152176   -4.8310947   -4.8310947   -3.4664645   0.16793418   -4.8310947    1.3646302   520603 
  269000    1.1554503   -4.8359026   -4.8359026   -3.4673944   0.15598286   -4.8359026    1.3685082   520603 
  270000    1.1545874   -4.8367206   -4.8367206   -3.4692344   0.14861043   -4.8367206    1.3674862   520603 
  271000     1.155426   -4.8391023   -4.8391023   -3.4706228   0.15768752   -4.8391023    1.3684795   520603 
  272000    1.1530677   -4.8372082   -4.8372082   -3.4715219    0.1747384   -4.8372082    1.3656863   520603 
  273000    1.1514088   -4.8362818   -4.8362818   -3.4725603   0.16647432   -4.8362818    1.3637215   520603 
  274000    1.1524208   -4.8386083   -4.8386083   -3.4736882   0.17187322   -4.8386083    1.3649201   520603 
  275000    1.1521622   -4.8393886   -4.8393886   -3.4747747    0.1561143   -4.8393886    1.3646139   520603 
  276000    1.1514944   -4.8386091   -4.8386091   -3.4747861   0.15850371   -4.8386091    1.3638229   520603 
  277000    1.1515731   -4.8392933   -4.8392933   -3.4753771   0.14195394   -4.8392933    1.3639162   520603 
  278000    1.1511109   -4.8402657   -4.8402657    -3.476897   0.14792079   -4.8402657    1.3633687   520603 
  279000    1.1505458   -4.8412459   -4.8412459   -3.4785466   0.16839131   -4.8412459    1.3626993   520603 
  280000    1.1501104   -4.8417857   -4.8417857    -3.479602   0.14397864   -4.8417857    1.3621837   520603 
  281000    1.1491518   -4.8417943   -4.8417943    -3.480746   0.13504498   -4.8417943    1.3610484   520603 
  282000    1.1476294   -4.8418804   -4.8418804   -3.4826351   0.17777138   -4.8418804    1.3592453   520603 
  283000    1.1468606   -4.8420625   -4.8420625   -3.4837278    0.1458066   -4.8420625    1.3583347   520603 
  284000    1.1478691    -4.844541    -4.844541   -3.4850118   0.17952034    -4.844541    1.3595292   520603 
  285000    1.1488328   -4.8462771   -4.8462771   -3.4856066   0.15152934   -4.8462771    1.3606705   520603 
  286000    1.1473379   -4.8458695   -4.8458695   -3.4869695   0.14855426   -4.8458695       1.3589   520603 
  287000    1.1485787   -4.8480184   -4.8480184   -3.4876489   0.15924535   -4.8480184    1.3603695   520603 
  288000    1.1458986   -4.8468629   -4.8468629   -3.4896676   0.17415442   -4.8468629    1.3571953   520603 
  289000    1.1470093   -4.8491759   -4.8491759   -3.4906651   0.16499715   -4.8491759    1.3585107   520603 
  290000    1.1461813   -4.8495318   -4.8495318   -3.4920018   0.15358207   -4.8495318      1.35753   520603 
  291000    1.1460762   -4.8503961   -4.8503961   -3.4929904   0.15857215   -4.8503961    1.3574057   520603 
  292000    1.1427506   -4.8479368   -4.8479368     -3.49447   0.16075841   -4.8479368    1.3534668   520603 
  293000    1.1432259   -4.8486987   -4.8486987   -3.4946691   0.16294684   -4.8486987    1.3540297   520603 
  294000      1.14596    -4.853446    -4.853446   -3.4961781    0.1588027    -4.853446     1.357268   520603 
  295000     1.145437   -4.8532893   -4.8532893   -3.4966407   0.15130234   -4.8532893    1.3566486   520603 
  296000     1.143435    -4.852333    -4.852333   -3.4980556   0.17293224    -4.852333    1.3542774   520603 
  297000    1.1445627   -4.8551287   -4.8551287   -3.4995157   0.16750607   -4.8551287    1.3556131   520603 
  298000    1.1442316   -4.8558444   -4.8558444   -3.5006235   0.15908559   -4.8558444    1.3552209   520603 
  299000     1.142991   -4.8555976   -4.8555976   -3.5018461   0.14244298   -4.8555976    1.3537515   520603 
  300000    1.1412837   -4.8539063   -4.8539063    -3.502177   0.17153515   -4.8539063    1.3517294   520603 
  301000    1.1411518   -4.8537441   -4.8537441   -3.5021709   0.16438835   -4.8537441    1.3515732   520603 
  302000    1.1435088    -4.857207    -4.857207   -3.5028423   0.14859455    -4.857207    1.3543648   520603 
  303000    1.1401471   -4.8536326   -4.8536326   -3.5032494   0.13558864   -4.8536326    1.3503833   520603 
  304000    1.1421554   -4.8564469   -4.8564469   -3.5036851   0.16714624   -4.8564469    1.3527618   520603 
  305000    1.1430479   -4.8588671   -4.8588671   -3.5050481   0.15011167   -4.8588671     1.353819   520603 
  306000    1.1407228    -4.857656    -4.857656   -3.5065909   0.17054318    -4.857656    1.3510651   520603 
  307000    1.1411939   -4.8597676   -4.8597676   -3.5081445   0.13384873   -4.8597676    1.3516231   520603 
  308000    1.1406701   -4.8593003   -4.8593003   -3.5082976   0.16043968   -4.8593003    1.3510027   520603 
  309000    1.1399834    -4.858778    -4.858778   -3.5085887   0.14985853    -4.858778    1.3501893   520603 
  310000    1.1398308   -4.8597146   -4.8597146   -3.5097059   0.15394339   -4.8597146    1.3500087   520603 
  311000      1.13907   -4.8593423   -4.8593423   -3.5102347   0.15584025   -4.8593423    1.3491076   520603 
  312000    1.1391707    -4.860203    -4.860203   -3.5109762   0.15292688    -4.860203    1.3492268   520603 
  313000    1.1375552   -4.8600149   -4.8600149   -3.5127015    0.1633708   -4.8600149    1.3473133   520603 
  314000    1.1377579    -4.861067    -4.861067   -3.5135136   0.12966689    -4.861067    1.3475534   520603 
  315000    1.1364649   -4.8615974   -4.8615974   -3.5155754   0.15455656   -4.8615974     1.346022   520603 
  316000    1.1371038   -4.8636454   -4.8636454   -3.5168667   0.15249027   -4.8636454    1.3467787   520603 
  317000    1.1359017   -4.8640052   -4.8640052   -3.5186503   0.15808379   -4.8640052     1.345355   520603 
  318000    1.1368149   -4.8656863   -4.8656863   -3.5192497   0.15013061   -4.8656863    1.3464366   520603 
  319000    1.1379205   -4.8685495   -4.8685495   -3.5208035   0.14669384   -4.8685495     1.347746   520603 
  320000    1.1379152   -4.8679779   -4.8679779   -3.5202381   0.15771564   -4.8679779    1.3477398   520603 
  321000    1.1361646   -4.8669078   -4.8669078   -3.5212414   0.13611941   -4.8669078    1.3456664   520603 
  322000    1.1371905    -4.868284    -4.868284   -3.5214025   0.16149179    -4.868284    1.3468815   520603 
  323000    1.1372117   -4.8691479   -4.8691479   -3.5222413   0.15872497   -4.8691479    1.3469066   520603 
  324000    1.1359801   -4.8683083   -4.8683083   -3.5228604   0.17082081   -4.8683083    1.3454479   520603 
  325000    1.1372583   -4.8715178   -4.8715178    -3.524556   0.14989278   -4.8715178    1.3469618   520603 
  326000    1.1373826   -4.8732503   -4.8732503   -3.5261413   0.15288777   -4.8732503     1.347109   520603 
  327000    1.1351019   -4.8702516   -4.8702516   -3.5258439   0.14876283   -4.8702516    1.3444077   520603 
  328000    1.1355095   -4.8724506   -4.8724506   -3.5275601   0.14647828   -4.8724506    1.3448905   520603 
  329000    1.1350449   -4.8718917   -4.8718917   -3.5275514   0.16856675   -4.8718917    1.3443402   520603 
  330000    1.1326061   -4.8696408   -4.8696408   -3.5281891    0.1365306   -4.8696408    1.3414517   520603 
  331000    1.1328618   -4.8708511   -4.8708511   -3.5290965    0.1604148   -4.8708511    1.3417546   520603 
  332000    1.1335176   -4.8727354   -4.8727354   -3.5302041   0.14010194   -4.8727354    1.3425313   520603 
  333000    1.1327298   -4.8717331   -4.8717331   -3.5301349   0.12656446   -4.8717331    1.3415982   520603 
  334000    1.1339768   -4.8734409   -4.8734409   -3.5303657   0.16139944   -4.8734409    1.3430752   520603 
  335000    1.1332823   -4.8727965   -4.8727965    -3.530544   0.14731858   -4.8727965    1.3422526   520603 
  336000    1.1324311   -4.8731414   -4.8731414    -3.531897   0.14063009   -4.8731414    1.3412445   520603 
  337000    1.1311706   -4.8727211   -4.8727211   -3.5329695   0.15749437   -4.8727211    1.3397515   520603 
  338000    1.1324385   -4.8762313   -4.8762313   -3.5349781    0.1307607   -4.8762313    1.3412532   520603 
  339000    1.1322313   -4.8754079   -4.8754079   -3.5344001   0.12931902   -4.8754079    1.3410078   520603 
  340000    1.1313187   -4.8760115   -4.8760115   -3.5360846   0.14677005   -4.8760115    1.3399269   520603 
  341000    1.1312837   -4.8766085   -4.8766085    -3.536723   0.14642272   -4.8766085    1.3398855   520603 
  342000    1.1311746   -4.8779676   -4.8779676   -3.5382113   0.12882666   -4.8779676    1.3397563   520603 
  343000    1.1307995   -4.8777369   -4.8777369    -3.538425   0.15067001   -4.8777369     1.339312   520603 
  344000    1.1307242   -4.8780051   -4.8780051   -3.5387824   0.13072388   -4.8780051    1.3392228   520603 
  345000    1.1301145   -4.8782908   -4.8782908   -3.5397902   0.14068436   -4.8782908    1.3385007   520603 
  346000    1.1286281   -4.8785333   -4.8785333   -3.5417931   0.15158043   -4.8785333    1.3367402   520603 
  347000    1.1278828   -4.8787208   -4.8787208   -3.5428634   0.13708897   -4.8787208    1.3358575   520603 
  348000    1.1264671   -4.8784329   -4.8784329   -3.5442522   0.14021228   -4.8784329    1.3341807   520603 
  349000    1.1266695   -4.8798771   -4.8798771   -3.5454566   0.15333402   -4.8798771    1.3344205   520603 
  350000    1.1275097   -4.8825139   -4.8825139   -3.5470983   0.14473934   -4.8825139    1.3354156   520603 
  351000    1.1267025   -4.8821366   -4.8821366   -3.5476771   0.13678748   -4.8821366    1.3344595   520603 
  352000    1.1274043   -4.8846815   -4.8846815   -3.5493908   0.15360155   -4.8846815    1.3352908   520603 
  353000    1.1256634   -4.8834759   -4.8834759   -3.5502471   0.14047273   -4.8834759    1.3332288   520603 
  354000    1.1242814   -4.8819583   -4.8819583   -3.5503664   0.13626967   -4.8819583    1.3315919   520603 
  355000    1.1239776   -4.8821118   -4.8821118   -3.5508796   0.15012562   -4.8821118    1.3312322   520603 
  356000    1.1250052    -4.884085    -4.884085   -3.5516358   0.13729492    -4.884085    1.3324492   520603 
  357000    1.1252973   -4.8849118   -4.8849118   -3.5521166   0.11906539   -4.8849118    1.3327952   520603 
  358000    1.1264043   -4.8878554   -4.8878554   -3.5537491   0.15342735   -4.8878554    1.3341063   520603 
  359000    1.1259234   -4.8888173   -4.8888173   -3.5552806   0.16023433   -4.8888173    1.3335367   520603 
  360000    1.1245095    -4.888278    -4.888278   -3.5564158   0.11277108    -4.888278    1.3318622   520603 
  361000    1.1255726   -4.8902898   -4.8902898   -3.5571685   0.14949534   -4.8902898    1.3331213   520603 
  362000    1.1228261   -4.8888326   -4.8888326   -3.5589643   0.15505208   -4.8888326    1.3298683   520603 
  363000    1.1237242   -4.8907766   -4.8907766   -3.5598447   0.13234916   -4.8907766     1.330932   520603 
  364000    1.1234691   -4.8919065   -4.8919065   -3.5612766   0.12391963   -4.8919065    1.3306299   520603 
  365000    1.1208637    -4.889604    -4.889604   -3.5620599   0.14799985    -4.889604    1.3275441   520603 
  366000    1.1218852   -4.8919467   -4.8919467   -3.5631927   0.12810814   -4.8919467     1.328754   520603 
  367000     1.122409   -4.8937452   -4.8937452   -3.5643709   0.14635589   -4.8937452    1.3293743   520603 
  368000    1.1223982   -4.8947805   -4.8947805   -3.5654189   0.13862297   -4.8947805    1.3293616   520603 
  369000    1.1226001   -4.8953397   -4.8953397    -3.565739   0.12868168   -4.8953397    1.3296007   520603 
  370000    1.1217178   -4.8947926   -4.8947926    -3.566237   0.14078004   -4.8947926    1.3285557   520603 
  371000    1.1217586   -4.8956027   -4.8956027   -3.5669987   0.12990486   -4.8956027     1.328604   520603 
  372000    1.1211641   -4.8961652   -4.8961652   -3.5682653   0.12907725   -4.8961652    1.3278999   520603 
  373000    1.1197487   -4.8958544   -4.8958544   -3.5696309      0.13254   -4.8958544    1.3262235   520603 
  374000    1.1187032   -4.8960338   -4.8960338   -3.5710486   0.13656249   -4.8960338    1.3249852   520603 
  375000    1.1188738   -4.8968339   -4.8968339   -3.5716466   0.15452468   -4.8968339    1.3251873   520603 
  376000     1.119374   -4.8984594   -4.8984594   -3.5726797   0.11900925   -4.8984594    1.3257797   520603 
  377000    1.1185531   -4.8973545   -4.8973545   -3.5725472   0.13744134   -4.8973545    1.3248074   520603 
  378000    1.1167565   -4.8964004   -4.8964004   -3.5737208   0.12272668   -4.8964004    1.3226796   520603 
  379000    1.1178224   -4.8985614   -4.8985614   -3.5746194   0.13704308   -4.8985614     1.323942   520603 
  380000    1.1172805   -4.8988384   -4.8988384   -3.5755383   0.13297325   -4.8988384    1.3233001   520603 
  381000     1.119116   -4.9011898   -4.9011898   -3.5757157   0.14260919   -4.9011898    1.3254741   520603 
  382000    1.1183449   -4.9008137   -4.9008137   -3.5762528   0.13710438   -4.9008137    1.3245609   520603 
  383000    1.1175549   -4.9001795   -4.9001795   -3.5765543   0.12221512   -4.9001795    1.3236252   520603 
  384000    1.1189003   -4.9024092   -4.9024092   -3.5771906   0.11393169   -4.9024092    1.3252186   520603 
  385000    1.1181297     -4.90269     -4.90269   -3.5783841   0.11062643     -4.90269    1.3243059   520603 
  386000    1.1191607   -4.9037603   -4.9037603   -3.5782332   0.12048595   -4.9037603    1.3255271   520603 
  387000    1.1177324   -4.9031534   -4.9031534    -3.579318   0.13598856   -4.9031534    1.3238354   520603 
  388000    1.1167353   -4.9026773   -4.9026773   -3.5800229   0.13413533   -4.9026773    1.3226544   520603 
  389000    1.1164899   -4.9035806   -4.9035806   -3.5812168   0.13799236   -4.9035806    1.3223638   520603 
  390000    1.1140851   -4.9011632   -4.9011632   -3.5816477   0.12647792   -4.9011632    1.3195155   520603 
  391000    1.1182728   -4.9072174   -4.9072174   -3.5827419   0.12798529   -4.9072174    1.3244755   520603 
  392000    1.1170552   -4.9067217   -4.9067217   -3.5836884   0.13293743   -4.9067217    1.3230333   520603 
  393000    1.1169958   -4.9079579   -4.9079579    -3.584995   0.13047172   -4.9079579    1.3229629   520603 
  394000    1.1152192   -4.9075805   -4.9075805   -3.5867218   0.13970097   -4.9075805    1.3208587   520603 
  395000    1.1160352   -4.9093633   -4.9093633    -3.587538    0.1544431   -4.9093633    1.3218253   520603 
  396000    1.1154603   -4.9092506   -4.9092506   -3.5881063   0.12672704   -4.9092506    1.3211443   520603 
  397000    1.1147103   -4.9091983   -4.9091983   -3.5889423   0.14153522   -4.9091983    1.3202561   520603 
  398000    1.1132367   -4.9077523   -4.9077523   -3.5892416   0.11046874   -4.9077523    1.3185107   520603 
  399000    1.1135735   -4.9085169   -4.9085169   -3.5896073     0.134022   -4.9085169    1.3189096   520603 
  400000    1.1151161    -4.911558    -4.911558   -3.5908213   0.13413839    -4.911558    1.3207367   520603 
  401000    1.1149177   -4.9122867   -4.9122867    -3.591785   0.13906341   -4.9122867    1.3205017   520603 
  402000    1.1118574   -4.9093834   -4.9093834   -3.5925063   0.13572964   -4.9093834    1.3168771   520603 
  403000    1.1115695   -4.9099183   -4.9099183   -3.5933823   0.11358214   -4.9099183     1.316536   520603 
  404000    1.1128246   -4.9126829   -4.9126829   -3.5946603   0.11917209   -4.9126829    1.3180227   520603 
  405000    1.1134554   -4.9142912   -4.9142912   -3.5955215   0.13639816   -4.9142912    1.3187697   520603 
  406000    1.1132483   -4.9146168   -4.9146168   -3.5960923   0.13119251   -4.9146168    1.3185244   520603 
  407000    1.1142218   -4.9161776   -4.9161776   -3.5965001   0.13060763   -4.9161776    1.3196775   520603 
  408000    1.1117571    -4.914388    -4.914388   -3.5976296   0.13303213    -4.914388    1.3167583   520603 
  409000     1.112872   -4.9155515   -4.9155515   -3.5974728   0.14890593   -4.9155515    1.3180788   520603 
  410000    1.1103127   -4.9150717   -4.9150717   -3.6000242   0.11355576   -4.9150717    1.3150475   520603 
  411000    1.1103648   -4.9153844   -4.9153844   -3.6002751   0.11937949   -4.9153844    1.3151093   520603 
  412000    1.1102138   -4.9156231   -4.9156231   -3.6006927   0.11674021   -4.9156231    1.3149305   520603 
  413000    1.1112511   -4.9181262   -4.9181262   -3.6019672   0.11386629   -4.9181262     1.316159   520603 
  414000    1.1117064   -4.9192519   -4.9192519   -3.6025537   0.14403302   -4.9192519    1.3166982   520603 
  415000    1.1122109   -4.9204888   -4.9204888   -3.6031931   0.14278974   -4.9204888    1.3172957   520603 
  416000    1.1113386   -4.9204107   -4.9204107    -3.604148   0.12621334   -4.9204107    1.3162626   520603 
  417000    1.1107141   -4.9195386   -4.9195386   -3.6040156   0.15173579   -4.9195386     1.315523   520603 
  418000    1.1094194   -4.9186725   -4.9186725    -3.604683   0.12963859   -4.9186725    1.3139895   520603 
  419000    1.1097845   -4.9210829   -4.9210829    -3.606661   0.12415858   -4.9210829    1.3144219   520603 
  420000     1.109837   -4.9222659   -4.9222659   -3.6077817   0.13792069   -4.9222659    1.3144842   520603 
  421000    1.1122067   -4.9260839   -4.9260839   -3.6087931   0.12711511   -4.9260839    1.3172908   520603 
  422000    1.1090333    -4.924416    -4.924416   -3.6108837   0.12829182    -4.924416    1.3135323   520603 
  423000    1.1078219   -4.9232533   -4.9232533   -3.6111558    0.1151292   -4.9232533    1.3120975   520603 
  424000    1.1078672    -4.924004    -4.924004   -3.6118529   0.14028572    -4.924004    1.3121511   520603 
  425000    1.1099901   -4.9275115   -4.9275115    -3.612846   0.12718407   -4.9275115    1.3146655   520603 
  426000    1.1083268   -4.9267986   -4.9267986   -3.6141032   0.12057676   -4.9267986    1.3126954   520603 
  427000    1.1048726   -4.9236161   -4.9236161   -3.6150118   0.12269001   -4.9236161    1.3086043   520603 
  428000    1.1063061   -4.9255746   -4.9255746   -3.6152724   0.12410234   -4.9255746    1.3103022   520603 
  429000    1.1042402   -4.9233407   -4.9233407   -3.6154853   0.12255186   -4.9233407    1.3078554   520603 
  430000    1.1054908   -4.9245769   -4.9245769   -3.6152403   0.13832584   -4.9245769    1.3093365   520603 
  431000    1.1064363   -4.9269788   -4.9269788   -3.6165224   0.11910917   -4.9269788    1.3104563   520603 
  432000    1.1063705   -4.9277878   -4.9277878   -3.6174094   0.11971112   -4.9277878    1.3103784   520603 
  433000    1.1056134   -4.9276238   -4.9276238   -3.6181421   0.10522552   -4.9276238    1.3094818   520603 
  434000    1.1082558   -4.9305963   -4.9305963   -3.6179849   0.13493267   -4.9305963    1.3126114   520603 
  435000    1.1045434   -4.9262632   -4.9262632   -3.6180488   0.12218265   -4.9262632    1.3082144   520603 
  436000    1.1065009   -4.9301507   -4.9301507   -3.6196178   0.12398169   -4.9301507    1.3105329   520603 
  437000    1.1052299   -4.9288266   -4.9288266   -3.6197992   0.14665183   -4.9288266    1.3090275   520603 
  438000    1.1065013   -4.9298734   -4.9298734   -3.6193401    0.1380049   -4.9298734    1.3105333   520603 
  439000    1.1058596    -4.929929    -4.929929   -3.6201557   0.11607167    -4.929929    1.3097733   520603 
  440000    1.1060018   -4.9310668   -4.9310668   -3.6211251   0.11630171   -4.9310668    1.3099417   520603 
  441000    1.1037054   -4.9292445   -4.9292445   -3.6220226   0.11760244   -4.9292445    1.3072218   520603 
  442000    1.1028803   -4.9289661   -4.9289661   -3.6227214   0.13940007   -4.9289661    1.3062447   520603 
  443000    1.1046575   -4.9314036   -4.9314036   -3.6230541   0.12719532   -4.9314036    1.3083496   520603 
  444000    1.1039181   -4.9319896   -4.9319896   -3.6245158   0.13429296   -4.9319896    1.3074738   520603 
  445000    1.1035925   -4.9316158   -4.9316158   -3.6245277    0.1323039   -4.9316158    1.3070882   520603 
  446000    1.1028215   -4.9319514   -4.9319514   -3.6257764   0.12593734   -4.9319514     1.306175   520603 
  447000    1.1033507   -4.9332599   -4.9332599   -3.6264582   0.13335244   -4.9332599    1.3068018   520603 
  448000      1.10253   -4.9330203   -4.9330203   -3.6271905   0.13693229   -4.9330203    1.3058298   520603 
  449000    1.1018122   -4.9334191   -4.9334191   -3.6284395   0.11819948   -4.9334191    1.3049796   520603 
  450000    1.1023546   -4.9336981   -4.9336981   -3.6280762   0.12327076   -4.9336981     1.305622   520603 
  451000    1.1019614   -4.9340985   -4.9340985   -3.6289421   0.11591065   -4.9340985    1.3051563   520603 
  452000    1.1012472   -4.9346588   -4.9346588   -3.6303484   0.12695205   -4.9346588    1.3043105   520603 
  453000    1.1023452   -4.9361719   -4.9361719    -3.630561   0.12252954   -4.9361719    1.3056109   520603 
  454000    1.1019901   -4.9358961   -4.9358961   -3.6307058   0.11288423   -4.9358961    1.3051904   520603 
  455000     1.102853   -4.9387325   -4.9387325   -3.6325202   0.11642809   -4.9387325    1.3062123   520603 
  456000    1.1027626   -4.9388513   -4.9388513   -3.6327461   0.13383947   -4.9388513    1.3061052   520603 
  457000    1.0996508   -4.9369998   -4.9369998   -3.6345801   0.12854529   -4.9369998    1.3024197   520603 
  458000    1.1000862   -4.9373755   -4.9373755   -3.6344401   0.13932915   -4.9373755    1.3029354   520603 
  459000    1.1003694   -4.9394929   -4.9394929   -3.6362221   0.12893023   -4.9394929    1.3032708   520603 
  460000    1.0998824   -4.9391493   -4.9391493   -3.6364553   0.12532917   -4.9391493     1.302694   520603 
  461000    1.1004912   -4.9408858   -4.9408858   -3.6374708   0.12057485   -4.9408858     1.303415   520603 
  462000    1.0994429   -4.9407621   -4.9407621   -3.6385886   0.13359091   -4.9407621    1.3021735   520603 
  463000    1.0994787   -4.9418151   -4.9418151   -3.6395992   0.12694012   -4.9418151    1.3022158   520603 
  464000    1.0980548   -4.9401741   -4.9401741   -3.6396448   0.12178595   -4.9401741    1.3005293   520603 
  465000    1.1004216   -4.9430536   -4.9430536    -3.639721   0.13317424   -4.9430536    1.3033326   520603 
  466000    1.0995891   -4.9431328   -4.9431328   -3.6407863  0.098285242   -4.9431328    1.3023465   520603 
  467000    1.0984405   -4.9431396   -4.9431396   -3.6421534   0.11684804   -4.9431396    1.3009862   520603 
  468000    1.0978051   -4.9437658   -4.9437658   -3.6435322   0.11730923   -4.9437658    1.3002336   520603 
  469000    1.0999675   -4.9463654   -4.9463654   -3.6435707   0.11752441   -4.9463654    1.3027947   520603 
  470000    1.0985285   -4.9450584   -4.9450584   -3.6439681   0.12383556   -4.9450584    1.3010904   520603 
  471000    1.0993842   -4.9460795   -4.9460795   -3.6439756   0.11243393   -4.9460795    1.3021039   520603 
  472000    1.0975496     -4.94467     -4.94467    -3.644739   0.10229146     -4.94467     1.299931   520603 
  473000    1.0981785   -4.9457834   -4.9457834   -3.6451076   0.14325913   -4.9457834    1.3006759   520603 
  474000    1.0977632   -4.9464707   -4.9464707   -3.6462866  0.096675748   -4.9464707     1.300184   520603 
  475000    1.0987709   -4.9470662   -4.9470662   -3.6456886   0.15048325   -4.9470662    1.3013776   520603 
  476000    1.0982418    -4.947271    -4.947271   -3.6465201   0.11141558    -4.947271    1.3007509   520603 
  477000    1.0991572   -4.9492638   -4.9492638   -3.6474288   0.12004077   -4.9492638     1.301835   520603 
  478000     1.098864   -4.9492521   -4.9492521   -3.6477643   0.10071635   -4.9492521    1.3014878   520603 
  479000    1.0985146   -4.9497273   -4.9497273   -3.6486533   0.12328243   -4.9497273    1.3010739   520603 
  480000    1.0974475   -4.9484725   -4.9484725   -3.6486624   0.12592375   -4.9484725    1.2998101   520603 
  481000    1.0967949   -4.9480968   -4.9480968   -3.6490597   0.12661273   -4.9480968    1.2990372   520603 
  482000    1.0981301   -4.9500972   -4.9500972   -3.6494787   0.11824569   -4.9500972    1.3006185   520603 
  483000     1.096703    -4.949632    -4.949632   -3.6507037   0.10886202    -4.949632    1.2989283   520603 
  484000     1.096483   -4.9490433   -4.9490433   -3.6503756   0.10405054   -4.9490433    1.2986677   520603 
  485000    1.0980847   -4.9514053   -4.9514053   -3.6508406   0.11362025   -4.9514053    1.3005647   520603 
  486000    1.0984211   -4.9530022   -4.9530022   -3.6520391   0.11067781   -4.9530022    1.3009632   520603 
  487000    1.0951893   -4.9494196   -4.9494196   -3.6522842   0.13746694   -4.9494196    1.2971355   520603 
  488000     1.096566   -4.9521654   -4.9521654   -3.6533993   0.12983246   -4.9521654    1.2987661   520603 
  489000    1.0957227   -4.9506285   -4.9506285   -3.6528613   0.11285274   -4.9506285    1.2977672   520603 
  490000    1.0962135   -4.9519897   -4.9519897   -3.6536412   0.12902244   -4.9519897    1.2983485   520603 
  491000    1.0966637   -4.9529941   -4.9529941   -3.6541123   0.10127768   -4.9529941    1.2988818   520603 
  492000    1.0960721   -4.9533659   -4.9533659   -3.6551849   0.11431771   -4.9533659     1.298181   520603 
  493000    1.0943451   -4.9522914   -4.9522914   -3.6561557   0.11696453   -4.9522914    1.2961357   520603 
  494000    1.0954839   -4.9543192   -4.9543192   -3.6568349   0.11294815   -4.9543192    1.2974844   520603 
  495000    1.0948248   -4.9535594   -4.9535594   -3.6568557   0.11412552   -4.9535594    1.2967037   520603 
  496000    1.0968103   -4.9570958   -4.9570958   -3.6580405   0.12953484   -4.9570958    1.2990553   520603 
  497000    1.0963131   -4.9570036   -4.9570036   -3.6585371   0.12394263   -4.9570036    1.2984665   520603 
  498000    1.0962944   -4.9566332   -4.9566332   -3.6581888   0.13284864   -4.9566332    1.2984444   520603 
  499000    1.0954658   -4.9561299   -4.9561299    -3.658667   0.14317221   -4.9561299    1.2974629   520603 
  500000    1.0944572   -4.9553512   -4.9553512   -3.6590829   0.12351909   -4.9553512    1.2962684   520603 
  501000    1.0954812   -4.9578378   -4.9578378   -3.6603566   0.11724594   -4.9578378    1.2974812   520603 
  502000    1.0941923   -4.9563305   -4.9563305   -3.6603758   0.12088952   -4.9563305    1.2959547   520603 
  503000    1.0944421   -4.9580625   -4.9580625    -3.661812   0.12143654   -4.9580625    1.2962505   520603 
  504000    1.0939092   -4.9586967   -4.9586967   -3.6630774   0.11763318   -4.9586967    1.2956194   520603 
  505000    1.0934661   -4.9595203   -4.9595203   -3.6644257   0.11486307   -4.9595203    1.2950946   520603 
  506000    1.0933405   -4.9585137   -4.9585137   -3.6635679    0.1208637   -4.9585137    1.2949458   520603 
  507000      1.09481   -4.9612155   -4.9612155   -3.6645293   0.12730382   -4.9612155    1.2966863   520603 
  508000    1.0951372   -4.9620095   -4.9620095   -3.6649358   0.12001455   -4.9620095    1.2970737   520603 
  509000      1.09138   -4.9593047   -4.9593047    -3.666681   0.13078925   -4.9593047    1.2926238   520603 
  510000    1.0921085   -4.9608861   -4.9608861   -3.6673995   0.11690031   -4.9608861    1.2934866   520603 
  511000    1.0912322   -4.9602033   -4.9602033   -3.6677545   0.11440603   -4.9602033    1.2924488   520603 
  512000    1.0927708    -4.963127    -4.963127    -3.668856   0.11402473    -4.963127     1.294271   520603 
  513000    1.0920447    -4.963633    -4.963633   -3.6702219   0.11447455    -4.963633    1.2934111   520603 
  514000     1.093709   -4.9657138   -4.9657138   -3.6703316   0.12706683   -4.9657138    1.2953822   520603 
  515000     1.092763   -4.9648764   -4.9648764   -3.6706145   0.13421914   -4.9648764    1.2942619   520603 
  516000     1.094816   -4.9676229   -4.9676229   -3.6709295   0.13608817   -4.9676229    1.2966934   520603 
  517000      1.09271   -4.9649659   -4.9649659   -3.6707669   0.11662046   -4.9649659     1.294199   520603 
  518000    1.0930407   -4.9657452   -4.9657452   -3.6711545    0.1097592   -4.9657452    1.2945907   520603 
  519000    1.0932148   -4.9664197   -4.9664197   -3.6716228   0.10483257   -4.9664197    1.2947969   520603 
  520000    1.0927703   -4.9657426   -4.9657426   -3.6714722   0.11187691   -4.9657426    1.2942704   520603 
  521000    1.0923424   -4.9666104   -4.9666104   -3.6728467   0.12034064   -4.9666104    1.2937637   520603 
  522000    1.0908733   -4.9659662   -4.9659662   -3.6739425    0.1203616   -4.9659662    1.2920236   520603 
  523000    1.0920263   -4.9691865   -4.9691865   -3.6757973   0.12568931   -4.9691865    1.2933892   520603 
  524000    1.0893466   -4.9670468   -4.9670468   -3.6768314   0.13376043   -4.9670468    1.2902154   520603 
  525000    1.0914295   -4.9701129   -4.9701129   -3.6774305   0.12346914   -4.9701129    1.2926824   520603 
  526000    1.0902078   -4.9700883   -4.9700883   -3.6788529   0.11439982   -4.9700883    1.2912354   520603 
  527000    1.0902592   -4.9708216   -4.9708216   -3.6795253   0.10755159   -4.9708216    1.2912963   520603 
  528000    1.0893259   -4.9707579   -4.9707579   -3.6805671  0.093090298   -4.9707579    1.2901909   520603 
  529000    1.0889578   -4.9701909   -4.9701909    -3.680436   0.10663329   -4.9701909    1.2897549   520603 
  530000    1.0894041   -4.9708564   -4.9708564   -3.6805729    0.1072865   -4.9708564    1.2902835   520603 
  531000    1.0886106   -4.9708225   -4.9708225   -3.6814788   0.12306445   -4.9708225    1.2893437   520603 
  532000    1.0892585   -4.9725225   -4.9725225   -3.6824114   0.10703736   -4.9725225    1.2901111   520603 
  533000    1.0896588   -4.9726013   -4.9726013    -3.682016   0.11371484   -4.9726013    1.2905852   520603 
  534000    1.0867065   -4.9706241   -4.9706241   -3.6835356   0.12530263   -4.9706241    1.2870886   520603 
  535000     1.091176   -4.9763243   -4.9763243   -3.6839422   0.12217384   -4.9763243    1.2923821   520603 
  536000    1.0875369   -4.9724968   -4.9724968   -3.6844247   0.11528667   -4.9724968     1.288072   520603 
  537000    1.0874368   -4.9732083   -4.9732083   -3.6852548   0.12043467   -4.9732083    1.2879534   520603 
  538000    1.0879482   -4.9749261   -4.9749261    -3.686367   0.10580393   -4.9749261    1.2885591   520603 
  539000    1.0880349   -4.9754946   -4.9754946   -3.6868328    0.1121499   -4.9754946    1.2886618   520603 
  540000    1.0874795   -4.9754267   -4.9754267   -3.6874226   0.13438983   -4.9754267     1.288004   520603 
  541000    1.0880876   -4.9758895   -4.9758895   -3.6871653  0.099532145   -4.9758895    1.2887242   520603 
  542000    1.0899576   -4.9782225   -4.9782225   -3.6872834   0.10459296   -4.9782225    1.2909391   520603 
  543000    1.0864644   -4.9750665   -4.9750665   -3.6882647   0.12583677   -4.9750665    1.2868018   520603 
  544000    1.0890917   -4.9785785   -4.9785785    -3.688665    0.1272746   -4.9785785    1.2899135   520603 
  545000    1.0876279   -4.9769333   -4.9769333   -3.6887536    0.1234704   -4.9769333    1.2881798   520603 
  546000    1.0878394   -4.9778619   -4.9778619   -3.6894316   0.12536966   -4.9778619    1.2884303   520603 
  547000    1.0873791   -4.9772356   -4.9772356   -3.6893505   0.10393449   -4.9772356    1.2878851   520603 
  548000    1.0858554   -4.9769648   -4.9769648   -3.6908843   0.12461089   -4.9769648    1.2860805   520603 
  549000    1.0858652   -4.9766861   -4.9766861    -3.690594    0.1290587   -4.9766861    1.2860921   520603 
  550000    1.0863464   -4.9784719   -4.9784719   -3.6918098   0.10881831   -4.9784719     1.286662   520603 
  551000    1.0874656   -4.9807756   -4.9807756   -3.6927879   0.10634056   -4.9807756    1.2879876   520603 
  552000    1.0866907   -4.9797749   -4.9797749   -3.6927051   0.11427863   -4.9797749    1.2870698   520603 
  553000    1.0864388   -4.9805845   -4.9805845    -3.693813   0.10294785   -4.9805845    1.2867715   520603 
  554000    1.0855207   -4.9799935   -4.9799935   -3.6943095    0.1172599   -4.9799935     1.285684   520603 
  555000    1.0860675   -4.9809871   -4.9809871   -3.6946554   0.11539563   -4.9809871    1.2863317   520603 
  556000    1.0848049   -4.9804082   -4.9804082   -3.6955719   0.11963916   -4.9804082    1.2848363   520603 
  557000     1.087459   -4.9841095   -4.9841095   -3.6961297   0.12563338   -4.9841095    1.2879798   520603 
  558000    1.0859022   -4.9828539   -4.9828539    -3.696718    0.1093156   -4.9828539    1.2861359   520603 
  559000    1.0833503   -4.9802773   -4.9802773   -3.6971638   0.13505069   -4.9802773    1.2831135   520603 
  560000    1.0835354   -4.9806818   -4.9806818    -3.697349   0.12711277   -4.9806818    1.2833327   520603 
  561000    1.0819877   -4.9787574   -4.9787574   -3.6972579   0.12299972   -4.9787574    1.2814996   520603 
  562000    1.0860906   -4.9838671   -4.9838671   -3.6975081   0.11551366   -4.9838671    1.2863591   520603 
  563000    1.0863709   -4.9850313   -4.9850313   -3.6983402   0.12025261   -4.9850313    1.2866911   520603 
  564000    1.0838237   -4.9831643   -4.9831643   -3.6994902   0.13268897   -4.9831643    1.2836741   520603 
  565000    1.0813677   -4.9812219   -4.9812219   -3.7004566  0.097470018   -4.9812219    1.2807653   520603 
  566000    1.0830852   -4.9836586   -4.9836586   -3.7008592   0.10548514   -4.9836586    1.2827995   520603 
  567000    1.0834617   -4.9849311   -4.9849311   -3.7016856   0.10863978   -4.9849311    1.2832454   520603 
  568000    1.0846177    -4.986567    -4.986567   -3.7019524   0.11760523    -4.986567    1.2846146   520603 
  569000    1.0847262   -4.9868913   -4.9868913   -3.7021482   0.11723684   -4.9868913    1.2847431   520603 
  570000    1.0835224   -4.9857588   -4.9857588   -3.7024415  0.097283561   -4.9857588    1.2833173   520603 
  571000     1.081754   -4.9838041   -4.9838041   -3.7025813    0.1315533   -4.9838041    1.2812227   520603 
  572000    1.0826847   -4.9860251   -4.9860251      -3.7037   0.10672117   -4.9860251    1.2823251   520603 
  573000    1.0832029    -4.986612    -4.986612   -3.7036731   0.11333839    -4.986612    1.2829389   520603 
  574000    1.0817903   -4.9856494   -4.9856494   -3.7043836   0.12919537   -4.9856494    1.2812658   520603 
  575000    1.0827335   -4.9875217   -4.9875217   -3.7051388   0.11912465   -4.9875217    1.2823829   520603 
  576000    1.0833687    -4.988755    -4.988755   -3.7056198   0.12831912    -4.988755    1.2831352   520603 
  577000    1.0812858   -4.9867863   -4.9867863   -3.7061179   0.11833927   -4.9867863    1.2806683   520603 
  578000    1.0816194   -4.9871879   -4.9871879   -3.7061246   0.12202748   -4.9871879    1.2810633   520603 
  579000     1.080619   -4.9870275   -4.9870275   -3.7071491  0.094614946   -4.9870275    1.2798785   520603 
  580000    1.0812347   -4.9875943   -4.9875943   -3.7069866  0.098161746   -4.9875943    1.2806077   520603 
  581000    1.0829878   -4.9897989   -4.9897989   -3.7071149   0.12785439   -4.9897989     1.282684   520603 
  582000    1.0831237   -4.9909662   -4.9909662   -3.7081211   0.10423947   -4.9909662    1.2828451   520603 
  583000    1.0832695   -4.9919959   -4.9919959   -3.7089782    0.1250756   -4.9919959    1.2830178   520603 
  584000     1.082474   -4.9920991   -4.9920991   -3.7100235   0.11289325   -4.9920991    1.2820756   520603 
  585000    1.0813711   -4.9902901   -4.9902901   -3.7095207   0.13089258   -4.9902901    1.2807694   520603 
  586000    1.0802621   -4.9912904   -4.9912904   -3.7118345  0.096086367   -4.9912904    1.2794558   520603 
  587000    1.0795061    -4.989852    -4.989852   -3.7112916   0.13819256    -4.989852    1.2785604   520603 
  588000    1.0816913   -4.9928472   -4.9928472   -3.7116987   0.12599516   -4.9928472    1.2811485   520603 
  589000    1.0810623   -4.9933613   -4.9933613   -3.7129578   0.10312405   -4.9933613    1.2804035   520603 
  590000    1.0787816   -4.9905719   -4.9905719   -3.7128696  0.097108283   -4.9905719    1.2777023   520603 
  591000    1.0791291    -4.991155    -4.991155   -3.7130411   0.10896463    -4.991155    1.2781138   520603 
  592000    1.0794063   -4.9917076   -4.9917076   -3.7132654  0.095887565   -4.9917076    1.2784423   520603 
  593000     1.081484   -4.9939309   -4.9939309   -3.7130279   0.10991836   -4.9939309     1.280903   520603 
  594000    1.0819298   -4.9962981   -4.9962981   -3.7148671  0.093590951   -4.9962981     1.281431   520603 
  595000    1.0807768   -4.9946292   -4.9946292   -3.7145637   0.11182858   -4.9946292    1.2800655   520603 
  596000     1.081655   -4.9973252   -4.9973252   -3.7162197   0.10913419   -4.9973252    1.2811055   520603 
  597000     1.080069   -4.9951462   -4.9951462   -3.7159191   0.10405212   -4.9951462    1.2792271   520603 
  598000    1.0780875   -4.9935363   -4.9935363   -3.7166562    0.1248118   -4.9935363    1.2768802   520603 
  599000    1.0790517   -4.9954124   -4.9954124   -3.7173902   0.11056004   -4.9954124    1.2780222   520603 
  600000    1.0788897   -4.9963739   -4.9963739   -3.7185436  0.095030207   -4.9963739    1.2778303   520603 
  601000    1.0786362   -4.9957248   -4.9957248   -3.7181947   0.10160251   -4.9957248    1.2775302   520603 
  602000    1.0788098   -4.9960457   -4.9960457     -3.71831   0.11356682   -4.9960457    1.2777357   520603 
  603000    1.0789663   -4.9960003   -4.9960003   -3.7180793   0.10559634   -4.9960003     1.277921   520603 
  604000    1.0786649   -4.9970431   -4.9970431    -3.719479   0.11716958   -4.9970431    1.2775641   520603 
  605000    1.0773054   -4.9965618   -4.9965618    -3.720608    0.1152627   -4.9965618    1.2759539   520603 
  606000    1.0775386   -4.9974485   -4.9974485   -3.7212184   0.11298392   -4.9974485    1.2762301   520603 
  607000    1.0779333   -4.9984644   -4.9984644   -3.7217668   0.11120466   -4.9984644    1.2766975   520603 
  608000    1.0763353   -4.9971942   -4.9971942   -3.7223893   0.11157775   -4.9971942    1.2748049   520603 
  609000    1.0784546   -5.0007022   -5.0007022   -3.7233872   0.12030369   -5.0007022    1.2773151   520603 
  610000    1.0752462   -4.9980126   -4.9980126   -3.7244976  0.099482509   -4.9980126     1.273515   520603 
  611000    1.0761134   -4.9988674   -4.9988674   -3.7243253    0.1219256   -4.9988674    1.2745421   520603 
  612000     1.077777     -5.00136     -5.00136   -3.7248475   0.13062723     -5.00136    1.2765125   520603 
  613000    1.0774423   -5.0019775   -5.0019775   -3.7258614  0.096054831   -5.0019775     1.276116   520603 
  614000    1.0781759   -5.0025596   -5.0025596   -3.7255747   0.09723226   -5.0025596    1.2769849   520603 
  615000    1.0793444    -5.003474    -5.003474   -3.7251052   0.11296957    -5.003474    1.2783688   520603 
  616000    1.0780938    -5.002268    -5.002268   -3.7253803   0.11240492    -5.002268    1.2768877   520603 
  617000    1.0770787   -5.0014506   -5.0014506   -3.7257653   0.12238364   -5.0014506    1.2756854   520603 
  618000    1.0776197   -5.0022953   -5.0022953   -3.7259691   0.10983903   -5.0022953    1.2763262   520603 
  619000    1.0757763   -5.0014175   -5.0014175   -3.7272746    0.1126564   -5.0014175    1.2741428   520603 
  620000    1.0779518   -5.0041923   -5.0041923   -3.7274728   0.10926895   -5.0041923    1.2767195   520603 
  621000      1.07645   -5.0031583   -5.0031583   -3.7282175   0.10714916   -5.0031583    1.2749408   520603 
  622000    1.0769683     -5.00359     -5.00359   -3.7280354   0.10916253     -5.00359    1.2755546   520603 
  623000    1.0765711   -5.0023864   -5.0023864   -3.7273022   0.12903966   -5.0023864    1.2750842   520603 
  624000    1.0768401   -5.0043637   -5.0043637   -3.7289609   0.10064783   -5.0043637    1.2754028   520603 
  625000    1.0761865   -5.0039379   -5.0039379   -3.7293093    0.1137947   -5.0039379    1.2746287   520603 
  626000    1.0752217   -5.0036738   -5.0036738   -3.7301879   0.10955937   -5.0036738    1.2734859   520603 
  627000     1.076516    -5.006083    -5.006083    -3.731064   0.09795606    -5.006083     1.275019   520603 
  628000    1.0766823     -5.00754     -5.00754   -3.7323241   0.10695107     -5.00754    1.2752159   520603 
  629000    1.0724251   -5.0025587   -5.0025587   -3.7323851   0.12383658   -5.0025587    1.2701737   520603 
  630000    1.0760425   -5.0069341   -5.0069341    -3.732476  0.097438022   -5.0069341    1.2744581   520603 
  631000    1.0755011   -5.0065636   -5.0065636   -3.7327467   0.10157622   -5.0065636    1.2738169   520603 
  632000     1.074256   -5.0051686   -5.0051686   -3.7328264   0.11291004   -5.0051686    1.2723422   520603 
  633000    1.0754223   -5.0067354   -5.0067354   -3.7330118   0.12340876   -5.0067354    1.2737236   520603 
  634000    1.0729079   -5.0058908   -5.0058908   -3.7351453   0.10904072   -5.0058908    1.2707456   520603 
  635000    1.0739268   -5.0077452   -5.0077452   -3.7357929  0.091513453   -5.0077452    1.2719523   520603 
  636000    1.0745802   -5.0080078   -5.0080078   -3.7352816  0.070601961   -5.0080078    1.2727262   520603 
  637000    1.0726465    -5.006628    -5.006628   -3.7361921   0.11514751    -5.006628    1.2704359   520603 
  638000    1.0754889   -5.0099192   -5.0099192   -3.7361168  0.097187662   -5.0099192    1.2738024   520603 
  639000    1.0747672   -5.0089912   -5.0089912   -3.7360435   0.11397967   -5.0089912    1.2729477   520603 
  640000    1.0753044    -5.010397    -5.010397   -3.7368131   0.10593941    -5.010397    1.2735839   520603 
  641000    1.0738468   -5.0089902   -5.0089902   -3.7371326   0.10545078   -5.0089902    1.2718576   520603 
  642000    1.0739367   -5.0106755   -5.0106755   -3.7387115   0.12099159   -5.0106755     1.271964   520603 
  643000    1.0736357   -5.0106462   -5.0106462   -3.7390386   0.11839021   -5.0106462    1.2716075   520603 
  644000    1.0747804   -5.0116756   -5.0116756   -3.7387124   0.10056131   -5.0116756    1.2729633   520603 
  645000    1.0750158   -5.0123227   -5.0123227   -3.7390806   0.11413446   -5.0123227    1.2732421   520603 
  646000    1.0744147   -5.0127348   -5.0127348   -3.7402046   0.10752765   -5.0127348    1.2725302   520603 
  647000    1.0741605   -5.0120661   -5.0120661   -3.7398369   0.11068812   -5.0120661    1.2722292   520603 
  648000    1.0735129   -5.0113208   -5.0113208   -3.7398587   0.12133306   -5.0113208    1.2714621   520603 
[...]
 1007000    1.0501261   -5.0882127   -5.0882127   -3.8444497  0.092561694   -5.0882127    1.2437629   520603 
 1008000    1.0499774   -5.0883573   -5.0883573   -3.8447706  0.094510149   -5.0883573    1.2435867   520603 
 1009000    1.0480845   -5.0867016   -5.0867016   -3.8453567  0.082475196   -5.0867016    1.2413449   520603 
 1010000    1.0499273    -5.089119    -5.089119   -3.8455916  0.094681326    -5.089119    1.2435275   520603 
 1011000    1.0484748   -5.0876025   -5.0876025   -3.8457954  0.088553475   -5.0876025    1.2418072   520603 
 1012000    1.0503365   -5.0910012   -5.0910012    -3.846989     0.105949   -5.0910012    1.2440121   520603 
 1013000    1.0498884   -5.0903101   -5.0903101   -3.8468287  0.081044319   -5.0903101    1.2434814   520603 
 1014000     1.051377   -5.0921634   -5.0921634    -3.846919   0.10215521   -5.0921634    1.2452444   520603 
 1015000    1.0513555   -5.0919052   -5.0919052   -3.8466862  0.078654065   -5.0919052     1.245219   520603 
 1016000    1.0504535   -5.0903598   -5.0903598   -3.8462092  0.083891311   -5.0903598    1.2441507   520603 
 1017000    1.0493963   -5.0899221   -5.0899221   -3.8470235   0.10030489   -5.0899221    1.2428986   520603 
 1018000    1.0513149   -5.0918827   -5.0918827   -3.8467117  0.077971693   -5.0918827    1.2451709   520603 
 1019000    1.0498384   -5.0899447   -5.0899447   -3.8465225  0.095160394   -5.0899447    1.2434222   520603 
 1020000    1.0516005   -5.0922709   -5.0922709   -3.8467617   0.10809398   -5.0922709    1.2455092   520603 
 1021000    1.0487842   -5.0892429   -5.0892429   -3.8470694  0.090697926   -5.0892429    1.2421735   520603 
 1022000    1.0510998   -5.0922507   -5.0922507   -3.8473345  0.080361298   -5.0922507    1.2449162   520603 
 1023000    1.0495852   -5.0900748   -5.0900748   -3.8469525  0.088175682   -5.0900748    1.2431223   520603 
 1024000    1.0500108   -5.0911629   -5.0911629   -3.8475366  0.078056558   -5.0911629    1.2436263   520603 
 1025000    1.0498696   -5.0909965   -5.0909965   -3.8475373   0.10225615   -5.0909965    1.2434592   520603 
 1026000    1.0510955   -5.0922581   -5.0922581    -3.847347  0.084408521   -5.0922581    1.2449111   520603 
 1027000    1.0512872   -5.0929682   -5.0929682   -3.8478301    0.0941327   -5.0929682    1.2451381   520603 
 1028000    1.0500314   -5.0914671   -5.0914671   -3.8478163   0.11576462   -5.0914671    1.2436507   520603 
 1029000    1.0504211    -5.091121    -5.091121   -3.8470088  0.095072762    -5.091121    1.2441123   520603 
 1030000    1.0502483    -5.091802    -5.091802   -3.8478944  0.079013691    -5.091802    1.2439076   520603 
 1031000    1.0479066   -5.0909661   -5.0909661    -3.849832  0.091242126   -5.0909661    1.2411342   520603 
 1032000    1.0489677   -5.0917183   -5.0917183   -3.8493274  0.073240406   -5.0917183    1.2423909   520603 
 1033000    1.0521176   -5.0966463   -5.0966463   -3.8505246  0.089563992   -5.0966463    1.2461217   520603 
 1034000     1.049703   -5.0941278   -5.0941278    -3.850866  0.081550826   -5.0941278    1.2432618   520603 
 1035000    1.0477581    -5.092513    -5.092513   -3.8515548  0.080476059    -5.092513    1.2409583   520603 
 1036000     1.050619   -5.0952476   -5.0952476   -3.8509009  0.093829833   -5.0952476    1.2443466   520603 
 1037000    1.0497902   -5.0950483   -5.0950483   -3.8516833  0.093907028   -5.0950483     1.243365   520603 
 1038000    1.0468201   -5.0919916   -5.0919916   -3.8521443  0.091970918   -5.0919916    1.2398473   520603 
 1039000    1.0506137   -5.0965098   -5.0965098   -3.8521693  0.078814297   -5.0965098    1.2443405   520603 
 1040000    1.0483401    -5.093184    -5.093184   -3.8515364   0.10053985    -5.093184    1.2416476   520603 
 1041000    1.0482607   -5.0925795   -5.0925795    -3.851026   0.10213403   -5.0925795    1.2415535   520603 
 1042000    1.0493959   -5.0939106   -5.0939106   -3.8510125  0.072453316   -5.0939106    1.2428981   520603 
 1043000    1.0473804   -5.0919071   -5.0919071   -3.8513962  0.099346405   -5.0919071    1.2405109   520603 
 1044000    1.0498675   -5.0951921   -5.0951921   -3.8517355  0.068920309   -5.0951921    1.2434566   520603 
 1045000    1.0487351   -5.0938132   -5.0938132   -3.8516977  0.085520419   -5.0938132    1.2421155   520603 
 1046000     1.049518   -5.0943453   -5.0943453   -3.8513026   0.09006495   -5.0943453    1.2430427   520603 
 1047000    1.0497181   -5.0950488   -5.0950488   -3.8517691   0.10139679   -5.0950488    1.2432797   520603 
 1048000    1.0501858   -5.0957165   -5.0957165   -3.8518829   0.07756735   -5.0957165    1.2438336   520603 
 1049000    1.0485616   -5.0942953   -5.0942953   -3.8523853  0.090434329   -5.0942953      1.24191   520603 
 1050000    1.0490584   -5.0952739   -5.0952739   -3.8527756  0.087210838   -5.0952739    1.2424984   520603 
 1051000    1.0495227   -5.0959837   -5.0959837   -3.8529355  0.091681647   -5.0959837    1.2430482   520603 
 1052000     1.050114   -5.0961573   -5.0961573   -3.8524088   0.10076155   -5.0961573    1.2437485   520603 
 1053000    1.0494698    -5.095876    -5.095876   -3.8528903  0.092989948    -5.095876    1.2429856   520603 
 1054000    1.0491865   -5.0958682   -5.0958682   -3.8532182    0.1065821   -5.0958682      1.24265   520603 
 1055000    1.0496373   -5.0988405   -5.0988405   -3.8556565  0.069560236   -5.0988405     1.243184   520603 
 1056000    1.0497826    -5.098331    -5.098331    -3.854975  0.086906002    -5.098331     1.243356   520603 
 1057000    1.0470211   -5.0957383   -5.0957383   -3.8556529   0.09659219   -5.0957383    1.2400854   520603 
 1058000    1.0459112   -5.0944964   -5.0944964   -3.8557256  0.078022193   -5.0944964    1.2387708   520603 
 1059000    1.0471738   -5.0963767   -5.0963767   -3.8561104  0.094420812   -5.0963767    1.2402663   520603 
 1060000    1.0472696   -5.0966386   -5.0966386   -3.8562589   0.07579809   -5.0966386    1.2403797   520603 
 1061000     1.048239    -5.097666    -5.097666   -3.8561381  0.090141714    -5.097666    1.2415278   520603 
 1062000    1.0468623   -5.0967091   -5.0967091   -3.8568118  0.082269236   -5.0967091    1.2398973   520603 
 1063000    1.0469518   -5.0969092   -5.0969092   -3.8569059   0.10541188   -5.0969092    1.2400033   520603 
 1064000    1.0479218   -5.0981765   -5.0981765   -3.8570244  0.090920349   -5.0981765    1.2411521   520603 
 1065000    1.0478132   -5.0979945   -5.0979945    -3.856971   0.10551629   -5.0979945    1.2410235   520603 
 1066000    1.0482606   -5.0977713   -5.0977713   -3.8562179  0.099870091   -5.0977713    1.2415534   520603 
 1067000    1.0474712   -5.0973136   -5.0973136   -3.8566952  0.090138458   -5.0973136    1.2406185   520603 
 1068000    1.0487913   -5.0989832   -5.0989832   -3.8568013   0.06661381   -5.0989832    1.2421819   520603 
 1069000    1.0493276   -5.0997885   -5.0997885   -3.8569713   0.10201408   -5.0997885    1.2428172   520603 
 1070000    1.0496381   -5.1008615   -5.1008615   -3.8576766   0.10859055   -5.1008615    1.2431849   520603 
 1071000    1.0471257   -5.0990072   -5.0990072    -3.858798  0.087513077   -5.0990072    1.2402093   520603 
 1072000    1.0496216   -5.1020324   -5.1020324   -3.8588671  0.082891487   -5.1020324    1.2431654   520603 
 1073000    1.0472768   -5.0991654   -5.0991654   -3.8587772   0.10338357   -5.0991654    1.2403883   520603 
 1074000    1.0486496   -5.1004153   -5.1004153   -3.8584012  0.090058568   -5.1004153    1.2420141   520603 
 1075000    1.0494638   -5.1014404   -5.1014404   -3.8584619  0.083917315   -5.1014404    1.2429784   520603 
 1076000    1.0500819   -5.1021485   -5.1021485   -3.8584379  0.087288162   -5.1021485    1.2437106   520603 
 1077000    1.0495958   -5.1023468   -5.1023468    -3.859212   0.11400529   -5.1023468    1.2431348   520603 
 1078000    1.0483562   -5.1001326   -5.1001326    -3.858466  0.095068706   -5.1001326    1.2416667   520603 
 1079000    1.0498138    -5.101618    -5.101618   -3.8582251  0.095649878    -5.101618     1.243393   520603 
 1080000    1.0478111   -5.1003648   -5.1003648   -3.8593438  0.093647621   -5.1003648     1.241021   520603 
 1081000    1.0472491   -5.1001197   -5.1001197   -3.8597643  0.088300826   -5.1001197    1.2403554   520603 
 1082000    1.0469706   -5.0995534   -5.0995534   -3.8595279   0.10573749   -5.0995534    1.2400255   520603 
 1083000    1.0473652   -5.1000196   -5.1000196   -3.8595267  0.090213363   -5.1000196     1.240493   520603 
 1084000     1.047555   -5.1003429   -5.1003429   -3.8596252  0.087283849   -5.1003429    1.2407177   520603 
 1085000    1.0466886   -5.0991798   -5.0991798   -3.8594883   0.10777534   -5.0991798    1.2396915   520603 
 1086000    1.0469064   -5.1000488   -5.1000488   -3.8600993  0.084709786   -5.1000488    1.2399496   520603 
 1087000    1.0480561   -5.1012213   -5.1012213     -3.85991  0.096739016   -5.1012213    1.2413113   520603 
 1088000    1.0478332   -5.1017464   -5.1017464   -3.8606992  0.078098827   -5.1017464    1.2410472   520603 
 1089000    1.0476891   -5.1007932   -5.1007932   -3.8599167    0.1015216   -5.1007932    1.2408765   520603 
 1090000    1.0476872   -5.1006786   -5.1006786   -3.8598043  0.088870439   -5.1006786    1.2408743   520603 
 1091000    1.0463692   -5.0998774   -5.0998774   -3.8605642  0.090863075   -5.0998774    1.2393132   520603 
 1092000    1.0482945   -5.1033388   -5.1033388   -3.8617453  0.093733908   -5.1033388    1.2415936   520603 
 1093000    1.0468223   -5.1024112   -5.1024112   -3.8625613  0.089324849   -5.1024112      1.23985   520603 
 1094000    1.0484661   -5.1051427   -5.1051427   -3.8633458  0.089231348   -5.1051427    1.2417968   520603 
 1095000    1.0481352   -5.1039828   -5.1039828   -3.8625779   0.10854661   -5.1039828    1.2414049   520603 
 1096000    1.0478702   -5.1038641   -5.1038641   -3.8627731  0.097483939   -5.1038641     1.241091   520603 
 1097000      1.04801   -5.1043255   -5.1043255    -3.863069    0.1012792   -5.1043255    1.2412566   520603 
 1098000     1.045024   -5.1014361   -5.1014361   -3.8637162   0.10003795   -5.1014361      1.23772   520603 
 1099000    1.0474618   -5.1051235   -5.1051235   -3.8645162  0.082479043   -5.1051235    1.2406073   520603 
 1100000    1.0465522   -5.1044085   -5.1044085   -3.8648785  0.080465256   -5.1044085      1.23953   520603 
 1101000    1.0464438   -5.1045776   -5.1045776    -3.865176  0.096135261   -5.1045776    1.2394017   520603 
 1102000     1.047669    -5.106943    -5.106943   -3.8660903  0.080625664    -5.106943    1.2408527   520603 
 1103000    1.0450146   -5.1042001   -5.1042001   -3.8664912  0.078162961   -5.1042001    1.2377089   520603 
 1104000    1.0475171   -5.1070245   -5.1070245   -3.8663517   0.10368878   -5.1070245    1.2406728   520603 
 1105000    1.0463525   -5.1055315   -5.1055315    -3.866238   0.07686277   -5.1055315    1.2392935   520603 
 1106000    1.0456171   -5.1042084   -5.1042084    -3.865786  0.098361783   -5.1042084    1.2384225   520603 
 1107000    1.0459827   -5.1042955   -5.1042955     -3.86544   0.10284879   -5.1042955    1.2388555   520603 
 1108000    1.0452965   -5.1038146   -5.1038146   -3.8657718  0.088430394   -5.1038146    1.2380428   520603 
 1109000    1.0439588   -5.1029609   -5.1029609   -3.8665026  0.082591137   -5.1029609    1.2364584   520603 
 1110000    1.0451018   -5.1044184   -5.1044184   -3.8666062   0.10338127   -5.1044184    1.2378122   520603 
 1111000    1.0448418   -5.1047079   -5.1047079   -3.8672038  0.073270878   -5.1047079    1.2375042   520603 
 1112000    1.0470931   -5.1071479   -5.1071479   -3.8669772  0.080401314   -5.1071479    1.2401707   520603 
 1113000    1.0464332   -5.1064768   -5.1064768   -3.8670877  0.097149176   -5.1064768    1.2393891   520603 
 1114000     1.045939   -5.1062705   -5.1062705   -3.8674668  0.096937517   -5.1062705    1.2388037   520603 
 1115000    1.0451178   -5.1059114   -5.1059114   -3.8680803   0.10252446   -5.1059114    1.2378311   520603 
 1116000    1.0450978   -5.1066368   -5.1066368   -3.8688294  0.097404578   -5.1066368    1.2378074   520603 
 1117000    1.0452139   -5.1066118   -5.1066118   -3.8686669  0.097970859   -5.1066118    1.2379449   520603 
 1118000     1.043719   -5.1055514   -5.1055514    -3.869377  0.089534476   -5.1055514    1.2361744   520603 
 1119000     1.044391   -5.1052624   -5.1052624   -3.8682921  0.077137838   -5.1052624    1.2369703   520603 
 1120000    1.0470277   -5.1090962   -5.1090962    -3.869003  0.072655058   -5.1090962    1.2400932   520603 
 1121000    1.0451018   -5.1072484   -5.1072484   -3.8694363   0.08229928   -5.1072484    1.2378121   520603 
 1122000    1.0453135   -5.1071753   -5.1071753   -3.8691124  0.075838961   -5.1071753    1.2380629   520603 
 1123000    1.0449543   -5.1083329   -5.1083329   -3.8706955   0.09595777   -5.1083329    1.2376374   520603 
 1124000    1.0454106   -5.1088444   -5.1088444   -3.8706665  0.094301745   -5.1088444    1.2381778   520603 
 1125000    1.0473326   -5.1111716   -5.1111716   -3.8707173   0.10588851   -5.1111716    1.2404543   520603 
 1126000    1.0444829   -5.1087222   -5.1087222    -3.871643  0.094818604   -5.1087222    1.2370792   520603 
 1127000    1.0464134   -5.1105749   -5.1105749   -3.8712094  0.098799701   -5.1105749    1.2393656   520603 
 1128000    1.0455155   -5.1101756   -5.1101756   -3.8718734  0.097002018   -5.1101756    1.2383021   520603 
 1129000    1.0462775   -5.1107316   -5.1107316    -3.871527  0.091135546   -5.1107316    1.2392046   520603 
 1130000      1.04693    -5.112148    -5.112148   -3.8721706   0.10249596    -5.112148    1.2399774   520603 
 1131000    1.0457219   -5.1112092   -5.1112092   -3.8726626  0.071190605   -5.1112092    1.2385466   520603 
 1132000    1.0456849   -5.1113619   -5.1113619   -3.8728592   0.08536471   -5.1113619    1.2385027   520603 
 1133000    1.0431069   -5.1077516   -5.1077516   -3.8723022  0.089639455   -5.1077516    1.2354494   520603 
 1134000    1.0444968   -5.1095694   -5.1095694   -3.8724738  0.089095169   -5.1095694    1.2370956   520603 
 1135000    1.0423558   -5.1072917   -5.1072917   -3.8727318  0.081966672   -5.1072917    1.2345599   520603 
 1136000    1.0451787   -5.1108245   -5.1108245   -3.8729213    0.0749799   -5.1108245    1.2379032   520603 
 1137000    1.0461862   -5.1124051   -5.1124051   -3.8733086  0.092815154   -5.1124051    1.2390965   520603 
 1138000    1.0457855   -5.1124941   -5.1124941   -3.8738721  0.081465867   -5.1124941     1.238622   520603 
 1139000    1.0463938   -5.1137449   -5.1137449   -3.8744024  0.088676907   -5.1137449    1.2393424   520603 
 1140000    1.0434561    -5.110808    -5.110808    -3.874945  0.095788404    -5.110808     1.235863   520603 
 1141000    1.0446952    -5.112195    -5.112195   -3.8748645  0.091521126    -5.112195    1.2373305   520603 
 1142000    1.0459905   -5.1135176   -5.1135176   -3.8746528  0.091702235   -5.1135176    1.2388648   520603 
 1143000    1.0446644   -5.1130443   -5.1130443   -3.8757501  0.095559432   -5.1130443    1.2372942   520603 
 1144000     1.043226   -5.1119209   -5.1119209   -3.8763304   0.10100763   -5.1119209    1.2355905   520603 
 1145000    1.0439763    -5.112432    -5.112432   -3.8759528  0.083234937    -5.112432    1.2364792   520603 
 1146000    1.0438838    -5.112469    -5.112469   -3.8760994  0.086930913    -5.112469    1.2363696   520603 
 1147000    1.0460251   -5.1151617   -5.1151617    -3.876256  0.089009433   -5.1151617    1.2389057   520603 
 1148000    1.0472639   -5.1163142   -5.1163142   -3.8759412  0.081711449   -5.1163142     1.240373   520603 
 1149000      1.04462   -5.1139566   -5.1139566    -3.876715  0.080772507   -5.1139566    1.2372415   520603 
 1150000    1.0453758   -5.1143983   -5.1143983   -3.8762616  0.066891851   -5.1143983    1.2381367   520603 
 1151000    1.0445344   -5.1135261   -5.1135261   -3.8763859  0.089544802   -5.1135261    1.2371401   520603 
 1152000     1.046021    -5.115314    -5.115314   -3.8764132   0.08473105    -5.115314    1.2389008   520603 
 1153000    1.0455248   -5.1155331   -5.1155331   -3.8772199   0.10854843   -5.1155331    1.2383132   520603 
 1154000    1.0463797   -5.1165782   -5.1165782   -3.8772526    0.0786958   -5.1165782    1.2393257   520603 
 1155000    1.0465538   -5.1171211   -5.1171211   -3.8775891  0.098819478   -5.1171211     1.239532   520603 
 1156000      1.04542   -5.1154243   -5.1154243   -3.8772353  0.069085054   -5.1154243     1.238189   520603 
 1157000    1.0460089   -5.1157426   -5.1157426   -3.8768561  0.093760779   -5.1157426    1.2388865   520603 
 1158000    1.0457714   -5.1154736   -5.1154736   -3.8768683  0.081618351   -5.1154736    1.2386052   520603 
 1159000    1.0452094   -5.1143901   -5.1143901   -3.8764505   0.10408965   -5.1143901    1.2379396   520603 
 1160000    1.0431936   -5.1125062   -5.1125062   -3.8769541   0.09001066   -5.1125062    1.2355521   520603 
 1161000    1.0452634   -5.1153533   -5.1153533   -3.8773497   0.10068465   -5.1153533    1.2380035   520603 
 1162000    1.0450642   -5.1160107   -5.1160107   -3.8782431  0.086531446   -5.1160107    1.2377676   520603 
 1163000     1.044708   -5.1145904   -5.1145904   -3.8772446  0.080632739   -5.1145904    1.2373457   520603 
 1164000     1.044629   -5.1138004   -5.1138004   -3.8765482  0.081600716   -5.1138004    1.2372522   520603 
 1165000    1.0454232   -5.1151149   -5.1151149   -3.8769221  0.082108202   -5.1151149    1.2381928   520603 
 1166000    1.0427416   -5.1129794   -5.1129794   -3.8779627  0.080633744   -5.1129794    1.2350167   520603 
 1167000    1.0450737    -5.116662    -5.116662   -3.8788831  0.098034535    -5.116662    1.2377789   520603 
 1168000    1.0451888   -5.1161475   -5.1161475   -3.8782323  0.096717892   -5.1161475    1.2379152   520603 
 1169000    1.0451436   -5.1153335   -5.1153335   -3.8774719   0.07431614   -5.1153335    1.2378617   520603 
 1170000    1.0451992   -5.1155987   -5.1155987   -3.8776712  0.080405272   -5.1155987    1.2379275   520603 
 1171000    1.0462457   -5.1177735   -5.1177735   -3.8786065  0.089707053   -5.1177735    1.2391669   520603 
 1172000    1.0445306   -5.1151171   -5.1151171   -3.8779815  0.084060392   -5.1151171    1.2371356   520603 
 1173000    1.0456813   -5.1159453   -5.1159453   -3.8774468  0.081654253   -5.1159453    1.2384985   520603 
 1174000    1.0461649   -5.1172927   -5.1172927   -3.8782214  0.099372392   -5.1172927    1.2390713   520603 
 1175000    1.0446948   -5.1156346   -5.1156346   -3.8783045  0.093982078   -5.1156346    1.2373301   520603 
 1176000    1.0460747   -5.1170908   -5.1170908   -3.8781263  0.076915121   -5.1170908    1.2389645   520603 
 1177000    1.0444171   -5.1165439   -5.1165439   -3.8795427   0.10287672   -5.1165439    1.2370013   520603 
 1178000    1.0438869   -5.1161961   -5.1161961   -3.8798228  0.075269648   -5.1161961    1.2363733   520603 
 1179000    1.0446867   -5.1174718   -5.1174718   -3.8801512  0.074973499   -5.1174718    1.2373205   520603 
 1180000    1.0449455   -5.1180765   -5.1180765   -3.8804495  0.078689801   -5.1180765     1.237627   520603 
 1181000    1.0448434   -5.1192722   -5.1192722   -3.8817661  0.069357714   -5.1192722    1.2375061   520603 
 1182000    1.0442135   -5.1194188   -5.1194188   -3.8826588  0.070732809   -5.1194188      1.23676   520603 
 1183000     1.044022   -5.1191198   -5.1191198   -3.8825865   0.10744456   -5.1191198    1.2365333   520603 
 1184000    1.0436278   -5.1186412   -5.1186412   -3.8825749  0.090566244   -5.1186412    1.2360664   520603 
 1185000    1.0430418     -5.11858     -5.11858   -3.8832076  0.087822696     -5.11858    1.2353723   520603 
 1186000    1.0451449   -5.1216083   -5.1216083    -3.883745  0.077197465   -5.1216083    1.2378633   520603 
 1187000    1.0440151   -5.1212135   -5.1212135   -3.8846884  0.092527517   -5.1212135    1.2365251   