LAMMPS (29 Oct 2020)
  using 1 OpenMP thread(s) per MPI task
Created orthogonal box = (0.0000000 0.0000000 0.0000000) to (80.000000 80.000000 80.000000)
  2 by 4 by 4 MPI processor grid
Lattice spacing in x,y,z = 1.0000000 1.0000000 1.0000000
Created 512000 atoms
  create_atoms CPU = 0.071 seconds
512000 atoms in group solvent
Reading data file ...
  orthogonal box = (0.0000000 0.0000000 0.0000000) to (80.000000 80.000000 160.00000)
  2 by 2 by 8 MPI processor grid
Finding 1-2 1-3 1-4 neighbors ...
  special bond factors lj:    0.0      0.0      0.0     
  special bond factors coul:  0.0      0.0      0.0     
     0 = max # of 1-2 neighbors
     0 = max # of 1-3 neighbors
     0 = max # of 1-4 neighbors
     1 = max # of special neighbors
  special bonds CPU = 0.443 seconds
  read_data CPU = 0.462 seconds
Balancing ...
Neighbor list info ...
  update every 1 steps, delay 10 steps, check yes
  max neighbors/atom: 2000, page size: 100000
  master list distance cutoff = 2.9
  ghost atom cutoff = 2.9
  binsize = 1.45, bins = 56 56 111
  1 neighbor lists, perpetual/occasional/extra = 1 0 0
  (1) pair lj/cut/opt, perpetual
      attributes: half, newton on
      pair build: half/bin/newton
      stencil: half/bin/3d/newton
      bin: standard
 rebalancing time: 0.033 seconds
  iteration count = 5
  initial/final maximal load/proc = 32000.000 19200.000
  initial/final imbalance factor  = 2.0000000 1.2000000
  x cuts: 0.0000000 0.5 1.0000000
  y cuts: 0.0000000 0.5 1.0000000
  z cuts: 0.0000000 0.0625 0.12890625 0.1875 0.2578125 0.30859375 0.38671875 0.4375 1.0000000
WARNING: Ignoring 'compress yes' for molecular system (src/delete_atoms.cpp:125)
Deleted 19200 atoms, new total = 492800
WARNING: Ignoring 'compress yes' for molecular system (src/delete_atoms.cpp:125)
Deleted 0 atoms, new total = 492800
dynamic group thermo defined
New timer settings: style=full  mode=nosync  timeout=off
Setting up Verlet run ...
  Unit style    : lj
  Current step  : 0
  Time step     : 0.0025
Per MPI rank memory allocation (min/avg/max) = 21.45 | 22.19 | 22.73 Mbytes
Step Temp E_pair E_vdwl TotEng Press PotEng KinEng Volume 
       0   0.49998514   -3.2974116   -3.2974116   -2.5474355    8.3319627   -3.2974116   0.74997619      1024000 
    1000    1.4276664   -4.8136297   -4.8136297   -2.6721345     3.686884   -4.8136297    2.1414952      1024000 
    2000    1.3659161   -4.8609201   -4.8609201   -2.8120501    2.4725502   -4.8609201    2.0488699      1024000 
    3000    1.2645697   -4.8368825   -4.8368825   -2.9400318     1.630697   -4.8368825    1.8968506      1024000 
    4000    1.2138289   -4.8487938   -4.8487938   -3.0280541   0.72407263   -4.8487938    1.8207397      1024000 
    5000    1.1427373   -4.7860108   -4.7860108   -3.0719083  0.084263973   -4.7860108    1.7141025      1024000 
    6000     1.065289   -4.6841709   -4.6841709   -3.0862406  -0.25290258   -4.6841709    1.5979303      1024000 
    7000    1.0052803   -4.5952503   -4.5952503    -3.087333  -0.34640827   -4.5952503    1.5079173      1024000 
    8000   0.99025363   -4.5718564   -4.5718564    -3.086479  -0.24231442   -4.5718564    1.4853774      1024000 
    9000    1.0017966   -4.5934553   -4.5934553   -3.0907634  -0.10146491   -4.5934553    1.5026919      1024000 
   10000    1.0074023   -4.6119901   -4.6119901   -3.1008897 -0.018958883   -4.6119901    1.5111004      1024000 
   11000    1.0079792   -4.6240387   -4.6240387    -3.112073  0.011626432   -4.6240387    1.5119657      1024000 
   12000    1.0084184   -4.6349677   -4.6349677   -3.1223431  0.027941705   -4.6349677    1.5126246      1024000 
   13000    1.0115414      -4.6483      -4.6483   -3.1309909  0.062436356      -4.6483    1.5173091      1024000 
   14000    1.0107898    -4.655353    -4.655353   -3.1391714   0.08588306    -4.655353    1.5161816      1024000 
   15000    1.0088442   -4.6592208   -4.6592208   -3.1459576  0.092991708   -4.6592208    1.5132632      1024000 
   16000    1.0079911   -4.6635263   -4.6635263   -3.1515427  0.081339373   -4.6635263    1.5119836      1024000 
   17000    1.0039267   -4.6621308   -4.6621308   -3.1562438  0.089621802   -4.6621308     1.505887      1024000 
   18000    1.0048902   -4.6681633   -4.6681633    -3.160831  0.095459864   -4.6681633    1.5073323      1024000 
   19000    1.0065289   -4.6748197   -4.6748197   -3.1650294   0.11330375   -4.6748197    1.5097903      1024000 
   20000    1.0061566    -4.677981    -4.677981   -3.1687492   0.12057598    -4.677981    1.5092319      1024000 
   21000    1.0068838   -4.6818875   -4.6818875   -3.1715648   0.11778582   -4.6818875    1.5103227      1024000 
   22000    1.0057896    -4.682911    -4.682911   -3.1742297   0.11398763    -4.682911    1.5086813      1024000 
   23000    1.0043599   -4.6829727   -4.6829727   -3.1764358    0.1236629   -4.6829727    1.5065369      1024000 
   24000    1.0114842   -4.6977143   -4.6977143   -3.1804912   0.28044323   -4.6977143    1.5172232      1024000 
   25000    1.0249069   -4.7192574   -4.7192574   -3.1819002   0.77588131   -4.7192574    1.5373572      1024000 
   26000     1.038048   -4.7406169   -4.7406169   -3.1835481    1.0519307   -4.7406169    1.5570688      1024000 
   27000    1.0504268   -4.7601745   -4.7601745   -3.1845375    1.3255029   -4.7601745     1.575637      1024000 
   28000    1.0429836   -4.7500311   -4.7500311   -3.1855589    1.6341275   -4.7500311    1.5644722      1024000 
   29000    1.0297579   -4.7319704   -4.7319704   -3.1873366    1.2931586   -4.7319704    1.5446338      1024000 
   30000   0.99809404   -4.6853866   -4.6853866   -3.1882485     0.970998   -4.6853866     1.497138      1024000 
   31000   0.98040364   -4.6594186   -4.6594186   -3.1888161   0.62547514   -4.6594186    1.4706025      1024000 
   32000   0.95515873   -4.6222725   -4.6222725   -3.1895373   0.35043725   -4.6222725    1.4327352      1024000 
   33000   0.92406054   -4.5760727   -4.5760727   -3.1899847   0.18913516   -4.5760727     1.386088      1024000 
   34000   0.88808371   -4.5230382   -4.5230382   -3.1909153  0.052156236   -4.5230382    1.3321229      1024000 
   35000   0.85873385    -4.480065    -4.480065   -3.1919668 -0.049504409    -4.480065    1.2880982      1024000 
   36000   0.83952111   -4.4522175   -4.4522175   -3.1929384  -0.09068773   -4.4522175    1.2592791      1024000 
   37000   0.83248857    -4.442376    -4.442376   -3.1936457 -0.092811666    -4.442376    1.2487303      1024000 
   38000   0.83372017   -4.4456358   -4.4456358   -3.1950581 -0.077163615   -4.4456358    1.2505777      1024000 
   39000   0.84213581   -4.4594267   -4.4594267   -3.1962256 -0.038558727   -4.4594267    1.2632011      1024000 
   40000    0.8520638   -4.4749991   -4.4749991    -3.196906 0.0052935616   -4.4749991    1.2780931      1024000 
   41000   0.86172896   -4.4901438   -4.4901438    -3.197553   0.04772026   -4.4901438    1.2925908      1024000 
   42000   0.87064795   -4.5041635   -4.5041635   -3.1981942  0.084098128   -4.5041635    1.3059693      1024000 
   43000   0.87689801   -4.5143544   -4.5143544     -3.19901   0.10281169   -4.5143544    1.3153443      1024000 
   44000   0.87744857    -4.515542    -4.515542   -3.1993719   0.10828103    -4.515542    1.3161702      1024000 
   45000   0.87442953    -4.511849    -4.511849   -3.2002074   0.09797799    -4.511849    1.3116416      1024000 
   46000   0.87005952   -4.5058653   -4.5058653   -3.2007787  0.079213596   -4.5058653    1.3050866      1024000 
   47000   0.86471704   -4.4983341   -4.4983341   -3.2012612  0.058850564   -4.4983341    1.2970729      1024000 
   48000   0.86048855   -4.4928538   -4.4928538   -3.2021236  0.046974271   -4.4928538    1.2907302      1024000 
   49000   0.85754766   -4.4888099   -4.4888099   -3.2024911   0.03826253   -4.4888099    1.2863189      1024000 
   50000   0.85775164   -4.4898534   -4.4898534   -3.2032286  0.028458608   -4.4898534    1.2866248      1024000 
   51000   0.85830023   -4.4917116   -4.4917116   -3.2042639  0.036607034   -4.4917116    1.2874477      1024000 
   52000   0.86022716   -4.4955598   -4.4955598   -3.2052217  0.053081706   -4.4955598    1.2903381      1024000 
   53000   0.86394317   -4.5023809   -4.5023809   -3.2064688  0.060210625   -4.5023809    1.2959121      1024000 
   54000   0.86721257   -4.5081706   -4.5081706   -3.2073544  0.070737862   -4.5081706    1.3008162      1024000 
   55000   0.86910922   -4.5119279   -4.5119279   -3.2082667  0.078174632   -4.5119279    1.3036612      1024000 
   56000   0.87281228   -4.5183462   -4.5183462   -3.2091305  0.079793999   -4.5183462    1.3092158      1024000 
   57000   0.87325549    -4.520599    -4.520599   -3.2107184  0.099699292    -4.520599    1.3098806      1024000 
   58000    0.8749235   -4.5246732   -4.5246732   -3.2122906   0.10572649   -4.5246732    1.3123826      1024000 
   59000   0.87660303    -4.528552    -4.528552   -3.2136501   0.11488777    -4.528552    1.3149019      1024000 
   60000    0.8783434   -4.5334818   -4.5334818   -3.2159694   0.12461286   -4.5334818    1.3175124      1024000 
   61000   0.87883289   -4.5368726   -4.5368726   -3.2186259   0.13904031   -4.5368726    1.3182467      1024000 
   62000   0.88408479   -4.5480578   -4.5480578   -3.2219333   0.17541237   -4.5480578    1.3261245      1024000 
   63000   0.89361612   -4.5660631   -4.5660631   -3.2256416   0.22318778   -4.5660631    1.3404215      1024000 
   64000   0.90385678   -4.5859832   -4.5859832   -3.2302008   0.31083739   -4.5859832    1.3557824      1024000 
   65000   0.91322902   -4.6066831   -4.6066831   -3.2368423   0.39449302   -4.6066831    1.3698408      1024000 
   66000   0.91735591   -4.6228793   -4.6228793   -3.2468482   0.44277283   -4.6228793    1.3760311      1024000 
   67000   0.91240574   -4.6277245   -4.6277245   -3.2591187   0.44660998   -4.6277245    1.3686058      1024000 
   68000   0.90121888   -4.6227958   -4.6227958   -3.2709702   0.40232639   -4.6227958    1.3518256      1024000 
   69000    0.8854456    -4.608942    -4.608942   -3.2807763   0.34220412    -4.608942    1.3281657      1024000 
   70000   0.87279599    -4.602635    -4.602635   -3.2934436    0.3633504    -4.602635    1.3091913      1024000 
   71000   0.85719803   -4.6049656   -4.6049656   -3.3191712   0.45449155   -4.6049656    1.2857944      1024000 
   72000   0.84783548   -4.6191219   -4.6191219   -3.3473713   0.49335344   -4.6191219    1.2717506      1024000 
   73000   0.84408752   -4.6383152   -4.6383152   -3.3721865   0.48151269   -4.6383152    1.2661287      1024000 
   74000   0.84474794   -4.6579049   -4.6579049   -3.3907855   0.46557556   -4.6579049    1.2671193      1024000 
   75000   0.84741417   -4.6750928   -4.6750928   -3.4039741   0.45575948   -4.6750928    1.2711187      1024000 
   76000   0.85500242   -4.6956645   -4.6956645   -3.4131635   0.46549648   -4.6956645     1.282501      1024000 
   77000   0.85911439   -4.7070437   -4.7070437   -3.4183747   0.50480533   -4.7070437     1.288669      1024000 
   78000   0.85025529    -4.696403    -4.696403   -3.4210226   0.42885824    -4.696403    1.2753804      1024000 
   79000   0.82986242   -4.6680918   -4.6680918   -3.4233007   0.30517796   -4.6680918    1.2447911      1024000 
   80000   0.80925582   -4.6386479   -4.6386479   -3.4247666   0.20286708   -4.6386479    1.2138813      1024000 
   81000   0.79001934   -4.6119407   -4.6119407   -3.4269141   0.13578467   -4.6119407    1.1850266      1024000 
   82000   0.77352788   -4.5904333   -4.5904333   -3.4301438  0.078712642   -4.5904333    1.1602895      1024000 
   83000    0.7588505   -4.5720873   -4.5720873   -3.4338139  0.029145712   -4.5720873    1.1382734      1024000 
   84000   0.74687508   -4.5575953   -4.5575953   -3.4372849 -0.029570378   -4.5575953    1.1203104      1024000 
   85000   0.73670347   -4.5437849   -4.5437849   -3.4387319 -0.088494587   -4.5437849     1.105053      1024000 
   86000   0.72755417   -4.5271412   -4.5271412   -3.4358121  -0.14183429   -4.5271412     1.091329      1024000 
   87000   0.72020262   -4.5118784   -4.5118784   -3.4315767  -0.18616936   -4.5118784    1.0803017      1024000 
   88000   0.71477901   -4.4971709   -4.4971709   -3.4250046  -0.21438156   -4.4971709    1.0721663      1024000 
   89000    0.7117314   -4.4852918   -4.4852918   -3.4176968  -0.23262268   -4.4852918    1.0675949      1024000 
   90000   0.70988777   -4.4752183   -4.4752183   -3.4103888  -0.23351705   -4.4752183    1.0648295      1024000 
   91000   0.70961436    -4.467774    -4.467774   -3.4033547   -0.2242059    -4.467774    1.0644194      1024000 
   92000   0.71258747   -4.4654181   -4.4654181   -3.3965391  -0.21493467   -4.4654181     1.068879      1024000 
   93000   0.71658196   -4.4665933   -4.4665933   -3.3917225  -0.19382125   -4.4665933    1.0748708      1024000 
   94000   0.72290335   -4.4724811   -4.4724811   -3.3881283  -0.16796231   -4.4724811    1.0843528      1024000 
   95000   0.72893087   -4.4808572   -4.4808572   -3.3874631  -0.13111236   -4.4808572    1.0933941      1024000 
   96000   0.73599136   -4.4928726   -4.4928726   -3.3888878 -0.096371061   -4.4928726    1.1039848      1024000 
   97000    0.7433232   -4.5076012   -4.5076012   -3.3926187 -0.059692855   -4.5076012    1.1149825      1024000 
   98000   0.74742708   -4.5178666   -4.5178666   -3.3967282 -0.026512948   -4.5178666    1.1211383      1024000 
   99000   0.75415373   -4.5320408   -4.5320408   -3.4008125 -0.0022654687   -4.5320408    1.1312283      1024000 
  100000    0.7561885   -4.5389699   -4.5389699   -3.4046895  0.012829002   -4.5389699    1.1342804      1024000 
  101000   0.75519579   -4.5416321   -4.5416321   -3.4088407  0.012278161   -4.5416321    1.1327914      1024000 
  102000   0.75410704   -4.5425131   -4.5425131   -3.4113548 -0.0045566699   -4.5425131    1.1311583      1024000 
  103000   0.75006942   -4.5380386   -4.5380386   -3.4129368 -0.016018019   -4.5380386    1.1251019      1024000 
  104000   0.74832263   -4.5366937   -4.5366937   -3.4142121 -0.036622521   -4.5366937    1.1224817      1024000 
  105000   0.74577143   -4.5331266   -4.5331266   -3.4144718 -0.043491049   -4.5331266    1.1186549      1024000 
  106000   0.74316458   -4.5306024   -4.5306024   -3.4158578 -0.048034458   -4.5306024    1.1147446      1024000 
  107000    0.7446312   -4.5326792   -4.5326792   -3.4157347  -0.04950602   -4.5326792    1.1169445      1024000 
  108000   0.74544416   -4.5339645   -4.5339645   -3.4158006 -0.038143031   -4.5339645     1.118164      1024000 
  109000   0.74776973    -4.539101    -4.539101   -3.4174487 -0.020411601    -4.539101    1.1216523      1024000 
  110000   0.75094164   -4.5440072   -4.5440072    -3.417597 -0.0094144555   -4.5440072    1.1264102      1024000 
  111000   0.75252166   -4.5478234   -4.5478234   -3.4190432 -0.00051165005   -4.5478234    1.1287802      1024000 
  112000   0.75373712   -4.5500547   -4.5500547   -3.4194513 0.0014129195   -4.5500547    1.1306034      1024000 
  113000     0.754731   -4.5528688   -4.5528688   -3.4207746 -0.003192112   -4.5528688    1.1320942      1024000 
  114000   0.75352377     -4.55214     -4.55214   -3.4218567 -0.003261829     -4.55214    1.1302834      1024000 
  115000   0.75254754   -4.5510173   -4.5510173   -3.4221983  -0.00587971   -4.5510173     1.128819      1024000 
  116000   0.75136145   -4.5495099   -4.5495099     -3.42247 -0.0045012391   -4.5495099    1.1270399      1024000 
  117000   0.75045952   -4.5477232   -4.5477232   -3.4220362 -0.012559579   -4.5477232     1.125687      1024000 
  118000   0.75012355   -4.5480008   -4.5480008   -3.4228177  -0.01508167   -4.5480008     1.125183      1024000 
  119000   0.75072502   -4.5498644   -4.5498644   -3.4237791 -0.019973009   -4.5498644    1.1260852      1024000 
  120000    0.7501846   -4.5492241   -4.5492241   -3.4239495 -0.014022685   -4.5492241    1.1252746      1024000 
  121000   0.75193413   -4.5514703   -4.5514703   -3.4235714 -0.015056531   -4.5514703    1.1278989      1024000 
  122000   0.75284314   -4.5527685   -4.5527685   -3.4235061 -0.0074646148   -4.5527685    1.1292624      1024000 
  123000   0.75334038   -4.5536302   -4.5536302   -3.4236219 -0.0053939047   -4.5536302    1.1300083      1024000 
  124000   0.75559858   -4.5569477   -4.5569477   -3.4235521 -0.00091666386   -4.5569477    1.1333956      1024000 
  125000   0.75636323   -4.5584013   -4.5584013   -3.4238588 0.0019245257   -4.5584013    1.1345425      1024000 
  126000   0.75671871   -4.5597645   -4.5597645   -3.4246887 -0.00035859475   -4.5597645    1.1350758      1024000 
  127000   0.75681493   -4.5601963   -4.5601963   -3.4249763 0.0012449045   -4.5601963    1.1352201      1024000 
  128000   0.75615238   -4.5593665   -4.5593665   -3.4251402 0.0049157279   -4.5593665    1.1342263      1024000 
  129000   0.75756571   -4.5620122   -4.5620122   -3.4256659 0.0040849255   -4.5620122    1.1363463      1024000 
  130000    0.7587278   -4.5629807   -4.5629807   -3.4248913   0.00532022   -4.5629807    1.1380894      1024000 
  131000   0.75926778   -4.5638091   -4.5638091   -3.4249098  0.011625325   -4.5638091    1.1388994      1024000 
  132000   0.75937732   -4.5637516   -4.5637516   -3.4246879  0.021139482   -4.5637516    1.1390637      1024000 
  133000   0.76037674   -4.5659852   -4.5659852   -3.4254225  0.017117306   -4.5659852    1.1405628      1024000 
  134000   0.76091349   -4.5672671   -4.5672671   -3.4258992  0.026665265   -4.5672671    1.1413679      1024000 
  135000   0.76185396   -4.5697566   -4.5697566    -3.426978  0.027966234   -4.5697566    1.1427786      1024000 
  136000   0.76319799   -4.5719103   -4.5719103   -3.4271156  0.038406928   -4.5719103    1.1447947      1024000 
  137000   0.76635515   -4.5762645   -4.5762645   -3.4267341  0.045274164   -4.5762645    1.1495304      1024000 
  138000   0.76804306    -4.578872    -4.578872   -3.4268098  0.059203461    -4.578872    1.1520622      1024000 
  139000   0.77077745   -4.5835453   -4.5835453   -3.4273815  0.063116743   -4.5835453    1.1561638      1024000 
  140000   0.77207101   -4.5862282   -4.5862282   -3.4281241  0.077497041   -4.5862282    1.1581042      1024000 
  141000   0.77362694   -4.5893776   -4.5893776   -3.4289395  0.083391259   -4.5893776    1.1604381      1024000 
  142000   0.77576807   -4.5939037   -4.5939037   -3.4302539  0.087549811   -4.5939037    1.1636497      1024000 
  143000   0.77451035   -4.5937475   -4.5937475   -3.4319843  0.096898396   -4.5937475    1.1617632      1024000 
  144000   0.77359287   -4.5937393   -4.5937393   -3.4333523  0.096556381   -4.5937393     1.160387      1024000 
  145000   0.77312397   -4.5940872   -4.5940872   -3.4344036  0.092221726   -4.5940872    1.1596836      1024000 
  146000    0.7731344   -4.5952159   -4.5952159   -3.4355166  0.087421146   -4.5952159    1.1596992      1024000 
  147000   0.77092386   -4.5929132   -4.5929132   -3.4365297  0.081547587   -4.5929132    1.1563834      1024000 
  148000   0.77085138    -4.592895    -4.592895   -3.4366203  0.069736602    -4.592895    1.1562747      1024000 
  149000   0.76765363    -4.587814    -4.587814   -3.4363359  0.066326543    -4.587814    1.1514781      1024000 
  150000   0.76548829   -4.5846926   -4.5846926   -3.4364625  0.051378052   -4.5846926    1.1482301      1024000 
  151000   0.76329176   -4.5807974   -4.5807974   -3.4358621  0.041076022   -4.5807974    1.1449353      1024000 
  152000   0.76128203   -4.5772475   -4.5772475   -3.4353268   0.02543749   -4.5772475    1.1419207      1024000 
  153000   0.75890843   -4.5724656   -4.5724656   -3.4341053    0.0140841   -4.5724656    1.1383603      1024000 
  154000   0.75667499   -4.5683283   -4.5683283   -3.4333181 0.0044213001   -4.5683283    1.1350102      1024000 
  155000    0.7544949   -4.5637992   -4.5637992   -3.4320592 -0.0061052947   -4.5637992      1.13174      1024000 
  156000   0.75261358   -4.5589999   -4.5589999   -3.4300818 -0.014854312   -4.5589999    1.1289181      1024000 
  157000   0.75216346   -4.5567192   -4.5567192   -3.4284763 -0.032180528   -4.5567192    1.1282429      1024000 
  158000   0.74995048   -4.5516902   -4.5516902   -3.4267668 -0.031387461   -4.5516902    1.1249234      1024000 
  159000   0.75004663   -4.5491263   -4.5491263   -3.4240586 -0.038176762   -4.5491263    1.1250677      1024000 
  160000   0.74900404   -4.5458068   -4.5458068   -3.4223031 -0.044355722   -4.5458068    1.1235038      1024000 
  161000   0.74834871    -4.543297    -4.543297   -3.4207762 -0.041007783    -4.543297    1.1225208      1024000 
  162000   0.74918426   -4.5423099   -4.5423099   -3.4185358 -0.044933649   -4.5423099    1.1237741      1024000 
  163000   0.74927453   -4.5395785   -4.5395785    -3.415669 -0.041594215   -4.5395785    1.1239095      1024000 
  164000   0.75052918    -4.540098    -4.540098   -3.4143065  -0.04414754    -4.540098    1.1257915      1024000 
  165000   0.75093771   -4.5391404   -4.5391404   -3.4127361 -0.040593288   -4.5391404    1.1264043      1024000 
  166000     0.752445   -4.5389668   -4.5389668   -3.4103016 -0.029652821   -4.5389668    1.1286652      1024000 
  167000   0.75388283   -4.5394977   -4.5394977   -3.4086757 -0.024632527   -4.5394977    1.1308219      1024000 
  168000   0.75579988    -4.541074    -4.541074   -3.4073765 -0.017449505    -4.541074    1.1336975      1024000 
  169000   0.75869747   -4.5449704   -4.5449704   -3.4069265 -0.015484511   -4.5449704    1.1380439      1024000 
  170000   0.75880644   -4.5442243   -4.5442243    -3.406017 -0.0042474683   -4.5442243    1.1382074      1024000 
  171000   0.76052557   -4.5463161   -4.5463161   -3.4055301 0.0043303494   -4.5463161     1.140786      1024000 
  172000   0.76355335   -4.5509197   -4.5509197    -3.405592 0.0045417434   -4.5509197    1.1453277      1024000 
  173000   0.76394927   -4.5508347   -4.5508347   -3.4049131  0.016307785   -4.5508347    1.1459216      1024000 
  174000   0.76597628   -4.5540452   -4.5540452   -3.4050831  0.022528342   -4.5540452    1.1489621      1024000 
  175000   0.76818814   -4.5569454   -4.5569454   -3.4046655  0.026001098   -4.5569454    1.1522799      1024000 
  176000     0.767455   -4.5569594   -4.5569594   -3.4057792   0.03732963   -4.5569594    1.1511802      1024000 
  177000   0.76828974   -4.5598123   -4.5598123     -3.40738  0.035447023   -4.5598123    1.1524323      1024000 
  178000   0.76849635    -4.561588    -4.561588   -3.4088459  0.042684549    -4.561588    1.1527422      1024000 
  179000   0.76854417   -4.5618044   -4.5618044   -3.4089904  0.047459882   -4.5618044    1.1528139      1024000 
  180000   0.76914006   -4.5627648   -4.5627648   -3.4090571  0.050438256   -4.5627648    1.1537077      1024000 
  181000   0.76848718   -4.5621368   -4.5621368   -3.4094083  0.053854717   -4.5621368    1.1527284      1024000 
  182000   0.76783351   -4.5614085   -4.5614085   -3.4096606  0.055882541   -4.5614085    1.1517479      1024000 
  183000   0.76916626   -4.5639428   -4.5639428   -3.4101958  0.047138679   -4.5639428     1.153747      1024000 
  184000   0.76843304   -4.5623594   -4.5623594   -3.4097121  0.047130511   -4.5623594    1.1526472      1024000 
  185000   0.76933671   -4.5634019   -4.5634019   -3.4093992  0.041642574   -4.5634019    1.1540027      1024000 
  186000   0.76741543   -4.5599615   -4.5599615   -3.4088407  0.041790773   -4.5599615    1.1511208      1024000 
  187000    0.7674976   -4.5593325   -4.5593325   -3.4080884  0.040431615   -4.5593325    1.1512441      1024000 
  188000   0.76665273   -4.5573435   -4.5573435   -3.4073667  0.034834214   -4.5573435    1.1499768      1024000 
  189000   0.76622168   -4.5557693   -4.5557693   -3.4064391  0.030027038   -4.5557693    1.1493302      1024000 
  190000   0.76519901   -4.5527732   -4.5527732    -3.404977  0.023109385   -4.5527732    1.1477962      1024000 
  191000   0.76333329   -4.5495701   -4.5495701   -3.4045725  0.017222931   -4.5495701    1.1449976      1024000 
  192000   0.76253795   -4.5475071   -4.5475071   -3.4037025 0.0083176488   -4.5475071    1.1438046      1024000 
  193000   0.76179538   -4.5445193   -4.5445193   -3.4018285 0.0068365323   -4.5445193    1.1426908      1024000 
  194000    0.7611231   -4.5416421   -4.5416421   -3.3999598 0.0033395879   -4.5416421    1.1416823      1024000 
  195000   0.76055029   -4.5392304   -4.5392304   -3.3984073 -0.0027024463   -4.5392304    1.1408231      1024000 
  196000   0.76092582   -4.5380768   -4.5380768   -3.3966903 -0.0033760356   -4.5380768    1.1413864      1024000 
  197000   0.76140977    -4.536998    -4.536998   -3.3948857 -0.0094089661    -4.536998    1.1421123      1024000 
  198000   0.76071073    -4.533922    -4.533922   -3.3928582 -0.011576931    -4.533922    1.1410638      1024000 
  199000   0.76196626   -4.5339401   -4.5339401    -3.390993 -0.0083263263   -4.5339401    1.1429471      1024000 
  200000   0.76187971   -4.5320884   -4.5320884   -3.3892712 -0.012771626   -4.5320884    1.1428172      1024000 
  201000   0.76206597   -4.5305224   -4.5305224   -3.3874257 -0.0070907201   -4.5305224    1.1430966      1024000 
  202000    0.7609265   -4.5274649   -4.5274649   -3.3860774 -0.0042575851   -4.5274649    1.1413874      1024000 
  203000   0.76255335   -4.5271727   -4.5271727    -3.383345 -0.001379358   -4.5271727    1.1438277      1024000 
  204000   0.76352324   -4.5269163   -4.5269163   -3.3816338 -0.0062370483   -4.5269163    1.1452825      1024000 
  205000   0.76506424    -4.527032    -4.527032    -3.379438 -0.0052749253    -4.527032     1.147594      1024000 
  206000    0.7652278   -4.5261241   -4.5261241   -3.3782847 0.0016878197   -4.5261241    1.1478394      1024000 
  207000   0.76423425    -4.524003    -4.524003    -3.377654  0.005503025    -4.524003    1.1463491      1024000 
  208000   0.76601877   -4.5264499   -4.5264499    -3.377424 0.0023836777   -4.5264499    1.1490258      1024000 
  209000   0.76558183   -4.5253083   -4.5253083   -3.3769378 0.0089768372   -4.5253083    1.1483704      1024000 
  210000   0.76704249   -4.5266816   -4.5266816   -3.3761202 0.0047074814   -4.5266816    1.1505614      1024000 
  211000   0.76664624   -4.5252028   -4.5252028   -3.3752357  0.014099827   -4.5252028     1.149967      1024000 
  212000   0.76835225   -4.5257471   -4.5257471   -3.3732211  0.014425778   -4.5257471     1.152526      1024000 
  213000   0.77023115   -4.5278151   -4.5278151   -3.3724707  0.017999199   -4.5278151    1.1553444      1024000 
  214000   0.76933853   -4.5259541   -4.5259541   -3.3719487  0.023992741   -4.5259541    1.1540055      1024000 
  215000   0.76915202   -4.5245733   -4.5245733   -3.3708476  0.023806027   -4.5245733    1.1537257      1024000 
  216000   0.77126223   -4.5276697   -4.5276697   -3.3707787  0.020642981   -4.5276697     1.156891      1024000 
  217000   0.77127296   -4.5264951   -4.5264951    -3.369588  0.024023171   -4.5264951    1.1569071      1024000 
  218000   0.77052863   -4.5261669   -4.5261669   -3.3703763  0.026005996   -4.5261669    1.1557906      1024000 
  219000    0.7710543   -4.5264718   -4.5264718   -3.3698927  0.024446205   -4.5264718    1.1565791      1024000 
  220000   0.77152946   -4.5263421   -4.5263421   -3.3690503  0.023498923   -4.5263421    1.1572918      1024000 
  221000   0.77027597   -4.5239406   -4.5239406    -3.368529  0.023789189   -4.5239406    1.1554116      1024000 
  222000   0.77121808   -4.5243388   -4.5243388   -3.3675141  0.024022901   -4.5243388    1.1568248      1024000 
  223000   0.77192836   -4.5248046   -4.5248046   -3.3669144  0.022298648   -4.5248046    1.1578902      1024000 
  224000   0.77201073   -4.5238755   -4.5238755   -3.3658618  0.025066704   -4.5238755    1.1580137      1024000 
  225000   0.77244559   -4.5218945   -4.5218945   -3.3632284  0.025854013   -4.5218945     1.158666      1024000 
  226000   0.77180424   -4.5195584   -4.5195584   -3.3618544  0.026344298   -4.5195584     1.157704      1024000 
  227000   0.77188124   -4.5186947   -4.5186947   -3.3608751  0.022664299   -4.5186947    1.1578195      1024000 
  228000   0.77207985    -4.517626    -4.517626   -3.3595085   0.02429451    -4.517626    1.1581174      1024000 
  229000   0.77240828   -4.5175573   -4.5175573   -3.3589472  0.017748601   -4.5175573    1.1586101      1024000 
  230000   0.77133386   -4.5147929   -4.5147929   -3.3577945  0.015553566   -4.5147929    1.1569984      1024000 
  231000   0.77204965   -4.5144287   -4.5144287   -3.3563566  0.013708775   -4.5144287    1.1580721      1024000 
  232000   0.77196187   -4.5130336   -4.5130336   -3.3550931  0.014475667   -4.5130336    1.1579405      1024000 
  233000   0.77145494   -4.5105067   -4.5105067   -3.3533267  0.012106357   -4.5105067    1.1571801      1024000 
  234000   0.77093223   -4.5089411   -4.5089411   -3.3525451 0.0086070219   -4.5089411     1.156396      1024000 
  235000   0.77018508   -4.5064188   -4.5064188   -3.3511435 0.0088064027   -4.5064188    1.1552753      1024000 
  236000   0.77040178   -4.5054135   -4.5054135   -3.3498132   0.00254268   -4.5054135    1.1556003      1024000 
  237000   0.77083091   -4.5050615   -4.5050615   -3.3488175 0.0016380053   -4.5050615     1.156244      1024000 
  238000   0.77040324   -4.5023631   -4.5023631   -3.3467605  0.010666403   -4.5023631    1.1556025      1024000 
  239000   0.77214256   -4.5037632   -4.5037632   -3.3455518 0.0050871296   -4.5037632    1.1582115      1024000 
  240000    0.7722208    -4.502169    -4.502169   -3.3438401 0.0072464946    -4.502169    1.1583288      1024000 
  241000   0.77294885   -4.5014342   -4.5014342   -3.3420132 0.0046507343   -4.5014342    1.1594209      1024000 
  242000   0.77298349   -4.4991192   -4.4991192   -3.3396463  0.011315732   -4.4991192    1.1594729      1024000 
  243000   0.77218892   -4.4969129   -4.4969129   -3.3386319  0.012064062   -4.4969129     1.158281      1024000 
  244000   0.77358593   -4.4964209   -4.4964209   -3.3360444  0.011181665   -4.4964209    1.1603765      1024000 
  245000   0.77385772   -4.4956908   -4.4956908   -3.3349065 0.0080233052   -4.4956908    1.1607842      1024000 
  246000   0.77403583   -4.4948754   -4.4948754    -3.333824 0.0093657445   -4.4948754    1.1610514      1024000 
  247000   0.77412993   -4.4936614   -4.4936614   -3.3324689  0.014452594   -4.4936614    1.1611925      1024000 
  248000   0.77420302   -4.4919403   -4.4919403   -3.3306381  0.014138933   -4.4919403    1.1613022      1024000 
  249000   0.77586942   -4.4927342   -4.4927342   -3.3289324  0.012825779   -4.4927342    1.1638018      1024000 
  250000   0.77566555   -4.4917671   -4.4917671   -3.3282711  0.015166908   -4.4917671     1.163496      1024000 
  251000   0.77726874   -4.4911268   -4.4911268   -3.3252261 0.0096909011   -4.4911268    1.1659007      1024000 
  252000   0.77797466   -4.4904873   -4.4904873   -3.3235276  0.014188929   -4.4904873    1.1669596      1024000 
  253000   0.77748763   -4.4890221   -4.4890221    -3.322793  0.020968302   -4.4890221    1.1662291      1024000 
  254000   0.77767413   -4.4889365   -4.4889365   -3.3224277  0.017273305   -4.4889365    1.1665088      1024000 
  255000   0.77843059   -4.4892928   -4.4892928   -3.3216492  0.013775361   -4.4892928    1.1676435      1024000 
  256000   0.77806838    -4.488036    -4.488036   -3.3209358  0.015985259    -4.488036    1.1671002      1024000 
  257000   0.77831953   -4.4868567   -4.4868567   -3.3193798  0.021753281   -4.4868567    1.1674769      1024000 
  258000   0.77853764   -4.4851214   -4.4851214   -3.3173173   0.01558313   -4.4851214    1.1678041      1024000 
  259000    0.7776147   -4.4834975   -4.4834975   -3.3170778   0.01395849   -4.4834975    1.1664197      1024000 
  260000   0.77791431   -4.4819965   -4.4819965   -3.3151274  0.014290757   -4.4819965    1.1668691      1024000 
  261000   0.77814692   -4.4809773   -4.4809773   -3.3137592  0.016706137   -4.4809773     1.167218      1024000 
  262000   0.77905025   -4.4801119   -4.4801119   -3.3115389  0.019712095   -4.4801119     1.168573      1024000 
  263000   0.78011079   -4.4800435   -4.4800435   -3.3098797  0.015306137   -4.4800435    1.1701638      1024000 
  264000   0.78002838   -4.4797566   -4.4797566   -3.3097164    0.0162143   -4.4797566    1.1700402      1024000 
  265000   0.78170414   -4.4800384   -4.4800384   -3.3074845  0.016484028   -4.4800384    1.1725538      1024000 
  266000    0.7818812   -4.4782544   -4.4782544    -3.305435  0.022555711   -4.4782544    1.1728194      1024000 
  267000   0.78186421   -4.4782008   -4.4782008   -3.3054068  0.016637476   -4.4782008    1.1727939      1024000 
  268000   0.78163763   -4.4757203   -4.4757203   -3.3032662  0.018711689   -4.4757203    1.1724541      1024000 
  269000   0.78186392   -4.4737731   -4.4737731   -3.3009796  0.018842047   -4.4737731    1.1727935      1024000 
  270000   0.78220562   -4.4725368   -4.4725368   -3.2992307  0.020109059   -4.4725368     1.173306      1024000 
  271000   0.78223738   -4.4721917   -4.4721917    -3.298838  0.017580889   -4.4721917    1.1733537      1024000 
  272000   0.78257552   -4.4695815   -4.4695815   -3.2957206  0.015996159   -4.4695815    1.1738609      1024000 
  273000   0.78156242   -4.4675431   -4.4675431   -3.2952018  0.015159899   -4.4675431    1.1723413      1024000 
  274000   0.78166533   -4.4660247   -4.4660247   -3.2935291   0.01626397   -4.4660247    1.1724956      1024000 
  275000   0.78207875   -4.4647226   -4.4647226   -3.2916068  0.011594002   -4.4647226    1.1731157      1024000 
  276000   0.78237053   -4.4633092   -4.4633092   -3.2897558  0.017334708   -4.4633092    1.1735534      1024000 
  277000   0.78347043   -4.4637067   -4.4637067   -3.2885035  0.014314758   -4.4637067    1.1752033      1024000 
  278000   0.78389114   -4.4627082   -4.4627082   -3.2868739  0.013628795   -4.4627082    1.1758343      1024000 
  279000   0.78401375   -4.4607758   -4.4607758   -3.2847576  0.013011308   -4.4607758    1.1760182      1024000 
  280000   0.78346573   -4.4575535   -4.4575535   -3.2823573  0.020191075   -4.4575535    1.1751962      1024000 
  281000   0.78489953   -4.4582736   -4.4582736   -3.2809267  0.011570503   -4.4582736    1.1773469      1024000 
  282000   0.78436059   -4.4569436   -4.4569436   -3.2804051  0.016873735   -4.4569436    1.1765385      1024000 
  283000   0.78456229   -4.4548958   -4.4548958   -3.2780548   0.01512567   -4.4548958     1.176841      1024000 
  284000   0.78487775    -4.453582    -4.453582   -3.2762677  0.011376841    -4.453582    1.1773142      1024000 
  285000   0.78450003   -4.4506269   -4.4506269   -3.2738792  0.016559717   -4.4506269    1.1767477      1024000 
  286000   0.78488368    -4.450358    -4.450358   -3.2730349  0.010019819    -4.450358    1.1773231      1024000 
  287000   0.78518796   -4.4487907   -4.4487907   -3.2710112  0.013016652   -4.4487907    1.1777796      1024000 
  288000   0.78538504   -4.4475801   -4.4475801   -3.2695049  0.016526807   -4.4475801    1.1780752      1024000 
  289000   0.78734466   -4.4490456   -4.4490456    -3.268031 0.0061592676   -4.4490456    1.1810146      1024000 
  290000   0.78565346   -4.4440612   -4.4440612   -3.2655834  0.016051312   -4.4440612    1.1784778      1024000 
  291000   0.78586134   -4.4428132   -4.4428132   -3.2640236  0.013262126   -4.4428132    1.1787896      1024000 
  292000   0.78707048    -4.443113    -4.443113   -3.2625097 0.0095878726    -4.443113    1.1806033      1024000 
  293000   0.78792614    -4.442447    -4.442447   -3.2605602  0.011708491    -4.442447    1.1818868      1024000 
  294000   0.78785425   -4.4399848   -4.4399848   -3.2582058  0.015489073   -4.4399848     1.181779      1024000 
  295000   0.78770507   -4.4387973   -4.4387973   -3.2572421  0.016366888   -4.4387973    1.1815552      1024000 
  296000   0.78720564   -4.4362406   -4.4362406   -3.2554346  0.016897241   -4.4362406    1.1808061      1024000 
  297000   0.78917435   -4.4369521   -4.4369521   -3.2531929   0.01197526   -4.4369521    1.1837591      1024000 
  298000   0.78941156   -4.4341311   -4.4341311   -3.2500161   0.01246162   -4.4341311    1.1841149      1024000 
  299000   0.78923178   -4.4328819   -4.4328819   -3.2490367  0.017370009   -4.4328819    1.1838453      1024000 
  300000   0.78963772   -4.4317852   -4.4317852    -3.247331  0.012278456   -4.4317852    1.1844542      1024000 
  301000   0.79166582   -4.4338887   -4.4338887   -3.2463923 0.0070115985   -4.4338887    1.1874963      1024000 
  302000   0.78994936   -4.4301013   -4.4301013   -3.2451796   0.01260693   -4.4301013    1.1849216      1024000 
  303000   0.79098898   -4.4300846   -4.4300846   -3.2436035  0.010904147   -4.4300846    1.1864811      1024000 
  304000   0.79108106   -4.4283104   -4.4283104   -3.2416912  0.013772704   -4.4283104    1.1866192      1024000 
  305000   0.79148323   -4.4260156   -4.4260156   -3.2387931  0.013986267   -4.4260156    1.1872224      1024000 
  306000   0.79249451   -4.4254328   -4.4254328   -3.2366935  0.015346905   -4.4254328    1.1887394      1024000 
  307000   0.79201865    -4.423717    -4.423717   -3.2356914  0.020159367    -4.423717    1.1880256      1024000 
  308000   0.79272723   -4.4225086   -4.4225086   -3.2334202  0.019924074   -4.4225086    1.1890884      1024000 
  309000   0.79260602   -4.4209675   -4.4209675   -3.2320609  0.015544672   -4.4209675    1.1889066      1024000 
  310000   0.79315843   -4.4208505   -4.4208505   -3.2311152  0.012506125   -4.4208505    1.1897352      1024000 
  311000   0.79289375   -4.4184367   -4.4184367   -3.2290985   0.01788009   -4.4184367    1.1893382      1024000 
  312000   0.79443777   -4.4195858   -4.4195858   -3.2279316  0.010655095   -4.4195858    1.1916542      1024000 
  313000   0.79273307   -4.4164197   -4.4164197   -3.2273225   0.01322159   -4.4164197    1.1890972      1024000 
  314000   0.79374747   -4.4160044   -4.4160044   -3.2253856  0.011526547   -4.4160044    1.1906188      1024000 
  315000   0.79434903   -4.4147233   -4.4147233   -3.2232022  0.010116727   -4.4147233    1.1915211      1024000 
  316000   0.79390089   -4.4123395   -4.4123395   -3.2214906  0.014112422   -4.4123395    1.1908489      1024000 
  317000   0.79405551   -4.4099709   -4.4099709   -3.2188901  0.010909835   -4.4099709    1.1910809      1024000 
  318000   0.79633707   -4.4106664   -4.4106664   -3.2161632 0.0099557122   -4.4106664    1.1945032      1024000 
  319000   0.79527645    -4.407547    -4.407547   -3.2146348  0.021255345    -4.407547    1.1929123      1024000 
  320000   0.79667761    -4.407341    -4.407341    -3.212327  0.020614065    -4.407341     1.195014      1024000 
  321000    0.7961063   -4.4045817   -4.4045817   -3.2104247  0.021688859   -4.4045817     1.194157      1024000 
  322000   0.79723324   -4.4047475   -4.4047475      -3.2089   0.01737574   -4.4047475    1.1958474      1024000 
  323000   0.79627938   -4.4023191   -4.4023191   -3.2079024  0.022315514   -4.4023191    1.1944166      1024000 
  324000   0.79795723   -4.4022446   -4.4022446   -3.2053112  0.018086477   -4.4022446    1.1969334      1024000 
  325000   0.79677399   -4.3994927   -4.3994927   -3.2043342  0.016616316   -4.3994927    1.1951586      1024000 
  326000   0.79770587   -4.3988324   -4.3988324    -3.202276  0.015330567   -4.3988324    1.1965564      1024000 
  327000   0.79855985   -4.3973963   -4.3973963   -3.1995589  0.014097633   -4.3973963    1.1978374      1024000 
  328000   0.79818816   -4.3954209   -4.3954209   -3.1981411  0.015346043   -4.3954209    1.1972798      1024000 
  329000   0.79774039   -4.3935675   -4.3935675   -3.1969594  0.011984263   -4.3935675    1.1966082      1024000 
  330000   0.79766269   -4.3905186   -4.3905186    -3.194027  0.012889838   -4.3905186    1.1964916      1024000 
  331000   0.79853938   -4.3906793   -4.3906793   -3.1928727  0.010819729   -4.3906793    1.1978066      1024000 
  332000   0.79883637   -4.3893342   -4.3893342    -3.191082  0.012311095   -4.3893342    1.1982521      1024000 
  333000   0.79986346   -4.3884192   -4.3884192   -3.1886265 0.0098435415   -4.3884192    1.1997928      1024000 
  334000   0.79891885   -4.3852295   -4.3852295   -3.1868537  0.014961472   -4.3852295    1.1983758      1024000 
  335000   0.80084244   -4.3845663   -4.3845663   -3.1833051  0.017418586   -4.3845663    1.2012612      1024000 
  336000   0.80141138   -4.3844404   -4.3844404   -3.1823257  0.024015958   -4.3844404    1.2021146      1024000 
  337000   0.80182979   -4.3837601   -4.3837601   -3.1810178  0.016679672   -4.3837601    1.2027423      1024000 
  338000   0.80099487   -4.3809387   -4.3809387   -3.1794488  0.018387906   -4.3809387    1.2014899      1024000 
  339000   0.80134937   -4.3789946   -4.3789946    -3.176973  0.019276984   -4.3789946    1.2020216      1024000 
  340000   0.80158757   -4.3772052   -4.3772052   -3.1748263  0.020693598   -4.3772052    1.2023789      1024000 
  341000   0.80140556   -4.3749034   -4.3749034   -3.1727975  0.016461533   -4.3749034    1.2021059      1024000 
  342000   0.80233941   -4.3745233   -4.3745233   -3.1710166  0.013343592   -4.3745233    1.2035067      1024000 
  343000   0.80345901   -4.3741385   -4.3741385   -3.1689524  0.013690296   -4.3741385    1.2051861      1024000 
  344000   0.80222908   -4.3712087   -4.3712087   -3.1678675  0.013771526   -4.3712087    1.2033412      1024000 
  345000   0.80259051   -4.3696667   -4.3696667   -3.1657834  0.014770368   -4.3696667    1.2038833      1024000 
  346000   0.80299313   -4.3685453   -4.3685453    -3.164058  0.011056501   -4.3685453    1.2044872      1024000 
  347000   0.80312046   -4.3661432   -4.3661432   -3.1614649  0.012301523   -4.3661432    1.2046783      1024000 
  348000   0.80459874   -4.3671371   -4.3671371   -3.1602414  0.010722153   -4.3671371    1.2068957      1024000 
  349000   0.80468275   -4.3643461   -4.3643461   -3.1573244   0.01567466   -4.3643461    1.2070217      1024000 
  350000   0.80543745   -4.3640936   -4.3640936   -3.1559399   0.01344817   -4.3640936    1.2081537      1024000 
  351000   0.80326365   -4.3590151   -4.3590151   -3.1541221  0.019142182   -4.3590151     1.204893      1024000 
  352000   0.80618341   -4.3609472   -4.3609472   -3.1516745  0.011811739   -4.3609472    1.2092727      1024000 
  353000   0.80600631   -4.3591042   -4.3591042   -3.1500972  0.015190497   -4.3591042     1.209007      1024000 
  354000   0.80596059   -4.3563255   -4.3563255    -3.147387  0.018644436   -4.3563255    1.2089384      1024000 
  355000   0.80536312   -4.3540866   -4.3540866   -3.1460444  0.020588282   -4.3540866    1.2080422      1024000 
  356000   0.80626799   -4.3539028   -4.3539028   -3.1445033  0.018172645   -4.3539028    1.2093995      1024000 
  357000   0.80638238   -4.3513152   -4.3513152   -3.1417441  0.012661914   -4.3513152    1.2095711      1024000 
  358000   0.80687676   -4.3498456   -4.3498456   -3.1395329   0.01200524   -4.3498456    1.2103127      1024000 
  359000   0.80788632   -4.3487848   -4.3487848   -3.1369578  0.012205463   -4.3487848     1.211827      1024000 
  360000   0.80749575   -4.3461151   -4.3461151   -3.1348739  0.011144278   -4.3461151    1.2112412      1024000 
  361000   0.80867779   -4.3457869   -4.3457869   -3.1327727  0.015324649   -4.3457869    1.2130142      1024000 
  362000   0.80816411    -4.342876    -4.342876   -3.1306323  0.017629826    -4.342876    1.2122437      1024000 
  363000   0.81002491   -4.3445541   -4.3445541   -3.1295192  0.013125156   -4.3445541    1.2150349      1024000 
  364000   0.80903356   -4.3418309   -4.3418309    -3.128283  0.018702265   -4.3418309    1.2135479      1024000 
  365000   0.81066447     -4.34134     -4.34134   -3.1253458  0.019461883     -4.34134    1.2159942      1024000 
  366000   0.81007789   -4.3385392   -4.3385392   -3.1234248  0.017346405   -4.3385392    1.2151144      1024000 
  367000   0.81159198     -4.33822     -4.33822   -3.1208346  0.017509675     -4.33822    1.2173855      1024000 
  368000   0.81210159   -4.3360026   -4.3360026   -3.1178527  0.023299978   -4.3360026    1.2181499      1024000 
  369000   0.81261183   -4.3343817   -4.3343817   -3.1154664   0.01778143   -4.3343817    1.2189153      1024000 
  370000   0.81318686   -4.3336447   -4.3336447   -3.1138669  0.017021318   -4.3336447    1.2197778      1024000 
  371000   0.81203355   -4.3303843   -4.3303843   -3.1123365  0.018734421   -4.3303843    1.2180479      1024000 
  372000   0.81183146   -4.3293606   -4.3293606   -3.1116159  0.017510767   -4.3293606    1.2177447      1024000 
  373000   0.81187967   -4.3275979   -4.3275979   -3.1097808  0.018547862   -4.3275979     1.217817      1024000 
  374000   0.81245958    -4.326775    -4.326775   -3.1080881 0.0078013917    -4.326775    1.2186869      1024000 
  375000   0.81197366   -4.3234853   -4.3234853   -3.1055273  0.017404014   -4.3234853     1.217958      1024000 
  376000     0.813526   -4.3236156   -4.3236156   -3.1033291  0.012580773   -4.3236156    1.2202865      1024000 
  377000   0.81272113   -4.3197992   -4.3197992     -3.10072  0.016403057   -4.3197992    1.2190792      1024000 
  378000   0.81379685   -4.3195341   -4.3195341   -3.0988413  0.013421474   -4.3195341    1.2206928      1024000 
  379000   0.81275159   -4.3178269   -4.3178269    -3.098702  0.016515301   -4.3178269    1.2191249      1024000 
  380000   0.81395999   -4.3177533   -4.3177533   -3.0968158  0.012305331   -4.3177533    1.2209375      1024000 
  381000    0.8144878   -4.3153813   -4.3153813   -3.0936521  0.014206407   -4.3153813    1.2217292      1024000 
  382000   0.81568006   -4.3153062   -4.3153062   -3.0917886 0.0098333017   -4.3153062    1.2235176      1024000 
  383000   0.81483024   -4.3119755   -4.3119755   -3.0897326  0.015658471   -4.3119755    1.2222429      1024000 
  384000   0.81593931   -4.3114813   -4.3114813   -3.0875748  0.015428404   -4.3114813    1.2239065      1024000 
  385000   0.81522492   -4.3078795   -4.3078795   -3.0850446   0.01574522   -4.3078795    1.2228349      1024000 
  386000   0.81557936   -4.3068397   -4.3068397   -3.0834732  0.015095102   -4.3068397    1.2233666      1024000 
  387000   0.81578124   -4.3051444   -4.3051444    -3.081475  0.021913498   -4.3051444    1.2236694      1024000 
  388000   0.81663041   -4.3034379   -4.3034379   -3.0784947  0.017762258   -4.3034379    1.2249431      1024000 
  389000   0.81730313   -4.3020304   -4.3020304   -3.0760782  0.015465484   -4.3020304    1.2259522      1024000 
  390000   0.81765341   -4.3015121   -4.3015121   -3.0750345  0.016518461   -4.3015121    1.2264776      1024000 
  391000   0.81721149   -4.2984338   -4.2984338    -3.072619  0.022359443   -4.2984338    1.2258147      1024000 
  392000   0.81843269   -4.2983039   -4.2983039   -3.0706574  0.016613811   -4.2983039    1.2276465      1024000 
  393000   0.81838478   -4.2969019   -4.2969019   -3.0693273  0.012202979   -4.2969019    1.2275747      1024000 
  394000   0.81944331   -4.2956752   -4.2956752   -3.0665127  0.015645446   -4.2956752    1.2291625      1024000 
  395000    0.8198818   -4.2941797   -4.2941797   -3.0643595  0.018056036   -4.2941797    1.2298202      1024000 
  396000   0.82028611   -4.2929881   -4.2929881   -3.0625614  0.016489449   -4.2929881    1.2304267      1024000 
  397000   0.81978217   -4.2906512   -4.2906512   -3.0609804  0.017619478   -4.2906512    1.2296708      1024000 
  398000    0.8208856   -4.2904722   -4.2904722   -3.0591463  0.015520091   -4.2904722    1.2313259      1024000 
  399000   0.82008162   -4.2869809   -4.2869809    -3.056861  0.018868987   -4.2869809    1.2301199      1024000 
  400000   0.82213444   -4.2881913   -4.2881913   -3.0549921  0.017258118   -4.2881913    1.2331992      1024000 
  401000   0.82206895   -4.2858015   -4.2858015   -3.0527006   0.02021905   -4.2858015    1.2331009      1024000 
  402000   0.82183224   -4.2837488   -4.2837488   -3.0510029  0.019271983   -4.2837488    1.2327459      1024000 
  403000   0.82215221   -4.2823281   -4.2823281   -3.0491023  0.018645849   -4.2823281    1.2332258      1024000 
  404000   0.82261872   -4.2794723   -4.2794723   -3.0455467  0.020803008   -4.2794723    1.2339256      1024000 
  405000   0.82361559   -4.2792477   -4.2792477   -3.0438268    0.0220484   -4.2792477    1.2354209      1024000 
  406000    0.8244344   -4.2776846   -4.2776846   -3.0410355  0.022738494   -4.2776846    1.2366491      1024000 
  407000     0.824923   -4.2760636   -4.2760636   -3.0386817  0.021709819   -4.2760636     1.237382      1024000 
  408000   0.82563529   -4.2757958   -4.2757958   -3.0373453  0.015114883   -4.2757958    1.2384504      1024000 
  409000   0.82521914   -4.2730666   -4.2730666   -3.0352404   0.01901455   -4.2730666    1.2378262      1024000 
  410000   0.82470281   -4.2706936   -4.2706936   -3.0336419  0.021778943   -4.2706936    1.2370517      1024000 
  411000   0.82638952   -4.2714146   -4.2714146   -3.0318328  0.014796076   -4.2714146    1.2395818      1024000 
  412000   0.82503683   -4.2670206   -4.2670206   -3.0294679  0.026327197   -4.2670206    1.2375527      1024000 
  413000   0.82710932   -4.2680575   -4.2680575    -3.027396  0.018281891   -4.2680575    1.2406615      1024000 
  414000   0.82574446   -4.2653269   -4.2653269   -3.0267127  0.015581068   -4.2653269    1.2386142      1024000 
  415000     0.825032   -4.2620507   -4.2620507   -3.0245052  0.018160317   -4.2620507    1.2375455      1024000 
  416000   0.82518151   -4.2604397   -4.2604397   -3.0226699  0.015101727   -4.2604397    1.2377698      1024000 
  417000   0.82569304   -4.2580138   -4.2580138   -3.0194767  0.015384724   -4.2580138    1.2385371      1024000 
  418000   0.82487965   -4.2546996   -4.2546996   -3.0173827  0.015739023   -4.2546996     1.237317      1024000 
  419000     0.826113   -4.2541697   -4.2541697   -3.0150027  0.011639339   -4.2541697     1.239167      1024000 
  420000    0.8271082   -4.2527128   -4.2527128    -3.012053  0.012543838   -4.2527128    1.2406598      1024000 
  421000   0.82750197   -4.2499215   -4.2499215   -3.0086711  0.012762776   -4.2499215    1.2412504      1024000 
  422000   0.82798441   -4.2488096   -4.2488096   -3.0068355  0.014526929   -4.2488096    1.2419741      1024000 
  423000    0.8287503     -4.24686     -4.24686   -3.0037371  0.018882305     -4.24686    1.2431229      1024000 
  424000   0.82803279   -4.2435807   -4.2435807    -3.001534  0.021036762   -4.2435807    1.2420467      1024000 
  425000   0.82919792   -4.2424269   -4.2424269   -2.9986325  0.018635139   -4.2424269    1.2437944      1024000 
  426000   0.82930483   -4.2410358   -4.2410358    -2.997081  0.018483383   -4.2410358    1.2439547      1024000 
  427000   0.83030689   -4.2399957   -4.2399957   -2.9945379   0.01939019   -4.2399957    1.2454578      1024000 
  428000   0.83005443    -4.237804    -4.237804   -2.9927249  0.018777087    -4.237804    1.2450791      1024000 
  429000   0.83011999   -4.2351384   -4.2351384    -2.989961  0.020543384   -4.2351384    1.2451775      1024000 
  430000   0.83180488   -4.2346884   -4.2346884   -2.9869836  0.015042023   -4.2346884    1.2477048      1024000 
  431000    0.8321629   -4.2329929   -4.2329929    -2.984751  0.016448596   -4.2329929    1.2482418      1024000 
  432000   0.83106321   -4.2290968   -4.2290968   -2.9825045  0.018371679   -4.2290968    1.2465923      1024000 
  433000   0.83147726   -4.2280944   -4.2280944   -2.9808811  0.015750281   -4.2280944    1.2472134      1024000 
  434000   0.83185315   -4.2273087   -4.2273087   -2.9795315 0.0085144313   -4.2273087    1.2477772      1024000 
  435000   0.83153791    -4.223789    -4.223789   -2.9764846  0.014771681    -4.223789    1.2473043      1024000 
  436000   0.83122431   -4.2206728   -4.2206728   -2.9738389  0.013935979   -4.2206728    1.2468339      1024000 
  437000    0.8319242   -4.2198538   -4.2198538     -2.97197  0.012628787   -4.2198538    1.2478838      1024000 
  438000   0.83278369   -4.2187074   -4.2187074   -2.9695344  0.013435578   -4.2187074     1.249173      1024000 
  439000   0.83297161   -4.2173487   -4.2173487   -2.9678938 0.0064709228   -4.2173487    1.2494549      1024000 
  440000   0.83380582   -4.2159204   -4.2159204   -2.9652142  0.011284457   -4.2159204    1.2507062      1024000 
  441000   0.83445798   -4.2132047   -4.2132047   -2.9615203  0.017909526   -4.2132047    1.2516844      1024000 
  442000    0.8337143     -4.21077     -4.21077   -2.9602011  0.019826917     -4.21077    1.2505689      1024000 
  443000    0.8356173    -4.210755    -4.210755   -2.9573316  0.018013745    -4.210755    1.2534234      1024000 
  444000   0.83515978   -4.2076503   -4.2076503   -2.9549131  0.021545044   -4.2076503    1.2527371      1024000 
  445000   0.83552255   -4.2064539   -4.2064539   -2.9531727   0.02342277   -4.2064539    1.2532813      1024000 
  446000   0.83529254   -4.2049307   -4.2049307   -2.9519944  0.015884735   -4.2049307    1.2529363      1024000 
  447000   0.83597575   -4.2030125   -4.2030125   -2.9490514  0.019142856   -4.2030125    1.2539611      1024000 
  448000   0.83508708   -4.2002128   -4.2002128   -2.9475848  0.017022733   -4.2002128    1.2526281      1024000 
  449000   0.83571958   -4.1982339   -4.1982339    -2.944657  0.015885461   -4.1982339    1.2535768      1024000 
  450000   0.83632522   -4.1962322   -4.1962322   -2.9417469  0.016626546   -4.1962322    1.2544853      1024000 
  451000   0.83624153   -4.1935218   -4.1935218    -2.939162  0.017114176   -4.1935218    1.2543598      1024000 
  452000   0.83781181   -4.1941883   -4.1941883   -2.9374731 0.0098140087   -4.1941883    1.2567152      1024000 
  453000   0.83788296   -4.1922887   -4.1922887   -2.9354668  0.013568178   -4.1922887    1.2568219      1024000 
  454000    0.8380108   -4.1901629   -4.1901629   -2.9331492  0.018608997   -4.1901629    1.2570136      1024000 
  455000   0.83798867   -4.1876057   -4.1876057   -2.9306252  0.020831985   -4.1876057    1.2569805      1024000 
  456000   0.83933224   -4.1873848   -4.1873848    -2.928389  0.016984678   -4.1873848    1.2589958      1024000 
  457000   0.83815364   -4.1826803   -4.1826803   -2.9254524  0.020683032   -4.1826803    1.2572279      1024000 
  458000   0.84045487   -4.1836305   -4.1836305   -2.9229507  0.014890007   -4.1836305    1.2606797      1024000 
  459000   0.83989109   -4.1815841   -4.1815841     -2.92175  0.017469566   -4.1815841    1.2598341      1024000 
  460000   0.84001173   -4.1795494   -4.1795494   -2.9195343  0.019814994   -4.1795494     1.260015      1024000 
  461000   0.84088874   -4.1788085   -4.1788085   -2.9174779   0.01355057   -4.1788085    1.2613305      1024000 
  462000   0.83996996   -4.1756744   -4.1756744   -2.9157221  0.019344258   -4.1756744    1.2599524      1024000 
  463000   0.84248084   -4.1763749   -4.1763749   -2.9126562   0.01023136   -4.1763749    1.2637187      1024000 
  464000   0.84132259   -4.1730815   -4.1730815   -2.9111002  0.022935288   -4.1730815    1.2619813      1024000 
  465000   0.84283146    -4.171681    -4.171681   -2.9074364  0.018228858    -4.171681    1.2642446      1024000 
  466000   0.84190353   -4.1678337   -4.1678337    -2.904981  0.023248983   -4.1678337    1.2628527      1024000 
  467000   0.84448427    -4.169753    -4.169753   -2.9030292  0.021512776    -4.169753    1.2667238      1024000 
  468000   0.84346296   -4.1663496   -4.1663496   -2.9011577  0.021171665   -4.1663496    1.2651919      1024000 
  469000   0.84444097   -4.1649904   -4.1649904   -2.8983316  0.021030133   -4.1649904    1.2666589      1024000 
  470000   0.84408304   -4.1622132   -4.1622132   -2.8960912   0.02240777   -4.1622132     1.266122      1024000 
  471000   0.84391761   -4.1605376   -4.1605376   -2.8946637  0.020853531   -4.1605376    1.2658739      1024000 
  472000   0.84465851   -4.1598724   -4.1598724   -2.8928872   0.01898528   -4.1598724    1.2669852      1024000 
  473000   0.84399747   -4.1555407   -4.1555407   -2.8895471  0.020669454   -4.1555407    1.2659936      1024000 
  474000   0.84365731   -4.1526869   -4.1526869   -2.8872035  0.021765671   -4.1526869    1.2654834      1024000 
  475000   0.84504924   -4.1519599   -4.1519599   -2.8843886  0.017171666   -4.1519599    1.2675713      1024000 
  476000   0.84614949   -4.1504852   -4.1504852   -2.8812636  0.018308032   -4.1504852    1.2692217      1024000 
  477000   0.84733251   -4.1493461   -4.1493461   -2.8783499  0.019450233   -4.1493461    1.2709962      1024000 
  478000   0.84579997   -4.1454379   -4.1454379   -2.8767405  0.020599769   -4.1454379    1.2686974      1024000 
  479000   0.84607402   -4.1440797   -4.1440797   -2.8749712  0.021781976   -4.1440797    1.2691085      1024000 
  480000   0.84622236   -4.1424156   -4.1424156   -2.8730846  0.022192193   -4.1424156     1.269331      1024000 
  481000   0.84646206   -4.1402991   -4.1402991   -2.8706086  0.019686579   -4.1402991    1.2696905      1024000 
  482000   0.84609045   -4.1376858   -4.1376858   -2.8685527  0.021000229   -4.1376858    1.2691331      1024000 
  483000   0.84738378   -4.1374499   -4.1374499   -2.8663768  0.017166437   -4.1374499    1.2710731      1024000 
  484000    0.8470944   -4.1358411   -4.1358411   -2.8652021  0.018089881   -4.1358411     1.270639      1024000 
  485000   0.84671553   -4.1340556   -4.1340556   -2.8639848  0.019172769   -4.1340556    1.2700707      1024000 
  486000   0.84715519   -4.1323884   -4.1323884   -2.8616581  0.019716324   -4.1323884    1.2707302      1024000 
  487000   0.85025839   -4.1323897   -4.1323897   -2.8570047  0.015554176   -4.1323897     1.275385      1024000 
  488000   0.84738425   -4.1266207   -4.1266207   -2.8555469  0.023527108   -4.1266207    1.2710738      1024000 
  489000    0.8499389   -4.1266678   -4.1266678    -2.851762  0.018420339   -4.1266678    1.2749058      1024000 
  490000   0.84951839   -4.1240712   -4.1240712   -2.8497962  0.020466629   -4.1240712     1.274275      1024000 
  491000   0.85109146   -4.1234468   -4.1234468   -2.8468122  0.020618271   -4.1234468    1.2766346      1024000 
  492000    0.8514728   -4.1208975   -4.1208975   -2.8436909  0.022297158   -4.1208975    1.2772066      1024000 
  493000   0.85163832   -4.1187047   -4.1187047   -2.8412498  0.023031805   -4.1187047    1.2774549      1024000 
  494000   0.85164016   -4.1162296   -4.1162296    -2.838772  0.022618662   -4.1162296    1.2774576      1024000 
  495000    0.8520771   -4.1147131   -4.1147131      -2.8366  0.023834159   -4.1147131    1.2781131      1024000 
  496000   0.85246696    -4.112638    -4.112638   -2.8339401  0.027343508    -4.112638    1.2786978      1024000 
  497000   0.85237856   -4.1100757   -4.1100757   -2.8315105  0.027782504   -4.1100757    1.2785652      1024000 
  498000    0.8528697   -4.1086905   -4.1086905   -2.8293886  0.021626177   -4.1086905    1.2793019      1024000 
  499000     0.852645    -4.105492    -4.105492   -2.8265271  0.025228129    -4.105492    1.2789649      1024000 
  500000   0.85186312   -4.1029958   -4.1029958   -2.8252037  0.028296527   -4.1029958    1.2777921      1024000 
  501000   0.85187168   -4.1004132   -4.1004132   -2.8226083   0.02462717   -4.1004132    1.2778049      1024000 
  502000   0.85253679     -4.09911     -4.09911   -2.8203074  0.021873116     -4.09911    1.2788026      1024000 
  503000   0.85266908   -4.0967937   -4.0967937   -2.8177926  0.021177447   -4.0967937     1.279001      1024000 
  504000   0.85359235   -4.0965164   -4.0965164   -2.8161304  0.020487976   -4.0965164    1.2803859      1024000 
  505000   0.85290802    -4.092334    -4.092334   -2.8129746  0.021808862    -4.092334    1.2793594      1024000 
  506000   0.85427489    -4.091256    -4.091256   -2.8098462  0.019390742    -4.091256    1.2814097      1024000 
  507000   0.85486691   -4.0896666   -4.0896666   -2.8073688   0.02213866   -4.0896666    1.2822978      1024000 
  508000   0.85461132   -4.0864973   -4.0864973    -2.804583  0.028633157   -4.0864973    1.2819144      1024000 
  509000   0.85638951   -4.0855465   -4.0855465   -2.8009648  0.022674688   -4.0855465    1.2845817      1024000 
  510000   0.85689209   -4.0856342   -4.0856342   -2.8002987  0.028139968   -4.0856342    1.2853355      1024000 
  511000   0.85743705   -4.0839513   -4.0839513   -2.7977984  0.029438794   -4.0839513     1.286153      1024000 
  512000    0.8572988   -4.0810888   -4.0810888   -2.7951432  0.028906506   -4.0810888    1.2859456      1024000 
  513000   0.85789652   -4.0790777   -4.0790777   -2.7922356  0.027368815   -4.0790777    1.2868422      1024000 
  514000   0.85859433   -4.0779742   -4.0779742   -2.7900853  0.031562448   -4.0779742    1.2878889      1024000 
  515000   0.85958641   -4.0774386   -4.0774386   -2.7880616  0.025027294   -4.0774386     1.289377      1024000 
  516000   0.85766695   -4.0731799   -4.0731799   -2.7866821   0.03134478   -4.0731799    1.2864978      1024000 
  517000   0.85775524    -4.070455    -4.070455   -2.7838247  0.031808257    -4.070455    1.2866303      1024000 
  518000   0.85850996   -4.0699554   -4.0699554   -2.7821931  0.027363808   -4.0699554    1.2877623      1024000 
  519000   0.85828605   -4.0668719   -4.0668719   -2.7794454  0.031076734   -4.0668719    1.2874265      1024000 
  520000   0.85855727   -4.0650674   -4.0650674   -2.7772342  0.029312958   -4.0650674    1.2878333      1024000 
  521000   0.85925294   -4.0640143   -4.0640143   -2.7751375  0.020347152   -4.0640143    1.2888768      1024000 
  522000   0.85844808   -4.0603726   -4.0603726   -2.7727031  0.024842838   -4.0603726    1.2876695      1024000 
  523000   0.85917835   -4.0599517   -4.0599517   -2.7711868  0.027330052   -4.0599517    1.2887649      1024000 
  524000   0.85887844   -4.0572099   -4.0572099   -2.7688948  0.022599871   -4.0572099     1.288315      1024000 
  525000   0.85909069   -4.0551422   -4.0551422   -2.7665088  0.026603517   -4.0551422    1.2886334      1024000 
  526000   0.86000387   -4.0534632   -4.0534632     -2.76346  0.024010151   -4.0534632    1.2900032      1024000 
  527000   0.85996779    -4.051301    -4.051301   -2.7613519  0.029228512    -4.051301    1.2899491      1024000 
  528000   0.86035666   -4.0490152   -4.0490152   -2.7584828  0.034534772   -4.0490152    1.2905324      1024000 
  529000   0.86192962   -4.0498684   -4.0498684   -2.7569766  0.032089564   -4.0498684    1.2928918      1024000 
  530000   0.86248482   -4.0481742   -4.0481742   -2.7544496  0.035740439   -4.0481742    1.2937246      1024000 
  531000   0.86271772   -4.0468159   -4.0468159    -2.752742  0.033316768   -4.0468159     1.294074      1024000 
  532000   0.86342058   -4.0463963   -4.0463963   -2.7512681   0.03488602   -4.0463963    1.2951282      1024000 
  533000   0.86392673   -4.0455782   -4.0455782   -2.7496907  0.033176517   -4.0455782    1.2958875      1024000 
  534000   0.86318645   -4.0408927   -4.0408927   -2.7461156  0.040699774   -4.0408927    1.2947771      1024000 
  535000   0.86214034   -4.0371617   -4.0371617   -2.7439538  0.039210918   -4.0371617    1.2932079      1024000 
  536000    0.8646035   -4.0377279   -4.0377279   -2.7408253  0.032072555   -4.0377279    1.2969026      1024000 
  537000   0.86441463   -4.0351502   -4.0351502   -2.7385309  0.026314479   -4.0351502    1.2966193      1024000 
  538000   0.86379099   -4.0319921   -4.0319921   -2.7363082  0.032511959   -4.0319921    1.2956839      1024000 
  539000   0.86439482   -4.0307485   -4.0307485   -2.7341589  0.030861513   -4.0307485    1.2965896      1024000 
  540000   0.86638948     -4.03112     -4.03112   -2.7315384  0.028710471     -4.03112    1.2995816      1024000 
  541000   0.86568084   -4.0274778   -4.0274778   -2.7289592  0.033901524   -4.0274778    1.2985186      1024000 
  542000   0.86518468   -4.0255846   -4.0255846   -2.7278102  0.036654142   -4.0255846    1.2977744      1024000 
  543000    0.8663393   -4.0254775   -4.0254775   -2.7259712  0.031296065   -4.0254775    1.2995063      1024000 
  544000   0.86563398   -4.0225871   -4.0225871   -2.7241387  0.041280998   -4.0225871    1.2984483      1024000 
  545000   0.86756738    -4.022377    -4.022377   -2.7210285  0.038680952    -4.022377    1.3013484      1024000 
  546000    0.8654619   -4.0172428   -4.0172428   -2.7190526   0.04212443   -4.0172428    1.2981902      1024000 
  547000   0.86793652   -4.0184954   -4.0184954   -2.7165932     0.042887   -4.0184954    1.3019021      1024000 
  548000   0.86798391   -4.0164152   -4.0164152    -2.714442   0.04546104   -4.0164152    1.3019732      1024000 
  549000   0.86814566   -4.0139886   -4.0139886   -2.7117728  0.044062834   -4.0139886    1.3022159      1024000 
  550000   0.86866107   -4.0128509   -4.0128509    -2.709862  0.044062792   -4.0128509     1.302989      1024000 
  551000   0.86892336   -4.0106889   -4.0106889   -2.7073065  0.042016799   -4.0106889    1.3033824      1024000 
  552000   0.86960867   -4.0096968   -4.0096968   -2.7052865  0.045620079   -4.0096968    1.3044104      1024000 
  553000   0.87126013   -4.0103541   -4.0103541   -2.7034666  0.046386569   -4.0103541    1.3068875      1024000 
  554000   0.86885958   -4.0050147   -4.0050147   -2.7017279  0.045370036   -4.0050147    1.3032867      1024000 
  555000   0.86941016   -4.0040107   -4.0040107   -2.6998981  0.043080341   -4.0040107    1.3041126      1024000 
  556000   0.87004873   -4.0022497   -4.0022497   -2.6971792  0.035801178   -4.0022497    1.3050704      1024000 
  557000   0.86988185   -4.0008101   -4.0008101   -2.6959899  0.032731613   -4.0008101    1.3048201      1024000 
  558000   0.86923571   -3.9972094   -3.9972094   -2.6933585  0.039650249   -3.9972094    1.3038509      1024000 
  559000   0.86967631   -3.9963442   -3.9963442   -2.6918324   0.04331692   -3.9963442    1.3045118      1024000 
  560000   0.86989942   -3.9950089   -3.9950089   -2.6901624  0.040115599   -3.9950089    1.3048465      1024000 
  561000   0.87054081   -3.9951301   -3.9951301   -2.6893215  0.036629267   -3.9951301    1.3058086      1024000 
  562000   0.87087818   -3.9934718   -3.9934718   -2.6871572  0.044160479   -3.9934718    1.3063146      1024000 
  563000   0.87062373   -3.9914665   -3.9914665   -2.6855336  0.043199108   -3.9914665    1.3059329      1024000 
  564000   0.87202732   -3.9913088   -3.9913088   -2.6832705  0.041651804   -3.9913088    1.3080383      1024000 
  565000   0.87221961     -3.98954     -3.98954   -2.6812133  0.045614804     -3.98954    1.3083268      1024000 
  566000   0.87286316   -3.9884711   -3.9884711    -2.679179  0.043103771   -3.9884711    1.3092921      1024000 
  567000   0.87360158    -3.987406    -3.987406   -2.6770063  0.045154368    -3.987406    1.3103997      1024000 
  568000   0.87371808   -3.9851593   -3.9851593   -2.6745849  0.046918759   -3.9851593    1.3105745      1024000 
  569000   0.87541663   -3.9851238   -3.9851238   -2.6720015   0.04879092   -3.9851238    1.3131223      1024000 
  570000   0.87409972   -3.9817563   -3.9817563   -2.6706094  0.049804505   -3.9817563    1.3111469      1024000 
  571000   0.87407978   -3.9800867   -3.9800867   -2.6689697  0.046216043   -3.9800867     1.311117      1024000 
  572000    0.8748421   -3.9793348   -3.9793348   -2.6670743  0.048643443   -3.9793348    1.3122605      1024000 
  573000   0.87585496   -3.9789932   -3.9789932   -2.6652134  0.045489132   -3.9789932    1.3137798      1024000 
  574000   0.87584436   -3.9770267   -3.9770267   -2.6632628  0.049041738   -3.9770267    1.3137639      1024000 
  575000   0.87582698   -3.9755539   -3.9755539   -2.6618161  0.051888826   -3.9755539    1.3137378      1024000 
  576000   0.87577684   -3.9734087   -3.9734087   -2.6597461  0.052046918   -3.9734087    1.3136626      1024000 
  577000   0.87698588   -3.9725993   -3.9725993   -2.6571232  0.049132867   -3.9725993    1.3154761      1024000 
  578000      0.87738   -3.9712539   -3.9712539   -2.6551865  0.052903843   -3.9712539    1.3160673      1024000 
  579000   0.87602809   -3.9688168   -3.9688168   -2.6547773  0.052961407   -3.9688168    1.3140395      1024000 
  580000   0.87744353    -3.969201    -3.969201   -2.6530384  0.047568564    -3.969201    1.3161626      1024000 
  581000   0.87861619   -3.9688775   -3.9688775   -2.6509558  0.046440884   -3.9688775    1.3179216      1024000 
  582000   0.87829085   -3.9666855   -3.9666855   -2.6492519  0.048255348   -3.9666855    1.3174336      1024000 
  583000   0.87770477   -3.9643808   -3.9643808   -2.6478263  0.046884643   -3.9643808    1.3165545      1024000 
  584000   0.87789393   -3.9623099   -3.9623099   -2.6454716  0.056373176   -3.9623099    1.3168382      1024000 
  585000   0.87872108   -3.9616503   -3.9616503   -2.6435714  0.051174265   -3.9616503    1.3180789      1024000 
  586000   0.87914569   -3.9613892   -3.9613892   -2.6426734  0.053262024   -3.9613892    1.3187159      1024000 
  587000   0.88006265   -3.9615359   -3.9615359   -2.6414446  0.049687171   -3.9615359    1.3200913      1024000 
  588000   0.87938844   -3.9587078   -3.9587078   -2.6396278  0.053203498   -3.9587078      1.31908      1024000 
  589000   0.87904098    -3.956141    -3.956141   -2.6375822  0.056970763    -3.956141    1.3185588      1024000 
  590000   0.88049459   -3.9561742   -3.9561742   -2.6354349  0.058487316   -3.9561742    1.3207392      1024000 
  591000   0.88099257   -3.9543296   -3.9543296   -2.6328434  0.052811421   -3.9543296    1.3214862      1024000 
  592000   0.88145363   -3.9528525   -3.9528525   -2.6306747  0.052369663   -3.9528525    1.3221778      1024000 
  593000   0.88208876   -3.9515672   -3.9515672   -2.6284367  0.052774375   -3.9515672    1.3231305      1024000 
  594000    0.8816317   -3.9493329   -3.9493329    -2.626888  0.055059287   -3.9493329    1.3224449      1024000 
  595000   0.88222287   -3.9483629   -3.9483629   -2.6250313  0.061211743   -3.9483629    1.3233316      1024000 
  596000   0.88398476   -3.9494872   -3.9494872   -2.6235128  0.055809057   -3.9494872    1.3259745      1024000 
  597000   0.88410619    -3.947946    -3.947946   -2.6217894  0.056946182    -3.947946    1.3261566      1024000 
  598000   0.88372273   -3.9455327   -3.9455327   -2.6199513   0.06176886   -3.9455327    1.3255814      1024000 
  599000   0.88425214   -3.9447847   -3.9447847   -2.6184092  0.062241324   -3.9447847    1.3263755      1024000 
  600000   0.88571141    -3.945798    -3.945798   -2.6172336  0.054321937    -3.945798    1.3285644      1024000 
  601000   0.88460858   -3.9415183   -3.9415183   -2.6146081  0.054790052   -3.9415183    1.3269102      1024000 
  602000   0.88385984   -3.9388239   -3.9388239   -2.6130369  0.061437811   -3.9388239    1.3257871      1024000 
  603000   0.88527062   -3.9399827   -3.9399827   -2.6120794  0.054943754   -3.9399827    1.3279032      1024000 
  604000   0.88551547   -3.9389315   -3.9389315    -2.610661  0.052451518   -3.9389315    1.3282705      1024000 
  605000   0.88567423   -3.9378465   -3.9378465   -2.6093379  0.052812423   -3.9378465    1.3285086      1024000 
  606000   0.88541856   -3.9360785   -3.9360785   -2.6079534  0.055833216   -3.9360785    1.3281251      1024000 
  607000   0.88736231   -3.9366653   -3.9366653   -2.6056245  0.054044481   -3.9366653    1.3310408      1024000 
  608000   0.88667331   -3.9347325   -3.9347325   -2.6047252  0.060359097   -3.9347325    1.3300073      1024000 
  609000    0.8860599   -3.9321932   -3.9321932    -2.603106  0.062223771   -3.9321932    1.3290872      1024000 
  610000   0.88697773   -3.9319208   -3.9319208   -2.6014569  0.058975276   -3.9319208    1.3304639      1024000 
  611000    0.8884214   -3.9322617   -3.9322617   -2.5996323  0.058219636   -3.9322617    1.3326294      1024000 
  612000   0.88795667   -3.9300707   -3.9300707   -2.5981384  0.060095386   -3.9300707    1.3319323      1024000 
  613000   0.88784169   -3.9288082   -3.9288082   -2.5970484  0.060062059   -3.9288082    1.3317598      1024000 
  614000   0.88854129   -3.9288414   -3.9288414   -2.5960321  0.063297924   -3.9288414    1.3328092      1024000 
  615000   0.89033591   -3.9296097   -3.9296097   -2.5941085  0.059672065   -3.9296097    1.3355012      1024000 
  616000   0.89072791   -3.9286211   -3.9286211    -2.592532  0.062160632   -3.9286211    1.3360891      1024000 
  617000   0.89048968   -3.9268734   -3.9268734   -2.5911416  0.062868369   -3.9268734    1.3357318      1024000 
  618000   0.89089249   -3.9262019   -3.9262019   -2.5898659  0.065999836   -3.9262019     1.336336      1024000 
  619000   0.89057025   -3.9246212   -3.9246212   -2.5887685  0.065772338   -3.9246212    1.3358527      1024000 
  620000   0.89076187   -3.9239581   -3.9239581    -2.587818  0.060459317   -3.9239581    1.3361401      1024000 
  621000   0.89164405   -3.9238388   -3.9238388   -2.5863755  0.062402196   -3.9238388    1.3374634      1024000 
  622000   0.89243185   -3.9232703   -3.9232703   -2.5846252  0.061068551   -3.9232703    1.3386451      1024000 
  623000   0.89190826   -3.9209855   -3.9209855   -2.5831258  0.064157426   -3.9209855    1.3378597      1024000 
  624000   0.89278469   -3.9213731   -3.9213731   -2.5821987  0.063094325   -3.9213731    1.3391743      1024000 
  625000   0.89260234   -3.9195517   -3.9195517   -2.5806509  0.064508626   -3.9195517    1.3389008      1024000 
  626000   0.89247078   -3.9182216   -3.9182216   -2.5795181  0.066720135   -3.9182216    1.3387034      1024000 
  627000   0.89388934   -3.9195406   -3.9195406   -2.5787093  0.058853156   -3.9195406    1.3408313      1024000 
  628000   0.89497712   -3.9199667   -3.9199667   -2.5775037  0.062253998   -3.9199667     1.342463      1024000 
  629000   0.89509071   -3.9186165   -3.9186165   -2.5759832  0.060464882   -3.9186165    1.3426333      1024000 
  630000   0.89502078   -3.9175631   -3.9175631   -2.5750347  0.060119111   -3.9175631    1.3425284      1024000 
  631000   0.89524568   -3.9167025   -3.9167025   -2.5738367  0.062141028   -3.9167025    1.3428658      1024000 
  632000   0.89578237   -3.9160567   -3.9160567   -2.5723859  0.064541636   -3.9160567    1.3436708      1024000 
  633000   0.89667108   -3.9168598   -3.9168598   -2.5718559  0.064548344   -3.9168598    1.3450039      1024000 
  634000   0.89708153   -3.9164538   -3.9164538   -2.5708343  0.067596075   -3.9164538    1.3456196      1024000 
  635000   0.89825216   -3.9170179   -3.9170179   -2.5696424  0.069578328   -3.9170179    1.3473755      1024000 
  636000   0.89957657   -3.9181143   -3.9181143   -2.5687522  0.064365412   -3.9181143    1.3493621      1024000 
  637000   0.90147217   -3.9200782   -3.9200782   -2.5678727  0.071920446   -3.9200782    1.3522055      1024000 
  638000    0.9033152   -3.9214119   -3.9214119   -2.5664418  0.088759849   -3.9214119    1.3549701      1024000 
  639000   0.90994448   -3.9302257   -3.9302257   -2.5653118   0.10184826   -3.9302257     1.364914      1024000 
  640000   0.91479021   -3.9365426   -3.9365426   -2.5643601   0.14241246   -3.9365426    1.3721825      1024000 
  641000    0.9231582   -3.9478457   -3.9478457   -2.5631112   0.17886216   -3.9478457    1.3847345      1024000 
  642000   0.93098235   -3.9583511   -3.9583511   -2.5618804   0.22201999   -3.9583511    1.3964707      1024000 
  643000   0.94005774   -3.9712823   -3.9712823   -2.5611985   0.26457143   -3.9712823    1.4100838      1024000 
  644000   0.94853695   -3.9833645   -3.9833645    -2.560562    0.3026436   -3.9833645    1.4228025      1024000 
  645000   0.95589124   -3.9936131   -3.9936131   -2.5597791   0.33903731   -3.9936131    1.4338339      1024000 
  646000   0.96420958    -4.004884    -4.004884   -2.5585725   0.37358702    -4.004884    1.4463114      1024000 
  647000   0.96976717   -4.0127631   -4.0127631   -2.5581153   0.39812149   -4.0127631    1.4546478      1024000 
  648000   0.97484586   -4.0193592   -4.0193592   -2.5570934   0.40083778   -4.0193592    1.4622658      1024000 
  649000   0.97369703   -4.0173946   -4.0173946    -2.556852   0.39381245   -4.0173946    1.4605426      1024000 
  650000   0.97137567     -4.01294     -4.01294   -2.5558794   0.36757187     -4.01294    1.4570605      1024000 
  651000    0.9645042   -4.0020686   -4.0020686   -2.5553153   0.33840407   -4.0020686    1.4467534      1024000 
  652000   0.95526871   -3.9877821   -3.9877821   -2.5548819   0.30462312   -3.9877821    1.4329002      1024000 
  653000   0.94786273   -3.9757461   -3.9757461   -2.5539549   0.26712632   -3.9757461    1.4217912      1024000 
  654000   0.93933074   -3.9619454   -3.9619454   -2.5529521   0.21789784   -3.9619454    1.4089932      1024000 
  655000   0.92947009   -3.9464405   -3.9464405   -2.5522382   0.18395833   -3.9464405    1.3942023      1024000 
  656000   0.92346626   -3.9367507   -3.9367507   -2.5515541   0.14043163   -3.9367507    1.3851966      1024000 
  657000   0.91407652   -3.9224292   -3.9224292   -2.5513172   0.11427834   -3.9224292     1.371112      1024000 
  658000   0.90716384   -3.9113839   -3.9113839   -2.5506409  0.083011405   -3.9113839     1.360743      1024000 
  659000   0.90156467   -3.9022531   -3.9022531   -2.5499088  0.058413804   -3.9022531    1.3523443      1024000 
  660000   0.89754322   -3.8953533   -3.8953533   -2.5490412  0.045237019   -3.8953533    1.3463121      1024000 
  661000   0.89563877   -3.8924253   -3.8924253   -2.5489699  0.031802232   -3.8924253    1.3434554      1024000 
  662000   0.89400909   -3.8902945   -3.8902945   -2.5492836  0.026713068   -3.8902945    1.3410109      1024000 
  663000   0.89298998   -3.8886273   -3.8886273   -2.5491451  0.027805647   -3.8886273    1.3394822      1024000 
  664000   0.89310664   -3.8891604   -3.8891604   -2.5495032   0.02688481   -3.8891604    1.3396572      1024000 
  665000   0.89327383   -3.8904725   -3.8904725   -2.5505645  0.033479115   -3.8904725     1.339908      1024000 
  666000   0.89536493    -3.894049    -3.894049   -2.5510044  0.039853814    -3.894049    1.3430447      1024000 
  667000   0.89739481   -3.8974625   -3.8974625    -2.551373  0.047690231   -3.8974625    1.3460895      1024000 
  668000   0.89878853    -3.900442    -3.900442   -2.5522619  0.060572928    -3.900442    1.3481801      1024000 
  669000   0.90140421   -3.9048535   -3.9048535   -2.5527499  0.061350679   -3.9048535    1.3521036      1024000 
  670000   0.90244841   -3.9072128   -3.9072128   -2.5535429  0.073184865   -3.9072128    1.3536699      1024000 
  671000   0.90346904   -3.9094021   -3.9094021   -2.5542013  0.083937383   -3.9094021    1.3552008      1024000 
  672000   0.90475118   -3.9122931   -3.9122931   -2.5551691  0.086003995   -3.9122931     1.357124      1024000 
  673000   0.90483439   -3.9130198   -3.9130198    -2.555771  0.089071973   -3.9130198    1.3572488      1024000 
  674000   0.90452802   -3.9128407   -3.9128407   -2.5560514  0.087104632   -3.9128407    1.3567893      1024000 
  675000   0.90354912   -3.9118366   -3.9118366   -2.5565156  0.084636965   -3.9118366    1.3553209      1024000 
  676000   0.90385306   -3.9124371   -3.9124371   -2.5566603  0.079726758   -3.9124371    1.3557768      1024000 
  677000   0.90127724   -3.9087369   -3.9087369   -2.5568238  0.078457626   -3.9087369    1.3519131      1024000 
  678000   0.89929557   -3.9057449   -3.9057449   -2.5568043  0.068879768   -3.9057449    1.3489406      1024000 
  679000   0.89805599   -3.9042246   -3.9042246   -2.5571434  0.059424464   -3.9042246    1.3470812      1024000 
  680000    0.8955876   -3.9007445   -3.9007445   -2.5573658  0.056330094   -3.9007445    1.3433787      1024000 
  681000   0.89426086   -3.8985354   -3.8985354   -2.5571468  0.049181679   -3.8985354    1.3413886      1024000 
[...]
  837000      0.91305   -3.8785715   -3.8785715   -2.5089993  0.073866697   -3.8785715    1.3695722      1024000 
  838000   0.91234563   -3.8772917   -3.8772917    -2.508776  0.078728186   -3.8772917    1.3685157      1024000 
  839000   0.91276022   -3.8776222   -3.8776222   -2.5084846  0.072131081   -3.8776222    1.3691375      1024000 
  840000   0.91077475   -3.8745925   -3.8745925   -2.5084331  0.076268374   -3.8745925    1.3661594      1024000 
  841000   0.91183516   -3.8758054   -3.8758054   -2.5080554  0.065948362   -3.8758054      1.36775      1024000 
  842000   0.90998846   -3.8731995   -3.8731995   -2.5082195  0.066849966   -3.8731995    1.3649799      1024000 
  843000   0.90929034   -3.8719427   -3.8719427   -2.5080099  0.063702324   -3.8719427    1.3639327      1024000 
  844000    0.9088635   -3.8707152   -3.8707152   -2.5074227  0.051320532   -3.8707152    1.3632925      1024000 
  845000   0.90642988   -3.8672464   -3.8672464   -2.5076043  0.055925959   -3.8672464    1.3596421      1024000 
  846000   0.90607605   -3.8659968   -3.8659968   -2.5068854   0.05480498   -3.8659968    1.3591113      1024000 
  847000   0.90607862   -3.8653266   -3.8653266   -2.5062114     0.048645   -3.8653266    1.3591152      1024000 
  848000   0.90392709   -3.8623635   -3.8623635   -2.5064756  0.045159678   -3.8623635    1.3558879      1024000 
  849000   0.90362223   -3.8617827   -3.8617827   -2.5063521  0.046930942   -3.8617827    1.3554306      1024000 
  850000   0.90446128   -3.8633633   -3.8633633   -2.5066741  0.047528989   -3.8633633    1.3566892      1024000 
  851000   0.90503561   -3.8640659   -3.8640659   -2.5065153  0.038652715   -3.8640659    1.3575507      1024000 
  852000   0.90455346   -3.8629383   -3.8629383   -2.5061108  0.046087466   -3.8629383    1.3568274      1024000 
  853000   0.90522306   -3.8640081   -3.8640081   -2.5061763  0.049784453   -3.8640081    1.3578318      1024000 
  854000   0.90561115   -3.8639916   -3.8639916   -2.5055776  0.054438147   -3.8639916     1.358414      1024000 
  855000   0.90624159   -3.8649135   -3.8649135   -2.5055539  0.056308724   -3.8649135    1.3593596      1024000 
  856000   0.90857064   -3.8682048   -3.8682048   -2.5053516  0.056341852   -3.8682048    1.3628532      1024000 
  857000   0.90877287    -3.868476    -3.868476   -2.5053195  0.057712016    -3.868476    1.3631565      1024000 
  858000   0.90991539   -3.8702392   -3.8702392   -2.5053689  0.062536228   -3.8702392    1.3648703      1024000 
  859000   0.91079363   -3.8708787   -3.8708787    -2.504691  0.065300492   -3.8708787    1.3661877      1024000 
  860000   0.91121973   -3.8710243   -3.8710243   -2.5041975  0.069277479   -3.8710243    1.3668268      1024000 
  861000   0.91064535   -3.8704035   -3.8704035   -2.5044382  0.075920969   -3.8704035    1.3659653      1024000 
  862000    0.9119307   -3.8721353   -3.8721353    -2.504242  0.069952438   -3.8721353    1.3678933      1024000 
  863000   0.91316532   -3.8733471   -3.8733471   -2.5036019  0.068723898   -3.8733471    1.3697452      1024000 
  864000   0.91216843   -3.8717028   -3.8717028   -2.5034529   0.07051537   -3.8717028    1.3682499      1024000 
  865000   0.91158322   -3.8709963   -3.8709963   -2.5036243  0.067067674   -3.8709963    1.3673721      1024000 
  866000   0.90933106   -3.8673756   -3.8673756   -2.5033817  0.063262951   -3.8673756    1.3639938      1024000 
  867000   0.90924452   -3.8669449   -3.8669449   -2.5030809  0.060242499   -3.8669449     1.363864      1024000 
  868000   0.90864071   -3.8657813   -3.8657813    -2.502823  0.055072614   -3.8657813    1.3629583      1024000 
  869000   0.90679982   -3.8625134   -3.8625134   -2.5023165   0.06354939   -3.8625134     1.360197      1024000 
  870000    0.9075054   -3.8632324   -3.8632324   -2.5019771  0.056058438   -3.8632324    1.3612553      1024000 
  871000   0.90632173    -3.861038    -3.861038   -2.5015581  0.051878584    -3.861038    1.3594798      1024000 
  872000   0.90479225   -3.8584103   -3.8584103   -2.5012247  0.047120381   -3.8584103    1.3571856      1024000 
  873000   0.90443317   -3.8574534   -3.8574534   -2.5008064  0.046519425   -3.8574534     1.356647      1024000 
  874000   0.90520074   -3.8580327   -3.8580327   -2.5002343  0.048679719   -3.8580327    1.3577984      1024000 
  875000   0.90602083   -3.8584094   -3.8584094    -2.499381  0.046761717   -3.8584094    1.3590285      1024000 
  876000   0.90597426   -3.8579944   -3.8579944   -2.4990358  0.049404114   -3.8579944    1.3589586      1024000 
  877000   0.90663987   -3.8589006   -3.8589006   -2.4989436  0.053557014   -3.8589006     1.359957      1024000 
  878000   0.90716391   -3.8593491   -3.8593491    -2.498606  0.056817472   -3.8593491    1.3607431      1024000 
  879000   0.90848131   -3.8611481   -3.8611481   -2.4984289  0.056875596   -3.8611481    1.3627192      1024000 
  880000   0.90807332   -3.8606634   -3.8606634   -2.4985562  0.055810684   -3.8606634    1.3621072      1024000 
  881000    0.9100585   -3.8637163   -3.8637163   -2.4986313  0.056844048   -3.8637163     1.365085      1024000 
  882000   0.90944721   -3.8622942   -3.8622942   -2.4981262  0.060836833   -3.8622942     1.364168      1024000 
  883000   0.90940806   -3.8619614   -3.8619614    -2.497852  0.061892126   -3.8619614    1.3641093      1024000 
  884000   0.91090105   -3.8640553   -3.8640553   -2.4977065  0.061295986   -3.8640553    1.3663488      1024000 
  885000   0.91120979   -3.8642032   -3.8642032   -2.4973913  0.068535224   -3.8642032    1.3668119      1024000 
  886000   0.91167734   -3.8641916   -3.8641916   -2.4966783  0.069869563   -3.8641916    1.3675132      1024000 
  887000   0.91202988   -3.8644113   -3.8644113   -2.4963693  0.059870166   -3.8644113     1.368042      1024000 
  888000   0.91121104    -3.862504    -3.862504   -2.4956902   0.06726333    -3.862504    1.3668138      1024000 
  889000   0.91068848   -3.8610023   -3.8610023   -2.4949723  0.068297142   -3.8610023    1.3660299      1024000 
  890000   0.91158205   -3.8620627   -3.8620627   -2.4946924  0.061137768   -3.8620627    1.3673703      1024000 
  891000   0.91142946   -3.8612069   -3.8612069   -2.4940655  0.064359595   -3.8612069    1.3671414      1024000 
  892000   0.90976716     -3.85847     -3.85847    -2.493822  0.061510829     -3.85847     1.364648      1024000 
  893000   0.91003244   -3.8585651   -3.8585651   -2.4935192    0.0590205   -3.8585651    1.3650459      1024000 
  894000   0.90968315   -3.8573326   -3.8573326   -2.4928107  0.053248544   -3.8573326     1.364522      1024000 
  895000   0.90893295   -3.8559872   -3.8559872   -2.4925905  0.052748723   -3.8559872    1.3633967      1024000 
  896000   0.90880883   -3.8546944   -3.8546944   -2.4914839   0.05277553   -3.8546944    1.3632105      1024000 
  897000   0.90870056   -3.8539106   -3.8539106   -2.4908625  0.050151547   -3.8539106    1.3630481      1024000 
  898000   0.90824199   -3.8525382   -3.8525382    -2.490178  0.046234724   -3.8525382    1.3623602      1024000 
  899000   0.90732528   -3.8507668   -3.8507668   -2.4897817   0.04957807   -3.8507668    1.3609852      1024000 
  900000   0.90757791   -3.8504953   -3.8504953   -2.4891312   0.05351477   -3.8504953    1.3613641      1024000 
  901000   0.90953286   -3.8535598   -3.8535598   -2.4892632  0.049554456   -3.8535598    1.3642965      1024000 
  902000    0.9109854      -3.8556      -3.8556   -2.4891246  0.045784505      -3.8556    1.3664753      1024000 
  903000   0.90863449   -3.8516979   -3.8516979   -2.4887489  0.054142822   -3.8516979     1.362949      1024000 
  904000    0.9105294   -3.8532161   -3.8532161   -2.4874248  0.054830319   -3.8532161    1.3657913      1024000 
  905000   0.91204259   -3.8551255   -3.8551255   -2.4870644  0.053888219   -3.8551255    1.3680611      1024000 
  906000     0.911397    -3.854184    -3.854184   -2.4870912  0.055996857    -3.854184    1.3670927      1024000 
  907000   0.91230538    -3.855325    -3.855325   -2.4868697  0.060157264    -3.855325    1.3684553      1024000 
  908000   0.91300471   -3.8556957   -3.8556957   -2.4861914  0.058140532   -3.8556957    1.3695043      1024000 
  909000   0.91459446   -3.8574323   -3.8574323   -2.4855434  0.059491049   -3.8574323    1.3718889      1024000 
  910000   0.91330185   -3.8553171   -3.8553171   -2.4853671  0.066925158   -3.8553171      1.36995      1024000 
  911000   0.91384702   -3.8560008   -3.8560008   -2.4852331  0.068211288   -3.8560008    1.3707678      1024000 
  912000   0.91303064   -3.8542828   -3.8542828   -2.4847396  0.066235752   -3.8542828    1.3695432      1024000 
  913000   0.91226448   -3.8526055   -3.8526055   -2.4842115   0.06649536   -3.8526055    1.3683939      1024000 
  914000   0.91345024   -3.8537622   -3.8537622   -2.4835896  0.060432033   -3.8537622    1.3701726      1024000 
  915000    0.9124866   -3.8516003   -3.8516003   -2.4828731  0.062840691   -3.8516003    1.3687271      1024000 
  916000   0.91311009   -3.8515958   -3.8515958   -2.4819335  0.059392907   -3.8515958    1.3696624      1024000 
  917000   0.91386395   -3.8523689   -3.8523689   -2.4815757  0.053193244   -3.8523689    1.3707932      1024000 
  918000   0.91417451   -3.8520738   -3.8520738   -2.4808149   0.05806013   -3.8520738     1.371259      1024000 
  919000    0.9130491   -3.8503539   -3.8503539   -2.4807831  0.057175255   -3.8503539    1.3695709      1024000 
  920000   0.91249857   -3.8491679   -3.8491679   -2.4804229  0.056404133   -3.8491679    1.3687451      1024000 
  921000   0.91256947   -3.8488916   -3.8488916   -2.4800402  0.054033885   -3.8488916    1.3688514      1024000 
  922000   0.91247736   -3.8482348   -3.8482348   -2.4795216   0.05368888   -3.8482348    1.3687133      1024000 
  923000   0.91145936   -3.8460633   -3.8460633    -2.478877  0.055732486   -3.8460633    1.3671863      1024000 
  924000   0.91211606   -3.8465318   -3.8465318   -2.4783605  0.056968756   -3.8465318    1.3681713      1024000 
  925000   0.91417582   -3.8486797   -3.8486797   -2.4774188  0.054019693   -3.8486797     1.371261      1024000 
  926000    0.9123568   -3.8463385   -3.8463385   -2.4778061   0.06584441   -3.8463385    1.3685324      1024000 
  927000   0.91500851   -3.8495397   -3.8495397   -2.4770297  0.062580126   -3.8495397      1.37251      1024000 
  928000   0.91621239   -3.8509542   -3.8509542   -2.4766384  0.062445486   -3.8509542    1.3743158      1024000 
  929000   0.91878871   -3.8536192   -3.8536192    -2.475439  0.063749239   -3.8536192    1.3781803      1024000 
  930000   0.91919406   -3.8537449   -3.8537449   -2.4749566  0.071640034   -3.8537449    1.3787883      1024000 
  931000   0.92141836   -3.8565865   -3.8565865   -2.4744617  0.083126094   -3.8565865    1.3821247      1024000 
  932000   0.92319119   -3.8590481   -3.8590481   -2.4742642  0.090065475   -3.8590481     1.384784      1024000 
  933000   0.92524841   -3.8611746   -3.8611746   -2.4733048  0.096822066   -3.8611746    1.3878698      1024000 
  934000   0.92835508   -3.8657715   -3.8657715   -2.4732417    0.1020901   -3.8657715    1.3925298      1024000 
  935000    0.9311958    -3.869385    -3.869385   -2.4725942   0.11625712    -3.869385    1.3967909      1024000 
  936000   0.93536987   -3.8756472   -3.8756472   -2.4725953   0.12279364   -3.8756472     1.403052      1024000 
  937000   0.93846945   -3.8801268   -3.8801268   -2.4724254    0.1402223   -3.8801268    1.4077013      1024000 
  938000   0.94106586   -3.8830949   -3.8830949    -2.471499   0.15490377   -3.8830949    1.4115959      1024000 
  939000   0.94396833   -3.8874852   -3.8874852   -2.4715356   0.16296891   -3.8874852    1.4159496      1024000 
  940000   0.94872858   -3.8940783   -3.8940783   -2.4709883   0.17830774   -3.8940783      1.42309      1024000 
  941000   0.95065714   -3.8963726   -3.8963726   -2.4703898   0.18883301   -3.8963726    1.4259828      1024000 
  942000   0.95249537   -3.8983961   -3.8983961   -2.4696559   0.19594516   -3.8983961    1.4287401      1024000 
  943000   0.95456802   -3.9011442   -3.9011442   -2.4692951   0.19683403   -3.9011442    1.4318491      1024000 
  944000   0.95422804   -3.9000826   -3.9000826   -2.4687435   0.20081744   -3.9000826    1.4313392      1024000 
  945000   0.95426268   -3.8996831   -3.8996831   -2.4682919    0.1969636   -3.8996831    1.4313911      1024000 
  946000   0.95329018   -3.8975318   -3.8975318   -2.4675994   0.19469844   -3.8975318    1.4299324      1024000 
  947000   0.95269162   -3.8963844   -3.8963844   -2.4673499   0.18272738   -3.8963844    1.4290345      1024000 
  948000   0.94957278   -3.8913212   -3.8913212   -2.4669649   0.17800955   -3.8913212    1.4243563      1024000 
  949000   0.94695831     -3.88677     -3.88677   -2.4663354   0.16924752     -3.88677    1.4204346      1024000 
  950000   0.94417954   -3.8821431   -3.8821431   -2.4658767    0.1521721   -3.8821431    1.4162664      1024000 
  951000   0.94062103   -3.8766795   -3.8766795   -2.4657508   0.14225118   -3.8766795    1.4109287      1024000 
  952000   0.93689699   -3.8705641   -3.8705641   -2.4652214   0.12606812   -3.8705641    1.4053426      1024000 
  953000   0.93252668   -3.8639221   -3.8639221    -2.465135   0.11292171   -3.8639221    1.3987872      1024000 
  954000   0.93055557    -3.860719    -3.860719   -2.4648885  0.097351208    -3.860719    1.3958305      1024000 
  955000   0.92688654   -3.8549033   -3.8549033   -2.4645763   0.09211682   -3.8549033     1.390327      1024000 
  956000    0.9226401   -3.8489011   -3.8489011   -2.4649437  0.081532965   -3.8489011    1.3839573      1024000 
  957000    0.9217684   -3.8472341   -3.8472341   -2.4645843  0.065243611   -3.8472341    1.3826498      1024000 
  958000   0.91889787   -3.8432079   -3.8432079   -2.4648639  0.064695963   -3.8432079     1.378344      1024000 
  959000   0.91750504   -3.8408567   -3.8408567   -2.4646019  0.058000709   -3.8408567    1.3762548      1024000 
  960000   0.91562525   -3.8378918   -3.8378918   -2.4644568  0.049239041   -3.8378918    1.3734351      1024000 
  961000   0.91340188   -3.8342737   -3.8342737   -2.4641737  0.051642503   -3.8342737       1.3701      1024000 
  962000   0.91449419   -3.8354875   -3.8354875    -2.463749  0.046053991   -3.8354875    1.3717385      1024000 
  963000   0.91498747   -3.8363243   -3.8363243   -2.4638459   0.04612022   -3.8363243    1.3724784      1024000 
  964000   0.91284259    -3.833343    -3.833343   -2.4640819  0.049336542    -3.833343    1.3692611      1024000 
  965000   0.91415518   -3.8346141   -3.8346141   -2.4633842  0.051001004   -3.8346141      1.37123      1024000 
  966000   0.91472705   -3.8358488   -3.8358488    -2.463761  0.049324252   -3.8358488    1.3720878      1024000 
  967000   0.91521193   -3.8362636   -3.8362636   -2.4634485  0.054151725   -3.8362636    1.3728151      1024000 
  968000   0.91656354   -3.8380568   -3.8380568   -2.4632143  0.056176525   -3.8380568    1.3748425      1024000 
  969000   0.91739901   -3.8391776   -3.8391776   -2.4630818  0.056816469   -3.8391776    1.3760957      1024000 
  970000    0.9178952   -3.8395302   -3.8395302   -2.4626901  0.064118217   -3.8395302      1.37684      1024000 
  971000   0.91955146   -3.8418335   -3.8418335   -2.4625091   0.05515227   -3.8418335    1.3793244      1024000 
  972000   0.92074758   -3.8429104   -3.8429104   -2.4617918  0.061616522   -3.8429104    1.3811186      1024000 
  973000   0.92087473   -3.8429708   -3.8429708   -2.4616615  0.065881349   -3.8429708    1.3813093      1024000 
  974000   0.92070713   -3.8418012   -3.8418012   -2.4607433  0.066246504   -3.8418012    1.3810579      1024000 
  975000   0.92000262   -3.8405949   -3.8405949   -2.4605938  0.064737843   -3.8405949    1.3800011      1024000 
  976000   0.92139358   -3.8425692   -3.8425692   -2.4604816  0.066355076   -3.8425692    1.3820876      1024000 
  977000   0.91975165   -3.8400209   -3.8400209   -2.4603963  0.071378753   -3.8400209    1.3796247      1024000 
  978000   0.92014453   -3.8401499   -3.8401499    -2.459936  0.063932417   -3.8401499     1.380214      1024000 
  979000   0.91912108   -3.8385845   -3.8385845   -2.4599057   0.06667386   -3.8385845    1.3786788      1024000 
  980000   0.91748367   -3.8359643   -3.8359643   -2.4597416  0.067264153   -3.8359643    1.3762227      1024000 
  981000   0.91867647   -3.8374711   -3.8374711   -2.4594592  0.063693643   -3.8374711    1.3780119      1024000 
  982000   0.91767242   -3.8351185   -3.8351185   -2.4586126  0.059108266   -3.8351185    1.3765058      1024000 
  983000   0.91701042   -3.8341712   -3.8341712   -2.4586584  0.055369626   -3.8341712    1.3755128      1024000 
  984000    0.9177107   -3.8343969   -3.8343969   -2.4578337  0.052899933   -3.8343969    1.3765633      1024000 
  985000   0.91744687   -3.8333427   -3.8333427   -2.4571752  0.050062449   -3.8333427    1.3761675      1024000 
  986000   0.91633067   -3.8313211   -3.8313211   -2.4568279  0.053873762   -3.8313211    1.3744932      1024000 
  987000   0.91603293   -3.8305648   -3.8305648   -2.4565182  0.054765649   -3.8305648    1.3740466      1024000 
  988000   0.91581588   -3.8302898   -3.8302898   -2.4565688  0.055159899   -3.8302898     1.373721      1024000 
  989000   0.91649339   -3.8308556   -3.8308556   -2.4561183  0.051027798   -3.8308556    1.3747373      1024000 
  990000   0.91583281   -3.8300849   -3.8300849   -2.4563385  0.048972554   -3.8300849    1.3737464      1024000 
  991000   0.91651809   -3.8306652   -3.8306652   -2.4558908  0.050295068   -3.8306652    1.3747743      1024000 
  992000   0.91675229   -3.8307944   -3.8307944   -2.4556688  0.052478336   -3.8307944    1.3751256      1024000 
  993000   0.91820158   -3.8322906   -3.8322906   -2.4549911  0.053904032   -3.8322906    1.3772996      1024000 
  994000   0.91868025   -3.8327479   -3.8327479   -2.4547304   0.05949784   -3.8327479    1.3780176      1024000 
  995000   0.91906891   -3.8329471   -3.8329471   -2.4543465  0.060699597   -3.8329471    1.3786006      1024000 
  996000    0.9197986   -3.8333488   -3.8333488   -2.4536537  0.062860045   -3.8333488    1.3796951      1024000 
  997000   0.92181871    -3.835941    -3.835941   -2.4532157  0.061400216    -3.835941    1.3827253      1024000 
  998000   0.92114668    -3.834321    -3.834321   -2.4526038  0.068738823    -3.834321    1.3817172      1024000 
  999000   0.92309776   -3.8374363   -3.8374363   -2.4527925  0.062132331   -3.8374363    1.3846438      1024000 
 1000000   0.92031634   -3.8327435   -3.8327435   -2.4522718  0.069118555   -3.8327435    1.3804717      1024000 
Loop time of 14520.4 on 32 procs for 1000000 steps with 492800 atoms

Performance: 14875.670 tau/day, 68.869 timesteps/s
99.4% CPU use with 32 MPI tasks x 1 OpenMP threads

MPI task timing breakdown:
Section |  min time  |  avg time  |  max time  |%varavg|  %CPU | %total
-----------------------------------------------------------------------
Pair    | 4738.8     | 6561.5     | 10749      |1659.8 |  99.4 | 45.19
Bond    | 0.38279    | 0.52079    | 0.72338    |  14.1 | 100.0 |  0.00
Neigh   | 1096.1     | 1483.7     | 2116       | 649.4 |  99.9 | 10.22
Comm    | 1030.4     | 5532.5     | 7216.4     |1869.4 |  99.1 | 38.10
Output  | 32.592     | 32.843     | 32.853     |   0.8 |  98.7 |  0.23
Modify  | 187.61     | 340.99     | 842.09     | 996.2 |  99.5 |  2.35
Other   |            | 568.2      |            |       |       |  3.91

Nlocal:        15400.0 ave       16073 max       14250 min
Histogram: 2 0 0 2 2 3 14 3 3 3
Nghost:        11918.4 ave       13439 max        8285 min
Histogram: 4 4 0 0 0 0 0 1 7 16
Neighs:       488284.0 ave      548348 max      284986 min
Histogram: 2 2 0 0 0 0 2 4 6 16

Total # of neighbors = 15625094
Ave neighs/atom = 31.706765
Ave special neighs/atom = 0.0000000
Neighbor list builds = 64334
Dangerous builds = 464
Total wall time: 4:02:01
