LAMMPS (24 Dec 2020)
OMP_NUM_THREADS environment is not set. Defaulting to 1 thread. (src/comm.cpp:94)
  using 1 OpenMP thread(s) per MPI task
#Read the equilibrated lj fluid and add nanocubes

units           lj
atom_style      full
#atom_modify     map array first cubes
dimension       3
boundary        p p f
pair_style      lj/cut/opt 2.5

variable        sigma           equal 1.0
variable        epsilon         equal 1.0
read_restart	restart.dat.10000000
Reading restart file ...
  restart file = 24 Dec 2020, LAMMPS = 24 Dec 2020
WARNING: Restart file used different # of processors: 1048 vs. 768 (src/read_restart.cpp:697)
  restoring atom style full from restart
  orthogonal box = (0.0000000 0.0000000 0.0000000) to (120.00000 120.00000 240.00000)
  6 by 8 by 16 MPI processor grid
  restoring pair style lj/cut/opt from restart
  1714436 atoms
Finding 1-2 1-3 1-4 neighbors ...
  special bond factors lj:    0        0        0       
  special bond factors coul:  0        0        0       
     0 = max # of 1-2 neighbors
     0 = max # of 1-3 neighbors
     0 = max # of 1-4 neighbors
     1 = max # of special neighbors
  special bonds CPU = 9.988 seconds
  read_restart CPU = 11.964 seconds

group		solvent type 1
1154366 atoms in group solvent
group 		hull  type 2
218540 atoms in group hull
group 		dummy type 3
341530 atoms in group dummy

neighbor      0.4 bin
neigh_modify  exclude molecule/intra cubes

pair_modify   shift yes

pair_coeff    1 1 1.0 1.0 #solvent
pair_coeff    2 2 1.0 1.0 1.12 #np
pair_coeff    3 3 0.0 0.0 0.0 #dummy
pair_coeff    2 3 0.0 0.0 0.0 #np dummy
pair_coeff    1 2 ${sol} 1.0  #np solvent
pair_coeff    1 2 0.65 1.0  
pair_coeff    1 3 0.0 0.0 0.0 #dummy solvent


comm_modify   mode multi cutoff/multi 1 2.5 cutoff/multi 2 2.5 cutoff/multi 3 6.95

reset_timestep 	0

balance 	1.05 shift z 10 1.05
Balancing ...
Unused restart file global fix info:
  fix style: STORE, fix ID: msd_COMPUTE_STORE
Unused restart file peratom fix info:
  fix style: STORE, fix ID: bin1_COMPUTE_STORE
  fix style: STORE, fix ID: bin3_COMPUTE_STORE
Neighbor list info ...
  update every 1 steps, delay 10 steps, check yes
  max neighbors/atom: 2000, page size: 100000
  master list distance cutoff = 2.9
  ghost atom cutoff = 6.96
  binsize = 1.45, bins = 83 83 166
  1 neighbor lists, perpetual/occasional/extra = 1 0 0
  (1) pair lj/cut/opt, perpetual
      attributes: half, newton on
      pair build: half/bin/newton
      stencil: half/bin/3d/newton
      bin: standard
 rebalancing time: 0.036 seconds
  iteration count = 3
  initial/final maximal load/proc = 3657.0000 3762.0000
  initial/final imbalance factor  = 1.6381924 1.6852283
  x cuts: 0.0000000 0.16666667 0.33333333 0.50000000 0.66666667 0.83333333 1.0000000
  y cuts: 0.0000000 0.12500000 0.25000000 0.37500000 0.50000000 0.62500000 0.75000000 0.87500000 1.0000000
  z cuts: 0.0000000 0.054687500 0.10156250 0.14843750 0.19531250 0.23437500 0.29687500 0.32812500 0.39062500 0.44531250 0.46093750 0.52343750 0.58593750 0.64843750 0.65625000 0.71875000 1.0000000

####################### WALLS ###########################

variable       epsilonWall equal 2*${epsilon}
variable       epsilonWall equal 2*1
variable       repulsive   equal   0.7147*${sigma}
variable       repulsive   equal   0.7147*1
variable       full	   equal   3*${sigma}
variable       full	   equal   3*1
region         lowWall block EDGE EDGE EDGE EDGE EDGE 2

fix            topWall all wall/lj93 zhi EDGE 	       ${epsilonWall} ${sigma} ${repulsive} units box
fix            topWall all wall/lj93 zhi EDGE 	       2 ${sigma} ${repulsive} units box
fix            topWall all wall/lj93 zhi EDGE 	       2 1 ${repulsive} units box
fix            topWall all wall/lj93 zhi EDGE 	       2 1 0.7147 units box
fix            lowSol solvent wall/lj93 zlo EDGE                ${epsilonWall} ${sigma} ${full} units box
fix            lowSol solvent wall/lj93 zlo EDGE                2 ${sigma} ${full} units box
fix            lowSol solvent wall/lj93 zlo EDGE                2 1 ${full} units box
fix            lowSol solvent wall/lj93 zlo EDGE                2 1 3 units box
fix 	       lowCub cubes wall/lj93 zlo EDGE                ${epsilonWall} ${sigma} ${repulsive} units box
fix 	       lowCub cubes wall/lj93 zlo EDGE                2 ${sigma} ${repulsive} units box
fix 	       lowCub cubes wall/lj93 zlo EDGE                2 1 ${repulsive} units box
fix 	       lowCub cubes wall/lj93 zlo EDGE                2 1 0.7147 units box


###################### COMPUTES ##########################

compute        bin1 solvent chunk/atom bin/1d z lower 1.0 units box
compute        bin3 solvent chunk/atom bin/3d x lower 5.0 y lower 5.0 z lower 5.0 units box

compute 	pe solvent 	   pe/atom
compute 	pe2 all 	   pe/atom

######################  FIXES ############################


fix             peclet solvent ave/chunk 10 10 10000 bin1 density/number norm                  none ave one file density.profile

fix              temp solvent ave/chunk 10 10 10000 bin1 temp norm                  none ave one file temp.profile

fix 		 dens solvent ave/chunk 10 10 500000 bin3 density/number norm 		 none ave one file dens3.profile

fix		 temp2 solvent ave/chunk 10 10 500000 bin3 temp norm none ave one file temp3.profile

fix 		pe solvent ave/chunk 1 1 500000 bin3 c_pe norm none ave one file pe3.profile



################### INTEGRATION

fix             1 cubes rigid/nve/small molecule
  create bodies CPU = 0.069 seconds
  490 rigid bodies with 560070 atoms
  6.9542847 = max distance from body owner to body atom

fix             2 solvent nve



## Thermostat
region          regthermo block EDGE EDGE EDGE EDGE 0 15
group           thermo dynamic solvent region regthermo every 1000
dynamic group thermo defined
fix             3 thermo langevin ${temp} ${temp} 10 156453
fix             3 thermo langevin 1.0 ${temp} 10 156453
fix             3 thermo langevin 1.0 1.0 10 156453

## Evaporation
region		regevap block EDGE EDGE EDGE EDGE 140 EDGE
fix 		4 solvent evaporate ${evap} 1 regevap 156415
fix 		4 solvent evaporate 37 1 regevap 156415


#### Load balancing

fix             bal all balance 1000 1.05 shift z 10 1.05

############### Diagnostics and computes ###################

compute        	com cubes          rigid/local   1 mol x y z
compute        	quat cubes         rigid/local   1 mol quatw quati quatj quatk

compute 	cc2 cubes 	   chunk/atom 	 molecule
compute 	msd cubes 	   msd/chunk 	 cc2

fix 		msd all ave/time  1 1 10000 c_msd[*] file dump.msd ave one mode vector

dump            1 all custom 500000 dump.lammpstrj id mol type x y z vx vy vz c_pe2
dump		sol  solvent custom 500000 dump.soltrj id x y z vx vy vz c_pe
dump		cubetrj cubes custom 500000 cubes.lammpstrj id mol type x y z vx vy vz
dump            com cubes local 500000 dump.*.xyz c_com[*]
dump	        xyz hull xyz 500000 cubes.xyz
#dump            quat cubes      local 100000 dump.*.quat c_quat[*]
dump		order cubes 	local 100000 dump.*.order c_com[*] c_quat[*]
#dump		mol cubes molfile 10000 mol.xyz xyz


dump            2 all image 100000 image.*.png type type zoom 1.5 size 1280 720
dump_modify     2 pad 8
dump		image cubes image 100000 image_cubes.*.png type type zoom 1.5 size 1280 720
dump_modify	image pad 8
dump            3 all movie 5000 movie.avi type type zoom 1.5 size 1280 720
dump		4 cubes movie 5000 movie_cubes.avi type type size 1280 720


thermo          1000
thermo_style    custom step temp epair evdwl etotal press pe ke atoms

restart         1000000 restart.dat
timestep        0.005
timer           full
New timer settings: style=full  mode=nosync  timeout=off

run 		${steps}
run 		30000000
Per MPI rank memory allocation (min/avg/max) = 16.74 | 23.14 | 26.09 Mbytes
Step Temp E_pair E_vdwl TotEng Press PotEng KinEng Atoms 
       0     1.011491   -2.1340002   -2.1340002   -1.1115464  0.083233681   -2.1340002    1.0224538  1714436 
    1000    1.0103499   -2.1331254   -2.1331254   -1.1118089  0.070418684   -2.1331254    1.0213164  1714409 
    2000    1.0102287   -2.1333762   -2.1333762   -1.1121663   0.06998117   -2.1333762    1.0212099  1714382 
    3000    1.0106929   -2.1337203   -2.1337203    -1.112025  0.070228984   -2.1337203    1.0216953  1714355 
    4000    1.0097014   -2.1325436   -2.1325436   -1.1118345  0.072209342   -2.1325436    1.0207091  1714328 
    5000    1.0115989   -2.1341061   -2.1341061   -1.1114626  0.066582464   -2.1341061    1.0226434  1714301 
    6000    1.0112534   -2.1340699   -2.1340699   -1.1117596  0.070026154   -2.1340699    1.0223103  1714274 
    7000    1.0115589   -2.1343132   -2.1343132   -1.1116781  0.069502381   -2.1343132    1.0226351  1714247 
    8000    1.0097524   -2.1324591   -2.1324591   -1.1116341  0.071096339   -2.1324591    1.0208249  1714220 
    9000    1.0111113   -2.1336081   -2.1336081   -1.1113932  0.072389141   -2.1336081    1.0222149  1714193 
   10000    1.0105003   -2.1329835   -2.1329835   -1.1113702  0.072094352   -2.1329835    1.0216133  1714166 
   11000    1.0106502   -2.1334785   -2.1334785   -1.1116976  0.070032781   -2.1334785    1.0217809  1714139 
   12000    1.0107098   -2.1333979   -2.1333979   -1.1115407  0.069279183   -2.1333979    1.0218573  1714112 
   13000    1.0109984   -2.1335218   -2.1335218   -1.1113567  0.068010369   -2.1335218    1.0221651  1714085 
   14000    1.0111029   -2.1335057   -2.1335057   -1.1112189   0.07154184   -2.1335057    1.0222869  1714058 
   15000    1.0106873   -2.1326512   -2.1326512   -1.1107684  0.070098286   -2.1326512    1.0218828  1714031 
   16000    1.0104441   -2.1320557   -2.1320557   -1.1104027  0.072320386   -2.1320557     1.021653  1714004 
   17000    1.0103167   -2.1322943   -2.1322943   -1.1107541  0.070872671   -2.1322943    1.0215402  1713977 
   18000    1.0106607    -2.132541    -2.132541   -1.1106369  0.073459359    -2.132541    1.0219041  1713950 
   19000    1.0118066   -2.1334131   -2.1334131   -1.1103342  0.071841224   -2.1334131    1.0230789  1713923 
   20000    1.0105503   -2.1316826   -2.1316826   -1.1098579   0.07407878   -2.1316826    1.0218248  1713896 
   21000    1.0105777   -2.1317042   -2.1317042   -1.1098356  0.072132888   -2.1317042    1.0218685  1713869 
   22000    1.0108813   -2.1325468   -2.1325468   -1.1103552  0.070153906   -2.1325468    1.0221916  1713842 
   23000    1.0104933   -2.1325472   -2.1325472   -1.1107318  0.069708719   -2.1325472    1.0218154  1713815 
   24000    1.0102883   -2.1320398   -2.1320398   -1.1104156  0.067469992   -2.1320398    1.0216242  1713788 
   25000    1.0095097   -2.1311425   -2.1311425   -1.1102895   0.06878096   -2.1311425     1.020853  1713761 
   26000    1.0096559   -2.1315325   -2.1315325   -1.1105156  0.070598896   -2.1315325    1.0210169  1713734 
   27000    1.0102485   -2.1322684   -2.1322684   -1.1106362  0.069547264   -2.1322684    1.0216322  1713707 
   28000    1.0098056   -2.1317182   -2.1317182   -1.1105178  0.069225435   -2.1317182    1.0212004  1713680 
   29000    1.0099139   -2.1321199   -2.1321199   -1.1107938  0.072750056   -2.1321199    1.0213261  1713653 
   30000    1.0090567   -2.1316251   -2.1316251   -1.1111499  0.072105067   -2.1316251    1.0204752  1713626 
   31000    1.0101865   -2.1325946   -2.1325946   -1.1109606  0.071545108   -2.1325946    1.0216339  1713599 
   32000    1.0086506   -2.1312142   -2.1312142   -1.1111175  0.074514804   -2.1312142    1.0200966  1713572 
   33000    1.0105631    -2.133053    -2.133053    -1.111006  0.073052973    -2.133053     1.022047  1713545 
   34000    1.0091025   -2.1316241   -2.1316241   -1.1110383  0.069973707   -2.1316241    1.0205859  1713518 
   35000    1.0097768   -2.1324695   -2.1324695   -1.1111855  0.070761998   -2.1324695    1.0212839  1713491 
   36000    1.0096327   -2.1323552   -2.1323552   -1.1112009  0.069061782   -2.1323552    1.0211543  1713464 
   37000    1.0095857   -2.1321343   -2.1321343   -1.1110108  0.071674793   -2.1321343    1.0211235  1713436 
   38000    1.0097529   -2.1323766   -2.1323766   -1.1110679  0.072984619   -2.1323766    1.0213087  1713409 
   39000    1.0104164    -2.132722    -2.132722   -1.1107261  0.073266531    -2.132722    1.0219959  1713382 
   40000    1.0107882   -2.1332504   -2.1332504   -1.1108623  0.070276984   -2.1332504    1.0223881  1713355 
   41000    1.0109254   -2.1329779   -2.1329779    -1.110435  0.069891104   -2.1329779    1.0225429  1713328 
   42000    1.0098248   -2.1317461   -2.1317461   -1.1103004  0.071872076   -2.1317461    1.0214457  1713301 
   43000    1.0105426   -2.1327431   -2.1327431   -1.1105552  0.072559326   -2.1327431    1.0221879  1713274 
   44000     1.010738   -2.1324257   -2.1324257    -1.110024  0.070444667   -2.1324257    1.0224017  1713247 
   45000     1.011245   -2.1327068   -2.1327068   -1.1097761  0.072340872   -2.1327068    1.0229307  1713220 
   46000    1.0116365   -2.1333187   -2.1333187   -1.1099758  0.069229079   -2.1333187    1.0233429  1713193 
   47000    1.0111328   -2.1332027   -2.1332027   -1.1103533   0.07297485   -2.1332027    1.0228494  1713166 
   48000    1.0114542   -2.1335145   -2.1335145   -1.1103239  0.066695679   -2.1335145    1.0231906  1713139 
   49000    1.0111629   -2.1328018   -2.1328018   -1.1098897  0.073369271   -2.1328018    1.0229121  1713112 
   50000    1.0110464    -2.132867    -2.132867   -1.1100566   0.07198643    -2.132867    1.0228104  1713085 
   51000    1.0115719   -2.1330988   -2.1330988   -1.1097407  0.075758727   -2.1330988    1.0233581  1713058 
   52000    1.0116252   -2.1333647   -2.1333647   -1.1099365  0.077953297   -2.1333647    1.0234282  1713031 
   53000    1.0109007   -2.1329423   -2.1329423   -1.1102309  0.071343609   -2.1329423    1.0227114  1713004 
   54000     1.010388    -2.132588    -2.132588   -1.1103793  0.071898078    -2.132588    1.0222087  1712977 
   55000    1.0111466   -2.1330788   -2.1330788   -1.1100865  0.072103216   -2.1330788    1.0229923  1712950 
   56000    1.0107035   -2.1324052   -2.1324052    -1.109845  0.072762353   -2.1324052    1.0225602  1712923 
   57000    1.0101191   -2.1319497   -2.1319497   -1.1099647  0.073031055   -2.1319497     1.021985  1712896 
   58000    1.0098208   -2.1318023   -2.1318023    -1.110103  0.072979212   -2.1318023    1.0216993  1712869 
   59000    1.0110207   -2.1326897   -2.1326897   -1.1097603  0.074181273   -2.1326897    1.0229295  1712842 
   60000    1.0099088   -2.1315952   -2.1315952   -1.1097746  0.074849397   -2.1315952    1.0218206  1712815 
   61000    1.0098177    -2.131828    -2.131828   -1.1100835  0.070717151    -2.131828    1.0217445  1712788 
   62000    1.0098954   -2.1315275   -2.1315275   -1.1096883  0.069762078   -2.1315275    1.0218392  1712761 
   63000    1.0094093   -2.1309885   -2.1309885   -1.1096249  0.069877874   -2.1309885    1.0213635  1712734 
   64000    1.0102139   -2.1312743   -2.1312743   -1.1090805  0.070506114   -2.1312743    1.0221937  1712707 
   65000       1.0091    -2.130495    -2.130495   -1.1094123  0.071409805    -2.130495    1.0210828  1712680 
   66000    1.0093201    -2.130588    -2.130588   -1.1092665  0.070943998    -2.130588    1.0213215  1712653 
   67000    1.0093775   -2.1301886   -2.1301886   -1.1087929  0.069858546   -2.1301886    1.0213957  1712626 
   68000    1.0102485   -2.1307382   -2.1307382    -1.108445  0.069927995   -2.1307382    1.0222932  1712599 
   69000    1.0100849   -2.1302379   -2.1302379   -1.1080941  0.071173463   -2.1302379    1.0221438  1712572 
   70000    1.0096125   -2.1301208   -2.1301208    -1.108439  0.073080636   -2.1301208    1.0216818  1712545 
   71000    1.0092966   -2.1296298   -2.1296298   -1.1082515  0.071950754   -2.1296298    1.0213782  1712518 
   72000    1.0103492    -2.130377    -2.130377   -1.1079175  0.070429585    -2.130377    1.0224596  1712491 
   73000    1.0093783    -2.128913    -2.128913   -1.1074199  0.073599958    -2.128913    1.0214931  1712464 
   74000    1.0103966   -2.1298212   -2.1298212   -1.1072807  0.069149088   -2.1298212    1.0225404  1712436 
   75000    1.0099306   -2.1293456   -2.1293456   -1.1072607   0.07253677   -2.1293456    1.0220849  1712409 
   76000     1.009464   -2.1291382   -2.1291382   -1.1075094   0.06800314   -2.1291382    1.0216288  1712382 
   77000     1.008902   -2.1287036   -2.1287036   -1.1076275  0.071133103   -2.1287036    1.0210761  1712355 
   78000    1.0097511   -2.1294244   -2.1294244   -1.1074728  0.071020547   -2.1294244    1.0219516  1712328 
   79000    1.0088158   -2.1289035   -2.1289035   -1.1078823  0.072315379   -2.1289035    1.0210211  1712301 
   80000    1.0083492   -2.1286431   -2.1286431   -1.1080781  0.070548998   -2.1286431     1.020565  1712274 
   81000    1.0080105   -2.1282782   -2.1282782     -1.10804  0.067656199   -2.1282782    1.0202382  1712247 
   82000    1.0094269   -2.1292052   -2.1292052   -1.1075173  0.067146922   -2.1292052    1.0216879  1712220 
   83000    1.0087056     -2.12845     -2.12845    -1.107476  0.069723248     -2.12845     1.020974  1712193 
   84000    1.0092047   -2.1284474   -2.1284474   -1.1069521  0.069465491   -2.1284474    1.0214953  1712166 
   85000    1.0085556   -2.1282393   -2.1282393    -1.107385  0.068033497   -2.1282393    1.0208543  1712139 
   86000    1.0084603    -2.127541    -2.127541   -1.1067671  0.071539887    -2.127541     1.020774  1712112 
   87000    1.0091316   -2.1280336   -2.1280336    -1.106564  0.069063464   -2.1280336    1.0214695  1712085 
   88000    1.0091358   -2.1277459   -2.1277459   -1.1062561  0.067140582   -2.1277459    1.0214899  1712058 
   89000    1.0080829    -2.126721    -2.126721   -1.1062808  0.070178894    -2.126721    1.0204402  1712031 
   90000      1.00761    -2.126626    -2.126626   -1.1066484  0.069997851    -2.126626    1.0199776  1712004 
   91000    1.0087727   -2.1277688   -2.1277688   -1.1065981  0.071005459   -2.1277688    1.0211707  1711977 
   92000    1.0084617   -2.1277479   -2.1277479    -1.106876  0.069143044   -2.1277479    1.0208719  1711950 
   93000    1.0095464   -2.1289063   -2.1289063   -1.1069202  0.066629604   -2.1289063    1.0219861  1711923 
   94000    1.0085814   -2.1279218   -2.1279218   -1.1068965  0.071476246   -2.1279218    1.0210253  1711896 
   95000    1.0091156   -2.1283863   -2.1283863   -1.1068041  0.070094921   -2.1283863    1.0215823  1711869 
   96000    1.0089436   -2.1284824   -2.1284824   -1.1070582  0.068780079   -2.1284824    1.0214242  1711842 
   97000    1.0082268   -2.1276368   -2.1276368   -1.1069222  0.068815986   -2.1276368    1.0207147  1711815 
   98000    1.0083125    -2.128167    -2.128167   -1.1073495   0.06553358    -2.128167    1.0208175  1711788 
   99000     1.008553   -2.1286555   -2.1286555   -1.1075784  0.067659751   -2.1286555    1.0210771  1711761 
  100000    1.0091946   -2.1291403   -2.1291403   -1.1073975  0.069992811   -2.1291403    1.0217428  1711734 
  101000    1.0085762   -2.1283064   -2.1283064   -1.1071736  0.068660344   -2.1283064    1.0211329  1711707 
  102000    1.0091602   -2.1287504   -2.1287504   -1.1070101  0.067097159   -2.1287504    1.0217402  1711680 
  103000    1.0089964   -2.1284761   -2.1284761   -1.1068856  0.076670793   -2.1284761    1.0215905  1711653 
  104000    1.0092647    -2.128705    -2.128705   -1.1068267   0.07145788    -2.128705    1.0218783  1711626 
  105000     1.009671    -2.129542    -2.129542   -1.1072362  0.065462507    -2.129542    1.0223057  1711599 
  106000    1.0099797   -2.1294967   -2.1294967   -1.1068623  0.071771042   -2.1294967    1.0226345  1711572 
  107000    1.0087922   -2.1290274   -2.1290274   -1.1075792  0.071819932   -2.1290274    1.0214482  1711545 
  108000     1.008761   -2.1285425   -2.1285425   -1.1071098  0.070690736   -2.1285425    1.0214327  1711518 
  109000    1.0087969   -2.1291171   -2.1291171   -1.1076319  0.075824456   -2.1291171    1.0214851  1711491 
  110000    1.0092434   -2.1301511   -2.1301511   -1.1081977   0.07321907   -2.1301511    1.0219534  1711464 
  111000    1.0100969   -2.1309206   -2.1309206   -1.1080862  0.071829845   -2.1309206    1.0228344  1711436 
  112000     1.010468    -2.130462    -2.130462   -1.1072357  0.074132135    -2.130462    1.0232263  1711409 
  113000    1.0097046   -2.1299853   -2.1299853   -1.1075159   0.07154903   -2.1299853    1.0224694  1711382 
  114000    1.0102885   -2.1305274   -2.1305274   -1.1074506  0.073115575   -2.1305274    1.0230768  1711355 
  115000    1.0104232   -2.1307768   -2.1307768   -1.1075474  0.073219847   -2.1307768    1.0232294  1711328 
  116000    1.0094756   -2.1299826   -2.1299826   -1.1076967  0.073068531   -2.1299826    1.0222859  1711301 
  117000    1.0103546   -2.1308504   -2.1308504   -1.1076582  0.072399429   -2.1308504    1.0231922  1711274 
  118000    1.0106224   -2.1313388   -2.1313388   -1.1078593  0.070755192   -2.1313388    1.0234795  1711247 
  119000    1.0097693   -2.1306648   -2.1306648    -1.108033  0.068999858   -2.1306648    1.0226317  1711220 
  120000    1.0087246   -2.1293759   -2.1293759    -1.107786  0.070364885   -2.1293759    1.0215899  1711193 
  121000    1.0098505   -2.1309712   -2.1309712    -1.108225  0.071014851   -2.1309712    1.0227463  1711166 
  122000    1.0099875   -2.1309523   -2.1309523   -1.1080513   0.07091984   -2.1309523    1.0229011  1711139 
  123000    1.0096145   -2.1307099   -2.1307099   -1.1081704  0.075103027   -2.1307099    1.0225395  1711112 
  124000    1.0090858    -2.130176    -2.130176   -1.1081559  0.070987517    -2.130176    1.0220201  1711085 
  125000    1.0095058   -2.1301117   -2.1301117   -1.1076501  0.072929035   -2.1301117    1.0224617  1711058 
  126000    1.0094337   -2.1298528   -2.1298528    -1.107448  0.066595237   -2.1298528    1.0224048  1711031 
  127000    1.0087022   -2.1292974   -2.1292974   -1.1076174  0.069859857   -2.1292974      1.02168  1711004 
  128000     1.008265   -2.1288419   -2.1288419   -1.1075886  0.075521918   -2.1288419    1.0212533  1710977 
  129000    1.0081211   -2.1286006   -2.1286006    -1.107477  0.075613131   -2.1286006    1.0211237  1710950 
  130000    1.0093768    -2.129554    -2.129554   -1.1071424  0.068055993    -2.129554    1.0224117  1710923 
  131000    1.0089709   -2.1291619   -2.1291619   -1.1071453  0.071385341   -2.1291619    1.0220167  1710896 
  132000    1.0092703   -2.1297966   -2.1297966   -1.1074606  0.070848599   -2.1297966     1.022336  1710869 
  133000    1.0088338   -2.1288861   -2.1288861    -1.106976  0.072248276   -2.1288861    1.0219101  1710842 
  134000    1.0088993   -2.1286943   -2.1286943   -1.1067018  0.070910252   -2.1286943    1.0219926  1710815 
  135000    1.0100244   -2.1297298   -2.1297298   -1.1065815  0.069250779   -2.1297298    1.0231484  1710788 
  136000    1.0085796    -2.128487    -2.128487   -1.1067861  0.072314647    -2.128487    1.0217009  1710761 
  137000    1.0090088   -2.1286863   -2.1286863   -1.1065345  0.073712349   -2.1286863    1.0221518  1710734 
  138000    1.0083258   -2.1278978   -2.1278978   -1.1064218  0.074952276   -2.1278978     1.021476  1710707 
  139000    1.0089053   -2.1281997   -2.1281997   -1.1061205  0.071870312   -2.1281997    1.0220793  1710680 
  140000    1.0086918   -2.1280597   -2.1280597   -1.1061806  0.074303015   -2.1280597    1.0218791  1710653 
  141000    1.0090406   -2.1280819   -2.1280819   -1.1058334  0.075588029   -2.1280819    1.0222485  1710626 
  142000    1.0085905   -2.1279453   -2.1279453   -1.1061365  0.070623924   -2.1279453    1.0218087  1710599 
  143000    1.0086593   -2.1277483   -2.1277483   -1.1058537  0.073624243   -2.1277483    1.0218946  1710572 
  144000    1.0086354   -2.1279317   -2.1279317   -1.1060452   0.06989583   -2.1279317    1.0218865  1710545 
  145000    1.0082631   -2.1277982   -2.1277982   -1.1062728  0.067276777   -2.1277982    1.0215254  1710518 
  146000    1.0082066   -2.1271636   -2.1271636   -1.1056793    0.0669491   -2.1271636    1.0214843  1710491 
  147000    1.0082205   -2.1270433   -2.1270433   -1.1055287  0.072167325   -2.1270433    1.0215145  1710464 
  148000    1.0084233   -2.1272004   -2.1272004   -1.1054637  0.073471296   -2.1272004    1.0217367  1710436 
  149000    1.0094301   -2.1282817   -2.1282817   -1.1055087  0.072630133   -2.1282817    1.0227729  1710409 
  150000    1.0084205   -2.1273316   -2.1273316   -1.1055655  0.071673805   -2.1273316    1.0217661  1710382 
  151000     1.008063   -2.1267048   -2.1267048   -1.1052849  0.068111821   -2.1267048      1.02142  1710355 
  152000    1.0088324   -2.1269505   -2.1269505   -1.1047347  0.073194359   -2.1269505    1.0222158  1710328 
  153000    1.0084633   -2.1266409   -2.1266409    -1.104783  0.070986559   -2.1266409    1.0218579  1710301 
  154000    1.0089734   -2.1270515   -2.1270515   -1.1046606  0.071451174   -2.1270515    1.0223908  1710274 
  155000    1.0085334   -2.1270092   -2.1270092    -1.105048  0.070450649   -2.1270092    1.0219612  1710247 
  156000    1.0093471   -2.1275006   -2.1275006   -1.1046988  0.070632523   -2.1275006    1.0228018  1710220 
  157000    1.0095232    -2.127214    -2.127214   -1.1042176  0.067380045    -2.127214    1.0229964  1710193 
  158000     1.008635   -2.1262409   -2.1262409   -1.1041284  0.071266159   -2.1262409    1.0221125  1710166 
  159000    1.0084865   -2.1261501   -2.1261501   -1.1041719  0.077525474   -2.1261501    1.0219782  1710139 
  160000    1.0082339   -2.1258787   -2.1258787   -1.1041404  0.072036689   -2.1258787    1.0217383  1710112 
  161000    1.0090965   -2.1269284   -2.1269284   -1.1042998  0.075381357   -2.1269284    1.0226286  1710085 
  162000     1.009676    -2.127036    -2.127036   -1.1038039  0.074550061    -2.127036    1.0232321  1710058 
  163000    1.0085993   -2.1259782   -2.1259782   -1.1038212  0.072713482   -2.1259782     1.022157  1710031 
  164000    1.0098467   -2.1276369   -2.1276369   -1.1041995  0.070324849   -2.1276369    1.0234374  1710004 
  165000    1.0090422   -2.1268498   -2.1268498   -1.1042116  0.073081961   -2.1268498    1.0226382  1709977 
  166000    1.0087633   -2.1263844   -2.1263844   -1.1040127  0.073484543   -2.1263844    1.0223717  1709950 
  167000    1.0078671    -2.125675    -2.125675   -1.1041955  0.072878601    -2.125675    1.0214795  1709923 
  168000    1.0086447   -2.1262425   -2.1262425   -1.1039587  0.073296768   -2.1262425    1.0222838  1709896 
  169000     1.008952   -2.1265482   -2.1265482   -1.1039368  0.068934257   -2.1265482    1.0226113  1709869 
  170000    1.0091224   -2.1265154   -2.1265154   -1.1037151  0.072555631   -2.1265154    1.0228003  1709842 
  171000    1.0074331   -2.1249462   -2.1249462    -1.103842  0.075561316   -2.1249462    1.0211042  1709815 
  172000    1.0076069    -2.125219    -2.125219   -1.1039226  0.070983546    -2.125219    1.0212965  1709788 
  173000    1.0081062    -2.125922    -2.125922   -1.1041034  0.072749328    -2.125922    1.0218186  1709761 
  174000    1.0075915   -2.1255393   -2.1255393   -1.1042263   0.07129951   -2.1255393    1.0213131  1709734 
  175000    1.0081381   -2.1265662   -2.1265662   -1.1046829  0.067358053   -2.1265662    1.0218833  1709707 
  176000    1.0081539   -2.1259312   -2.1259312   -1.1040157  0.071411647   -2.1259312    1.0219155  1709680 
  177000       1.0084   -2.1265526   -2.1265526   -1.1043716  0.069348238   -2.1265526     1.022181  1709653 
  178000    1.0073477    -2.125949    -2.125949   -1.1048185  0.070509476    -2.125949    1.0211305  1709626 
  179000    1.0079027   -2.1265524   -2.1265524   -1.1048432  0.065249661   -2.1265524    1.0217092  1709599 
  180000    1.0071747   -2.1263418   -2.1263418   -1.1053544  0.067495377   -2.1263418    1.0209874  1709572 
  181000      1.00787   -2.1264571   -2.1264571   -1.1047488  0.071602474   -2.1264571    1.0217083  1709545 
  182000    1.0078233   -2.1255328   -2.1255328   -1.1038557  0.068112492   -2.1255328    1.0216771  1709518 
  183000    1.0063931   -2.1240072   -2.1240072   -1.1037638  0.076230801   -2.1240072    1.0202434  1709491 
  184000    1.0074658   -2.1255935   -2.1255935   -1.1042465  0.066770493   -2.1255935    1.0213469  1709464 
  185000    1.0065887   -2.1247499   -2.1247499   -1.1042754  0.067828033   -2.1247499    1.0204744  1709436 
  186000    1.0073819   -2.1257862   -2.1257862   -1.1044915  0.067853981   -2.1257862    1.0212948  1709409 
  187000    1.0072033   -2.1260151   -2.1260151   -1.1048853  0.066483216   -2.1260151    1.0211298  1709382 
  188000    1.0071733   -2.1257505   -2.1257505   -1.1046349  0.071058192   -2.1257505    1.0211156  1709355 
  189000    1.0071391   -2.1259804   -2.1259804   -1.1048834  0.068969711   -2.1259804     1.021097  1709328 
  190000    1.0078657   -2.1264143   -2.1264143   -1.1045645  0.068410964   -2.1264143    1.0218498  1709301 
  191000     1.007601   -2.1260502   -2.1260502   -1.1044527  0.068897679   -2.1260502    1.0215976  1709274 
  192000    1.0076059   -2.1262147   -2.1262147   -1.1045961  0.070083606   -2.1262147    1.0216187  1709247 
  193000    1.0074641   -2.1263508   -2.1263508   -1.1048598  0.071744893   -2.1263508     1.021491  1709220 
  194000    1.0076126   -2.1262887   -2.1262887   -1.1046309  0.068874143   -2.1262887    1.0216578  1709193 
  195000    1.0077514   -2.1262923   -2.1262923   -1.1044776  0.072132896   -2.1262923    1.0218146  1709166 
  196000    1.0073413   -2.1258101   -2.1258101   -1.1043951  0.071559588   -2.1258101    1.0214149  1709139 
  197000    1.0080044   -2.1265563   -2.1265563   -1.1044529  0.068858689   -2.1265563    1.0221035  1709112 
  198000    1.0078076   -2.1266412   -2.1266412   -1.1047212  0.070392947   -2.1266412      1.02192  1709085 
  199000    1.0083986   -2.1266768   -2.1266768   -1.1041413  0.065949418   -2.1266768    1.0225354  1709058 
  200000     1.007318   -2.1257597   -2.1257597   -1.1043038  0.074357262   -2.1257597    1.0214558  1709031 
  201000    1.0084171   -2.1269198   -2.1269198   -1.1043332  0.070478292   -2.1269198    1.0225865  1709004 
  202000    1.0074174    -2.125861    -2.125861   -1.1042721  0.073398967    -2.125861    1.0215889  1708977 
  203000    1.0079034   -2.1264147   -2.1264147   -1.1043169  0.075149644   -2.1264147    1.0220979  1708950 
  204000     1.007247   -2.1261072   -2.1261072   -1.1046588  0.074705479   -2.1261072    1.0214484  1708923 
  205000    1.0081244     -2.12735     -2.12735   -1.1049956  0.067930797     -2.12735    1.0223544  1708896 
  206000    1.0064387   -2.1254932   -2.1254932   -1.1048322  0.073889423   -2.1254932     1.020661  1708869 
  207000    1.0073464   -2.1258327   -2.1258327   -1.1042351  0.070686492   -2.1258327    1.0215976  1708842 
  208000    1.0064868   -2.1247854   -2.1247854   -1.1040434   0.07279324   -2.1247854     1.020742  1708815 
  209000    1.0074673   -2.1261279   -2.1261279   -1.1043753  0.069809489   -2.1261279    1.0217525  1708788 
  210000    1.0077567   -2.1260059   -2.1260059   -1.1039438  0.073537089   -2.1260059    1.0220621  1708761 
  211000    1.0075878   -2.1258339   -2.1258339   -1.1039269  0.072467027   -2.1258339     1.021907  1708734 
  212000    1.0073322   -2.1258421   -2.1258421   -1.1041782  0.072157778   -2.1258421    1.0216639  1708707 
  213000    1.0066922   -2.1253061   -2.1253061   -1.1042752  0.071360042   -2.1253061    1.0210309  1708680 
  214000    1.0073314   -2.1260593   -2.1260593   -1.1043639  0.068995918   -2.1260593    1.0216954  1708653 
  215000    1.0067702    -2.125619    -2.125619   -1.1044766  0.069510223    -2.125619    1.0211424  1708626 
  216000     1.007502   -2.1266501   -2.1266501   -1.1047493   0.07039524   -2.1266501    1.0219007  1708599 
  217000    1.0070222   -2.1260518   -2.1260518   -1.1046216  0.069534904   -2.1260518    1.0214302  1708572 
  218000    1.0063773   -2.1259012   -2.1259012    -1.105109  0.069438385   -2.1259012    1.0207922  1708545 
  219000    1.0068676   -2.1256869   -2.1256869   -1.1043812  0.073077097   -2.1256869    1.0213057  1708518 
  220000    1.0069982   -2.1259698   -2.1259698   -1.1045155  0.067090101   -2.1259698    1.0214543  1708491 
  221000    1.0067846   -2.1262434   -2.1262434   -1.1049896  0.068094073   -2.1262434    1.0212538  1708464 
  222000     1.005723   -2.1249002   -2.1249002   -1.1047066  0.073544621   -2.1249002    1.0201936  1708436 
  223000    1.0055594   -2.1251123   -2.1251123   -1.1050684  0.066628681   -2.1251123    1.0200439  1708409 
  224000    1.0053297    -2.124308    -2.124308   -1.1044811  0.067064105    -2.124308    1.0198269  1708382 
  225000    1.0054681   -2.1250348   -2.1250348   -1.1050513  0.071683867   -2.1250348    1.0199835  1708355 
  226000    1.0048666   -2.1242479   -2.1242479   -1.1048586   0.06877571   -2.1242479    1.0193893  1708328 
  227000    1.0057094   -2.1249542   -2.1249542   -1.1046938   0.06967963   -2.1249542    1.0202604  1708301 
  228000    1.0055364   -2.1249427   -2.1249427   -1.1048416  0.073187665   -2.1249427    1.0201011  1708274 
  229000    1.0054864   -2.1251669   -2.1251669   -1.1051004  0.069331509   -2.1251669    1.0200665  1708247 
  230000    1.0057291    -2.124517    -2.124517   -1.1041881   0.07230508    -2.124517    1.0203288  1708220 
  231000    1.0053671   -2.1242531   -2.1242531   -1.1042754  0.070235456   -2.1242531    1.0199777  1708193 
  232000    1.0066499   -2.1253497   -2.1253497   -1.1040544  0.072867013   -2.1253497    1.0212953  1708166 
  233000    1.0061492   -2.1250044   -2.1250044   -1.1042009  0.073402687   -2.1250044    1.0208035  1708139 
  234000    1.0061776   -2.1250274   -2.1250274    -1.104179  0.070709311   -2.1250274    1.0208484  1708112 
  235000    1.0050032    -2.124344    -2.124344    -1.104671  0.070611497    -2.124344     1.019673  1708085 
  236000     1.007329   -2.1265831   -2.1265831   -1.1045342  0.070580545   -2.1265831    1.0220489  1708058 
  237000    1.0071544   -2.1260414   -2.1260414   -1.1041535  0.066494806   -2.1260414    1.0218879  1708031 
  238000    1.0061496    -2.124872    -2.124872   -1.1039875  0.068779995    -2.124872    1.0208845  1708004 
  239000    1.0066325   -2.1252398   -2.1252398   -1.1038491  0.075784303   -2.1252398    1.0213907  1707977 
  240000    1.0061215   -2.1250585   -2.1250585   -1.1041702  0.073877552   -2.1250585    1.0208883  1707950 
  241000    1.0061091   -2.1251344   -2.1251344   -1.1042425  0.071178548   -2.1251344    1.0208919  1707923 
  242000    1.0058428   -2.1246454   -2.1246454   -1.1040076  0.070405478   -2.1246454    1.0206378  1707896 
  243000    1.0072501   -2.1266724   -2.1266724   -1.1045904  0.069587338   -2.1266724     1.022082  1707869 
  244000    1.0066744   -2.1255623   -2.1255623   -1.1040484   0.07420566   -2.1255623    1.0215139  1707842 
  245000    1.0062696   -2.1249065   -2.1249065   -1.1037872  0.073019814   -2.1249065    1.0211193  1707815 
  246000    1.0059535   -2.1246769   -2.1246769   -1.1038623  0.070415438   -2.1246769    1.0208147  1707788 
  247000    1.0059781   -2.1247111   -2.1247111   -1.1038553  0.074484055   -2.1247111    1.0208558  1707761 
  248000    1.0055044   -2.1242748   -2.1242748   -1.1038836  0.074556314   -2.1242748    1.0203912  1707734 
  249000     1.005408   -2.1240112   -2.1240112   -1.1037018  0.073819522   -2.1240112    1.0203095  1707707 
  250000    1.0051289    -2.123763    -2.123763   -1.1037207  0.073334618    -2.123763    1.0200424  1707680 
  251000    1.0059114    -2.124397    -2.124397   -1.1035444  0.069966825    -2.124397    1.0208526  1707653 
  252000    1.0061606   -2.1246266   -2.1246266   -1.1035049  0.070926392   -2.1246266    1.0211217  1707626 
  253000    1.0061737    -2.124719    -2.124719   -1.1035679  0.074815321    -2.124719    1.0211511  1707599 
  254000    1.0061826   -2.1247603   -2.1247603    -1.103584  0.073286818   -2.1247603    1.0211763  1707572 
  255000    1.0056961   -2.1241513   -2.1241513   -1.1034526  0.072681277   -2.1241513    1.0206986  1707545 
  256000    1.0059456   -2.1247998   -2.1247998   -1.1038317  0.067244721   -2.1247998    1.0209681  1707518 
  257000    1.0058222   -2.1243715   -2.1243715   -1.1035125  0.071191204   -2.1243715     1.020859  1707491 
  258000    1.0059992   -2.1245326   -2.1245326   -1.1034778  0.073957825   -2.1245326    1.0210548  1707464 
  259000    1.0052069   -2.1236547   -2.1236547   -1.1033874  0.069448572   -2.1236547    1.0202673  1707436 
  260000    1.0054692   -2.1235906   -2.1235906    -1.103041   0.06974684   -2.1235906    1.0205496  1707409 
  261000    1.0053952   -2.1230541   -2.1230541   -1.1025634  0.073599922   -2.1230541    1.0204907  1707382 
  262000    1.0054187    -2.123343    -2.123343   -1.1028123  0.071951081    -2.123343    1.0205307  1707355 
  263000    1.0052336   -2.1235073   -2.1235073   -1.1031484  0.074728478   -2.1235073     1.020359  1707328 
  264000    1.0054176   -2.1240103   -2.1240103   -1.1034485  0.072776919   -2.1240103    1.0205619  1707301 
  265000     1.005679   -2.1244792   -2.1244792   -1.1036358  0.069295416   -2.1244792    1.0208434  1707274 
  266000     1.004983   -2.1235674   -2.1235674   -1.1034145  0.068951662   -2.1235674    1.0201529  1707247 
  267000     1.005224   -2.1235994   -2.1235994   -1.1031856  0.075833177   -2.1235994    1.0204138  1707220 
  268000     1.006559   -2.1246807   -2.1246807   -1.1028956  0.070517984   -2.1246807    1.0217851  1707193 
  269000    1.0056194   -2.1240138   -2.1240138   -1.1031663  0.071912884   -2.1240138    1.0208474  1707166 
  270000    1.0049253   -2.1232949   -2.1232949   -1.1031359  0.071399777   -2.1232949    1.0201589  1707139 
  271000    1.0048118   -2.1223095   -2.1223095   -1.1022496   0.07171667   -2.1223095    1.0200599  1707112 
  272000    1.0044009   -2.1215351   -2.1215351   -1.1018763  0.073656812   -2.1215351    1.0196588  1707085 
  273000     1.004821   -2.1221169   -2.1221169   -1.1020154  0.074113991   -2.1221169    1.0201014  1707058 
  274000    1.0045559   -2.1217996   -2.1217996   -1.1019512  0.069705811   -2.1217996    1.0198484  1707031 
  275000    1.0043589   -2.1216326   -2.1216326   -1.1019681  0.070893902   -2.1216326    1.0196646  1707004 
  276000    1.0052327    -2.122282    -2.122282   -1.1017141  0.070179759    -2.122282    1.0205678  1706977 
  277000    1.0049422   -2.1218357   -2.1218357   -1.1015466  0.078608053   -2.1218357    1.0202891  1706950 
  278000    1.0055423    -2.122693    -2.122693   -1.1017785   0.07001238    -2.122693    1.0209145  1706923 
  279000    1.0051418   -2.1232642   -2.1232642   -1.1027402  0.066236222   -2.1232642     1.020524  1706896 
  280000    1.0040665   -2.1216291   -2.1216291   -1.1021806   0.07265307   -2.1216291    1.0194484  1706869 
  281000    1.0047195   -2.1222318   -2.1222318   -1.1021043   0.06828628   -2.1222318    1.0201275  1706842 
  282000    1.0040636    -2.121358    -2.121358   -1.1018803  0.069991988    -2.121358    1.0194777  1706815 
  283000    1.0049814   -2.1218191   -2.1218191   -1.1013934  0.069556381   -2.1218191    1.0204257  1706788 
  284000    1.0043294    -2.121354    -2.121354   -1.1015742  0.070921817    -2.121354    1.0197798  1706761 
  285000    1.0047595   -2.1217569   -2.1217569   -1.1015242  0.075203455   -2.1217569    1.0202327  1706734 
  286000    1.0041862    -2.121072    -2.121072   -1.1014053  0.072412828    -2.121072    1.0196667  1706707 
  287000      1.00436    -2.121155    -2.121155   -1.1012957  0.066240658    -2.121155    1.0198593  1706680 
  288000    1.0049263   -2.1214098   -2.1214098   -1.1009593  0.071342625   -2.1214098    1.0204505  1706653 
  289000    1.0051773   -2.1215846   -2.1215846   -1.1008632  0.070411148   -2.1215846    1.0207215  1706626 
  290000    1.0056446   -2.1221195   -2.1221195   -1.1009073  0.070215539   -2.1221195    1.0212122  1706599 
  291000    1.0049878   -2.1209818   -2.1209818   -1.1004204  0.066340486   -2.1209818    1.0205614  1706572 
  292000     1.003876   -2.1204503   -2.1204503   -1.1010019  0.071318609   -2.1204503    1.0194484  1706545 
  293000    1.0046218   -2.1212539   -2.1212539   -1.1010319  0.066691906   -2.1212539    1.0202219  1706518 
  294000    1.0044861   -2.1212092   -2.1212092   -1.1011089  0.071821865   -2.1212092    1.0201003  1706491 
  295000    1.0051853   -2.1218279   -2.1218279   -1.1010014   0.06924802   -2.1218279    1.0208265  1706464 
  296000    1.0055151   -2.1224941   -2.1224941   -1.1013159   0.06763125   -2.1224941    1.0211782  1706436 
  297000    1.0056062   -2.1224398   -2.1224398   -1.1011529  0.068109635   -2.1224398    1.0212869  1706409 
  298000    1.0052873   -2.1220604   -2.1220604   -1.1010813  0.070954598   -2.1220604    1.0209791  1706382 
  299000    1.0057922   -2.1224686   -2.1224686   -1.1009605  0.072071913   -2.1224686    1.0215082  1706355 
  300000     1.005627   -2.1220787   -2.1220787   -1.1007222  0.070635407   -2.1220787    1.0213565  1706328 
  301000    1.0054805    -2.121904    -2.121904   -1.1006801  0.073450219    -2.121904    1.0212239  1706301 
  302000    1.0060658   -2.1223992   -2.1223992   -1.1005647  0.074761964   -2.1223992    1.0218345  1706274 
  303000     1.006021   -2.1219002   -2.1219002   -1.1000951  0.072295911   -2.1219002    1.0218052  1706247 
  304000    1.0046729   -2.1208479   -2.1208479   -1.1003959  0.071617086   -2.1208479     1.020452  1706220 
  305000    1.0054004   -2.1214989   -2.1214989   -1.1002917  0.071787194   -2.1214989    1.0212071  1706193 
  306000    1.0056898   -2.1219133   -2.1219133   -1.1003961  0.069267362   -2.1219133    1.0215173  1706166 
  307000    1.0044085    -2.120736    -2.120736   -1.1005041  0.072618674    -2.120736    1.0202319  1706139 
  308000    1.0049911   -2.1209629   -2.1209629   -1.1001231  0.072852827   -2.1209629    1.0208399  1706112 
  309000    1.0061244   -2.1221865   -2.1221865   -1.1001793   0.07310035   -2.1221865    1.0220072  1706085 
  310000    1.0058807    -2.121941    -2.121941   -1.1001652  0.074232981    -2.121941    1.0217758  1706058 
  311000    1.0056352   -2.1218128   -2.1218128   -1.1002702   0.07044685   -2.1218128    1.0215426  1706031 
  312000    1.0051367   -2.1211753   -2.1211753   -1.1001229  0.072136643   -2.1211753    1.0210524  1706004 
  313000    1.0062011   -2.1225366   -2.1225366   -1.1003868  0.072312298   -2.1225366    1.0221498  1705977 
  314000    1.0054468   -2.1221921   -2.1221921   -1.1007923  0.070777488   -2.1221921    1.0213998  1705950 
  315000    1.0051757   -2.1216042   -2.1216042   -1.1004637  0.067904892   -2.1216042    1.0211405  1705923 
  316000    1.0035132   -2.1199832   -2.1199832   -1.1005155  0.074440897   -2.1199832    1.0194677  1705896 
  317000    1.0043562   -2.1207156   -2.1207156   -1.1003754  0.073258753   -2.1207156    1.0203403  1705869 
  318000    1.0051708   -2.1217257   -2.1217257   -1.1005417  0.071623156   -2.1217257     1.021184  1705842 
  319000    1.0058455     -2.12202     -2.12202   -1.1001344  0.065305727     -2.12202    1.0218856  1705815 
  320000    1.0045442   -2.1209891   -2.1209891   -1.1004094  0.072658344   -2.1209891    1.0205797  1705788 
  321000    1.0046797   -2.1206594   -2.1206594   -1.0999258  0.070927734   -2.1206594    1.0207336  1705761 
  322000    1.0050909   -2.1207511   -2.1207511   -1.0995836  0.068627384   -2.1207511    1.0211675  1705734 
  323000    1.0049121   -2.1211974   -2.1211974   -1.1001954  0.072000917   -2.1211974     1.021002  1705707 
  324000    1.0042957   -2.1212317   -2.1212317   -1.1008399  0.070460719   -2.1212317    1.0203918  1705680 
  325000    1.0047373   -2.1216497   -2.1216497    -1.100793  0.070817205   -2.1216497    1.0208567  1705653 
  326000    1.0045301   -2.1213758   -2.1213758   -1.1007134   0.06657062   -2.1213758    1.0206624  1705626 
  327000    1.0047827   -2.1214616   -2.1214616   -1.1005264  0.075005263   -2.1214616    1.0209352  1705599 
  328000    1.0044495   -2.1215099   -2.1215099   -1.1008971  0.064052219   -2.1215099    1.0206128  1705572 
  329000    1.0042554   -2.1212626   -2.1212626   -1.1008309  0.068380239   -2.1212626    1.0204317  1705545 
  330000    1.0029736   -2.1199577   -2.1199577   -1.1008123  0.071959002   -2.1199577    1.0191454  1705518 
  331000    1.0035974   -2.1210393   -2.1210393    -1.101244  0.065844799   -2.1210393    1.0197954  1705491 
  332000     1.003733   -2.1205116   -2.1205116   -1.1005622  0.070155047   -2.1205116    1.0199494  1705464 
  333000    1.0044091    -2.121088    -2.121088   -1.1004349  0.069327888    -2.121088    1.0206531  1705436 
  334000    1.0037618     -2.12007     -2.12007   -1.1000586  0.068515081     -2.12007    1.0200115  1705409 
  335000    1.0044614   -2.1207132   -2.1207132   -1.0999746   0.06803618   -2.1207132    1.0207386  1705382 
  336000    1.0035141   -2.1204147   -2.1204147   -1.1006226  0.072347531   -2.1204147    1.0197921  1705355 
  337000    1.0029348   -2.1202779   -2.1202779   -1.1010584  0.066272792   -2.1202779    1.0192195  1705328 
  338000     1.002749   -2.1198799   -2.1198799   -1.1008331  0.071731688   -2.1198799    1.0190468  1705301 
  339000    1.0023291   -2.1193336   -2.1193336   -1.1006973   0.07040786   -2.1193336    1.0186363  1705274 
  340000    1.0035168   -2.1208185   -2.1208185   -1.1009592  0.068468374   -2.1208185    1.0198594  1705247 
  341000    1.0036893   -2.1204304   -2.1204304   -1.1003795  0.072906999   -2.1204304    1.0200509  1705220 
  342000    1.0024866    -2.119067    -2.119067   -1.1002223  0.069980359    -2.119067    1.0188447  1705193 
  343000    1.0034795   -2.1204914   -2.1204914   -1.1006215  0.065081765   -2.1204914    1.0198699  1705166 
  344000    1.0031489   -2.1202993   -2.1202993   -1.1007493  0.067719725   -2.1202993      1.01955  1705139 
  345000     1.002661   -2.1197326   -2.1197326   -1.1006622  0.068654964   -2.1197326    1.0190704  1705112 
  346000    1.0033986   -2.1197896   -2.1197896   -1.0999534  0.071269751   -2.1197896    1.0198361  1705085 
  347000    1.0029902   -2.1193075   -2.1193075   -1.0998704  0.072102607   -2.1193075    1.0194372  1705058 
  348000    1.0036006   -2.1196166   -2.1196166   -1.0995428   0.07061595   -2.1196166    1.0200738  1705031 
  349000    1.0039711   -2.1201296   -2.1201296    -1.099663  0.068821417   -2.1201296    1.0204665  1705004 
  350000    1.0032137   -2.1194618   -2.1194618    -1.099749  0.073710927   -2.1194618    1.0197128  1704977 
  351000    1.0041166   -2.1201136   -2.1201136   -1.0994669  0.071419906   -2.1201136    1.0206467  1704950 
  352000     1.003889   -2.1201651   -2.1201651   -1.0997336  0.072911241   -2.1201651    1.0204316  1704923 
  353000    1.0036612   -2.1199998   -2.1199998   -1.0997837  0.072653155   -2.1199998    1.0202161  1704896 
  354000    1.0042233   -2.1201918   -2.1201918   -1.0993882  0.072623863   -2.1201918    1.0208037  1704869 
  355000    1.0044615   -2.1204336   -2.1204336   -1.0993715  0.073358056   -2.1204336     1.021062  1704842 
  356000    1.0046056   -2.1202114   -2.1202114   -1.0989868  0.067996312   -2.1202114    1.0212247  1704815 
  357000    1.0042039   -2.1196241   -2.1196241   -1.0987916  0.070589946   -2.1196241    1.0208324  1704788 
  358000    1.0043524   -2.1196326   -2.1196326    -1.098633   0.07323759   -2.1196326    1.0209996  1704761 
  359000    1.0049027   -2.1197216   -2.1197216   -1.0981464   0.07185002   -2.1197216    1.0215752  1704734 
  360000    1.0050297    -2.120119    -2.120119   -1.0983985  0.073428606    -2.120119    1.0217205  1704707 
  361000    1.0043638   -2.1196071   -2.1196071   -1.0985473  0.070769807   -2.1196071    1.0210597  1704680 
  362000    1.0044161   -2.1196536   -2.1196536   -1.0985246  0.073115233   -2.1196536     1.021129  1704653 
  363000    1.0048991   -2.1200858   -2.1200858   -1.0984496  0.072049907   -2.1200858    1.0216362  1704626 
  364000    1.0044399   -2.1202054   -2.1202054   -1.0990198   0.06755845   -2.1202054    1.0211856  1704599 
  365000    1.0048642   -2.1207239   -2.1207239   -1.0990908  0.073987639   -2.1207239    1.0216331  1704572 
  366000    1.0047705   -2.1204869   -2.1204869   -1.0989328  0.070593517   -2.1204869    1.0215541  1704545 
  367000    1.0054103   -2.1211114   -2.1211114   -1.0988908  0.069617177   -2.1211114    1.0222207  1704518 
  368000    1.0050734   -2.1203919   -2.1203919   -1.0984975  0.076103627   -2.1203919    1.0218943  1704491 
  369000    1.0042391   -2.1198104   -2.1198104   -1.0987481    0.0710673   -2.1198104    1.0210623  1704464 
  370000    1.0044469   -2.1198669   -2.1198669   -1.0985765  0.074493054   -2.1198669    1.0212904  1704436 
  371000    1.0036927   -2.1194213   -2.1194213   -1.0988816  0.071919365   -2.1194213    1.0205397  1704409 
  372000    1.0025505   -2.1183756   -2.1183756   -1.0989812  0.072412993   -2.1183756    1.0193944  1704382 
  373000    1.0027778   -2.1188994   -2.1188994   -1.0992577  0.073374413   -2.1188994    1.0196417  1704355 
  374000    1.0032688   -2.1198458   -2.1198458   -1.0996886  0.068387926   -2.1198458    1.0201571  1704328 
  375000    1.0033368   -2.1193473   -2.1193473   -1.0991049  0.074564824   -2.1193473    1.0202424  1704301 
  376000    1.0040685   -2.1197165   -2.1197165   -1.0987138  0.070363858   -2.1197165    1.0210027  1704274 
  377000    1.0036515   -2.1194118   -2.1194118    -1.098817   0.07062497   -2.1194118    1.0205948  1704247 
  378000    1.0038927   -2.1195983   -2.1195983   -1.0987421  0.072543479   -2.1195983    1.0208562  1704220 
  379000    1.0036948   -2.1196475   -2.1196475   -1.0989763  0.070093813   -2.1196475    1.0206712  1704193 
  380000    1.0028456   -2.1185971   -2.1185971   -1.0987733  0.072467548   -2.1185971    1.0198238  1704166 
  381000    1.0027105   -2.1187188   -2.1187188   -1.0990163  0.072233563   -2.1187188    1.0197025  1704139 
  382000    1.0039027   -2.1199811   -2.1199811     -1.09905  0.067039644   -2.1199811    1.0209311  1704112 
  383000    1.0030429   -2.1194974   -2.1194974   -1.0994245  0.070237917   -2.1194974    1.0200729  1704085 
  384000    1.0023464   -2.1182184   -2.1182184   -1.0988377  0.065381703   -2.1182184    1.0193807  1704058 
  385000    1.0032124   -2.1187079   -2.1187079   -1.0984303  0.074330089   -2.1187079    1.0202776  1704031 
  386000     1.003178   -2.1187581   -2.1187581   -1.0984993  0.070197617   -2.1187581    1.0202587  1704004 
  387000    1.0032318   -2.1186198   -2.1186198   -1.0982901   0.07543808   -2.1186198    1.0203297  1703977 
  388000    1.0035289   -2.1186691   -2.1186691   -1.0980212  0.071368364   -2.1186691     1.020648  1703950 
  389000    1.0038324    -2.119038    -2.119038   -1.0980652  0.072791878    -2.119038    1.0209728  1703923 
  390000    1.0036019    -2.119028    -2.119028   -1.0982734  0.072706074    -2.119028    1.0207546  1703896 
  391000    1.0039347   -2.1192941   -2.1192941   -1.0981849  0.068023561   -2.1192941    1.0211092  1703869 
  392000    1.0033685   -2.1184708   -2.1184708   -1.0979212  0.068239779   -2.1184708    1.0205496  1703842 
  393000    1.0036453   -2.1190518   -2.1190518   -1.0982045     0.075139   -2.1190518    1.0208472  1703815 
  394000    1.0039958   -2.1196921   -2.1196921   -1.0984722   0.07045998   -2.1196921    1.0212199  1703788 
  395000    1.0034833   -2.1194179   -2.1194179   -1.0987031   0.07306592   -2.1194179    1.0207148  1703761 
  396000    1.0029315   -2.1188751   -2.1188751   -1.0987054   0.07290051   -2.1188751    1.0201697  1703734 
  397000    1.0025753   -2.1187784   -2.1187784   -1.0989549  0.069101874   -2.1187784    1.0198235  1703707 
  398000    1.0024272   -2.1183428   -2.1183428   -1.0986537  0.072191438   -2.1183428    1.0196891  1703680 
  399000    1.0027597   -2.1185229   -2.1185229   -1.0984795  0.070724525   -2.1185229    1.0200434  1703653 
  400000    1.0023949   -2.1184231   -2.1184231   -1.0987346  0.069347912   -2.1184231    1.0196885  1703626 
  401000    1.0025888   -2.1184394   -2.1184394   -1.0985375  0.071021115   -2.1184394    1.0199019  1703599 
  402000    1.0030669   -2.1187759   -2.1187759   -1.0983714  0.072395023   -2.1187759    1.0204044  1703572 
  403000    1.0038667   -2.1197191   -2.1197191   -1.0984848  0.072128786   -2.1197191    1.0212343  1703545 
  404000    1.0031355   -2.1192266   -2.1192266     -1.09872  0.068419313   -2.1192266    1.0205066  1703518 
  405000    1.0033937   -2.1194603   -2.1194603   -1.0986748  0.067686897   -2.1194603    1.0207855  1703491 
  406000    1.0030652   -2.1194592   -2.1194592   -1.0989918  0.073377507   -2.1194592    1.0204674  1703464 
  407000    1.0027919   -2.1190423   -2.1190423   -1.0988361  0.072009893   -2.1190423    1.0202062  1703436 
  408000     1.003109   -2.1191936   -2.1191936   -1.0986487  0.073527612   -2.1191936    1.0205449  1703409 
  409000    1.0034114   -2.1190676   -2.1190676   -1.0981988  0.071815357   -2.1190676    1.0208688  1703382 
  410000    1.0038626   -2.1197584   -2.1197584   -1.0984143  0.072571181   -2.1197584    1.0213441  1703355 
  411000    1.0035614    -2.119648    -2.119648   -1.0985942  0.071330478    -2.119648    1.0210538  1703328 
  412000    1.0037325   -2.1196603   -2.1196603   -1.0984162  0.073084149   -2.1196603    1.0212441  1703301 
  413000    1.0032301   -2.1192212   -2.1192212   -1.0984722  0.072750297   -2.1192212     1.020749  1703274 
  414000    1.0036035   -2.1192756   -2.1192756   -1.0981305  0.077685207   -2.1192756    1.0211452  1703247 
  415000    1.0044329    -2.119862    -2.119862   -1.0978568  0.072271194    -2.119862    1.0220052  1703220 
  416000    1.0039026   -2.1190929   -2.1190929    -1.097611  0.074949958   -2.1190929    1.0214819  1703193 
  417000    1.0043269   -2.1197061   -2.1197061   -1.0977763  0.075450964   -2.1197061    1.0219298  1703166 
  418000    1.0041326   -2.1201239   -2.1201239   -1.0983756  0.074599053   -2.1201239    1.0217483  1703139 
  419000      1.00376   -2.1193988   -2.1193988   -1.0980135  0.074610021   -2.1193988    1.0213853  1703112 
  420000    1.0036072   -2.1195563   -2.1195563   -1.0983103  0.073850299   -2.1195563    1.0212461  1703085 
  421000    1.0030587    -2.119043    -2.119043    -1.098339  0.072173845    -2.119043    1.0207041  1703058 
  422000    1.0035933   -2.1196932   -2.1196932    -1.098429  0.072435405   -2.1196932    1.0212642  1703031 
  423000    1.0031375   -2.1193204   -2.1193204   -1.0985037  0.073270441   -2.1193204    1.0208167  1703004 
  424000    1.0027439   -2.1182608   -2.1182608   -1.0978284  0.072002831   -2.1182608    1.0204323  1702977 
  425000    1.0038919   -2.1192397   -2.1192397    -1.097623  0.075354307   -2.1192397    1.0216167  1702950 
  426000    1.0024615   -2.1178453   -2.1178453   -1.0976681  0.072246644   -2.1178453    1.0201773  1702923 
  427000    1.0030436   -2.1183893   -2.1183893   -1.0976035  0.069059938   -2.1183893    1.0207858  1702896 
  428000    1.0038309   -2.1186062   -2.1186062    -1.097003  0.072552062   -2.1186062    1.0216032  1702869 
  429000    1.0035242   -2.1185999   -2.1185999   -1.0972926  0.073690896   -2.1185999    1.0213074  1702842 
  430000    1.0028707   -2.1181172   -2.1181172   -1.0974587  0.075294123   -2.1181172    1.0206585  1702815 
  431000    1.0030243   -2.1181365   -2.1181365   -1.0973055  0.075384816   -2.1181365     1.020831  1702788 
  432000    1.0033092   -2.1184282   -2.1184282   -1.0972912  0.071618477   -2.1184282     1.021137  1702761 
  433000    1.0037786   -2.1184607   -2.1184607   -1.0968297  0.071216819   -2.1184607     1.021631  1702734 
  434000    1.0021929   -2.1171894   -2.1171894   -1.0971562  0.071617913   -2.1171894    1.0200333  1702707 
  435000    1.0030033   -2.1172685   -2.1172685   -1.0963942  0.076215313   -2.1172685    1.0208743  1702680 
  436000    1.0037286   -2.1179892   -2.1179892   -1.0963604  0.073341371   -2.1179892    1.0216288  1702653 
  437000    1.0027417   -2.1170368   -2.1170368   -1.0963964  0.071509008   -2.1170368    1.0206404  1702626 
  438000    1.0027188   -2.1172318   -2.1172318   -1.0965984  0.071611092   -2.1172318    1.0206333  1702599 
  439000    1.0030483   -2.1174276   -2.1174276   -1.0964428  0.072121956   -2.1174276    1.0209848  1702572 
  440000     1.002626   -2.1170957   -2.1170957   -1.0965245  0.070922102   -2.1170957    1.0205712  1702545 
  441000    1.0022774   -2.1169248   -2.1169248   -1.0966923  0.073843553   -2.1169248    1.0202325  1702518 
  442000    1.0024124   -2.1169636   -2.1169636   -1.0965774  0.068585514   -2.1169636    1.0203862  1702491 
  443000    1.0025021   -2.1166435   -2.1166435   -1.0961499   0.07038727   -2.1166435    1.0204936  1702464 
  444000    1.0034255   -2.1178159   -2.1178159   -1.0963655  0.069156801   -2.1178159    1.0214504  1702436 
  445000    1.0018237    -2.116939    -2.116939   -1.0971029  0.070212823    -2.116939    1.0198361  1702409 
  446000    1.0023071   -2.1169796   -2.1169796   -1.0966353  0.070381476   -2.1169796    1.0203443  1702382 
  447000    1.0018838   -2.1162078   -2.1162078   -1.0962783  0.073957877   -2.1162078    1.0199295  1702355 
  448000    1.0022868   -2.1163733   -2.1163733   -1.0960173  0.068036121   -2.1163733     1.020356  1702328 
  449000    1.0020615   -2.1162526   -2.1162526   -1.0961097  0.075870896   -2.1162526    1.0201428  1702301 
  450000    1.0016137   -2.1152761   -2.1152761    -1.095573  0.074405743   -2.1152761    1.0197031  1702274 
  451000    1.0020454   -2.1152212   -2.1152212   -1.0950624  0.069791664   -2.1152212    1.0201588  1702247 
  452000    1.0027343   -2.1160941   -2.1160941   -1.0952177  0.069130204   -2.1160941    1.0208764  1702220 
  453000    1.0022694   -2.1155619   -2.1155619   -1.0951426  0.065913351   -2.1155619    1.0204192  1702193 
  454000    1.0022289   -2.1156715   -2.1156715   -1.0952773  0.073556748   -2.1156715    1.0203941  1702166 
  455000    1.0022315   -2.1159329   -2.1159329   -1.0955199  0.071287738   -2.1159329     1.020413  1702139 
  456000    1.0015013   -2.1149162   -2.1149162   -1.0952304  0.070602212   -2.1149162    1.0196857  1702112 
  457000    1.0027993   -2.1158754   -2.1158754   -1.0948519  0.073000344   -2.1158754    1.0210234  1702085 
  458000    1.0031478   -2.1162161   -2.1162161   -1.0948216  0.073227585   -2.1162161    1.0213946  1702058 
  459000    1.0025438   -2.1158324   -2.1158324   -1.0950367  0.074529277   -2.1158324    1.0207957  1702031 
  460000    1.0027334   -2.1159285   -2.1159285   -1.0949236  0.074448476   -2.1159285    1.0210049  1702004 
  461000    1.0030459   -2.1163403   -2.1163403   -1.0950009  0.075493321   -2.1163403    1.0213394  1701977 
  462000    1.0023344   -2.1156999   -2.1156999   -1.0950688  0.073890109   -2.1156999     1.020631  1701950 
  463000    1.0018032   -2.1149971   -2.1149971   -1.0948908  0.071890102   -2.1149971    1.0201063  1701923 
  464000    1.0027419   -2.1159976   -2.1159976   -1.0949192   0.07148811   -2.1159976    1.0210784  1701896 
  465000    1.0025927   -2.1152856   -2.1152856   -1.0943429  0.069067852   -2.1152856    1.0209427  1701869 
  466000    1.0011352   -2.1141505   -2.1141505   -1.0946759  0.074181286   -2.1141505    1.0194747  1701842 
  467000     1.002765   -2.1158461   -2.1158461   -1.0946956  0.069771642   -2.1158461    1.0211506  1701815 
  468000    1.0022019   -2.1150404   -2.1150404   -1.0944471  0.072648216   -2.1150404    1.0205933  1701788 
  469000    1.0026159   -2.1155849   -2.1155849   -1.0945537   0.06975178   -2.1155849    1.0210311  1701761 
  470000    1.0028519   -2.1161975   -2.1161975   -1.0949099  0.069521519   -2.1161975    1.0212876  1701734 
  471000    1.0017886    -2.114996    -2.114996    -1.094775  0.069068337    -2.114996     1.020221  1701707 
  472000    1.0018132   -2.1152524   -2.1152524   -1.0949901   0.07200682   -2.1152524    1.0202623  1701680 
  473000    1.0014626   -2.1150105   -2.1150105   -1.0950891  0.072380126   -2.1150105    1.0199213  1701653 
  474000    1.0015656   -2.1148272   -2.1148272   -1.0947848  0.071511735   -2.1148272    1.0200424  1701626 
  475000    1.0020271   -2.1153214   -2.1153214   -1.0947928  0.071192366   -2.1153214    1.0205286  1701599 
  476000     1.000667   -2.1145619   -2.1145619   -1.0954023  0.068424552   -2.1145619    1.0191596  1701572 
  477000    1.0012202   -2.1150373   -2.1150373   -1.0952981  0.072029673   -2.1150373    1.0197392  1701545 
  478000      1.00147   -2.1151805   -2.1151805   -1.0951706  0.067835672   -2.1151805    1.0200098  1701518 
  479000    1.0017392   -2.1152271   -2.1152271    -1.094927  0.070286171   -2.1152271    1.0203002  1701491 
  480000    1.0017951   -2.1155573   -2.1155573    -1.095184  0.072130956   -2.1155573    1.0203733  1701464 
  481000     1.002467   -2.1160464   -2.1160464   -1.0949719  0.076123716   -2.1160464    1.0210745  1701436 
  482000    1.0018745   -2.1155121   -2.1155121   -1.0950249  0.070739396   -2.1155121    1.0204872  1701409 
  483000    1.0014628   -2.1146568   -2.1146568   -1.0945728  0.071219335   -2.1146568     1.020084  1701382 
  484000    1.0018731   -2.1149449   -2.1149449   -1.0944267  0.072955765   -2.1149449    1.0205181  1701355 
  485000    1.0023423   -2.1156731   -2.1156731   -1.0946608  0.072048522   -2.1156731    1.0210123  1701328 
  486000    1.0018216   -2.1152696   -2.1152696   -1.0947716  0.072247998   -2.1152696     1.020498  1701301 
  487000     1.001771   -2.1151101   -2.1151101   -1.0946474  0.073664873   -2.1151101    1.0204627  1701274 
  488000    1.0021215   -2.1151514   -2.1151514   -1.0943154  0.071548215   -2.1151514    1.0208359  1701247 
  489000    1.0017962   -2.1151149   -2.1151149   -1.0945942  0.074502467   -2.1151149    1.0205208  1701220 
  490000    1.0032308   -2.1167693   -2.1167693   -1.0947709  0.068854138   -2.1167693    1.0219984  1701193 
  491000    1.0023086    -2.115447    -2.115447   -1.0943718  0.067048945    -2.115447    1.0210752  1701166 
  492000    1.0025378   -2.1158528   -2.1158528   -1.0945279  0.071445374   -2.1158528    1.0213249  1701139 
  493000    1.0024468   -2.1155919   -2.1155919   -1.0943436  0.072224734   -2.1155919    1.0212484  1701112 
  494000    1.0019539   -2.1148676   -2.1148676   -1.0941051  0.071413087   -2.1148676    1.0207625  1701085 
  495000    1.0026711   -2.1155446   -2.1155446   -1.0940354  0.073065001   -2.1155446    1.0215093  1701058 
  496000    1.0026589   -2.1152851   -2.1152851   -1.0937721  0.073328921   -2.1152851     1.021513  1701031 
  497000    1.0019868   -2.1146645   -2.1146645     -1.09382  0.067906203   -2.1146645    1.0208445  1701004 
  498000    1.0026881   -2.1147623   -2.1147623    -1.093187  0.074495109   -2.1147623    1.0215753  1700977 
  499000     1.001802   -2.1139824   -2.1139824   -1.0932938  0.075900033   -2.1139824    1.0206887  1700950 
  500000    1.0023472   -2.1148631   -2.1148631   -1.0936027  0.075874035   -2.1148631    1.0212604  1700923 
  501000    1.0026135   -2.1149499   -2.1149499    -1.093402  0.074987155   -2.1149499    1.0215479  1700896 
  502000     1.002534   -2.1146112   -2.1146112   -1.0931281  0.078895043   -2.1146112    1.0214831  1700869 
  503000    1.0027545    -2.114825    -2.114825    -1.093101  0.071624916    -2.114825     1.021724  1700842 
  504000    1.0019371   -2.1137145   -2.1137145   -1.0928072  0.073096783   -2.1137145    1.0209074  1700815 
  505000    1.0017356   -2.1138479   -2.1138479   -1.0931297  0.077301595   -2.1138479    1.0207182  1700788 
  506000    1.0015909   -2.1139056   -2.1139056   -1.0933187  0.068414794   -2.1139056    1.0205869  1700761 
  507000    1.0025831   -2.1147809   -2.1147809   -1.0931666  0.071980609   -2.1147809    1.0216142  1700734 
  508000    1.0028307   -2.1149552   -2.1149552   -1.0930724  0.070624013   -2.1149552    1.0218828  1700707 
  509000    1.0028983   -2.1147033   -2.1147033   -1.0927355  0.070864765   -2.1147033    1.0219678  1700680 
  510000    1.0017611    -2.113329    -2.113329   -1.0925038  0.071169166    -2.113329    1.0208252  1700653 
  511000     1.001792    -2.113462    -2.113462   -1.0925891  0.071886479    -2.113462     1.020873  1700626 
  512000    1.0022017   -2.1143017   -2.1143017   -1.0929951  0.068933824   -2.1143017    1.0213067  1700599 
  513000    1.0018843   -2.1133629   -2.1133629   -1.0923635  0.073471273   -2.1133629    1.0209994  1700572 
  514000    1.0011644   -2.1128483   -2.1128483   -1.0925664  0.074295817   -2.1128483     1.020282  1700545 
  515000    1.0014354   -2.1129748   -2.1129748   -1.0924004  0.071258577   -2.1129748    1.0205744  1700518 
  516000    1.0006596   -2.1123694   -2.1123694   -1.0925695  0.069675869   -2.1123694    1.0197999  1700491 
  517000    1.0005875   -2.1123225   -2.1123225   -1.0925799  0.071477497   -2.1123225    1.0197426  1700464 
  518000    1.0009133   -2.1124149   -2.1124149   -1.0923234  0.072385003   -2.1124149    1.0200915  1700436 
  519000    1.0017565   -2.1135772   -2.1135772   -1.0926102  0.071466022   -2.1135772     1.020967  1700409 
  520000    1.0008563   -2.1123889   -2.1123889   -1.0923231  0.069529134   -2.1123889    1.0200658  1700382 
  521000    0.9999334    -2.111196    -2.111196   -1.0920547  0.075381071    -2.111196    1.0191413  1700355 
  522000     1.001027   -2.1126249   -2.1126249   -1.0923528  0.071082541   -2.1126249    1.0202721  1700328 
  523000    1.0006557   -2.1122734   -2.1122734   -1.0923635  0.072948717   -2.1122734    1.0199099  1700301 
  524000    1.0010115   -2.1127468   -2.1127468    -1.092458  0.069654439   -2.1127468    1.0202888  1700274 
  525000   0.99977406   -2.1115436   -2.1115436   -1.0924999   0.07148784   -2.1115436    1.0190437  1700247 
  526000   0.99998976     -2.11232     -2.11232   -1.0930403  0.067285613     -2.11232    1.0192797  1700220 
  527000   0.99926949   -2.1119615   -2.1119615   -1.0933998  0.068827901   -2.1119615    1.0185617  1700193 
  528000   0.99911011   -2.1115347   -2.1115347   -1.0931193  0.069302801   -2.1115347    1.0184154  1700166 
  529000   0.99942445   -2.1121349   -2.1121349   -1.0933828  0.071864024   -2.1121349     1.018752  1700139 
  530000   0.99970266   -2.1117948   -2.1117948    -1.092743  0.071076396   -2.1117948    1.0190518  1700112 
  531000   0.99901348   -2.1117327   -2.1117327   -1.0933672  0.070719708   -2.1117327    1.0183655  1700085 
  532000    1.0005451   -2.1127481   -2.1127481   -1.0928052  0.067830595   -2.1127481    1.0199429  1700058 
  533000    1.0004746   -2.1125935   -2.1125935   -1.0927062  0.070520984   -2.1125935    1.0198873  1700031 
  534000    1.0004233   -2.1127276   -2.1127276   -1.0928765  0.068639472   -2.1127276    1.0198512  1700004 
  535000    1.0006637   -2.1123456   -2.1123456   -1.0922332  0.071844109   -2.1123456    1.0201124  1699977 
  536000    1.0012943   -2.1131498   -2.1131498   -1.0923783  0.068874284   -2.1131498    1.0207716  1699950 
  537000    1.0009492   -2.1125223   -2.1125223   -1.0920864  0.070463964   -2.1125223    1.0204359  1699923 
  538000    1.0006256   -2.1122139   -2.1122139   -1.0920917    0.0722284   -2.1122139    1.0201222  1699896 
  539000    1.0004189   -2.1117987   -2.1117987    -1.091871  0.078014804   -2.1117987    1.0199277  1699869 
  540000     1.000919   -2.1125797   -2.1125797    -1.092126  0.077269045   -2.1125797    1.0204537  1699842 
  541000    1.0016286   -2.1130187   -2.1130187   -1.0918252  0.071300996   -2.1130187    1.0211935  1699815 
  542000    1.0015925   -2.1131486   -2.1131486   -1.0919757  0.069559065   -2.1131486    1.0211729  1699788 
  543000    1.0022627   -2.1137726   -2.1137726   -1.0919002  0.074965784   -2.1137726    1.0218724  1699761 
  544000    1.0015356   -2.1132032   -2.1132032   -1.0920559  0.071288118   -2.1132032    1.0211473  1699734 
  545000    1.0017371   -2.1131837   -2.1131837   -1.0918148  0.074828119   -2.1131837    1.0213689  1699707 
  546000    1.0016965   -2.1131452   -2.1131452   -1.0918015  0.071393703   -2.1131452    1.0213437  1699680 
  547000    1.0017437   -2.1137009   -2.1137009   -1.0922927  0.074686245   -2.1137009    1.0214082  1699653 
  548000    1.0023263   -2.1140588   -2.1140588   -1.0920403  0.073968644   -2.1140588    1.0220184  1699626 
  549000    1.0015242   -2.1131597   -2.1131597   -1.0919429  0.078705478   -2.1131597    1.0212168  1699599 
  550000    1.0021827   -2.1136375   -2.1136375    -1.091733  0.074503545   -2.1136375    1.0219045  1699572 
  551000    1.0016981   -2.1131804   -2.1131804   -1.0917538  0.072803644   -2.1131804    1.0214266  1699545 
  552000    1.0012275    -2.112598    -2.112598   -1.0916351  0.073877935    -2.112598    1.0209629  1699518 
  553000    1.0022646   -2.1139276   -2.1139276   -1.0918909  0.068533449   -2.1139276    1.0220366  1699491 
  554000    1.0010721    -2.112495    -2.112495   -1.0916582  0.076554826    -2.112495    1.0208368  1699464 
  555000    1.0014469    -2.112513    -2.112513   -1.0912772  0.073629282    -2.112513    1.0212359  1699436 
  556000    1.0004437   -2.1119452   -2.1119452   -1.0917161  0.078716849   -2.1119452     1.020229  1699409 
  557000    1.0012367   -2.1126815   -2.1126815   -1.0916276  0.069634058   -2.1126815    1.0210539  1699382 
  558000    1.0012363   -2.1134235   -2.1134235   -1.0923538  0.073609352   -2.1134235    1.0210698  1699355 
  559000     1.000627   -2.1126848   -2.1126848   -1.0922202  0.071260161   -2.1126848    1.0204646  1699328 
  560000    1.0008042   -2.1124637   -2.1124637   -1.0918022   0.07012972   -2.1124637    1.0206615  1699301 
  561000    1.0018528   -2.1129025   -2.1129025   -1.0911553   0.07229733   -2.1129025    1.0217472  1699274 
  562000    1.0006695    -2.112252    -2.112252   -1.0916954  0.074412099    -2.112252    1.0205566  1699247 
  563000   0.99996173   -2.1116546   -2.1116546   -1.0918036  0.071044672   -2.1116546     1.019851  1699220 
  564000   0.99959079   -2.1112694   -2.1112694   -1.0917806  0.070702856   -2.1112694    1.0194889  1699193 
  565000   0.99883204   -2.1102762   -2.1102762    -1.091545  0.071015968   -2.1102762    1.0187312  1699166 
  566000   0.99959435   -2.1113093   -2.1113093   -1.0917844  0.074230888   -2.1113093    1.0195249  1699139 
  567000   0.99929867   -2.1112721   -2.1112721   -1.0920326  0.069796841   -2.1112721    1.0192395  1699112 
  568000   0.99952086   -2.1111264   -2.1111264   -1.0916441  0.072561237   -2.1111264    1.0194823  1699085 
  569000    0.9992002   -2.1109681   -2.1109681   -1.0917966   0.06989922   -2.1109681    1.0191715  1699058 
  570000   0.99866171   -2.1100974   -2.1100974    -1.091459  0.068575015   -2.1100974    1.0186384  1699031 
  571000   0.99898647   -2.1103774   -2.1103774   -1.0913915  0.065513678   -2.1103774    1.0189859  1699004 
  572000   0.99954542   -2.1109591   -2.1109591    -1.091387  0.068747283   -2.1109591    1.0195722  1698977 
  573000    1.0000742   -2.1111736   -2.1111736   -1.0910459   0.06764372   -2.1111736    1.0201278  1698950 
  574000   0.99904856    -2.109871    -2.109871   -1.0907732  0.070221225    -2.109871    1.0190978  1698923 
  575000   0.99909849   -2.1097451   -2.1097451   -1.0905803  0.072964045   -2.1097451    1.0191649  1698896 
  576000   0.99944604   -2.1100251   -2.1100251   -1.0904895  0.069378655   -2.1100251    1.0195356  1698869 
  577000   0.99987106    -2.110448    -2.110448   -1.0904626  0.070400746    -2.110448    1.0199854  1698842 
  578000   0.99916792   -2.1097807   -2.1097807   -1.0904964  0.071670255   -2.1097807    1.0192843  1698815 
  579000   0.99942176   -2.1097024   -2.1097024   -1.0901429  0.073318084   -2.1097024    1.0195595  1698788 
  580000   0.99934448    -2.109771    -2.109771   -1.0902742  0.074824872    -2.109771    1.0194968  1698761 
  581000   0.99907093   -2.1094079   -2.1094079   -1.0901739  0.071877032   -2.1094079     1.019234  1698734 
  582000   0.99946174   -2.1102667   -2.1102667   -1.0906178  0.067851833   -2.1102667    1.0196489  1698707 
  583000   0.99999994    -2.109822    -2.109822   -1.0896078  0.076653154    -2.109822    1.0202142  1698680 
  584000   0.99954294   -2.1097106   -2.1097106   -1.0899464  0.070520789   -2.1097106    1.0197641  1698653 
  585000    1.0002851   -2.1102394   -2.1102394   -1.0897018  0.074913463   -2.1102394    1.0205376  1698626 
  586000   0.99920651   -2.1096302   -2.1096302   -1.0901769  0.069412496   -2.1096302    1.0194533  1698599 
  587000   0.99952705   -2.1100697   -2.1100697   -1.0902732  0.073573439   -2.1100697    1.0197966  1698572 
  588000   0.99971301   -2.1105685   -2.1105685    -1.090566  0.068708869   -2.1105685    1.0200025  1698545 
  589000   0.99935675   -2.1100704   -2.1100704   -1.0904152  0.073610871   -2.1100704    1.0196552  1698518 
  590000   0.99975686   -2.1104028   -2.1104028   -1.0903231  0.076490083   -2.1104028    1.0200797  1698491 
  591000    1.0001572   -2.1106766   -2.1106766   -1.0901722  0.067057496   -2.1106766    1.0205044  1698464 
  592000   0.99950018   -2.1102966   -2.1102966   -1.0904458  0.076282676   -2.1102966    1.0198508  1698436 
  593000   0.99921879   -2.1101706   -2.1101706   -1.0905907  0.073032291   -2.1101706    1.0195799  1698409 
  594000   0.99875417   -2.1092263   -2.1092263   -1.0901043  0.071834297   -2.1092263     1.019122  1698382 
  595000    1.0000603   -2.1105891   -2.1105891   -1.0901182  0.075758824   -2.1105891     1.020471  1698355 
  596000   0.99970666   -2.1105411   -2.1105411   -1.0904147  0.068952812   -2.1105411    1.0201264  1698328 
  597000   0.99958716    -2.110613    -2.110613   -1.0905924  0.072228733    -2.110613    1.0200206  1698301 
  598000   0.99914885   -2.1099952   -2.1099952   -1.0904056  0.071952578   -2.1099952    1.0195896  1698274 
  599000   0.99848628   -2.1096325   -2.1096325   -1.0907029  0.070044814   -2.1096325    1.0189296  1698247 
  600000   0.99912533   -2.1102093   -2.1102093   -1.0906113  0.075406084   -2.1102093     1.019598  1698220 
  601000   0.99946982   -2.1103248   -2.1103248   -1.0903591  0.072588998   -2.1103248    1.0199657  1698193 
  602000    1.0005036   -2.1107591   -2.1107591   -1.0897221  0.072654532   -2.1107591     1.021037  1698166 
  603000    1.0002445   -2.1108859   -2.1108859   -1.0900971  0.072312309   -2.1108859    1.0207888  1698139 
  604000    1.0000401   -2.1106957   -2.1106957   -1.0900993  0.072782211   -2.1106957    1.0205964  1698112 
  605000      1.00093    -2.111209    -2.111209   -1.0896882  0.070494616    -2.111209    1.0215208  1698085 
  606000    1.0003935   -2.1107396   -2.1107396     -1.08975  0.078099702   -2.1107396    1.0209896  1698058 
  607000   0.99938035   -2.1101278   -2.1101278   -1.0901561  0.071878886   -2.1101278    1.0199717  1698031 
  608000    1.0002012   -2.1105852   -2.1105852   -1.0897595  0.071685814   -2.1105852    1.0208257  1698004 
  609000    1.0001949   -2.1105737   -2.1105737   -1.0897382  0.073281809   -2.1105737    1.0208355  1697977 
  610000   0.99972299   -2.1102401   -2.1102401   -1.0898699  0.075116328   -2.1102401    1.0203701  1697950 
  611000    1.0001113   -2.1105459   -2.1105459   -1.0897632  0.070885872   -2.1105459    1.0207827  1697923 
  612000   0.99953197   -2.1098314   -2.1098314   -1.0896238  0.074124165   -2.1098314    1.0202076  1697896 
  613000   0.99966123   -2.1097254   -2.1097254   -1.0893697  0.075172219   -2.1097254    1.0203558  1697869 
  614000   0.99885978    -2.109061    -2.109061   -1.0895071  0.071830053    -2.109061    1.0195539  1697842 
  615000   0.99872581   -2.1089821   -2.1089821   -1.0895487   0.07095967   -2.1089821    1.0194334  1697815 
  616000   0.99845178   -2.1085591   -2.1085591   -1.0893892  0.077552762   -2.1085591    1.0191699  1697788 
  617000   0.99856485   -2.1086919   -2.1086919   -1.0893904  0.071786737   -2.1086919    1.0193015  1697761 
  618000    0.9982625   -2.1084953   -2.1084953   -1.0894862  0.074507121   -2.1084953    1.0190091  1697734 
  619000   0.99860787   -2.1092636   -2.1092636   -1.0898858  0.069464985   -2.1092636    1.0193779  1697707 
  620000    0.9987291   -2.1091406   -2.1091406   -1.0896228  0.070991409   -2.1091406    1.0195178  1697680 
  621000   0.99846487   -2.1091444   -2.1091444   -1.0898801  0.067776546   -2.1091444    1.0192643  1697653 
  622000   0.99804201   -2.1089983   -2.1089983   -1.0901495  0.068451037   -2.1089983    1.0188488  1697626 
  623000   0.99831304   -2.1085967   -2.1085967    -1.089455  0.069028369   -2.1085967    1.0191417  1697599 
  624000   0.99939166   -2.1096612   -2.1096612   -1.0894022  0.068769941   -2.1096612    1.0202591  1697572 
  625000   0.99848616   -2.1083037   -2.1083037   -1.0889528    0.0701819   -2.1083037    1.0193509  1697545 
  626000   0.99871303   -2.1085249   -2.1085249   -1.0889262  0.072038149   -2.1085249    1.0195987  1697518 
  627000   0.99733676   -2.1069937   -2.1069937   -1.0887839  0.070334317   -2.1069937    1.0182098  1697491 
  628000   0.99861747   -2.1078481   -2.1078481   -1.0883145   0.07426228   -2.1078481    1.0195336  1697464 
  629000   0.99831026   -2.1071556   -2.1071556   -1.0879189  0.071852874   -2.1071556    1.0192368  1697436 
  630000   0.99967268   -2.1086155   -2.1086155   -1.0879716  0.068072952   -2.1086155     1.020644  1697409 
  631000   0.99861429     -2.10712     -2.10712   -1.0875404  0.071755131     -2.10712    1.0195796  1697382 
  632000   0.99846487   -2.1067943   -2.1067943   -1.0873511  0.072484645   -2.1067943    1.0194432  1697355 
  633000   0.99819176   -2.1068334   -2.1068334   -1.0876528  0.071047229   -2.1068334    1.0191806  1697328 
  634000   0.99824813   -2.1069207   -2.1069207   -1.0876663  0.073396159   -2.1069207    1.0192544  1697301 
  635000   0.99914154   -2.1077852   -2.1077852   -1.0876024  0.069906781   -2.1077852    1.0201828  1697274 
  636000   0.99818484   -2.1070891   -2.1070891   -1.0878669   0.07001709   -2.1070891    1.0192222  1697247 
  637000   0.99790966   -2.1070313   -2.1070313   -1.0880739  0.071384097   -2.1070313    1.0189574  1697220 
  638000   0.99872548   -2.1080149   -2.1080149   -1.0882083  0.065770079   -2.1080149    1.0198067  1697193 
  639000   0.99776975   -2.1076236   -2.1076236   -1.0887766  0.068248554   -2.1076236     1.018847  1697166 
  640000   0.99741794   -2.1067929   -2.1067929    -1.088289  0.072216917   -2.1067929    1.0185039  1697139 
  641000   0.99867374   -2.1079561   -2.1079561   -1.0881536   0.07508694   -2.1079561    1.0198025  1697112 
  642000   0.99806138   -2.1072444   -2.1072444    -1.088051  0.070168145   -2.1072444    1.0191934  1697085 
  643000   0.99879413   -2.1078674   -2.1078674   -1.0879095  0.073160052   -2.1078674    1.0199579  1697058 
  644000   0.99722026   -2.1067559   -2.1067559    -1.088389  0.067233719   -2.1067559    1.0183669  1697031 
  645000   0.99652049    -2.106272    -2.106272   -1.0886035  0.065785754    -2.106272    1.0176685  1697004 
  646000   0.99711906   -2.1072614   -2.1072614   -1.0889654  0.070754567   -2.1072614    1.0182959  1696977 
  647000   0.99714155   -2.1069064   -2.1069064   -1.0885713  0.067653332   -2.1069064    1.0183351  1696950 
  648000   0.99740861   -2.1065584   -2.1065584   -1.0879343  0.070691706   -2.1065584     1.018624  1696923 
  649000    0.9986283   -2.1073874   -2.1073874   -1.0875015  0.070844222   -2.1073874    1.0198859  1696896 
  650000   0.99822142   -2.1069186   -2.1069186    -1.087432  0.074563583   -2.1069186    1.0194866  1696869 
  651000   0.99853513   -2.1069705   -2.1069705   -1.0871473  0.071172123   -2.1069705    1.0198232  1696842 
  652000   0.99857997   -2.1075263   -2.1075263   -1.0876411  0.074460874   -2.1075263    1.0198852  1696815 
  653000   0.99843767   -2.1071567   -2.1071567   -1.0874005  0.073236818   -2.1071567    1.0197561  1696788 
  654000   0.99966392   -2.1080864   -2.1080864   -1.0870616  0.071954252   -2.1080864    1.0210248  1696761 
  655000   0.99848293   -2.1072665   -2.1072665   -1.0874317  0.071532932   -2.1072665    1.0198348  1696734 
[...]
29832000   0.29616411   -0.8084928   -0.8084928  -0.24333447  0.048059966   -0.8084928   0.56515834   908166 
29833000   0.29604662  -0.80841274  -0.80841274  -0.24346181  0.050640658  -0.80841274   0.56495094   908139 
29834000   0.29650179  -0.80868017  -0.80868017   -0.2428438  0.044833427  -0.80868017   0.56583637   908112 
29835000   0.29654857  -0.80898143  -0.80898143  -0.24303896  0.043473039  -0.80898143   0.56594247   908085 
29836000   0.29641898  -0.80855582  -0.80855582  -0.24284384  0.047982973  -0.80855582   0.56571197   908058 
29837000    0.2964394  -0.80832145  -0.80832145  -0.24255368  0.046430855  -0.80832145   0.56576777   908031 
29838000   0.29584265  -0.80758025  -0.80758025  -0.24293463  0.046296916  -0.80758025   0.56464562   908004 
29839000    0.2963113  -0.80831255  -0.80831255  -0.24275564  0.048239694  -0.80831255   0.56555691   907977 
29840000   0.29612897  -0.80834681  -0.80834681   -0.2431211  0.047473581  -0.80834681   0.56522571   907950 
29841000   0.29625098  -0.80812054  -0.80812054  -0.24264513  0.046557077  -0.80812054   0.56547541   907923 
29842000   0.29605401  -0.80810109  -0.80810109  -0.24298484  0.050838279  -0.80810109   0.56511625   907896 
29843000    0.2965137  -0.80837171  -0.80837171  -0.24236116  0.045008466  -0.80837171   0.56601055   907869 
29844000   0.29656969  -0.80859347  -0.80859347  -0.24245921  0.047481126  -0.80859347   0.56613426   907842 
29845000     0.296216  -0.80739486  -0.80739486  -0.24191896  0.046392094  -0.80739486    0.5654759   907815 
29846000   0.29611154  -0.80722353  -0.80722353  -0.24193021  0.046770797  -0.80722353   0.56529332   907788 
29847000   0.29636875  -0.80769691  -0.80769691  -0.24189574   0.04618725  -0.80769691   0.56580117   907761 
29848000   0.29617457  -0.80729059  -0.80729059  -0.24184332  0.051108684  -0.80729059   0.56544728   907734 
29849000   0.29596269  -0.80688965  -0.80688965  -0.24183009  0.050503041  -0.80688965   0.56505956   907707 
29850000   0.29600902  -0.80664968  -0.80664968  -0.24148486  0.046693224  -0.80664968   0.56516482   907680 
29851000   0.29651781  -0.80767355  -0.80767355  -0.24152047  0.045351095  -0.80767355   0.56615309   907653 
29852000   0.29628483  -0.80724158  -0.80724158  -0.24151649  0.046433602  -0.80724158   0.56572509   907626 
29853000   0.29605932   -0.8069124   -0.8069124   -0.2416011  0.048824164   -0.8069124   0.56531131   907599 
29854000   0.29570308  -0.80619416  -0.80619416  -0.24154626  0.047681996  -0.80619416   0.56464789   907572 
29855000   0.29544362  -0.80588219  -0.80588219  -0.24171296  0.046401765  -0.80588219   0.56416923   907545 
29856000   0.29626263    -0.807169    -0.807169  -0.24141899  0.045551814    -0.807169   0.56575001   907518 
29857000   0.29608562  -0.80683418  -0.80683418  -0.24140535   0.05072898  -0.80683418   0.56542882   907491 
29858000   0.29633076  -0.80728948  -0.80728948   -0.2413757  0.049035502  -0.80728948   0.56591379   907464 
29859000   0.29601288  -0.80686116  -0.80686116  -0.24153698  0.046378732  -0.80686116   0.56532418   907436 
29860000   0.29600605   -0.8064757   -0.8064757  -0.24114775  0.044132861   -0.8064757   0.56532794   907409 
29861000   0.29551419   -0.8052856   -0.8052856  -0.24088024  0.047695783   -0.8052856   0.56440536   907382 
29862000   0.29588639   -0.8057416   -0.8057416  -0.24060856  0.048910325   -0.8057416   0.56513304   907355 
29863000    0.2952114  -0.80469998  -0.80469998  -0.24083937   0.04639114  -0.80469998   0.56386061   907328 
29864000   0.29601226  -0.80572325  -0.80572325  -0.24031614  0.048978202  -0.80572325    0.5654071   907301 
29865000   0.29529515   -0.8047029   -0.8047029  -0.24064875  0.052982941   -0.8047029   0.56405415   907274 
29866000   0.29582465  -0.80529341  -0.80529341  -0.24021103  0.048669118  -0.80529341   0.56508238   907247 
29867000   0.29500553  -0.80413269  -0.80413269  -0.24059821   0.04534535  -0.80413269   0.56353448   907220 
29868000   0.29581027  -0.80554911  -0.80554911  -0.24046057   0.04761787  -0.80554911   0.56508854   907193 
29869000   0.29596832  -0.80574978  -0.80574978  -0.24034249  0.048871025  -0.80574978   0.56540729   907166 
29870000   0.29564123  -0.80490045  -0.80490045  -0.24010122   0.04717969  -0.80490045   0.56479924   907139 
29871000   0.29677213  -0.80703124  -0.80703124  -0.24005463  0.047456037  -0.80703124   0.56697661   907112 
29872000   0.29628721   -0.8059339   -0.8059339  -0.23986686  0.045744117   -0.8059339   0.56606705   907085 
29873000   0.29668008  -0.80660388  -0.80660388  -0.23976938  0.047684576  -0.80660388    0.5668345   907058 
29874000   0.29594643  -0.80506255  -0.80506255  -0.23961293  0.047988359  -0.80506255   0.56544962   907031 
29875000   0.29593166  -0.80478435  -0.80478435  -0.23934611   0.04518904  -0.80478435   0.56543824   907004 
29876000   0.29638832   -0.8057744   -0.8057744  -0.23944676  0.048412913   -0.8057744   0.56632764   906977 
29877000   0.29562822  -0.80421594  -0.80421594  -0.23932385  0.047776805  -0.80421594   0.56489209   906950 
29878000   0.29569586  -0.80445864  -0.80445864  -0.23942048  0.047120377  -0.80445864   0.56503816   906923 
29879000   0.29582376  -0.80460925  -0.80460925  -0.23930987  0.045229145  -0.80460925   0.56529938   906896 
29880000   0.29595713  -0.80440489  -0.80440489   -0.2388338  0.046141869  -0.80440489   0.56557109   906869 
29881000   0.29549561  -0.80337649  -0.80337649  -0.23867054  0.049117888  -0.80337649   0.56470595   906842 
29882000   0.29642877  -0.80475397  -0.80475397  -0.23824784  0.049233794  -0.80475397   0.56650613   906815 
29883000   0.29602576  -0.80406932  -0.80406932  -0.23831654  0.049509286  -0.80406932   0.56575277   906788 
29884000    0.2958065  -0.80355929  -0.80355929  -0.23820873  0.048220211  -0.80355929   0.56535055   906761 
29885000   0.29622098  -0.80441893  -0.80441893  -0.23825935  0.049048599  -0.80441893   0.56615959   906734 
29886000   0.29606335  -0.80439896  -0.80439896  -0.23852381  0.044523333  -0.80439896   0.56587515   906707 
29887000   0.29592418  -0.80357935  -0.80357935  -0.23795335  0.047179558  -0.80357935     0.565626   906680 
29888000   0.29568755  -0.80298055  -0.80298055     -0.23779   0.04998289  -0.80298055   0.56519054   906653 
29889000   0.29554659  -0.80289917  -0.80289917  -0.23796125  0.049069603  -0.80289917   0.56493792   906626 
29890000   0.29574756  -0.80302596  -0.80302596  -0.23768705  0.046915211  -0.80302596   0.56533891   906599 
29891000   0.29540424  -0.80294025  -0.80294025   -0.2382408  0.046857071  -0.80294025   0.56469945   906572 
29892000   0.29536052  -0.80298342  -0.80298342  -0.23835072  0.047238919  -0.80298342    0.5646327   906545 
29893000   0.29507681  -0.80255418  -0.80255418  -0.23844705  0.049636348  -0.80255418   0.56410713   906518 
29894000   0.29560509  -0.80389414  -0.80389414  -0.23876024  0.049259083  -0.80389414    0.5651339   906491 
29895000   0.29613587  -0.80450596  -0.80450596  -0.23834045  0.048585015  -0.80450596   0.56616551   906464 
29896000   0.29548619  -0.80333564  -0.80333564  -0.23839477  0.049307981  -0.80333564   0.56494087   906436 
29897000   0.29530957  -0.80276428  -0.80276428  -0.23814428   0.04566494  -0.80276428      0.56462   906409 
29898000   0.29578111  -0.80386404  -0.80386404  -0.23832563  0.047231738  -0.80386404   0.56553841   906382 
29899000   0.29562421  -0.80346207  -0.80346207  -0.23820682  0.046903193  -0.80346207   0.56525525   906355 
29900000   0.29580761  -0.80369461  -0.80369461  -0.23807182  0.045729491  -0.80369461   0.56562279   906328 
29901000   0.29507281  -0.80221713  -0.80221713  -0.23798258  0.048496968  -0.80221713   0.56423455   906301 
29902000   0.29545025  -0.80318225  -0.80318225  -0.23820913  0.044805166  -0.80318225   0.56497312   906274 
29903000   0.29511532  -0.80273234  -0.80273234  -0.23838287  0.049102207  -0.80273234   0.56434947   906247 
29904000   0.29531564  -0.80278981  -0.80278981  -0.23804044  0.043179493  -0.80278981   0.56474937   906220 
29905000   0.29493348  -0.80233016  -0.80233016  -0.23829482  0.048877702  -0.80233016   0.56403534   906193 
29906000   0.29503019  -0.80207426  -0.80207426  -0.23783716  0.045556676  -0.80207426    0.5642371   906166 
29907000   0.29551633  -0.80319031  -0.80319031  -0.23800663  0.046729624  -0.80319031   0.56518368   906139 
29908000   0.29526164  -0.80266179  -0.80266179  -0.23794839   0.04774236  -0.80266179    0.5647134   906112 
29909000   0.29512358  -0.80228906  -0.80228906   -0.2378229   0.04977309  -0.80228906   0.56446616   906085 
29910000   0.29476612  -0.80102262  -0.80102262  -0.23722334  0.046806882  -0.80102262   0.56379928   906058 
29911000   0.29461088  -0.80087338  -0.80087338  -0.23735424  0.046870096  -0.80087338   0.56351914   906031 
29912000   0.29472678  -0.80083947  -0.80083947  -0.23708185  0.050303095  -0.80083947   0.56375762   906004 
29913000   0.29501983  -0.80153209  -0.80153209   -0.2371971  0.049324164  -0.80153209   0.56433499   905977 
29914000   0.29507438  -0.80160761  -0.80160761  -0.23715144  0.051316893  -0.80160761   0.56445617   905950 
29915000   0.29498693   -0.8015643   -0.8015643   -0.2372586   0.04874592   -0.8015643   0.56430571   905923 
29916000   0.29549625  -0.80216871  -0.80216871  -0.23687184  0.047100558  -0.80216871   0.56529687   905896 
29917000   0.29508611  -0.80144687  -0.80144687  -0.23691779  0.046903239  -0.80144687   0.56452908   905869 
29918000   0.29523576  -0.80144794  -0.80144794  -0.23661573  0.046724146  -0.80144794   0.56483221   905842 
29919000   0.29533455  -0.80155718  -0.80155718  -0.23651913  0.049721152  -0.80155718   0.56503805   905815 
29920000   0.29496775   -0.8006429   -0.8006429  -0.23628979   0.04724076   -0.8006429    0.5643531   905788 
29921000   0.29508841  -0.80102641  -0.80102641  -0.23642561  0.046270165  -0.80102641    0.5646008   905761 
29922000   0.29515674  -0.80140211  -0.80140211  -0.23665375  0.047485837  -0.80140211   0.56474836   905734 
29923000   0.29458351  -0.79992463  -0.79992463  -0.23625626  0.046912053  -0.79992463   0.56366837   905707 
29924000   0.29478128  -0.80051842  -0.80051842  -0.23645483  0.052028563  -0.80051842    0.5640636   905680 
29925000   0.29518647  -0.80143985  -0.80143985   -0.2365841  0.049930729  -0.80143985   0.56485576   905653 
29926000   0.29473766  -0.80042188  -0.80042188  -0.23640812  0.050947882  -0.80042188   0.56401375   905626 
29927000   0.29513131  -0.80119302  -0.80119302  -0.23640914  0.045626774  -0.80119302   0.56478389   905599 
29928000   0.29456637  -0.80046044  -0.80046044  -0.23674085  0.047289522  -0.80046044   0.56371959   905572 
29929000   0.29474913  -0.80059515  -0.80059515    -0.236509  0.045859788  -0.80059515   0.56408615   905545 
29930000   0.29496288  -0.80094336  -0.80094336  -0.23643131  0.048013028  -0.80094336   0.56451205   905518 
29931000   0.29537193  -0.80133378  -0.80133378  -0.23602202  0.050595721  -0.80133378   0.56531177   905491 
29932000   0.29528619  -0.80146085  -0.80146085  -0.23629632  0.048896358  -0.80146085   0.56516453   905464 
29933000   0.29494335  -0.80105168  -0.80105168  -0.23652588  0.045905622  -0.80105168    0.5645258   905436 
29934000   0.29485753  -0.80069028  -0.80069028   -0.2363119  0.049091756  -0.80069028   0.56437838   905409 
29935000   0.29522172  -0.80105289  -0.80105289  -0.23596059    0.0450522  -0.80105289    0.5650923   905382 
29936000   0.29460311  -0.79977646  -0.79977646  -0.23585142  0.049418443  -0.79977646   0.56392504   905355 
29937000   0.29511643   -0.8007765   -0.8007765  -0.23585203  0.050770093   -0.8007765   0.56492447   905328 
29938000   0.29488221  -0.80046932  -0.80046932  -0.23597637  0.046625588  -0.80046932   0.56449295   905301 
29939000   0.29478992  -0.80039435  -0.80039435  -0.23606124  0.044203164  -0.80039435    0.5643331   905274 
29940000   0.29470798   -0.7998018   -0.7998018  -0.23560873  0.045058391   -0.7998018   0.56419307   905247 
29941000   0.29485887  -0.80005901  -0.80005901  -0.23556023  0.044721494  -0.80005901   0.56449878   905220 
29942000   0.29525007  -0.80052659  -0.80052659  -0.23526202  0.046569285  -0.80052659   0.56526457   905193 
29943000   0.29469952  -0.79984256  -0.79984256  -0.23561519  0.049787601  -0.79984256   0.56422737   905166 
29944000   0.29474771  -0.79984579  -0.79984579  -0.23550932  0.048539635  -0.79984579   0.56433647   905139 
29945000   0.29435053  -0.79903409  -0.79903409  -0.23544126  0.049113218  -0.79903409   0.56359282   905112 
29946000   0.29445058  -0.79912337  -0.79912337  -0.23532217  0.046526445  -0.79912337    0.5638012   905085 
29947000   0.29456733  -0.79918691  -0.79918691  -0.23514533   0.05044526  -0.79918691   0.56404158   905058 
29948000   0.29448775  -0.79865758  -0.79865758  -0.23475157  0.048324042  -0.79865758   0.56390601   905031 
29949000   0.29481462  -0.79940146  -0.79940146  -0.23485268    0.0492634  -0.79940146   0.56454878   905004 
29950000    0.2948001  -0.79938146  -0.79938146  -0.23484364  0.049217326  -0.79938146   0.56453781   904977 
29951000   0.29435802  -0.79879013  -0.79879013  -0.23508209   0.04547842  -0.79879013   0.56370804   904950 
29952000   0.29423193  -0.79852223  -0.79852223  -0.23503883  0.046770298  -0.79852223    0.5634834   904923 
29953000   0.29490902  -0.79972637  -0.79972637  -0.23492942   0.04867768  -0.79972637   0.56479694   904896 
29954000   0.29486503  -0.79909977  -0.79909977  -0.23437022  0.047127364  -0.79909977   0.56472955   904869 
29955000   0.29451427  -0.79841906  -0.79841906  -0.23434446  0.044499702  -0.79841906    0.5640746   904842 
29956000   0.29423431  -0.79769841  -0.79769841  -0.23414319  0.049893191  -0.79769841   0.56355521   904815 
29957000   0.29459134  -0.79871191  -0.79871191  -0.23445603  0.051597027  -0.79871191   0.56425588   904788 
29958000    0.2943605  -0.79781965  -0.79781965  -0.23398909   0.04477085  -0.79781965   0.56383056   904761 
29959000   0.29370886  -0.79689291  -0.79689291  -0.23429374   0.04820633  -0.79689291   0.56259917   904734 
29960000   0.29436969  -0.79727654  -0.79727654  -0.23339473   0.04789932  -0.79727654   0.56388181   904707 
29961000   0.29416397  -0.79714369  -0.79714369  -0.23363914  0.050108253  -0.79714369   0.56350455   904680 
29962000   0.29445027  -0.79758722  -0.79758722  -0.23351739  0.053405823  -0.79758722   0.56406983   904653 
29963000   0.29459688  -0.79771572  -0.79771572  -0.23334818  0.047054152  -0.79771572   0.56436754   904626 
29964000   0.29444535  -0.79790636  -0.79790636  -0.23381227  0.049817621  -0.79790636   0.56409409   904599 
29965000   0.29451199  -0.79821534  -0.79821534  -0.23397674  0.048761019  -0.79821534    0.5642386   904572 
29966000   0.29376848  -0.79662126  -0.79662126  -0.23379032  0.049214826  -0.79662126   0.56283094   904545 
29967000   0.29417202   -0.7974747   -0.7974747  -0.23385379  0.049437782   -0.7974747   0.56362091   904518 
29968000   0.29414815  -0.79779399  -0.79779399  -0.23420199  0.049452828  -0.79779399   0.56359201   904491 
29969000   0.29435118  -0.79754603  -0.79754603  -0.23354819  0.045786257  -0.79754603   0.56399785   904464 
29970000   0.29387969  -0.79679715  -0.79679715  -0.23368529  0.047645135  -0.79679715   0.56311187   904436 
29971000   0.29354582  -0.79594136  -0.79594136  -0.23345243  0.047797192  -0.79594136   0.56248892   904409 
29972000   0.29438857  -0.79759926  -0.79759926  -0.23347863  0.048827305  -0.79759926   0.56412063   904382 
29973000   0.29398994  -0.79671627  -0.79671627  -0.23334269  0.045651412  -0.79671627   0.56337358   904355 
29974000    0.2942794  -0.79683802  -0.79683802  -0.23289291  0.047698581  -0.79683802   0.56394511   904328 
29975000   0.29368958  -0.79611436  -0.79611436  -0.23328276   0.04489066  -0.79611436    0.5628316   904301 
29976000   0.29371235  -0.79601865  -0.79601865  -0.23312661  0.049746882  -0.79601865   0.56289204   904274 
29977000   0.29342054  -0.79572455  -0.79572455  -0.23337496  0.048112336  -0.79572455   0.56234959   904247 
29978000   0.29391322  -0.79653358  -0.79653358  -0.23322293  0.047096922  -0.79653358   0.56331065   904220 
29979000   0.29385318  -0.79618169  -0.79618169   -0.2329693  0.049791159  -0.79618169   0.56321239   904193 
29980000   0.29334189  -0.79551064  -0.79551064  -0.23326141  0.045997923  -0.79551064   0.56224923   904166 
29981000   0.29342575  -0.79585281  -0.79585281  -0.23342605   0.04430401  -0.79585281   0.56242676   904139 
29982000   0.29375369   -0.7959785   -0.7959785  -0.23290636  0.045550338   -0.7959785   0.56307214   904112 
29983000       0.2934  -0.79557445  -0.79557445  -0.23316347  0.050985439  -0.79557445   0.56241098   904085 
29984000   0.29275287  -0.79473121  -0.79473121  -0.23354394  0.045562846  -0.79473121   0.56118727   904058 
29985000   0.29376811  -0.79640106  -0.79640106  -0.23325082  0.043575522  -0.79640106   0.56315024   904031 
29986000   0.29317671  -0.79548193  -0.79548193  -0.23344862  0.046753296  -0.79548193   0.56203331   904004 
29987000     0.293176  -0.79523261  -0.79523261  -0.23318387  0.048058669  -0.79523261   0.56204874   903977 
29988000   0.29373719   -0.7959891   -0.7959891  -0.23284768  0.048808284   -0.7959891   0.56314143   903950 
29989000   0.29347197  -0.79537608  -0.79537608  -0.23272632  0.049111483  -0.79537608   0.56264976   903923 
29990000   0.29313088   -0.7947533   -0.7947533  -0.23274071  0.051250032   -0.7947533    0.5620126   903896 
29991000   0.29355601  -0.79540715  -0.79540715  -0.23256264  0.049401511  -0.79540715   0.56284451   903869 
29992000   0.29273168   -0.7942273   -0.7942273  -0.23294654  0.045337587   -0.7942273   0.56128076   903842 
29993000    0.2927034  -0.79415641  -0.79415641   -0.2329131  0.045439343  -0.79415641   0.56124331   903815 
29994000   0.29287491  -0.79453382  -0.79453382  -0.23294488    0.0456566  -0.79453382   0.56158893   903788 
29995000   0.29297134  -0.79508211  -0.79508211  -0.23329148  0.043645719  -0.79508211   0.56179063   903761 
29996000   0.29305056  -0.79478512  -0.79478512   -0.2328258  0.043305951  -0.79478512   0.56195932   903734 
29997000      0.29297  -0.79459991  -0.79459991  -0.23277828  0.048898543  -0.79459991   0.56182163   903707 
29998000   0.29355974  -0.79546841  -0.79546841  -0.23249903  0.047385278  -0.79546841   0.56296937   903680 
29999000   0.29293586  -0.79460031  -0.79460031  -0.23281059  0.044936451  -0.79460031   0.56178972   903653 
30000000   0.29288928  -0.79438884  -0.79438884  -0.23267166  0.048004461  -0.79438884   0.56171718   903626 
Loop time of 56929.8 on 768 procs for 30000000 steps with 903626 atoms

Performance: 227648.933 tau/day, 526.965 timesteps/s
87.2% CPU use with 768 MPI tasks x 1 OpenMP threads

MPI task timing breakdown:
Section |  min time  |  avg time  |  max time  |%varavg|  %CPU | %total
-----------------------------------------------------------------------
Pair    | 2348.4     | 8294.2     | 12985      |2607.3 |  90.3 | 14.57
Bond    | 18.988     | 20.324     | 22.208     |  10.6 | 100.0 |  0.04
Neigh   | 3011.7     | 10422      | 14501      |2134.8 |  98.2 | 18.31
Comm    | 13067      | 21464      | 32411      |2143.6 |  84.8 | 37.70
Output  | 2892.2     | 2895.6     | 2901.8     |   3.5 |  75.2 |  5.09
Modify  | 9660.2     | 13027      | 20766      |1659.2 |  83.7 | 22.88
Other   |            | 806.2      |            |       |       |  1.42

Nlocal:        1176.60 ave        3033 max         155 min
Histogram: 35 20 91 450 128 17 10 5 7 5
Nghost:        5865.68 ave        9760 max         942 min
Histogram: 118 21 28 29 48 53 130 228 92 21
Neighs:        8997.20 ave       28796 max         787 min
Histogram: 70 162 178 160 129 47 15 4 1 2

Total # of neighbors = 6909852
Ave neighs/atom = 7.6468052
Ave special neighs/atom = 0.0000000
Neighbor list builds = 3262701
Dangerous builds = 2422701

Total wall time: 15:49:04
