LAMMPS (24 Dec 2020)
OMP_NUM_THREADS environment is not set. Defaulting to 1 thread. (src/comm.cpp:94)
  using 1 OpenMP thread(s) per MPI task
# Simple rigid body system
# needed variables: startTemp, temp

units		lj
atom_style	full
dimension 	3
boundary	p p f
pair_style	lj/cut/opt 2.5

variable 	gcmcdisplace	equal 0
variable 	sigma		equal 1.0
variable 	epsilon 	equal 1.0


read_restart	restart.dat.3000000
Reading restart file ...
  restart file = 24 Dec 2020, LAMMPS = 24 Dec 2020
WARNING: Restart file used different # of processors: 48 vs. 192 (src/read_restart.cpp:697)
  restoring atom style full from restart
  orthogonal box = (0.0000000 0.0000000 0.0000000) to (80.000000 80.000000 160.00000)
  6 by 4 by 8 MPI processor grid
  restoring pair style lj/cut/opt from restart
  439061 atoms
Finding 1-2 1-3 1-4 neighbors ...
  special bond factors lj:    0        0        0       
  special bond factors coul:  0        0        0       
     0 = max # of 1-2 neighbors
     0 = max # of 1-3 neighbors
     0 = max # of 1-4 neighbors
     1 = max # of special neighbors
  special bonds CPU = 1.401 seconds
  read_restart CPU = 1.724 seconds

mass		1 1.0
mass		2 1.0
mass		3 1.0


group		solvent type 1
439061 atoms in group solvent


neighbor 	0.4 bin

pair_coeff	1 1 1.0 1.0
pair_coeff	2 2 0.0 0.0
pair_coeff	3 3 0.0 0.0
pair_coeff	2 3 0.0 0.0
pair_coeff	1 2*3 0.0 0.0

pair_modify 	shift yes


balance 	1.05 shift z 10 1.05
Balancing ...
Neighbor list info ...
  update every 1 steps, delay 10 steps, check yes
  max neighbors/atom: 2000, page size: 100000
  master list distance cutoff = 2.9
  ghost atom cutoff = 2.9
  binsize = 1.45, bins = 56 56 111
  1 neighbor lists, perpetual/occasional/extra = 1 0 0
  (1) pair lj/cut/opt, perpetual
      attributes: half, newton on
      pair build: half/bin/newton
      stencil: half/bin/3d/newton
      bin: standard
 rebalancing time: 0.024 seconds
  iteration count = 5
  initial/final maximal load/proc = 3162.0000 2575.0000
  initial/final imbalance factor  = 1.3827327 1.1260394
  x cuts: 0.0000000 0.16666667 0.33333333 0.50000000 0.66666667 0.83333333 1.0000000
  y cuts: 0.0000000 0.25000000 0.50000000 0.75000000 1.0000000
  z cuts: 0.0000000 0.097656250 0.18359375 0.27734375 0.37890625 0.47656250 0.57031250 0.67968750 1.0000000


####################### WALLS ###########################


variable       epsilonWall equal 2*${epsilon}
variable       epsilonWall equal 2*1

variable       cutoffTop   equal   0.7147*${sigma}
variable       cutoffTop   equal   0.7147*1

variable       cutoffLow   equal   3*${sigma}
variable       cutoffLow   equal   3*1


fix            topWall all wall/lj93 zhi EDGE                ${epsilonWall} ${sigma} ${cutoffTop} units box
fix            topWall all wall/lj93 zhi EDGE                2 ${sigma} ${cutoffTop} units box
fix            topWall all wall/lj93 zhi EDGE                2 1 ${cutoffTop} units box
fix            topWall all wall/lj93 zhi EDGE                2 1 0.7147 units box

fix            lowWall all wall/lj93 zlo EDGE                ${epsilonWall} ${sigma} ${cutoffLow} units box
fix            lowWall all wall/lj93 zlo EDGE                2 ${sigma} ${cutoffLow} units box
fix            lowWall all wall/lj93 zlo EDGE                2 1 ${cutoffLow} units box
fix            lowWall all wall/lj93 zlo EDGE                2 1 3 units box


###################### COMPUTES ##########################

compute        bin1 solvent chunk/atom bin/1d z upper 1.0



######################	FIXES ############################


fix 		peclet solvent ave/chunk 1000 1 1000 bin1 density/number norm 		 none ave one file density.profile

fix 		 temp solvent ave/chunk 1000 1 1000 bin1 temp norm none ave one file temp.profile

fix 		2 solvent nve

## Thermostat


region		regthermo block EDGE EDGE EDGE EDGE 0 20

group 		thermo dynamic solvent region regthermo every 1000
dynamic group thermo defined

fix 		3 thermo langevin ${startTemp} ${temp} 10 156453
fix 		3 thermo langevin 1.0 ${temp} 10 156453
fix 		3 thermo langevin 1.0 1.0 10 156453


## Evaporation

region		regevap block EDGE EDGE EDGE EDGE 140 158
fix 		gcmc solvent gcmc 100 100 0 1 780493 ${temp} ${mu} ${gcmcdisplace} region regevap
fix 		gcmc solvent gcmc 100 100 0 1 780493 1.0 ${mu} ${gcmcdisplace} region regevap
fix 		gcmc solvent gcmc 100 100 0 1 780493 1.0 -3.7 ${gcmcdisplace} region regevap
fix 		gcmc solvent gcmc 100 100 0 1 780493 1.0 -3.7 0 region regevap


#### Load balancing

fix 		bal all balance 1000 1.05 shift z 10 1.05

############### Diagnostics and computes ###################
#compute 	com cube	  rigid/local	1 mol x y z
#compute 	quat cube	  rigid/local	1 mol quatw quati quatj quatk

thermo 		1000
thermo_style 	custom step temp epair etotal press pe ke atoms

dump		1 all custom 100000 dump.lammpstrj id mol type x y z
dump 		2 all image 10000 image.*.png type type
dump 		3 all movie 1000 movie.avi type type
#dump 		com cube local 1000 dump.*.xyz c_com[*]
#dump		quat cube      local 1000 dump.*.quat c_quat[*]


restart 	1000000 restart.dat
timestep 	0.005
timer 		full
New timer settings: style=full  mode=nosync  timeout=off


run		5000000
Per MPI rank memory allocation (min/avg/max) = 9.923 | 9.986 | 10.01 Mbytes
Step Temp E_pair TotEng Press PotEng KinEng Atoms 
 3000000     1.016004   -3.1352716   -1.6112691  0.079025997   -3.1352716    1.5240025   439061 
 3001000    1.0148575   -3.1352963   -1.6124794  0.074181525   -3.1352963    1.5228169   438907 
 3002000    1.0151312   -3.1378324   -1.6141049  0.071042476   -3.1378324    1.5237275   438763 
 3003000    1.0140379   -3.1379519   -1.6152721  0.071038858   -3.1379519    1.5226799   438592 
 3004000    1.0136069   -3.1391037   -1.6165398  0.075232013   -3.1391037    1.5225639   438439 
 3005000    1.0120393   -3.1374777   -1.6167691  0.073071029   -3.1374777    1.5207085   438295 
 3006000    1.0130398   -3.1402651   -1.6174764   0.07379956   -3.1402651    1.5227888   438129 
 3007000    1.0111579   -3.1385865   -1.6180054  0.076096092   -3.1385865    1.5205811   437950 
 3008000    1.0121558   -3.1408634   -1.6182184  0.073970599   -3.1408634     1.522645   437788 
 3009000    1.0086204   -3.1362753   -1.6183768   0.07838497   -3.1362753    1.5178985   437623 
 3010000    1.0099211   -3.1398103   -1.6194263  0.073140421   -3.1398103     1.520384   437471 
 3011000    1.0101681   -3.1412333   -1.6198444  0.074003477   -3.1412333    1.5213889   437289 
 3012000    1.0094052   -3.1431195   -1.6222223  0.068711073   -3.1431195    1.5208972   437100 
 3013000    1.0073463   -3.1414815   -1.6231273  0.075236161   -3.1414815    1.5183542   436939 
 3014000    1.0094789   -3.1455296   -1.6234001  0.069263901   -3.1455296    1.5221296   436778 
 3015000    1.0077933   -3.1429388   -1.6228497   0.07158446   -3.1429388    1.5200891   436634 
 3016000    1.0068245   -3.1425158   -1.6232722  0.077067701   -3.1425158    1.5192436   436457 
 3017000      1.00738   -3.1449276    -1.624229  0.074935328   -3.1449276    1.5206987   436280 
 3018000    1.0056499   -3.1442733   -1.6255215  0.074877588   -3.1442733    1.5187518   436089 
 3019000    1.0048458   -3.1436049   -1.6255384  0.072637106   -3.1436049    1.5180665   435937 
 3020000    1.0057902   -3.1453095   -1.6252932  0.070953238   -3.1453095    1.5200163   435787 
 3021000    1.0036207   -3.1436175   -1.6262566  0.075968905   -3.1436175     1.517361   435608 
 3022000    1.0037396   -3.1445573   -1.6264451  0.070135501   -3.1445573    1.5181122   435444 
 3023000    1.0040345   -3.1460086   -1.6268364  0.070355373   -3.1460086    1.5191722   435268 
 3024000    1.0033396   -3.1479112   -1.6291518  0.067610933   -3.1479112    1.5187595   435085 
 3025000    1.0015609   -3.1452172   -1.6286238  0.069106148   -3.1452172    1.5165934   434934 
 3026000    1.0020352   -3.1477355    -1.629705  0.073813206   -3.1477355    1.5180305   434728 
 3027000     1.000219   -3.1457161   -1.6299383  0.068179622   -3.1457161    1.5157777   434585 
 3028000    1.0005061   -3.1463515   -1.6296676  0.071437607   -3.1463515    1.5166839   434450 
 3029000   0.99882928    -3.145182   -1.6305275  0.071252348    -3.145182    1.5146545   434303 
 3030000   0.99786333   -3.1451579   -1.6313862   0.06832002   -3.1451579    1.5137717   434136 
 3031000   0.99812515   -3.1449899   -1.6302417   0.07019449   -3.1449899    1.5147481   433970 
 3032000   0.99739246   -3.1462784   -1.6321049  0.063345007   -3.1462784    1.5141735   433816 
 3033000   0.99770168   -3.1459148   -1.6306257  0.065638772   -3.1459148    1.5152892   433631 
 3034000   0.99602059   -3.1463481   -1.6330433  0.075394253   -3.1463481    1.5133048   433468 
 3035000   0.99525139   -3.1470443   -1.6343464  0.067617182   -3.1470443     1.512698   433307 
 3036000   0.99365874   -3.1460514   -1.6351569  0.067146925   -3.1460514    1.5108944   433130 
 3037000   0.99515507   -3.1494619   -1.6355232  0.070577896   -3.1494619    1.5139386   432910 
 3038000   0.99396591   -3.1501166   -1.6373476  0.064157819   -3.1501166     1.512769   432727 
 3039000     0.992767   -3.1496576   -1.6380915  0.065313721   -3.1496576    1.5115661   432549 
 3040000    0.9935141   -3.1510757   -1.6379173  0.062262857   -3.1510757    1.5131584   432419 
 3041000   0.99202492   -3.1501395   -1.6387599  0.063927177   -3.1501395    1.5113797   432279 
 3042000   0.99060913   -3.1496445   -1.6400028  0.068264755   -3.1496445    1.5096417   432159 
 3043000   0.99286664   -3.1531272   -1.6394532  0.067602088   -3.1531272     1.513674   431990 
 3044000   0.99104462   -3.1515029   -1.6400293  0.067212109   -3.1515029    1.5114736   431825 
 3045000   0.99118717   -3.1533881   -1.6411579  0.065833475   -3.1533881    1.5122303   431671 
 3046000   0.99210813   -3.1564944   -1.6421715  0.066895703   -3.1564944    1.5143229   431475 
 3047000    0.9925102   -3.1569911   -1.6414644  0.063141916   -3.1569911    1.5155267   431307 
 3048000   0.99155913    -3.156301   -1.6417174   0.06146759    -3.156301    1.5145837   431162 
 3049000   0.99071744   -3.1563994   -1.6426169  0.065881542   -3.1563994    1.5137825   431024 
 3050000   0.99104613   -3.1575308   -1.6425677  0.067664053   -3.1575308    1.5149631   430831 
 3051000    0.9880494   -3.1556201   -1.6446172  0.067083976   -3.1556201    1.5110029   430654 
 3052000   0.98825131   -3.1560937   -1.6440903  0.066551809   -3.1560937    1.5120034   430457 
 3053000   0.98927786   -3.1585692   -1.6443796  0.067384099   -3.1585692    1.5141896   430282 
 3054000   0.98771067   -3.1582219   -1.6459004  0.065607699   -3.1582219    1.5123215   430131 
 3055000   0.98710086    -3.158878   -1.6470192  0.067005313    -3.158878    1.5118588   429997 
 3056000   0.98665263   -3.1599255   -1.6482294  0.066316341   -3.1599255    1.5116961   429848 
 3057000   0.98526806   -3.1591628   -1.6490576  0.067725878   -3.1591628    1.5101052   429697 
 3058000   0.98539423    -3.161127   -1.6503714  0.061784266    -3.161127    1.5107557   429567 
 3059000   0.98592367   -3.1632161   -1.6511243  0.064416425   -3.1632161    1.5120919   429418 
 3060000   0.98364575   -3.1604433    -1.651353  0.064083342   -3.1604433    1.5090903   429278 
 3061000   0.98365826   -3.1607263   -1.6510717  0.059969545   -3.1607263    1.5096546   429123 
 3062000   0.98399115   -3.1617682   -1.6509972  0.065521155   -3.1617682     1.510771   428951 
 3063000    0.9805046   -3.1580898   -1.6521558  0.064489131   -3.1580898     1.505934   428804 
 3064000   0.98132618   -3.1609767   -1.6532394  0.059676328   -3.1609767    1.5077373   428650 
 3065000   0.98306136   -3.1629597    -1.651996  0.059374901   -3.1629597    1.5109638   428491 
 3066000   0.98181285   -3.1612494   -1.6517501  0.060431509   -3.1612494    1.5094993   428362 
 3067000   0.98135665   -3.1613842   -1.6521248  0.063608042   -3.1613842    1.5092594   428231 
 3068000   0.98218589   -3.1647309   -1.6536492    0.0649657   -3.1647309    1.5110817   428076 
 3069000   0.98040469   -3.1631273   -1.6541937  0.061596692   -3.1631273    1.5089335   427908 
 3070000   0.98090126     -3.16438   -1.6540716  0.060218454     -3.16438    1.5103084   427735 
 3071000   0.98052818   -3.1656003   -1.6553296  0.058223989   -3.1656003    1.5102706   427583 
 3072000   0.97868496   -3.1649903   -1.6568992  0.059331653   -3.1649903    1.5080912   427396 
 3073000   0.97790325   -3.1643675    -1.656899  0.062380359   -3.1643675    1.5074686   427231 
 3074000   0.97774102   -3.1663366    -1.658557  0.054262374   -3.1663366    1.5077796   427072 
 3075000   0.97627608   -3.1644156   -1.6584155  0.058305276   -3.1644156    1.5060001   426936 
 3076000   0.97534938   -3.1670856   -1.6620426  0.055003985   -3.1670856     1.505043   426802 
 3077000   0.97466294   -3.1670666   -1.6625329  0.058418626   -3.1670666    1.5045337   426646 
 3078000   0.97455947   -3.1685354   -1.6635477  0.064445373   -3.1685354    1.5049877   426472 
 3079000   0.97332577   -3.1677177   -1.6641168  0.057265159   -3.1677177    1.5036008   426325 
 3080000    0.9748265   -3.1710209   -1.6646742  0.059082007   -3.1710209    1.5063467   426204 
 3081000   0.97594399   -3.1709921   -1.6623593  0.061941278   -3.1709921    1.5086328   426046 
 3082000   0.97403716   -3.1706112   -1.6644205  0.062667655   -3.1706112    1.5061907   425903 
 3083000   0.97349245   -3.1703749   -1.6644006  0.060485929   -3.1703749    1.5059742   425726 
 3084000   0.97528245   -3.1747281   -1.6654991  0.062055785   -3.1747281     1.509229   425589 
 3085000   0.97522782   -3.1770888     -1.66743  0.061714414   -3.1770888    1.5096588   425444 
 3086000   0.97508263    -3.179247   -1.6692734  0.059045501    -3.179247    1.5099736   425292 
 3087000   0.97389249   -3.1787426   -1.6699522  0.060157284   -3.1787426    1.5087904   425106 
 3088000   0.97255324   -3.1792725   -1.6719719  0.056137141   -3.1792725    1.5073006   424941 
 3089000    0.9720963    -3.178611   -1.6715185  0.062841924    -3.178611    1.5070925   424800 
 3090000   0.97245041   -3.1804299   -1.6722736  0.057602577   -3.1804299    1.5081563   424655 
 3091000   0.97293924   -3.1830772   -1.6735941  0.059176058   -3.1830772    1.5094832   424495 
 3092000   0.97128203   -3.1807329   -1.6733024  0.062332307   -3.1807329    1.5074305   424349 
 3093000    0.9712181    -3.182682   -1.6748034  0.063362307    -3.182682    1.5078785   424195 
 3094000   0.96922535   -3.1816614   -1.6763267  0.060624784   -3.1816614    1.5053347   424040 
 3095000   0.97037521   -3.1852385   -1.6774636  0.061179862   -3.1852385    1.5077748   423856 
 3096000   0.96923628   -3.1841826   -1.6775625   0.06011905   -3.1841826    1.5066201   423683 
 3097000    0.9683426   -3.1843552   -1.6785698  0.057608744   -3.1843552    1.5057854   423527 
 3098000   0.96738593   -3.1838372   -1.6790492  0.056698746   -3.1838372     1.504788   423389 
 3099000   0.96855791   -3.1853519   -1.6782674  0.058299406   -3.1853519    1.5070845   423256 
 3100000   0.96731188   -3.1852117   -1.6796641  0.059800929   -3.1852117    1.5055476   423143 
 3101000   0.96717275   -3.1863167   -1.6804055  0.058258843   -3.1863167    1.5059112   422980 
 3102000   0.96749923   -3.1881117   -1.6811043  0.054459184   -3.1881117    1.5070074   422815 
 3103000   0.96600634   -3.1860004    -1.680845  0.060382326   -3.1860004    1.5051554   422682 
 3104000   0.96531908   -3.1874161   -1.6826835  0.051891764   -3.1874161    1.5047325   422500 
 3105000   0.96321746   -3.1860123    -1.683891  0.055495472   -3.1860123    1.5021214   422313 
 3106000   0.96341091   -3.1867767   -1.6838732  0.050368709   -3.1867767    1.5029035   422178 
 3107000   0.96208154   -3.1867663   -1.6853747  0.056657116   -3.1867663    1.5013916   422020 
 3108000   0.96261411   -3.1879173   -1.6851071  0.054685716   -3.1879173    1.5028103   421855 
 3109000   0.96131984      -3.1886   -1.6873156  0.052457441      -3.1886    1.5012844   421716 
 3110000   0.96307196   -3.1919065     -1.68734  0.052275157   -3.1919065    1.5045665   421563 
 3111000   0.96045208    -3.189593   -1.6885961  0.051982808    -3.189593     1.500997   421416 
 3112000   0.95985942   -3.1901132   -1.6896152  0.053121586   -3.1901132     1.500498   421296 
 3113000   0.95840112   -3.1903134   -1.6916824  0.048444481   -3.1903134     1.498631   421180 
 3114000   0.95871941   -3.1902132    -1.690586  0.046513209   -3.1902132    1.4996271   421040 
 3115000   0.95859672   -3.1917025   -1.6917044  0.049683101   -3.1917025    1.4999981   420882 
 3116000   0.95994197   -3.1939127   -1.6912454   0.05306825   -3.1939127    1.5026673   420724 
 3117000   0.95783641   -3.1912149   -1.6911947  0.052703308   -3.1912149    1.5000202   420542 
 3118000    0.9587122   -3.1934406   -1.6915596  0.051027974   -3.1934406     1.501881   420405 
 3119000   0.95711401   -3.1928944   -1.6929319  0.054053302   -3.1928944    1.4999624   420241 
 3120000   0.95731175   -3.1939093   -1.6931763  0.058593615   -3.1939093     1.500733   420112 
 3121000   0.95714634   -3.1939899   -1.6930946  0.052982674   -3.1939899    1.5008953   419994 
 3122000    0.9553652   -3.1935332   -1.6948778  0.052908169   -3.1935332    1.4986554   419839 
 3123000     0.955315   -3.1942958   -1.6951908  0.050195724   -3.1942958    1.4991051   419691 
 3124000   0.95443136   -3.1954128   -1.6970589   0.05137169   -3.1954128    1.4983539   419513 
 3125000   0.95536015    -3.196507   -1.6961299  0.055045661    -3.196507    1.5003771   419355 
 3126000   0.95460307   -3.1972156   -1.6975769  0.055681485   -3.1972156    1.4996387   419229 
 3127000   0.95399167   -3.1987492   -1.6995453  0.053952176   -3.1987492    1.4992039   419082 
 3128000   0.95475305   -3.1996885   -1.6987437  0.052838977   -3.1996885    1.5009448   418930 
 3129000   0.95355037   -3.2010667   -1.7015902  0.051356417   -3.2010667    1.4994765   418812 
 3130000   0.95218833   -3.1998303   -1.7020773  0.048211765   -3.1998303    1.4977531   418695 
 3131000   0.95139489   -3.2009199   -1.7039751  0.050283686   -3.2009199    1.4969448   418572 
 3132000   0.95158496   -3.2043997   -1.7065476  0.049764952   -3.2043997    1.4978522   418402 
 3133000   0.95047869   -3.2033036   -1.7065417  0.057956211   -3.2033036    1.4967619   418220 
 3134000   0.94973276   -3.2041245   -1.7079541  0.050631422   -3.2041245    1.4961704   418057 
 3135000   0.94865148   -3.2040016   -1.7090626  0.049889136   -3.2040016     1.494939   417925 
 3136000   0.95052156   -3.2060563   -1.7076218  0.052701259   -3.2060563    1.4984345   417772 
 3137000   0.95159915   -3.2075538   -1.7070326  0.050309307   -3.2075538    1.5005212   417664 
 3138000   0.94990706   -3.2063061   -1.7080513   0.04848559   -3.2063061    1.4982548   417552 
 3139000   0.95051256   -3.2082916   -1.7086185  0.053983705   -3.2082916    1.4996732   417423 
 3140000    0.9484436   -3.2058495   -1.7087879  0.048904629   -3.2058495    1.4970616   417241 
 3141000    0.9481656   -3.2069521   -1.7098593  0.055675928   -3.2069521    1.4970928   417110 
 3142000   0.94819772   -3.2084762   -1.7108982  0.053092839   -3.2084762     1.497578   416989 
 3143000   0.94830742   -3.2112231   -1.7130408  0.051692874   -3.2112231    1.4981824   416869 
 3144000   0.94566978   -3.2091779   -1.7147934  0.044494879   -3.2091779    1.4943845   416766 
 3145000   0.94604006   -3.2112642   -1.7158388  0.051917103   -3.2112642    1.4954253   416639 
 3146000    0.9462864   -3.2127175   -1.7163963  0.050945218   -3.2127175    1.4963211   416498 
 3147000   0.94492678   -3.2120676   -1.7175124  0.049235794   -3.2120676    1.4945552   416391 
 3148000    0.9432512   -3.2103278   -1.7178242  0.051201212   -3.2103278    1.4925036   416224 
 3149000   0.94406642   -3.2123201    -1.718024  0.046319834   -3.2123201    1.4942961   416084 
 3150000   0.94447306   -3.2139649   -1.7185795  0.043303466   -3.2139649    1.4953854   415960 
 3151000   0.94241875   -3.2133826   -1.7208264   0.04929216   -3.2133826    1.4925562   415842 
 3152000   0.94311117   -3.2155945   -1.7215105  0.049753384   -3.2155945     1.494084   415722 
 3153000   0.94281692   -3.2160239   -1.7218346  0.051533038   -3.2160239    1.4941893   415563 
 3154000   0.94232204   -3.2158526   -1.7220306  0.052751104   -3.2158526     1.493822   415447 
 3155000   0.94198902    -3.217191   -1.7233828   0.05256564    -3.217191    1.4938083   415304 
 3156000   0.94339257   -3.2212939   -1.7247662  0.046115518   -3.2212939    1.4965277   415167 
 3157000   0.94109892   -3.2163986   -1.7231101   0.05325238   -3.2163986    1.4932885   415056 
 3158000   0.94102871   -3.2188469   -1.7251337  0.049680656   -3.2188469    1.4937133   414907 
 3159000   0.94024702   -3.2187317   -1.7257482  0.051858948   -3.2187317    1.4929835   414765 
 3160000   0.94049947   -3.2218406   -1.7279736   0.04759381   -3.2218406    1.4938669   414631 
 3161000   0.93907733   -3.2194076   -1.7274037  0.052362253   -3.2194076    1.4920039   414521 
 3162000    0.9398194   -3.2225792   -1.7289639  0.045879711   -3.2225792    1.4936153   414401 
 3163000   0.94051695   -3.2234502   -1.7282321  0.046361939   -3.2234502    1.4952182   414264 
 3164000   0.94009589   -3.2232693    -1.728143  0.048746906   -3.2232693    1.4951262   414104 
 3165000   0.93920844   -3.2245074   -1.7301538  0.050795776   -3.2245074    1.4943536   413927 
 3166000   0.93949259   -3.2253092   -1.7299038   0.04593293   -3.2253092    1.4954054   413761 
 3167000   0.93871031   -3.2264001    -1.731774  0.047287573   -3.2264001    1.4946262   413632 
 3168000   0.93863873   -3.2266641   -1.7316422  0.049136278   -3.2266641    1.4950219   413491 
 3169000   0.93853318    -3.226395   -1.7310856  0.051228928    -3.226395    1.4953094   413365 
 3170000   0.93836698    -3.227522   -1.7318949  0.053244945    -3.227522    1.4956271   413204 
 3171000   0.93858848   -3.2297246   -1.7332555  0.049540412   -3.2297246    1.4964691   413069 
 3172000   0.93885048   -3.2304551    -1.733253  0.050040838   -3.2304551    1.4972021   412982 
 3173000   0.93761186   -3.2288472   -1.7333342  0.047351553   -3.2288472     1.495513   412903 
 3174000   0.93557841   -3.2269205   -1.7343111  0.044144133   -3.2269205    1.4926094   412809 
 3175000   0.93515536   -3.2283872   -1.7360333  0.048026978   -3.2283872    1.4923538   412693 
 3176000    0.9345657   -3.2281556   -1.7363054  0.039491978   -3.2281556    1.4918502   412572 
 3177000   0.93272344   -3.2266193   -1.7373886  0.047908181   -3.2266193    1.4892307   412483 
 3178000     0.931432   -3.2262649   -1.7385949   0.04327793   -3.2262649      1.48767   412344 
 3179000   0.93218738   -3.2295224   -1.7402197  0.045818333   -3.2295224    1.4893027   412226 
 3180000   0.93203293   -3.2302227   -1.7407042  0.049288879   -3.2302227    1.4895184   412098 
 3181000   0.93139215   -3.2294893    -1.740583  0.041902207   -3.2294893    1.4889063   411984 
 3182000   0.93056502   -3.2295058   -1.7416545  0.042056853   -3.2295058    1.4878513   411910 
 3183000   0.93124677   -3.2298688   -1.7404321  0.043925019   -3.2298688    1.4894367   411773 
 3184000   0.92992724   -3.2283535   -1.7407275  0.042949953   -3.2283535    1.4876261   411690 
 3185000   0.92891411   -3.2274045   -1.7410128   0.04627943   -3.2274045    1.4863917   411583 
 3186000   0.92800612    -3.227631   -1.7422953  0.045351711    -3.227631    1.4853357   411473 
 3187000   0.92817153   -3.2281128   -1.7420573  0.045749883   -3.2281128    1.4860555   411347 
 3188000   0.92837737   -3.2302735   -1.7435125  0.043483837   -3.2302735     1.486761   411243 
 3189000   0.92822127    -3.231936    -1.744944  0.045479101    -3.231936    1.4869919   411110 
 3190000    0.9284527   -3.2343936   -1.7466872  0.042492918   -3.2343936    1.4877064   411015 
 3191000   0.92707181   -3.2321155   -1.7461988  0.041636132   -3.2321155    1.4859168   410898 
 3192000   0.92865868   -3.2350135   -1.7461184  0.043368995   -3.2350135     1.488895   410778 
 3193000   0.92673314   -3.2338814   -1.7476285  0.046329285   -3.2338814    1.4862529   410655 
 3194000   0.92686748   -3.2334062   -1.7465686  0.045761849   -3.2334062    1.4868376   410553 
 3195000   0.92728574   -3.2357937   -1.7477994  0.037096069   -3.2357937    1.4879943   410419 
 3196000   0.92853361   -3.2371417   -1.7468037  0.044359422   -3.2371417     1.490338   410325 
 3197000   0.92707553   -3.2359794   -1.7476334  0.044819761   -3.2359794     1.488346   410229 
 3198000   0.92916594    -3.239914   -1.7477756  0.047399433    -3.239914    1.4921384   410109 
 3199000   0.92633481   -3.2366655   -1.7487143  0.043509745   -3.2366655    1.4879511   410010 
 3200000   0.92601312   -3.2368136   -1.7490962  0.044202655   -3.2368136    1.4877174   409932 
 3201000   0.92733799   -3.2395573   -1.7491551  0.044459378   -3.2395573    1.4904022   409779 
 3202000   0.92685533   -3.2421691   -1.7521172  0.050553553   -3.2421691    1.4900519   409662 
 3203000   0.92623896   -3.2429265   -1.7534655  0.046802184   -3.2429265     1.489461   409552 
 3204000   0.92646181   -3.2429278   -1.7528065  0.044403767   -3.2429278    1.4901213   409469 
 3205000   0.92291834   -3.2392658   -1.7544159  0.046089218   -3.2392658    1.4848499   409351 
 3206000   0.92447523   -3.2431376   -1.7554159  0.044131883   -3.2431376    1.4877218   409250 
 3207000   0.92419093   -3.2437936   -1.7562022  0.048982446   -3.2437936    1.4875914   409160 
 3208000    0.9241644    -3.244442   -1.7564497  0.048003013    -3.244442    1.4879924   409038 
 3209000   0.92498247   -3.2468317   -1.7570341  0.039765433   -3.2468317    1.4897976   408904 
 3210000    0.9228968   -3.2442014   -1.7572467  0.046055361   -3.2442014    1.4869548   408762 
 3211000   0.92145362   -3.2419731    -1.757053  0.047631924   -3.2419731    1.4849202   408682 
 3212000   0.92090247   -3.2437227   -1.7592475  0.043839192   -3.2437227    1.4844751   408560 
 3213000   0.92164384   -3.2462788   -1.7602922  0.039831161   -3.2462788    1.4859866   408473 
 3214000   0.92058848   -3.2462003   -1.7614318  0.045801564   -3.2462003    1.4847685   408340 
 3215000    0.9205317   -3.2481646   -1.7631931  0.047280134   -3.2481646    1.4849715   408259 
 3216000   0.92041415   -3.2484806   -1.7632694  0.045337807   -3.2484806    1.4852111   408141 
 3217000   0.92098737   -3.2495755   -1.7629623  0.043005548   -3.2495755    1.4866132   408010 
 3218000   0.91948441    -3.248959   -1.7643861  0.040108162    -3.248959    1.4845729   407904 
 3219000   0.91872873   -3.2499307   -1.7661995  0.047483143   -3.2499307    1.4837311   407800 
 3220000   0.91925326    -3.251978   -1.7668389  0.042720152    -3.251978    1.4851391   407646 
 3221000   0.91843623   -3.2523499   -1.7681521  0.041129466   -3.2523499    1.4841977   407542 
 3222000   0.91904193   -3.2521418   -1.7667138  0.043359771   -3.2521418     1.485428   407473 
 3223000   0.91730995   -3.2511615   -1.7681252   0.04534318   -3.2511615    1.4830363   407361 
 3224000   0.91774452   -3.2536136   -1.7694667  0.041052428   -3.2536136     1.484147   407249 
 3225000   0.91764905   -3.2528486   -1.7684442  0.047279054   -3.2528486    1.4844045   407136 
 3226000   0.91810331   -3.2547556   -1.7692843  0.040622724   -3.2547556    1.4854713   407045 
 3227000   0.91911842   -3.2549689   -1.7675738  0.040407432   -3.2549689    1.4873951   406968 
 3228000   0.91773618   -3.2540147   -1.7685644  0.043937504   -3.2540147    1.4854502   406888 
 3229000   0.91749464   -3.2560549   -1.7705356  0.045056208   -3.2560549    1.4855193   406762 
 3230000   0.91710922   -3.2544967   -1.7693167  0.047703996   -3.2544967      1.48518   406684 
 3231000   0.91781126   -3.2574419   -1.7708252  0.044853881   -3.2574419    1.4866167   406602 
 3232000   0.91672793   -3.2558645    -1.770714  0.046890332   -3.2558645    1.4851505   406523 
 3233000   0.91693611   -3.2571617     -1.77144  0.049752052   -3.2571617    1.4857217   406459 
 3234000    0.9167298   -3.2572118   -1.7714955  0.045497095   -3.2572118    1.4857164   406369 
 3235000   0.91659779   -3.2586148   -1.7726517  0.045667054   -3.2586148    1.4859632   406243 
 3236000   0.91596367   -3.2587269   -1.7732944  0.039661705   -3.2587269    1.4854324   406107 
 3237000   0.91430935   -3.2587105   -1.7756761  0.042181172   -3.2587105    1.4830345   406029 
 3238000   0.91522349   -3.2595859   -1.7747981  0.047335103   -3.2595859    1.4847878   405955 
 3239000   0.91525024   -3.2620085    -1.776987  0.040157961   -3.2620085    1.4850214   405903 
 3240000   0.91501872   -3.2625274   -1.7775889  0.045162546   -3.2625274    1.4849384   405823 
 3241000   0.91494003   -3.2634946   -1.7783362  0.041201249   -3.2634946    1.4851584   405728 
 3242000   0.91425761   -3.2627597   -1.7784932  0.039305626   -3.2627597    1.4842665   405669 
 3243000   0.91292275   -3.2624638   -1.7799076  0.045647996   -3.2624638    1.4825563   405544 
 3244000   0.91361169   -3.2636011   -1.7796406  0.045143128   -3.2636011    1.4839605   405466 
 3245000   0.91257997   -3.2620636   -1.7796327  0.046810306   -3.2620636    1.4824309   405426 
 3246000   0.91229985   -3.2621785   -1.7798406  0.044451582   -3.2621785    1.4823379   405327 
 3247000      0.91368   -3.2643109   -1.7795657   0.04169475   -3.2643109    1.4847452   405282 
 3248000   0.91315412    -3.264073   -1.7798124  0.046640727    -3.264073    1.4842605   405181 
 3249000   0.91202652   -3.2647969   -1.7819849  0.037675391   -3.2647969     1.482812   405076 
 3250000   0.91102301   -3.2654798   -1.7839812  0.039749767   -3.2654798    1.4814986   404989 
 3251000   0.91085693   -3.2650895   -1.7835903  0.046374876   -3.2650895    1.4814992   404915 
 3252000   0.91144457   -3.2663469   -1.7836832   0.04150891   -3.2663469    1.4826637   404858 
 3253000   0.91187096   -3.2665856   -1.7829057  0.046470942   -3.2665856    1.4836799   404770 
 3254000   0.91227009   -3.2677331   -1.7829526  0.044055514   -3.2677331    1.4847805   404647 
 3255000   0.91139545    -3.267692   -1.7840051  0.044321956    -3.267692    1.4836869   404557 
 3256000   0.91012682   -3.2675361   -1.7855445  0.039161807   -3.2675361    1.4819917   404456 
 3257000   0.91005577    -3.267043   -1.7848372  0.036113502    -3.267043    1.4822058   404366 
 3258000   0.91050668   -3.2690904   -1.7857467  0.045192631   -3.2690904    1.4833437   404256 
 3259000   0.90952493   -3.2675757    -1.785362   0.04701884   -3.2675757    1.4822136   404128 
 3260000   0.91060195   -3.2705045   -1.7862199  0.043581664   -3.2705045    1.4842847   404042 
 3261000    0.9095099   -3.2685349   -1.7857917  0.039823419   -3.2685349    1.4827431   403977 
 3262000      0.90854   -3.2708778   -1.7892684  0.039357828   -3.2708778    1.4816094   403855 
 3263000   0.90690397   -3.2688047   -1.7895739   0.03913831   -3.2688047    1.4792308   403776 
 3264000   0.90652786   -3.2679497   -1.7889734  0.041696752   -3.2679497    1.4789763   403678 
 3265000   0.90681134   -3.2688706   -1.7891056   0.04503727   -3.2688706     1.479765   403589 
 3266000   0.90710681    -3.270683   -1.7900616  0.038024347    -3.270683    1.4806214   403487 
 3267000   0.90679072   -3.2702079   -1.7898493  0.041681849   -3.2702079    1.4803586   403418 
 3268000   0.90606929   -3.2709828   -1.7915049  0.040337864   -3.2709828    1.4794779   403337 
 3269000   0.90450002   -3.2676152   -1.7902821  0.040015798   -3.2676152    1.4773331   403223 
 3270000   0.90414926   -3.2691627   -1.7921022  0.043484004   -3.2691627    1.4770605   403141 
 3271000   0.90418238   -3.2692789   -1.7919114  0.039093407   -3.2692789    1.4773675   403072 
 3272000    0.9037571   -3.2708432   -1.7937491  0.036610317   -3.2708432    1.4770941   402957 
 3273000   0.90342707   -3.2718454   -1.7948875  0.037742282   -3.2718454    1.4769578   402847 
 3274000    0.9043294   -3.2730449   -1.7943366   0.03705675   -3.2730449    1.4787083   402772 
 3275000   0.90380078   -3.2725783   -1.7943564  0.039324911   -3.2725783    1.4782219   402669 
 3276000   0.90359034   -3.2742006   -1.7960953  0.040774713   -3.2742006    1.4781054   402607 
 3277000   0.90189797     -3.27238   -1.7967498  0.036915857     -3.27238    1.4756302   402527 
 3278000   0.90223434   -3.2722954   -1.7958618  0.040377135   -3.2722954    1.4764336   402458 
 3279000   0.90346525   -3.2741311   -1.7952643  0.041842547   -3.2741311    1.4788668   402344 
 3280000   0.90283658   -3.2739401   -1.7957166  0.041969192   -3.2739401    1.4782235   402239 
 3281000   0.90268757   -3.2741894   -1.7958534  0.046518735   -3.2741894     1.478336   402142 
 3282000   0.90192437   -3.2745281   -1.7974052  0.034990579   -3.2745281    1.4771229   402132 
 3283000   0.90209507   -3.2763347   -1.7984876  0.044599449   -3.2763347    1.4778471   402011 
 3284000    0.9017232   -3.2778919   -1.8001651  0.043971043   -3.2778919    1.4777268   401878 
 3285000   0.90118792   -3.2785699   -1.8014593  0.040300394   -3.2785699    1.4771105   401807 
 3286000   0.90056576   -3.2772134    -1.800836  0.039330861   -3.2772134    1.4763774   401729 
 3287000   0.90174207   -3.2793671    -1.800708  0.044372595   -3.2793671    1.4786591   401633 
 3288000   0.90239567   -3.2817338   -1.8015606  0.041400944   -3.2817338    1.4801732   401513 
 3289000   0.90174096    -3.280468   -1.8010298  0.041683743    -3.280468    1.4794382   401421 
 3290000   0.90162162   -3.2811337    -1.801777  0.035498684   -3.2811337    1.4793567   401390 
 3291000   0.90085306   -3.2788499   -1.8005075   0.04594468   -3.2788499    1.4783424   401323 
 3292000   0.90089268   -3.2813161   -1.8024259  0.039030401   -3.2813161    1.4788902   401192 
 3293000   0.89978539   -3.2807205   -1.8034971  0.040792582   -3.2807205    1.4772234   401151 
 3294000   0.90077582   -3.2829521   -1.8037412  0.045713712   -3.2829521    1.4792108   401053 
 3295000   0.90097012   -3.2826804   -1.8029328   0.03617451   -3.2826804    1.4797476   400994 
 3296000   0.89761295   -3.2792524   -1.8044706  0.041166448   -3.2792524    1.4747818   400845 
 3297000   0.89967818   -3.2828325   -1.8044067  0.039145018   -3.2828325    1.4784258   400777 
 3298000   0.89808731   -3.2815156   -1.8055126  0.036112504   -3.2815156    1.4760031   400725 
 3299000   0.89743219   -3.2820859   -1.8070123  0.035833294   -3.2820859    1.4750736   400685 
 3300000   0.89647404   -3.2806124   -1.8067752  0.037356538   -3.2806124    1.4738371   400593 
 3301000   0.89683149   -3.2806869   -1.8060412  0.034374777   -3.2806869    1.4746457   400533 
 3302000   0.89595122   -3.2807888   -1.8073846   0.03733942   -3.2807888    1.4734043   400477 
 3303000   0.89680635   -3.2822247   -1.8069758  0.037108862   -3.2822247    1.4752489   400358 
 3304000   0.89711626   -3.2812665   -1.8053567    0.0424009   -3.2812665    1.4759098   400317 
 3305000   0.89677521   -3.2822199   -1.8066684  0.033205223   -3.2822199    1.4755515   400262 
 3306000   0.89755933   -3.2824582    -1.805325  0.037559903   -3.2824582    1.4771332   400183 
 3307000   0.89854725   -3.2865403   -1.8074338  0.037566229   -3.2865403    1.4791065   400089 
 3308000   0.89780266   -3.2852324    -1.807008  0.044451277   -3.2852324    1.4782244   399996 
 3309000   0.89599725   -3.2833453   -1.8078832  0.042234995   -3.2833453    1.4754621   399939 
 3310000   0.89716798   -3.2893545   -1.8117466   0.03192076   -3.2893545    1.4776079   399880 
 3311000   0.89535634   -3.2858031   -1.8108432  0.037217669   -3.2858031    1.4749599   399789 
 3312000   0.89494505   -3.2871937   -1.8125277  0.038068387   -3.2871937     1.474666   399685 
 3313000   0.89279855   -3.2855863    -1.814056  0.033511545   -3.2855863    1.4715303   399576 
 3314000   0.89280236   -3.2869622   -1.8153446  0.041001709   -3.2869622    1.4716176   399554 
 3315000   0.89336283   -3.2883966   -1.8155824   0.03618442   -3.2883966    1.4728142   399480 
 3316000   0.89148107   -3.2872277   -1.8171846  0.039999595   -3.2872277    1.4700431   399390 
 3317000   0.89313245   -3.2905686   -1.8174261  0.035560566   -3.2905686    1.4731425   399288 
 3318000   0.89252597   -3.2898717    -1.817512  0.042158232   -3.2898717    1.4723597   399229 
 3319000   0.89409273     -3.29298   -1.8176883   0.04010003     -3.29298    1.4752916   399135 
 3320000   0.89296297   -3.2930492   -1.8193226  0.036107537   -3.2930492    1.4737266   399054 
 3321000    0.8924118   -3.2929121   -1.8197777  0.036204168   -3.2929121    1.4731344   398968 
 3322000   0.89389012   -3.2946662    -1.818729  0.039862444   -3.2946662    1.4759373   398870 
 3323000   0.89423807    -3.296238   -1.8192745  0.040150082    -3.296238    1.4769635   398748 
 3324000   0.89507115   -3.2960343   -1.8175465  0.049032357   -3.2960343    1.4784878   398708 
 3325000    0.8938143   -3.2930996   -1.8165953  0.048828635   -3.2930996    1.4765043   398683 
 3326000   0.89499396   -3.2961662   -1.8175797  0.041489494   -3.2961662    1.4785865   398647 
 3327000   0.89453666   -3.2968674    -1.818851  0.048599342   -3.2968674    1.4780164   398597 
 3328000   0.89285092   -3.2970821   -1.8216363  0.043631301   -3.2970821    1.4754458   398539 
 3329000    0.8934362   -3.2996405   -1.8229311  0.042238306   -3.2996405    1.4767094   398459 
 3330000    0.8927839   -3.2992701   -1.8235055  0.042176544   -3.2992701    1.4757646   398423 
 3331000   0.89168348   -3.2999896   -1.8256259  0.044425519   -3.2999896    1.4743637   398310 
 3332000   0.89154259   -3.3017502   -1.8272048  0.035391303   -3.3017502    1.4745454   398198 
 3333000   0.89193626    -3.302001   -1.8266044  0.036061103    -3.302001    1.4753966   398144 
 3334000   0.89197094   -3.3016624   -1.8259749  0.041660945   -3.3016624    1.4756875   398081 
 3335000    0.8888134   -3.2969502   -1.8262354  0.043066722   -3.2969502    1.4707148   398013 
 3336000   0.89094347    -3.301014   -1.8266041  0.037692705    -3.301014    1.4744098   397967 
 3337000   0.89043641   -3.3023582   -1.8283096    0.0411078   -3.3023582    1.4740485   397838 
 3338000   0.88974961   -3.3003373   -1.8271813  0.042206002   -3.3003373     1.473156   397772 
 3339000   0.89000844   -3.3015269   -1.8276385  0.042321236   -3.3015269    1.4738883   397690 
 3340000   0.88845178   -3.3010329   -1.8294042  0.041947022   -3.3010329    1.4716287   397604 
 3341000   0.89021654   -3.3036852    -1.828985  0.039178835   -3.3036852    1.4747002   397564 
 3342000   0.89089484    -3.302519   -1.8264501  0.038829155    -3.302519    1.4760689   397498 
 3343000   0.88989038   -3.3027561   -1.8278543  0.039169335   -3.3027561    1.4749019   397364 
 3344000   0.88984066   -3.3023001   -1.8270871  0.039900866   -3.3023001     1.475213   397258 
 3345000   0.88866829   -3.3021609   -1.8286207  0.041239159   -3.3021609    1.4735402   397185 
 3346000   0.88949704   -3.3041439   -1.8288767  0.039097032   -3.3041439    1.4752672   397090 
 3347000   0.88810393   -3.3024619   -1.8292752  0.040524954   -3.3024619    1.4731867   397028 
 3348000   0.88659036    -3.301598    -1.830759  0.039593839    -3.301598     1.470839   396984 
 3349000   0.88782465   -3.3036928    -1.830654  0.036997704   -3.3036928    1.4730388   396943 
 3350000   0.88706221   -3.3016535   -1.8296869  0.039399211   -3.3016535    1.4719666   396891 
 3351000   0.88734351   -3.3034699    -1.830851  0.037086694   -3.3034699    1.4726189   396841 
 3352000   0.88595348    -3.302183   -1.8314336  0.039901026    -3.302183    1.4707494   396723 
 3353000   0.88579824    -3.301459    -1.830756   0.04044023    -3.301459     1.470703   396666 
 3354000    0.8858437   -3.3031816   -1.8319915  0.046180123   -3.3031816    1.4711901   396555 
 3355000   0.88508799   -3.3025943   -1.8323218  0.038244948   -3.3025943    1.4702725   396464 
 3356000   0.88590813   -3.3051573   -1.8331883  0.032195101   -3.3051573     1.471969   396374 
 3357000   0.88381194   -3.3031927   -1.8342397  0.035916182   -3.3031927     1.468953   396248 
 3358000   0.88645051   -3.3081298   -1.8345979  0.037274213   -3.3081298    1.4735319   396196 
 3359000   0.88558491   -3.3063608    -1.833989  0.041018027   -3.3063608    1.4723717   396121 
 3360000   0.88500106    -3.304951   -1.8333234  0.038174507    -3.304951    1.4716276   396060 
 3361000   0.88487475   -3.3073152   -1.8355855  0.034252799   -3.3073152    1.4717298   395976 
 3362000    0.8841204    -3.305513   -1.8348373  0.039652497    -3.305513    1.4706757   395922 
 3363000   0.88328151   -3.3053623   -1.8357889  0.037793141   -3.3053623    1.4695735   395843 
 3364000   0.88404591   -3.3083601   -1.8372138  0.036860824   -3.3083601    1.4711463   395762 
 3365000   0.88324988   -3.3074919   -1.8373285  0.036689268   -3.3074919    1.4701634   395670 
 3366000   0.88504712   -3.3078816   -1.8345182  0.044080007   -3.3078816    1.4733634   395614 
 3367000   0.88426925   -3.3087019   -1.8363618  0.034721257   -3.3087019    1.4723401   395541 
 3368000    0.8843498   -3.3099712   -1.8372326  0.030727661   -3.3099712    1.4727386   395470 
 3369000    0.8825881   -3.3081586   -1.8382014  0.036578621   -3.3081586    1.4699572   395429 
 3370000   0.88350522   -3.3102853   -1.8385587  0.037884575   -3.3102853    1.4717266   395364 
 3371000   0.88277998   -3.3100125   -1.8392932  0.039819964   -3.3100125    1.4707194   395310 
 3372000   0.88269431   -3.3094067   -1.8385771  0.039085817   -3.3094067    1.4708296   395242 
 3373000    0.8826271   -3.3105434   -1.8398481  0.038816045   -3.3105434    1.4706953   395248 
 3374000   0.88321657   -3.3099451   -1.8382304  0.039253543   -3.3099451    1.4717148   395238 
 3375000   0.88270363   -3.3099545   -1.8389158  0.034787932   -3.3099545    1.4710387   395190 
 3376000   0.88101425   -3.3083369   -1.8397457  0.037741173   -3.3083369    1.4685912   395091 
 3377000   0.88124234   -3.3094144   -1.8403574  0.038610509   -3.3094144     1.469057   395068 
 3378000   0.88208378   -3.3111208   -1.8403932  0.034022867   -3.3111208    1.4707277   394996 
 3379000   0.88083558   -3.3093896   -1.8406315  0.041230168   -3.3093896    1.4687581   394966 
 3380000   0.88052413   -3.3101201   -1.8418516  0.039595051   -3.3101201    1.4682685   394958 
 3381000   0.87984924   -3.3125802   -1.8449912  0.036745112   -3.3125802     1.467589   394838 
 3382000   0.88017295   -3.3136013   -1.8451153  0.038970904   -3.3136013     1.468486   394742 
 3383000   0.88133778   -3.3143589   -1.8436612  0.034250994   -3.3143589    1.4706977   394670 
 3384000    0.8805908   -3.3140544   -1.8445213  0.042261892   -3.3140544    1.4695331   394648 
 3385000   0.88044125   -3.3138563   -1.8443382  0.037047967   -3.3138563    1.4695181   394585 
 3386000   0.88091595   -3.3152403   -1.8446243   0.04160237   -3.3152403     1.470616   394503 
 3387000   0.88047987   -3.3149093   -1.8448424  0.042725256   -3.3149093    1.4700669   394455 
 3388000    0.8804029   -3.3154662   -1.8451886  0.041156884   -3.3154662    1.4702776   394364 
 3389000   0.88151341   -3.3173783   -1.8449885  0.039338567   -3.3173783    1.4723897   394295 
 3390000   0.87980352   -3.3149201   -1.8451888  0.040149561   -3.3149201    1.4697313   394242 
 3391000   0.88010587   -3.3156949   -1.8452497   0.04039337   -3.3156949    1.4704452   394186 
 3392000   0.88122817   -3.3204681   -1.8477592   0.03931431   -3.3204681    1.4727089   394082 
 3393000   0.87890997   -3.3173079   -1.8484061  0.038888324   -3.3173079    1.4689018   394064 
 3394000   0.87919933   -3.3188426   -1.8494125  0.041991605   -3.3188426    1.4694301   394052 
 3395000   0.87744519   -3.3174959   -1.8507146  0.038490222   -3.3174959    1.4667813   393976 
 3396000   0.87834145   -3.3174526   -1.8488786  0.033360393   -3.3174526     1.468574   393897 
 3397000   0.87751575   -3.3185037   -1.8512023  0.039103827   -3.3185037    1.4673015   393868 
 3398000   0.87775008   -3.3199071   -1.8519119  0.033042277   -3.3199071    1.4679952   393787 
 3399000    0.8772695   -3.3184503    -1.850957  0.036706356   -3.3184503    1.4674933   393706 
 3400000   0.87766564    -3.319838   -1.8514807  0.037345352    -3.319838    1.4683574   393652 
 3401000   0.87706526   -3.3196635   -1.8520272  0.035999814   -3.3196635    1.4676363   393576 
 3402000   0.87657489   -3.3200072   -1.8528821  0.038345045   -3.3200072    1.4671251   393493 
 3403000   0.87765391   -3.3212571   -1.8520871  0.038302042   -3.3212571      1.46917   393429 
 3404000   0.87648445   -3.3212571   -1.8538134  0.033907023   -3.3212571    1.4674436   393367 
 3405000   0.87716683    -3.322084   -1.8532179  0.044551225    -3.322084    1.4688661   393292 
 3406000   0.87832653    -3.324895   -1.8537914  0.036989334    -3.324895    1.4711036   393213 
 3407000   0.87821788   -3.3254758   -1.8542137  0.043571649   -3.3254758    1.4712621   393122 
 3408000   0.87491393   -3.3229309   -1.8568495  0.041474539   -3.3229309    1.4660814   393027 
 3409000   0.87650584    -3.327422   -1.8584227  0.038312148    -3.327422    1.4689993   392960 
 3410000   0.87606946   -3.3256143   -1.8569576  0.037029791   -3.3256143    1.4686567   392856 
 3411000    0.8756905   -3.3254142   -1.8571648  0.041277059   -3.3254142    1.4682494   392795 
 3412000   0.87479787   -3.3258161   -1.8586749  0.036464663   -3.3258161    1.4671412   392691 
 3413000   0.87366919   -3.3262401   -1.8607082  0.033504816   -3.3262401    1.4655319   392615 
 3414000   0.87404005   -3.3274887   -1.8612787  0.039061705   -3.3274887      1.46621   392600 
 3415000   0.87447928   -3.3270143   -1.8598358  0.035087806   -3.3270143    1.4671785   392538 
 3416000   0.87415208   -3.3290662   -1.8622461  0.039417274   -3.3290662    1.4668201   392487 
 3417000     0.872615   -3.3279961   -1.8635052  0.032009361   -3.3279961    1.4644909   392420 
 3418000   0.87249279   -3.3271375   -1.8625905  0.033803404   -3.3271375     1.464547   392350 
 3419000   0.87256149   -3.3284974   -1.8635027  0.038420145   -3.3284974    1.4649947   392261 
 3420000    0.8714905   -3.3293142   -1.8657222  0.040470636   -3.3293142     1.463592   392155 
 3421000   0.87365234   -3.3311511   -1.8637938  0.037212953   -3.3311511    1.4673573   392119 
 3422000    0.8718497   -3.3290822    -1.864577  0.041739616   -3.3290822    1.4645052   392072 
 3423000    0.8707896   -3.3270535   -1.8641461  0.037370451   -3.3270535    1.4629073   392023 
 3424000   0.87054383   -3.3267972   -1.8640789  0.038298151   -3.3267972    1.4627183   391963 
 3425000   0.87197726   -3.3300068   -1.8645136  0.035030706   -3.3300068    1.4654932   391865 
 3426000    0.8723195   -3.3299641   -1.8637834  0.036465931   -3.3299641    1.4661807   391835 
 3427000    0.8713562   -3.3304814   -1.8656769  0.041552781   -3.3304814    1.4648046   391770 
 3428000   0.87183073    -3.331779   -1.8660159  0.039664463    -3.331779    1.4657632   391727 
 3429000   0.86859876   -3.3278812   -1.8672684  0.037493938   -3.3278812    1.4606128   391651 
 3430000    0.8698885    -3.329637   -1.8666201  0.039099824    -3.329637    1.4630169   391588 
 3431000   0.86939616   -3.3294521   -1.8670168  0.036700272   -3.3294521    1.4624354   391522 
 3432000   0.86990965   -3.3301081   -1.8663865  0.031004454   -3.3301081    1.4637216   391409 
 3433000   0.86835564   -3.3270015    -1.865596  0.040123654   -3.3270015    1.4614055   391329 
 3434000    0.8698903   -3.3304487   -1.8661836  0.037481294   -3.3304487    1.4642651   391255 
 3435000   0.87034024   -3.3313245   -1.8660436  0.043422488   -3.3313245    1.4652809   391186 
 3436000   0.86850795   -3.3294293   -1.8669005  0.043440383   -3.3294293    1.4625289   391097 
 3437000    0.8699253   -3.3303517   -1.8653087  0.043004411   -3.3303517     1.465043   391063 
 3438000   0.86997517   -3.3316369   -1.8662439  0.040612425   -3.3316369     1.465393   390992 
 3439000   0.86906442   -3.3306687   -1.8666188   0.03657422   -3.3306687    1.4640499   390941 
 3440000   0.87054126   -3.3339376   -1.8671821  0.034278722   -3.3339376    1.4667554   390883 
 3441000   0.86881744   -3.3318163   -1.8676094   0.03762885   -3.3318163    1.4642069   390788 
 3442000   0.86711419    -3.330035   -1.8684854  0.038586745    -3.330035    1.4615496   390731 
 3443000   0.86716433   -3.3302683   -1.8685182  0.033585179   -3.3302683    1.4617501   390700 
 3444000   0.86684532   -3.3300843   -1.8685503  0.033431589   -3.3300843     1.461534   390614 
 3445000    0.8659365   -3.3298675    -1.869548  0.031710076   -3.3298675    1.4603195   390529 
 3446000   0.86586158   -3.3317071    -1.871125  0.034065833   -3.3317071    1.4605821   390425 
 3447000   0.86643469    -3.334174   -1.8723031  0.036937867    -3.334174    1.4618709   390339 
 3448000   0.86564607   -3.3329981   -1.8722707  0.039935547   -3.3329981    1.4607274   390289 
 3449000   0.86497432   -3.3324972   -1.8726078   0.03449225   -3.3324972    1.4598894   390210 
 3450000    0.8663199   -3.3354345   -1.8731017  0.033996815   -3.3354345    1.4623328   390164 
 3451000   0.86377464   -3.3332038   -1.8747936  0.033851029   -3.3332038    1.4584103   390064 
 3452000    0.8642144   -3.3342591   -1.8749866  0.032832327   -3.3342591    1.4592725   390032 
 3453000   0.86242367   -3.3318891    -1.875435  0.030444244   -3.3318891    1.4564541   389977 
 3454000     0.863685   -3.3342694    -1.875427  0.032097501   -3.3342694    1.4588423   389908 
 3455000   0.86461586   -3.3338205   -1.8730986  0.037610902   -3.3338205    1.4607219   389826 
 3456000    0.8645095   -3.3341093   -1.8733536  0.035521254   -3.3341093    1.4607558   389769 
 3457000   0.86507978   -3.3355468   -1.8736174  0.034285678   -3.3355468    1.4619294   389713 
 3458000      0.86515   -3.3345022   -1.8722815  0.034464557   -3.3345022    1.4622207   389667 
 3459000   0.86583748   -3.3353865   -1.8719213  0.037258138   -3.3353865    1.4634652   389645 
 3460000    0.8646956   -3.3356098   -1.8740484  0.035370591   -3.3356098    1.4615614   389638 
 3461000   0.86425334   -3.3355664    -1.874355  0.039278623   -3.3355664    1.4612114   389532 
 3462000   0.86522165   -3.3366526   -1.8736576  0.035878714   -3.3366526     1.462995   389493 
 3463000   0.86379087    -3.334973    -1.874176  0.038046893    -3.334973     1.460797   389434 
 3464000   0.86259233   -3.3356502   -1.8767115  0.034690463   -3.3356502    1.4589387   389389 
 3465000    0.8627527   -3.3367935   -1.8774449  0.035839716   -3.3367935    1.4593486   389352 
 3466000   0.86238459   -3.3380895   -1.8789064  0.035063631   -3.3380895    1.4591832   389230 
 3467000   0.86303865   -3.3386901   -1.8782051  0.034607458   -3.3386901     1.460485   389178 
 3468000   0.86223816   -3.3391353   -1.8798588  0.041573346   -3.3391353    1.4592766   389139 
 3469000   0.86281459   -3.3395201    -1.879024  0.038212232   -3.3395201    1.4604961   389074 
 3470000   0.86333584   -3.3419131   -1.8802416  0.038520247   -3.3419131    1.4616715   388996 
 3471000   0.86330128    -3.342268   -1.8805123  0.036472327    -3.342268    1.4617557   388958 
 3472000   0.86290166    -3.343131   -1.8817701  0.037608425    -3.343131    1.4613609   388883 
 3473000   0.86296016   -3.3436476   -1.8818907  0.034552839   -3.3436476    1.4617569   388804 
 3474000   0.86209293   -3.3432537   -1.8826465  0.038905367   -3.3432537    1.4606072   388719 
 3475000   0.86332776   -3.3454991   -1.8826605   0.04039414   -3.3454991    1.4628386   388682 
 3476000   0.86110461   -3.3439553   -1.8846397  0.036339957   -3.3439553    1.4593157   388617 
 3477000   0.85956564   -3.3423742   -1.8852916  0.037201721   -3.3423742    1.4570825   388517 
 3478000   0.85889566   -3.3430927   -1.8869022  0.032933336   -3.3430927    1.4561904   388452 
 3479000   0.85820456   -3.3447322    -1.889395  0.035269417   -3.3447322    1.4553372   388367 
 3480000   0.86011485   -3.3466551   -1.8879132  0.035287553   -3.3466551    1.4587419   388323 
 3481000   0.85974921   -3.3465987   -1.8882554   0.03517348   -3.3465987    1.4583434   388264 
 3482000   0.85878332   -3.3450874   -1.8882286  0.035304204   -3.3450874    1.4568588   388223 
 3483000   0.85887882   -3.3462035    -1.888995  0.036591369   -3.3462035    1.4572085   388173 
 3484000   0.85966693   -3.3486408   -1.8899637  0.030449789   -3.3486408    1.4586772   388138 
 3485000   0.85863173   -3.3479052   -1.8907443  0.037674512   -3.3479052    1.4571609   388074 
 3486000   0.85812677   -3.3494082    -1.892635  0.036103774   -3.3494082    1.4567732   387949 
 3487000   0.85854737    -3.351102   -1.8933142  0.036341955    -3.351102    1.4577878   387869 
 3488000   0.85817317   -3.3487954   -1.8914401  0.033655219   -3.3487954    1.4573554   387815 
 3489000   0.85931871   -3.3509144   -1.8914631  0.032941018   -3.3509144    1.4594513   387775 
 3490000   0.85848139   -3.3513591   -1.8930892  0.037491127   -3.3513591    1.4582698   387711 
 3491000   0.85833263    -3.351349   -1.8930384  0.039235905    -3.351349    1.4583105   387633 
 3492000   0.85767926    -3.351197   -1.8937898  0.035585145    -3.351197    1.4574072   387578 
 3493000   0.85665286   -3.3513027   -1.8952488  0.040062624   -3.3513027    1.4560539   387474 
 3494000   0.85874444   -3.3541566   -1.8942802  0.036013162   -3.3541566    1.4598764   387403 
 3495000   0.85694337    -3.355101   -1.8981096  0.035003201    -3.355101    1.4569913   387356 
 3496000   0.85839887   -3.3574876   -1.8977653  0.039425182   -3.3574876    1.4597222   387288 
 3497000   0.85833002    -3.354906   -1.8952594  0.035512312    -3.354906    1.4596466   387277 
 3498000   0.85890078   -3.3581687   -1.8973478  0.032274404   -3.3581687    1.4608209   387223 
 3499000   0.85677952   -3.3541965   -1.8967388  0.040898808   -3.3541965    1.4574577   387158 
 3500000   0.85820888   -3.3566184   -1.8965029   0.04094133   -3.3566184    1.4601155   387098 
 3501000    0.8581832   -3.3580413   -1.8977393  0.032343458   -3.3580413    1.4603019   387037 
 3502000   0.85778411   -3.3572393    -1.897526  0.039875461   -3.3572393    1.4597133   387013 
 3503000   0.85662316   -3.3561354   -1.8981415  0.036023295   -3.3561354    1.4579939   386945 
 3504000   0.85729801   -3.3604545   -1.9012064  0.040458582   -3.3604545    1.4592481   386917 
 3505000    0.8557128   -3.3588542   -1.9021575  0.036358605   -3.3588542    1.4566967   386878 
 3506000   0.85577162   -3.3586079   -1.9015739  0.033268873   -3.3586079    1.4570341   386815 
 3507000   0.85670911   -3.3597792   -1.9009528  0.034437772   -3.3597792    1.4588263   386763 
 3508000   0.85531884   -3.3596687    -1.902995  0.035695272   -3.3596687    1.4566736   386706 
 3509000   0.85498369   -3.3605845   -1.9042557  0.035056209   -3.3605845    1.4563288   386646 
 3510000   0.85398287   -3.3610141   -1.9062019  0.039553926   -3.3610141    1.4548122   386596 
 3511000   0.85373531    -3.359558   -1.9049719  0.034847786    -3.359558    1.4545861   386544 
 3512000   0.85372903   -3.3599805   -1.9051943  0.037756431   -3.3599805    1.4547862   386488 
 3513000   0.85359596   -3.3618152   -1.9070375  0.037445754   -3.3618152    1.4547777   386430 
 3514000   0.85573176   -3.3644524   -1.9058345  0.029654219   -3.3644524    1.4586178   386377 
 3515000   0.85385179   -3.3622473   -1.9065325  0.036495351   -3.3622473    1.4557148   386297 
 3516000   0.85326511   -3.3620102   -1.9070132  0.031219712   -3.3620102     1.454997   386222 
 3517000   0.85309478   -3.3618514   -1.9068849  0.032835053   -3.3618514    1.4549665   386153 
 3518000   0.85404885    -3.363174   -1.9063992  0.037862078    -3.363174    1.4567748   386105 
 3519000   0.85576423   -3.3661623   -1.9061742  0.036038072   -3.3661623    1.4599881   386029 
 3520000    0.8538899   -3.3652048   -1.9081765  0.040352246   -3.3652048    1.4570282   385966 
 3521000   0.85334047    -3.363899   -1.9076423  0.039875596    -3.363899    1.4562567   385922 
 3522000   0.85394398   -3.3659152   -1.9084549  0.039637988   -3.3659152    1.4574603   385876 
 3523000   0.85385883   -3.3646066   -1.9070422  0.037671547   -3.3646066    1.4575643   385810 
 3524000   0.85315108   -3.3636722    -1.907184  0.039566603   -3.3636722    1.4564883   385775 
 3525000   0.85338444   -3.3655423   -1.9084063  0.042069969   -3.3655423     1.457136   385709 
 3526000   0.85222194   -3.3647834   -1.9094513  0.040120808   -3.3647834    1.4553321   385661 
 3527000   0.85296061   -3.3662713   -1.9093831  0.035659127   -3.3662713    1.4568882   385583 
 3528000   0.85147931   -3.3632963    -1.908942   0.03877672   -3.3632963    1.4543543   385584 
 3529000   0.85148563   -3.3658596   -1.9112644  0.036915858   -3.3658596    1.4545952   385523 
 3530000   0.85143177   -3.3672534   -1.9123803   0.04225565   -3.3672534    1.4548731   385425 
 3531000   0.85070646   -3.3649078   -1.9110553  0.037799658   -3.3649078    1.4538525   385367 
 3532000   0.85057215     -3.36544   -1.9114662  0.029624621     -3.36544    1.4539738   385274 
 3533000   0.85072245   -3.3658627   -1.9114621  0.036502745   -3.3658627    1.4544006   385229 
 3534000   0.85069903   -3.3660353    -1.911316  0.033651533   -3.3660353    1.4547193   385134 
 3535000   0.84874901   -3.3641089   -1.9124792  0.031789989   -3.3641089    1.4516297   385069 
 3536000   0.84919497   -3.3659006   -1.9132441  0.029527034   -3.3659006    1.4526565   384999 
 3537000   0.84813414   -3.3632001   -1.9121924  0.032318153   -3.3632001    1.4510077   384955 
 3538000   0.84838677   -3.3628857   -1.9113213  0.040954024   -3.3628857    1.4515643   384922 
 3539000   0.84868355   -3.3645015   -1.9122332  0.040235758   -3.3645015    1.4522683   384870 
 3540000   0.85097422   -3.3673082   -1.9109877  0.034692278   -3.3673082    1.4563205   384835 
 3541000   0.85145776   -3.3687136   -1.9114899  0.039954506   -3.3687136    1.4572238   384815 
 3542000    0.8508594   -3.3679949   -1.9114734  0.037210267   -3.3679949    1.4565214   384730 
 3543000   0.85030047   -3.3679409   -1.9122135  0.037570551   -3.3679409    1.4557274   384687 
 3544000   0.85109484   -3.3685611   -1.9113374  0.036599209   -3.3685611    1.4572237   384651 
 3545000   0.84881547   -3.3669641   -1.9133748  0.038935209   -3.3669641    1.4535893   384580 
 3546000   0.84980693   -3.3680261   -1.9124777   0.03301951   -3.3680261    1.4555483   384511 
 3547000   0.84967866   -3.3688541   -1.9132907  0.036819128   -3.3688541    1.4555633   384449 
 3548000   0.84916921   -3.3689349   -1.9140589  0.035315124   -3.3689349     1.454876   384400 
 3549000   0.84768842   -3.3665836   -1.9141124  0.032254073   -3.3665836    1.4524713   384365 
 3550000   0.84840449   -3.3683963   -1.9145808  0.037950428   -3.3683963    1.4538155   384334 
 3551000   0.84868009   -3.3683431   -1.9138661  0.035953085   -3.3683431    1.4544769   384284 
 3552000   0.85015966   -3.3700532   -1.9129344   0.03538103   -3.3700532    1.4571188   384256 
 3553000   0.84918364   -3.3705761   -1.9150127  0.039862817   -3.3705761    1.4555634   384225 
 3554000   0.85051705   -3.3710733   -1.9131712  0.036178199   -3.3710733    1.4579021   384211 
 3555000   0.84960615   -3.3698421   -1.9132436  0.039401131   -3.3698421    1.4565985   384143 
 3556000   0.84715025   -3.3671997   -1.9144033  0.040573864   -3.3671997    1.4527964   384035 
 3557000   0.84793336   -3.3702516   -1.9157789  0.035728029   -3.3702516    1.4544727   383947 
 3558000   0.84895643   -3.3716159   -1.9154376  0.036543374   -3.3716159    1.4561783   383960 
 3559000   0.84886929   -3.3728604   -1.9165699  0.037429839   -3.3728604    1.4562905   383891 
 3560000   0.84807954   -3.3728574   -1.9177663  0.036485338   -3.3728574    1.4550911   383850 
 3561000   0.84822937   -3.3724965   -1.9169247  0.033166955   -3.3724965    1.4555719   383791 
 3562000   0.84792824   -3.3722659   -1.9169074  0.040501332   -3.3722659    1.4553585   383711 
 3563000   0.84891862   -3.3738307   -1.9166432  0.039416411   -3.3738307    1.4571875   383677 
 3564000   0.84773005   -3.3737632   -1.9184073  0.035123758   -3.3737632    1.4553559   383622 
 3565000   0.84805171   -3.3744261   -1.9183396  0.038349705   -3.3744261    1.4560865   383575 
 3566000   0.84680761     -3.37421   -1.9201459  0.036787341     -3.37421    1.4540641   383545 
 3567000   0.84704766   -3.3757169   -1.9211496  0.036790869   -3.3757169    1.4545673   383521 
 3568000   0.84638091   -3.3748197   -1.9211585  0.033932597   -3.3748197    1.4536612   383458 
 3569000   0.84456435   -3.3735997   -1.9227671  0.039934478   -3.3735997    1.4508325   383381 
 3570000   0.84547758   -3.3768908   -1.9243492  0.032840824   -3.3768908    1.4525415   383344 
 3571000   0.84450229   -3.3737092   -1.9226767  0.034559929   -3.3737092    1.4510325   383300 
 3572000   0.84526401   -3.3760411   -1.9233776  0.033735889   -3.3760411    1.4526635   383215 
 3573000   0.84484211   -3.3761188   -1.9239152  0.038509779   -3.3761188    1.4522036   383145 
 3574000   0.84473119   -3.3756545   -1.9235505   0.04091988   -3.3756545    1.4521039   383121 
 3575000   0.84541588   -3.3778069   -1.9243325  0.034592253   -3.3778069    1.4534744   383070 
 3576000   0.84602895    -3.377476   -1.9228792   0.03796625    -3.377476    1.4545968   383052 
 3577000   0.84538947   -3.3750997   -1.9214581  0.040185694   -3.3750997    1.4536415   383014 
 3578000   0.84669578   -3.3777776   -1.9216466  0.038879682   -3.3777776     1.456131   382950 
 3579000   0.84561483   -3.3746456   -1.9201305  0.037377455   -3.3746456    1.4545151   382886 
 3580000   0.84542383    -3.375717   -1.9213861  0.038570905    -3.375717    1.4543309   382848 
 3581000   0.84582768   -3.3768906   -1.9217357   0.03588059   -3.3768906    1.4551549   382814 
 3582000   0.84581759   -3.3775806   -1.9222454  0.036258924   -3.3775806    1.4553352   382762 
 3583000   0.84547663   -3.3775558    -1.922621  0.036645017   -3.3775558    1.4549348   382713 
 3584000    0.8458241    -3.377493   -1.9216522   0.03867182    -3.377493    1.4558408   382632 
 3585000   0.84425473    -3.375466   -1.9220415  0.036858231    -3.375466    1.4534245   382557 
 3586000   0.84467979   -3.3758627   -1.9213262  0.038300332   -3.3758627    1.4545365   382457 
 3587000   0.84521144   -3.3772812   -1.9215133  0.030595251   -3.3772812    1.4557679   382374 
 3588000   0.84413384   -3.3762244   -1.9220653  0.037583369   -3.3762244    1.4541591   382309 
 3589000   0.84316944   -3.3752433    -1.922586  0.041692753   -3.3752433    1.4526573   382267 
 3590000   0.84449409    -3.378193   -1.9230593  0.031573754    -3.378193    1.4551337   382216 
 3591000   0.84237964   -3.3746676   -1.9229342    0.0346621   -3.3746676    1.4517334   382152 
 3592000   0.84275872   -3.3759331   -1.9235312  0.028041693   -3.3759331    1.4524019   382148 
 3593000   0.84071477    -3.373457   -1.9243046  0.033651451    -3.373457    1.4491524   382076 
 3594000    0.8420172   -3.3770618   -1.9252198   0.02920897   -3.3770618     1.451842   381959 
 3595000   0.84094889   -3.3755008   -1.9254212  0.031925776   -3.3755008    1.4500797   381938 
 3596000   0.84193237   -3.3781016    -1.926155  0.030570711   -3.3781016    1.4519466   381893 
 3597000   0.84052153   -3.3758401   -1.9261178  0.029819092   -3.3758401    1.4497223   381838 
 3598000   0.84035016   -3.3744383   -1.9249584  0.033736928   -3.3744383    1.4494799   381824 
 3599000   0.83972343    -3.373257   -1.9246874   0.03475548    -3.373257    1.4485696   381779 
 3600000   0.84132587    -3.375451   -1.9238661  0.031431973    -3.375451    1.4515848   381713 
 3601000   0.84040726   -3.3746518   -1.9246632  0.036002356   -3.3746518    1.4499885   381716 
 3602000   0.84044584   -3.3754516   -1.9252522  0.034466458   -3.3754516    1.4501994   381678 
 3603000   0.84033573   -3.3751433   -1.9249287  0.028468927   -3.3751433    1.4502146   381624 
 3604000   0.84269655   -3.3777517   -1.9232494  0.034089213   -3.3777517    1.4545023   381568 
 3605000   0.84170435   -3.3778907   -1.9247201  0.043638941   -3.3778907    1.4531706   381468 
 3606000    0.8408231   -3.3774106   -1.9256815  0.036712568   -3.3774106     1.451729   381447 
 3607000   0.84213059   -3.3785023   -1.9241917  0.036993953   -3.3785023    1.4543106   381362 
 3608000   0.83997532   -3.3760369   -1.9253837  0.035288629   -3.3760369    1.4506532   381345 
 3609000   0.84055473   -3.3776425    -1.925882  0.029979277   -3.3776425    1.4517604   381317 
 3610000   0.84036154   -3.3774033   -1.9258394  0.035122589   -3.3774033    1.4515638   381281 
 3611000   0.83898296   -3.3746845   -1.9255133  0.039422813   -3.3746845    1.4491712   381284 
 3612000   0.83878808   -3.3745125   -1.9256323   0.03451003   -3.3745125    1.4488802   381272 
 3613000   0.83921726   -3.3749577   -1.9249559  0.038224438   -3.3749577    1.4500018   381172 
 3614000   0.84003421   -3.3761439   -1.9245134  0.028423057   -3.3761439    1.4516304   381115 
 3615000    0.8398251    -3.376401   -1.9251776  0.034169737    -3.376401    1.4512234   381127 
 3616000   0.84087431   -3.3783938   -1.9251934  0.034123329   -3.3783938    1.4532004   381084 
 3617000   0.83957024   -3.3764524   -1.9252087  0.037089083   -3.3764524    1.4512437   381006 
 3618000   0.83789984   -3.3751963   -1.9265738  0.039024738   -3.3751963    1.4486225   380936 
 3619000   0.83942797   -3.3792202   -1.9276776  0.037873392   -3.3792202    1.4515426   380863 
 3620000   0.83878096   -3.3787786   -1.9279624  0.032893092   -3.3787786    1.4508161   380760 
 3621000   0.83970543   -3.3826006   -1.9299337   0.03306028   -3.3826006     1.452667   380694 
 3622000     0.838502    -3.380306   -1.9296447  0.037305279    -3.380306    1.4506613   380674 
 3623000   0.83808989   -3.3805532    -1.930403  0.031202258   -3.3805532    1.4501502   380621 
 3624000   0.83679748   -3.3798768   -1.9317765  0.036709766   -3.3798768    1.4481004   380572 
 3625000   0.83817638   -3.3812775   -1.9308367  0.038846225   -3.3812775    1.4504408   380584 
 3626000    0.8382675   -3.3799591   -1.9292539  0.037314618   -3.3799591    1.4507053   380556 
 3627000   0.83782701    -3.381702   -1.9314542  0.028232568    -3.381702    1.4502478   380476 
 3628000   0.83547582   -3.3796705   -1.9332682  0.034661621   -3.3796705    1.4464023   380417 
 3629000   0.83581319   -3.3804959   -1.9334145   0.03750583   -3.3804959    1.4470815   380392 
 3630000   0.83738651   -3.3835419   -1.9335306  0.035213284   -3.3835419    1.4500113   380338 
 3631000   0.83819054   -3.3842361   -1.9327525  0.030518361   -3.3842361    1.4514837   380317 
 3632000   0.83766817   -3.3815057   -1.9308732  0.040929278   -3.3815057    1.4506325   380303 
 3633000   0.83884202   -3.3840829   -1.9312572  0.035731244   -3.3840829    1.4528257   380261 
 3634000   0.84002462   -3.3860125    -1.930932  0.036770116   -3.3860125    1.4550806   380207 
 3635000   0.83854268   -3.3866078   -1.9339567  0.038852626   -3.3866078    1.4526511   380171 
 3636000   0.83911926   -3.3883085   -1.9344252  0.035527987   -3.3883085    1.4538832   380110 
 3637000   0.83788855    -3.385942   -1.9338473  0.037310969    -3.385942    1.4520947   380020 
 3638000   0.83716456   -3.3868257   -1.9355962  0.036166223   -3.3868257    1.4512295   379918 
 3639000    0.8357768   -3.3852949   -1.9361774  0.038419706   -3.3852949    1.4491175   379841 
 3640000   0.83437104   -3.3830414   -1.9361975  0.037399709   -3.3830414    1.4468439   379798 
 3641000   0.83654043   -3.3877175   -1.9368749  0.033939669   -3.3877175    1.4508426   379736 
 3642000    0.8352609   -3.3870902   -1.9382722  0.035711539   -3.3870902     1.448818   379685 
 3643000   0.83522154   -3.3864487   -1.9374012   0.03211738   -3.3864487    1.4490475   379607 
 3644000   0.83464091   -3.3855769   -1.9373765  0.034271618   -3.3855769    1.4482003   379565 
 3645000   0.83553524   -3.3866741   -1.9367119  0.033885221   -3.3866741    1.4499622   379510 
 3646000    0.8344004    -3.385786   -1.9374306  0.035579467    -3.385786    1.4483554   379415 
 3647000   0.83568954   -3.3891557   -1.9384555   0.03215399   -3.3891557    1.4507001   379387 
 3648000   0.83539748   -3.3885102   -1.9381221  0.036903412   -3.3885102    1.4503881   379336 
 3649000   0.83564364   -3.3896341   -1.9385738  0.037500463   -3.3896341    1.4510603   379272 
 3650000   0.83607228   -3.3921304   -1.9401152  0.029736533   -3.3921304    1.4520152   379217 
 3651000   0.83303198   -3.3870108   -1.9400888  0.036983223   -3.3870108     1.446922   379168 
 3652000   0.83303597   -3.3887918   -1.9415919  0.031634978   -3.3887918    1.4471999   379097 
 3653000   0.83234321   -3.3886955   -1.9425083  0.027901143   -3.3886955    1.4461872   379047 
 3654000   0.83243533   -3.3872722   -1.9408104  0.030060492   -3.3872722    1.4464617   379017 
 3655000   0.83332943   -3.3890072   -1.9409536  0.032134489   -3.3890072    1.4480535   379007 
 3656000    0.8321861   -3.3883703   -1.9419906  0.034317543   -3.3883703    1.4463797   378925 
 3657000   0.83266002   -3.3889727   -1.9417311  0.036022573   -3.3889727    1.4472416   378915 
 3658000   0.83123678   -3.3869357   -1.9420306  0.035176884   -3.3869357    1.4449052   378879 
 3659000   0.83218067    -3.387666   -1.9410017  0.034074078    -3.387666    1.4466643   378848 
 3660000   0.83259919   -3.3897737   -1.9421603   0.03711283   -3.3897737    1.4476135   378790 
 3661000   0.83288921   -3.3891383   -1.9408638  0.036468735   -3.3891383    1.4482745   378749 
 3662000   0.83351788   -3.3892756   -1.9396669   0.03623147   -3.3892756    1.4496087   378686 
 3663000   0.83358021   -3.3918136   -1.9420007  0.033927293   -3.3918136    1.4498129   378661 
 3664000   0.83212292   -3.3910347   -1.9436264  0.036171252   -3.3910347    1.4474082   378627 
 3665000   0.83083948   -3.3896144   -1.9442973  0.033269651   -3.3896144     1.445317   378590 
 3666000    0.8300141   -3.3890598    -1.945129  0.034032296   -3.3890598    1.4439308   378577 
 3667000   0.83097679   -3.3899155   -1.9441572  0.033383302   -3.3899155    1.4457583   378537 
 3668000   0.83117864    -3.391568    -1.945321  0.032864024    -3.391568     1.446247   378501 
 3669000   0.83125313   -3.3902595   -1.9437873  0.036469404   -3.3902595    1.4464722   378476 
 3670000    0.8310126   -3.3905286   -1.9441769  0.035020036   -3.3905286    1.4463517   378398 
 3671000    0.8308156   -3.3893158   -1.9431732  0.037849798   -3.3893158    1.4461426   378363 
 3672000   0.83068466   -3.3890515   -1.9430834  0.042200655   -3.3890515    1.4459682   378349 
 3673000    0.8323319   -3.3912031   -1.9422412  0.039716594   -3.3912031    1.4489619   378316 
 3674000   0.83370029   -3.3934259   -1.9417749  0.034306151   -3.3934259     1.451651   378236 
 3675000    0.8319795   -3.3925641   -1.9434649  0.032612823   -3.3925641    1.4490992   378120 
 3676000   0.83239635   -3.3926744   -1.9427342  0.041938394   -3.3926744    1.4499403   378090 
 3677000   0.83242001   -3.3943907   -1.9444169  0.040460406   -3.3943907    1.4499738   378092 
 3678000   0.83242623   -3.3946765   -1.9444157  0.036005908   -3.3946765    1.4502608   378020 
 3679000   0.83171173   -3.3944222   -1.9454522  0.038683621   -3.3944222      1.44897   378032 
 3680000   0.82954471   -3.3911167   -1.9458378  0.038011456   -3.3911167    1.4452788   378010 
 3681000    0.8298563   -3.3945717   -1.9483942  0.035857853   -3.3945717    1.4461775   377917 
 3682000   0.82888114   -3.3910834   -1.9465403  0.033283776   -3.3910834    1.4445431   377900 
 3683000    0.8291556   -3.3925168   -1.9473539  0.035584268   -3.3925168    1.4451629   377863 
 3684000   0.82892647   -3.3928053    -1.947797  0.032613585   -3.3928053    1.4450083   377799 
 3685000   0.82922744   -3.3932516   -1.9475733  0.032246999   -3.3932516    1.4456783   377761 
 3686000    0.8305802   -3.3946518   -1.9464387  0.037961651   -3.3946518    1.4482131   377715 
 3687000   0.83159743   -3.3960255   -1.9458966  0.038019502   -3.3960255    1.4501288   377678 
 3688000   0.82959826   -3.3945591   -1.9478705  0.035948463   -3.3945591    1.4466886   377666 
 3689000   0.83030022   -3.3951376   -1.9470485  0.039076408   -3.3951376    1.4480891   377620 
 3690000   0.83084194   -3.3951168   -1.9459563   0.03651025   -3.3951168    1.4491606   377587 
 3691000   0.82957206   -3.3932825   -1.9463752   0.03821168   -3.3932825    1.4469073   377597 
 3692000   0.82997283   -3.3950495   -1.9472131  0.030986146   -3.3950495    1.4478364   377537 
 3693000   0.82883304   -3.3924612   -1.9464714   0.03197133   -3.3924612    1.4459898   377500 
 3694000   0.82942192   -3.3938219    -1.946636    0.0270755   -3.3938219    1.4471859   377456 
 3695000   0.82858646   -3.3924182   -1.9465981   0.03092944   -3.3924182    1.4458201   377432 
 3696000   0.82793076   -3.3914382   -1.9463526  0.034800606   -3.3914382    1.4450856   377325 
 3697000   0.82901354   -3.3929049   -1.9456916   0.03753906   -3.3929049    1.4472133   377263 
 3698000   0.83049118   -3.3980174   -1.9479478  0.032431151   -3.3980174    1.4500696   377191 
 3699000   0.82914693   -3.3944626   -1.9465827  0.035909645   -3.3944626    1.4478798   377150 
 3700000   0.82952405   -3.3937107   -1.9450111  0.038194792   -3.3937107    1.4486997   377108 
 3701000   0.82809701   -3.3934282   -1.9470097  0.039178965   -3.3934282    1.4464184   377053 
 3702000   0.82717221   -3.3917261   -1.9466701  0.038033254   -3.3917261    1.4450561   376987 
 3703000   0.82705907   -3.3927438   -1.9474829  0.033432227   -3.3927438    1.4452609   376882 
 3704000   0.82729555   -3.3938142   -1.9479252  0.038870127   -3.3938142     1.445889   376826 
 3705000   0.82806192   -3.3950158   -1.9475146  0.040919635   -3.3950158    1.4475012   376755 
 3706000   0.82822169   -3.3952412   -1.9473762  0.031745881   -3.3952412     1.447865   376733 
 3707000   0.82687335   -3.3941089   -1.9484706  0.036843277   -3.3941089    1.4456383   376699 
 3708000   0.82740814   -3.3964016   -1.9497246  0.032566337   -3.3964016     1.446677   376672 
 3709000   0.82636237   -3.3956349   -1.9505638  0.036060723   -3.3956349    1.4450711   376614 
 3710000   0.82699486   -3.3973649   -1.9508498  0.033337007   -3.3973649    1.4465151   376526 
 3711000    0.8250917   -3.3968377   -1.9533754   0.03496305   -3.3968377    1.4434623   376454 
 3712000   0.82624519   -3.3983715   -1.9526454  0.030285881   -3.3983715     1.445726   376390 
 3713000   0.82623144   -3.3983733   -1.9524908  0.035415276   -3.3983733    1.4458825   376343 
 3714000   0.82479197   -3.3973162   -1.9537725  0.035741583   -3.3973162    1.4435438   376296 
 3715000   0.82539549   -3.3980165   -1.9531823  0.032057104   -3.3980165    1.4448342   376235 
 3716000   0.82528524   -3.3992879   -1.9544776  0.029086349   -3.3992879    1.4448102   376191 
 3717000   0.82377276   -3.3971412   -1.9548906  0.033756705   -3.3971412    1.4422505   376168 
 3718000   0.82367156   -3.3971708   -1.9549901  0.029128004   -3.3971708    1.4421807   376140 
 3719000   0.82522686   -3.4008604   -1.9558028  0.027669936   -3.4008604    1.4450576   376100 
 3720000   0.82458665   -3.3994015     -1.95525  0.030414645   -3.3994015    1.4441515   376044 
 3721000   0.82466947   -3.3983779   -1.9538085  0.034210059   -3.3983779    1.4445693   375973 
 3722000   0.82607265   -3.4021774   -1.9547651  0.033235803   -3.4021774    1.4474123   375873 
 3723000   0.82440966    -3.399154   -1.9543289  0.037163954    -3.399154    1.4448252   375788 
 3724000     0.824517   -3.3977797   -1.9526472  0.038080467   -3.3977797    1.4451325   375757 
 3725000   0.82499515   -3.3988933   -1.9526225  0.035631527   -3.3988933    1.4462708   375679 
 3726000   0.82554373   -3.4008821   -1.9533106  0.041110392   -3.4008821    1.4475715   375591 
 3727000   0.82486351   -3.4027172   -1.9562999  0.033088307   -3.4027172    1.4464173   375581 
 3728000   0.82572718   -3.4034307   -1.9553833  0.032400189   -3.4034307    1.4480474   375551 
 3729000    0.8238044   -3.4008373    -1.955981   0.03514655   -3.4008373    1.4448564   375504 
 3730000    0.8244512   -3.4017731    -1.955713  0.032458014   -3.4017731    1.4460601   375486 
 3731000   0.82341849   -3.4011116   -1.9568705  0.030714133   -3.4011116    1.4442411   375488 
 3732000   0.82310756   -3.4021212   -1.9582756  0.029346224   -3.4021212    1.4438457   375449 
 3733000   0.82388923   -3.4030759   -1.9576088  0.030682529   -3.4030759    1.4454671   375384 
 3734000   0.82294373   -3.4031237   -1.9590307  0.033983453   -3.4031237    1.4440929   375310 
 3735000   0.82182535   -3.3988937   -1.9567941  0.040005537   -3.3988937    1.4420997   375318 
 3736000   0.82181559   -3.4001469   -1.9580067  0.039634818   -3.4001469    1.4421402   375303 
 3737000   0.82251599   -3.4029154    -1.959173  0.034528427   -3.4029154    1.4437424   375206 
 3738000    0.8224614   -3.4026361   -1.9587818  0.036124815   -3.4026361    1.4438544   375152 
 3739000   0.82172166   -3.4022084   -1.9593334  0.031082802   -3.4022084     1.442875   375069 
 3740000   0.82066389   -3.3994221   -1.9580894  0.037104981   -3.3994221    1.4413327   374987 
 3741000    0.8222579    -3.402449   -1.9580317  0.032444699    -3.402449    1.4444173   374913 
 3742000   0.82161703   -3.3995504    -1.956178  0.039406864   -3.3995504    1.4433724   374892 
 3743000   0.82220047   -3.4000806   -1.9557025  0.034524979   -3.4000806    1.4443781   374897 
 3744000    0.8234765    -3.401488   -1.9549454  0.035514616    -3.401488    1.4465425   374917 
 3745000   0.82443744   -3.4040842   -1.9557068  0.034856383   -3.4040842    1.4483774   374879 
 3746000   0.82329721   -3.4025942   -1.9561043  0.042764139   -3.4025942    1.4464899   374849 
 3747000   0.82092706   -3.3982882   -1.9557855  0.035524316   -3.3982882    1.4425027   374803 
 3748000   0.82220071   -3.4027133   -1.9577451  0.030691949   -3.4027133    1.4449682   374744 
 3749000   0.82095179   -3.4016142   -1.9587023  0.035023212   -3.4016142    1.4429119   374708 
 3750000   0.82152672   -3.4022336   -1.9581454  0.033251118   -3.4022336    1.4440881   374665 
 3751000    0.8210015   -3.4028653   -1.9595271  0.032983515   -3.4028653    1.4433383   374620 
 3752000   0.81990114   -3.4012868   -1.9597675  0.026301349   -3.4012868    1.4415192   374590 
 3753000   0.81967674   -3.4019032   -1.9604552  0.030724986   -3.4019032    1.4414479   374506 
 3754000   0.82013567    -3.402698   -1.9602119  0.034143027    -3.402698    1.4424861   374446 
 3755000   0.82118271   -3.4056146   -1.9611056  0.033709817   -3.4056146     1.444509   374399 
 3756000   0.82024424   -3.4038633   -1.9608433    0.0358494   -3.4038633      1.44302   374357 
 3757000   0.82138053   -3.4052929   -1.9600229  0.036286317   -3.4052929      1.44527   374292 
 3758000   0.82162795   -3.4065517    -1.960545  0.037826479   -3.4065517    1.4460067   374214 
 3759000   0.82140877   -3.4071121   -1.9612825  0.034120614   -3.4071121    1.4458296   374160 
 3760000   0.82059279   -3.4053017   -1.9606844  0.034161553   -3.4053017    1.4446173   374102 
 3761000    0.8202848   -3.4057334   -1.9614383  0.036759775   -3.4057334    1.4442951   374045 
 3762000    0.8199778    -3.406904   -1.9628675  0.035824859    -3.406904    1.4440364   373972 
 3763000    0.8185131   -3.4051956   -1.9635652   0.03379172   -3.4051956    1.4416304   373927 
 3764000   0.82049918   -3.4090021   -1.9637383  0.032713807   -3.4090021    1.4452637   373892 
 3765000     0.820389   -3.4094621   -1.9641875  0.034908264   -3.4094621    1.4452745   373839 
 3766000   0.82069013   -3.4105439   -1.9645996  0.036983986   -3.4105439    1.4459443   373803 
 3767000   0.81953279   -3.4073567   -1.9633511  0.035955444   -3.4073567    1.4440056   373777 
 3768000   0.82017079   -3.4084206   -1.9632792  0.037689809   -3.4084206    1.4451414   373774 
 3769000    0.8192497   -3.4086279   -1.9649511  0.030337015   -3.4086279    1.4436768   373733 
[...]
 7812000    0.4192078   -2.8577456   -1.3958512   0.03764079   -2.8577456    1.4618944   188855 
 7813000   0.41865391    -2.855477   -1.3951585  0.036056212    -2.855477    1.4603185   188809 
 7814000    0.4189484   -2.8583289   -1.3961235  0.041021114   -2.8583289    1.4622054   188698 
 7815000   0.41837073   -2.8555584   -1.3952067  0.036151578   -2.8555584    1.4603517   188677 
 7816000    0.4181691   -2.8568741   -1.3968703  0.036391027   -2.8568741    1.4600038   188631 
 7817000   0.41817908   -2.8579951   -1.3972749  0.037937206   -2.8579951    1.4607202   188543 
 7818000   0.41692311   -2.8538211   -1.3968622  0.038613354   -2.8538211    1.4569589   188462 
 7819000   0.41736653   -2.8552098   -1.3963298  0.038391347   -2.8552098      1.45888   188414 
 7820000   0.41827841   -2.8565524   -1.3941046  0.040860034   -2.8565524    1.4624478   188365 
 7821000   0.41936223   -2.8587913   -1.3919155   0.04065441   -2.8587913    1.4668758   188283 
 7822000   0.41863462   -2.8567521   -1.3918145  0.042012248   -2.8567521    1.4649376   188205 
 7823000   0.41778053   -2.8563351   -1.3938734  0.039656743   -2.8563351    1.4624617   188139 
 7824000   0.41791244   -2.8565102   -1.3930266  0.039985027   -2.8565102    1.4634835   188067 
 7825000    0.4182331    -2.853669    -1.388338  0.037960114    -2.853669     1.465331   187974 
 7826000   0.41727911   -2.8524154   -1.3899522  0.038723016   -2.8524154    1.4624632   187913 
 7827000   0.41661671   -2.8519136   -1.3913834  0.036159601   -2.8519136    1.4605303   187863 
 7828000   0.41671435   -2.8511799   -1.3897394  0.040331168   -2.8511799    1.4614405   187790 
 7829000   0.41674274   -2.8493793   -1.3872942  0.038059157   -2.8493793     1.462085   187720 
 7830000   0.41681735   -2.8474633   -1.3848048  0.039519356   -2.8474633    1.4626584   187680 
 7831000   0.41667522    -2.847167   -1.3845709  0.036894716    -2.847167    1.4625961   187624 
 7832000   0.41711802   -2.8469291   -1.3822088  0.039953229   -2.8469291    1.4647203   187551 
 7833000   0.41721462   -2.8465934   -1.3807758  0.044026656   -2.8465934    1.4658176   187454 
 7834000   0.41695878   -2.8429849    -1.377292  0.039965451   -2.8429849    1.4656928   187355 
 7835000   0.41571194   -2.8439371   -1.3819248  0.041432715   -2.8439371    1.4620123   187265 
 7836000   0.41624814    -2.846853   -1.3822667  0.039244868    -2.846853    1.4645862   187177 
 7837000    0.4164727   -2.8443027   -1.3786679   0.03947786   -2.8443027    1.4656348   187144 
 7838000   0.41654679   -2.8468526   -1.3802753  0.044831118   -2.8468526    1.4665773   187057 
 7839000   0.41589012   -2.8481629      -1.3836  0.039325705   -2.8481629    1.4645628   187019 
 7840000   0.41463478   -2.8443837   -1.3838589  0.038088963   -2.8443837    1.4605248   186970 
 7841000   0.41594769   -2.8464952   -1.3805774  0.039465202   -2.8464952    1.4659178   186872 
 7842000   0.41530015   -2.8452899   -1.3810901  0.040720704   -2.8452899    1.4641998   186800 
 7843000   0.41432104   -2.8462236   -1.3850064  0.039901526   -2.8462236    1.4612172   186740 
 7844000   0.41368373   -2.8440156   -1.3847022  0.038598161   -2.8440156    1.4593134   186696 
 7845000   0.41493161   -2.8479399   -1.3836285  0.038507964   -2.8479399    1.4643115   186620 
 7846000   0.41537573   -2.8510217   -1.3845536  0.042178437   -2.8510217    1.4664682   186545 
 7847000    0.4142907   -2.8477172   -1.3846169  0.039675203   -2.8477172    1.4631003   186486 
 7848000   0.41466551   -2.8480011   -1.3829565  0.041279969   -2.8480011    1.4650446   186407 
 7849000   0.41398814   -2.8474451   -1.3844171  0.038960128   -2.8474451    1.4630281   186359 
 7850000   0.41372113   -2.8482851   -1.3857219  0.039212729   -2.8482851    1.4625632   186298 
 7851000   0.41362774   -2.8453806   -1.3829435  0.039601398   -2.8453806    1.4624371   186272 
 7852000   0.41341044   -2.8476672   -1.3854253   0.04073918   -2.8476672    1.4622419   186199 
 7853000    0.4142458   -2.8500077   -1.3845986  0.039945345   -2.8500077    1.4654091   186172 
 7854000   0.41397662   -2.8478029   -1.3827795  0.042431229   -2.8478029    1.4650234   186100 
 7855000    0.4123186   -2.8443698   -1.3845393  0.042152523   -2.8443698    1.4598305   186014 
 7856000   0.41311035   -2.8444301   -1.3812064  0.037984934   -2.8444301    1.4632237   185939 
 7857000   0.41259958   -2.8449234   -1.3826202  0.038363266   -2.8449234    1.4623032   185826 
 7858000   0.41319509   -2.8457225   -1.3806859  0.040715344   -2.8457225    1.4650366   185747 
 7859000   0.41234271   -2.8427143   -1.3803062  0.040332027   -2.8427143     1.462408   185697 
 7860000    0.4127596   -2.8431887   -1.3787107  0.043862196   -2.8431887    1.4644781   185622 
 7861000   0.41207593   -2.8420848   -1.3793942  0.037619444   -2.8420848    1.4626907   185541 
 7862000   0.41163769   -2.8387484   -1.3770933  0.039861507   -2.8387484     1.461655   185475 
 7863000   0.41277929   -2.8392935   -1.3732213  0.041798937   -2.8392935    1.4660723   185429 
 7864000   0.41293812    -2.839338   -1.3723694  0.038887984    -2.839338    1.4669686   185387 
 7865000   0.41077948   -2.8324312   -1.3728634  0.041786628   -2.8324312    1.4595677   185353 
 7866000   0.41197254   -2.8372209   -1.3723313  0.039717762   -2.8372209    1.4648896   185216 
 7867000   0.41242156   -2.8369391   -1.3702549  0.039204657   -2.8369391    1.4666842   185191 
 7868000   0.41180023   -2.8360657   -1.3711481  0.041541186   -2.8360657    1.4649176   185135 
 7869000   0.41212673   -2.8365992   -1.3699181  0.042152568   -2.8365992    1.4666811   185059 
 7870000   0.41064721   -2.8307306   -1.3688092  0.038003595   -2.8307306    1.4619214   184995 
 7871000   0.41082569   -2.8297447   -1.3662386  0.036768014   -2.8297447    1.4635061   184875 
 7872000   0.41076104   -2.8292106   -1.3657686  0.035742159   -2.8292106     1.463442   184854 
 7873000   0.41115803   -2.8319324   -1.3667034  0.039826586   -2.8319324     1.465229   184807 
 7874000   0.40929752   -2.8272604   -1.3682433  0.040160893   -2.8272604    1.4590172   184754 
 7875000   0.40947064   -2.8283806   -1.3678531  0.038101189   -2.8283806    1.4605276   184641 
 7876000   0.41084577   -2.8283708   -1.3624302  0.040128696   -2.8283708    1.4659406   184577 
 7877000   0.40937379   -2.8282585   -1.3667783  0.040571556   -2.8282585    1.4614802   184477 
 7878000   0.40944975   -2.8322281   -1.3700328  0.038003968   -2.8322281    1.4621953   184421 
 7879000    0.4097177    -2.829982   -1.3663458  0.040476272    -2.829982    1.4636362   184360 
 7880000   0.41020264    -2.831296   -1.3654742  0.039914112    -2.831296    1.4658218   184303 
 7881000   0.41015221   -2.8307758   -1.3643784  0.040105078   -2.8307758    1.4663975   184208 
 7882000    0.4097419   -2.8305607   -1.3652086  0.041050164   -2.8305607    1.4653521   184155 
 7883000   0.40928881    -2.829598   -1.3654449  0.040541844    -2.829598    1.4641531   184102 
 7884000   0.40987911   -2.8312926   -1.3646852  0.041320066   -2.8312926    1.4666074   184059 
 7885000   0.41034743    -2.830791   -1.3619094  0.041517363    -2.830791    1.4688816   183984 
 7886000   0.40983871   -2.8320404   -1.3642219  0.038609659   -2.8320404    1.4678185   183889 
 7887000   0.40973594   -2.8303652   -1.3622362  0.040907286   -2.8303652    1.4681291   183804 
 7888000   0.40892512   -2.8277065   -1.3623233  0.039794185   -2.8277065    1.4653833   183784 
 7889000   0.40816164   -2.8246998   -1.3615748  0.038768768   -2.8246998     1.463125   183724 
 7890000   0.40823199   -2.8286148   -1.3646958  0.040408481   -2.8286148     1.463919   183656 
 7891000   0.40810976   -2.8285519   -1.3649278  0.038904511   -2.8285519    1.4636241   183638 
 7892000   0.40809731   -2.8245381   -1.3605839  0.042375733   -2.8245381    1.4639541   183591 
 7893000   0.40648735   -2.8205871   -1.3616454  0.038388269   -2.8205871    1.4589417   183495 
 7894000   0.40801504   -2.8264598   -1.3613004  0.039239157   -2.8264598    1.4651594   183403 
 7895000   0.40838247   -2.8274477   -1.3602569   0.04204793   -2.8274477    1.4671908   183314 
 7896000   0.40845032   -2.8275063   -1.3595753  0.039263575   -2.8275063     1.467931   183252 
 7897000   0.40753459   -2.8244207   -1.3597487  0.040360219   -2.8244207    1.4646719   183248 
 7898000   0.40752887   -2.8246177   -1.3593826  0.040661809   -2.8246177    1.4652351   183175 
 7899000   0.40613804   -2.8234655   -1.3627366  0.037822676   -2.8234655    1.4607289   183113 
 7900000   0.40712882   -2.8258173    -1.361365  0.039100753   -2.8258173    1.4644523   183093 
 7901000   0.40709856   -2.8230902   -1.3578904  0.042975143   -2.8230902    1.4651997   182986 
 7902000   0.40638294   -2.8211059   -1.3578661  0.039161068   -2.8211059    1.4632399   182909 
 7903000   0.40579151   -2.8226223   -1.3607926  0.038920905   -2.8226223    1.4618296   182819 
 7904000   0.40641929   -2.8214916   -1.3567515  0.040623248   -2.8214916    1.4647401   182738 
 7905000   0.40617293   -2.8225857   -1.3583489   0.03778608   -2.8225857    1.4642368   182690 
 7906000   0.40658054   -2.8235548   -1.3571904  0.040606968   -2.8235548    1.4663645   182608 
 7907000   0.40660769   -2.8208011   -1.3540175  0.040976597   -2.8208011    1.4667836   182568 
 7908000   0.40429748    -2.816698   -1.3574009  0.038891113    -2.816698    1.4592971   182462 
 7909000   0.40430637   -2.8191881   -1.3589545  0.040323302   -2.8191881    1.4602336   182349 
 7910000   0.40524711   -2.8190328   -1.3547913  0.042450837   -2.8190328    1.4642415   182273 
 7911000   0.40585733   -2.8202585   -1.3533534  0.038367637   -2.8202585    1.4669051   182216 
 7912000   0.40439442   -2.8146594   -1.3527289  0.041213826   -2.8146594    1.4619305   182177 
 7913000   0.40433596   -2.8143575   -1.3524056  0.037340162   -2.8143575    1.4619519   182148 
 7914000   0.40454171    -2.815611   -1.3523448  0.039131995    -2.815611    1.4632662   182077 
 7915000   0.40433617    -2.814783    -1.351963  0.038524234    -2.814783      1.46282   182040 
 7916000   0.40527622   -2.8153529   -1.3485437  0.039513581   -2.8153529    1.4668092   181967 
 7917000   0.40461926   -2.8127799   -1.3477446  0.040521927   -2.8127799    1.4650353   181892 
 7918000   0.40428348   -2.8111001    -1.346862  0.039813071   -2.8111001    1.4642381   181840 
 7919000   0.40464326   -2.8097259   -1.3440477  0.041715243   -2.8097259    1.4656782   181823 
 7920000   0.40447938   -2.8095528   -1.3437588  0.042002527   -2.8095528     1.465794   181735 
 7921000   0.40284622   -2.8027962   -1.3428724   0.03817723   -2.8027962    1.4599238   181729 
 7922000    0.4027312   -2.8019305   -1.3419334  0.038457971   -2.8019305     1.459997   181668 
 7923000   0.40196446   -2.8008264   -1.3427904  0.038915991   -2.8008264    1.4580361   181566 
 7924000   0.40295773   -2.7984918   -1.3360555  0.039926512   -2.7984918    1.4624363   181467 
 7925000   0.40228998   -2.7982496   -1.3377297   0.03817118   -2.7982496    1.4605199   181404 
 7926000   0.40214869   -2.7987694   -1.3382149  0.042464751   -2.7987694    1.4605545   181336 
 7927000   0.40272695   -2.7989179    -1.335884  0.039661237   -2.7989179    1.4630338   181289 
 7928000   0.40391434   -2.8026909   -1.3349953  0.038993968   -2.8026909    1.4676955   181246 
 7929000   0.40155899    -2.799024   -1.3390977  0.039505381    -2.799024    1.4599263   181148 
 7930000   0.40263695    -2.804904   -1.3407272  0.042472137    -2.804904    1.4641768   181107 
 7931000   0.40260672   -2.8016633   -1.3368765  0.040682026   -2.8016633    1.4647867   181018 
 7932000   0.40235618   -2.7996029    -1.335121  0.040013898   -2.7996029    1.4644819   180943 
 7933000   0.40256601   -2.8010824   -1.3354641   0.04297073   -2.8010824    1.4656183   180897 
 7934000   0.40208641   -2.8030826    -1.338668  0.038685732   -2.8030826    1.4644146   180830 
 7935000   0.40093003   -2.7987328   -1.3380048  0.038544791   -2.7987328    1.4607281   180765 
 7936000   0.40232188   -2.8012805   -1.3349622  0.040187188   -2.8012805    1.4663182   180701 
 7937000   0.40108594   -2.7979022   -1.3356759  0.038291006   -2.7979022    1.4622263   180650 
 7938000   0.40092265   -2.7997997   -1.3377074  0.039486653   -2.7997997    1.4620924   180593 
 7939000   0.40058728   -2.8009657   -1.3394246  0.037304643   -2.8009657    1.4615411   180510 
 7940000   0.40053546   -2.7985439   -1.3368356  0.042887555   -2.7985439    1.4617083   180466 
 7941000   0.40041974   -2.7992878    -1.336916  0.038678406   -2.7992878    1.4623718   180332 
 7942000   0.40068202   -2.8009972   -1.3369937  0.039042167   -2.8009972    1.4640035   180249 
 7943000    0.3997335   -2.7980953    -1.337136  0.040295857   -2.7980953    1.4609593   180197 
 7944000    0.4003345   -2.7978411   -1.3345228  0.038991255   -2.7978411    1.4633183   180177 
 7945000   0.40000729   -2.7964441   -1.3339159    0.0413654   -2.7964441    1.4625281   180127 
 7946000   0.40019546   -2.7988035   -1.3352299  0.040161542   -2.7988035    1.4635736   180083 
 7947000     0.401184   -2.8002719   -1.3324392  0.039797174   -2.8002719    1.4678328   180004 
 7948000   0.40014027   -2.7930206    -1.328787  0.041013326   -2.7930206    1.4642336   179977 
 7949000   0.39993791   -2.7942092   -1.3299675  0.036217875   -2.7942092    1.4642416   179885 
 7950000   0.39961883   -2.7926868    -1.329117  0.038452974   -2.7926868    1.4635697   179824 
 7951000   0.39972014   -2.7903797   -1.3259666   0.04142108   -2.7903797    1.4644131   179766 
 7952000   0.40048052   -2.7946531   -1.3271849   0.04238557   -2.7946531    1.4674682   179733 
 7953000    0.3993971    -2.791758   -1.3275917  0.041400828    -2.791758    1.4641663   179651 
 7954000   0.39861448   -2.7899529   -1.3283302  0.041254806   -2.7899529    1.4616227   179611 
 7955000   0.40032659   -2.7938928   -1.3254444  0.036206022   -2.7938928    1.4684483   179544 
 7956000   0.39964567   -2.7894422   -1.3237038  0.038962811   -2.7894422    1.4657384   179570 
 7957000   0.39892945   -2.7885369   -1.3248221  0.039706037   -2.7885369    1.4637148   179496 
 7958000   0.39768633   -2.7846061   -1.3247449  0.041050513   -2.7846061    1.4598612   179409 
 7959000   0.39769887   -2.7886559   -1.3283335  0.040662809   -2.7886559    1.4603224   179358 
 7960000   0.39823588   -2.7911467    -1.328053  0.040672921   -2.7911467    1.4630937   179260 
 7961000   0.39877822   -2.7937832   -1.3277483  0.041090888   -2.7937832    1.4660349   179144 
 7962000   0.39755858   -2.7904476   -1.3287089  0.043944272   -2.7904476    1.4617387   179121 
 7963000   0.39730164    -2.790772   -1.3292273   0.04087404    -2.790772    1.4615447   179029 
 7964000   0.39706602   -2.7900452   -1.3290408  0.041491321   -2.7900452    1.4610044   178989 
 7965000   0.39597257   -2.7869485   -1.3291123  0.037405187   -2.7869485    1.4578362   178884 
 7966000   0.39684866   -2.7850573   -1.3233501  0.037282111   -2.7850573    1.4617072   178805 
 7967000   0.39691746   -2.7837174   -1.3211597  0.042076517   -2.7837174    1.4625577   178732 
 7968000   0.39827262   -2.7894521   -1.3213095  0.039969386   -2.7894521    1.4681426   178660 
 7969000   0.39634632   -2.7850671   -1.3236163  0.037330019   -2.7850671    1.4614508   178610 
 7970000   0.39565088   -2.7883344   -1.3286634  0.038775414   -2.7883344     1.459671   178514 
 7971000   0.39694246    -2.790077   -1.3246887  0.040978236    -2.790077    1.4653882   178398 
 7972000   0.39684156   -2.7877735   -1.3222238  0.041834081   -2.7877735    1.4655498   178333 
 7973000    0.3976475   -2.7880862   -1.3188845  0.041474679   -2.7880862    1.4692017   178251 
 7974000   0.39736687   -2.7869608   -1.3182274  0.042747234   -2.7869608    1.4687334   178182 
 7975000   0.39630159   -2.7871052    -1.321495  0.039982357   -2.7871052    1.4656102   178083 
 7976000   0.39711967   -2.7895515    -1.320264  0.037211942   -2.7895515    1.4692874   178004 
 7977000   0.39729941   -2.7897335   -1.3193433  0.041951824   -2.7897335    1.4703903   177951 
 7978000   0.39533101   -2.7821273   -1.3187013  0.044042622   -2.7821273     1.463426   177912 
 7979000   0.39504215   -2.7824513   -1.3196917  0.039134827   -2.7824513    1.4627596   177863 
 7980000   0.39460604   -2.7807005   -1.3189969  0.037183434   -2.7807005    1.4617036   177795 
 7981000    0.3948922   -2.7808707   -1.3177285  0.039612456   -2.7808707    1.4631421   177749 
 7982000   0.39470813   -2.7813934   -1.3184724  0.039649705   -2.7813934     1.462921   177693 
 7983000    0.3947969   -2.7760482   -1.3127076  0.041312612   -2.7760482    1.4633406   177682 
 7984000   0.39599122   -2.7769307   -1.3080886  0.043278396   -2.7769307    1.4688421   177552 
 7985000   0.39411176   -2.7733878   -1.3109241  0.039056474   -2.7733878    1.4624637   177480 
 7986000   0.39400811   -2.7729123   -1.3100666   0.03951907   -2.7729123    1.4628457   177387 
 7987000   0.39425792   -2.7713708   -1.3072097  0.041739865   -2.7713708    1.4641611   177340 
 7988000   0.39468746   -2.7749733   -1.3087293  0.040102696   -2.7749733    1.4662441   177281 
 7989000   0.39468363   -2.7758278   -1.3089526  0.043377904   -2.7758278    1.4668752   177203 
 7990000   0.39431096   -2.7737723   -1.3075871  0.040267537   -2.7737723    1.4661852   177119 
 7991000   0.39407017   -2.7712282   -1.3051023  0.038837332   -2.7712282    1.4661259   177018 
 7992000   0.39500279   -2.7752393    -1.305054  0.043889899   -2.7752393    1.4701854   176947 
 7993000   0.39320282   -2.7719794   -1.3078067  0.042290332   -2.7719794    1.4641727   176864 
 7994000     0.393731   -2.7681794   -1.3016585  0.040951299   -2.7681794    1.4665209   176818 
 7995000   0.39434193   -2.7688187   -1.2990913   0.03875955   -2.7688187    1.4697274   176706 
 7996000   0.39365924   -2.7654326   -1.2980504  0.038374493   -2.7654326    1.4673823   176682 
 7997000   0.39352868   -2.7639035   -1.2960857  0.038317504   -2.7639035    1.4678178   176571 
 7998000    0.3926231   -2.7613849    -1.296389  0.040667901   -2.7613849     1.464996   176504 
 7999000   0.39339165    -2.759965   -1.2916272  0.039703198    -2.759965    1.4683378   176447 
 8000000   0.39151233   -2.7527395    -1.290712  0.040791922   -2.7527395    1.4620276   176362 
Loop time of 8574.62 on 192 procs for 5000000 steps with 176362 atoms

Performance: 251906.295 tau/day, 583.116 timesteps/s
99.1% CPU use with 192 MPI tasks x 1 OpenMP threads

MPI task timing breakdown:
Section |  min time  |  avg time  |  max time  |%varavg|  %CPU | %total
-----------------------------------------------------------------------
Pair    | 888.58     | 2167.9     | 2498.7     |1031.1 |  99.0 | 25.28
Bond    | 3.2204     | 3.3273     | 3.4277     |   2.4 | 100.0 |  0.04
Neigh   | 536.95     | 1047.3     | 1168.5     | 583.1 |  99.4 | 12.21
Comm    | 1260.7     | 1699.6     | 3556.4     |1672.1 |  98.8 | 19.82
Output  | 283.24     | 287.01     | 287.04     |   1.6 |  98.8 |  3.35
Modify  | 3213.1     | 3292.7     | 3559.9     | 215.2 |  99.2 | 38.40
Other   |            | 76.67      |            |       |       |  0.89

Nlocal:        918.552 ave        1286 max         711 min
Histogram: 8 4 14 115 41 6 2 1 0 1
Nghost:        1982.59 ave        2547 max         789 min
Histogram: 24 0 4 3 30 15 5 5 19 87
Neighs:        20887.0 ave       31021 max        1970 min
Histogram: 34 7 5 1 2 3 2 24 88 26

Total # of neighbors = 4010303
Ave neighs/atom = 22.739042
Ave special neighs/atom = 0.0000000
Neighbor list builds = 505000
Dangerous builds = 450000

write_restart   restart_write.dat
System init for write_restart ...
write_data	data.write
System init for write_data ...
WARNING: Not all mixed pair coeffs generated from mixing. Use write_data with 'pair ij' option to store all pair coeffs. (src/write_data.cpp:312)

Total wall time: 2:22:57
