LAMMPS (24 Dec 2020)
OMP_NUM_THREADS environment is not set. Defaulting to 1 thread. (src/comm.cpp:94)
  using 1 OpenMP thread(s) per MPI task
#Read the equilibrated lj fluid and add nanocubes

units           lj
atom_style      full
#atom_modify     map array first cubes
dimension       3
boundary        p p f
pair_style      lj/cut/opt 2.5

variable        sigma           equal 1.0
variable        epsilon         equal 1.0
read_restart	restart.dat.10000000
Reading restart file ...
  restart file = 24 Dec 2020, LAMMPS = 24 Dec 2020
WARNING: Restart file used different # of processors: 288 vs. 336 (src/read_restart.cpp:697)
  restoring atom style full from restart
  orthogonal box = (0.0000000 0.0000000 0.0000000) to (80.000000 80.000000 160.00000)
  6 by 4 by 14 MPI processor grid
  restoring pair style lj/cut/opt from restart
  476190 atoms
Finding 1-2 1-3 1-4 neighbors ...
  special bond factors lj:    0        0        0       
  special bond factors coul:  0        0        0       
     0 = max # of 1-2 neighbors
     0 = max # of 1-3 neighbors
     0 = max # of 1-4 neighbors
     1 = max # of special neighbors
  special bonds CPU = 2.835 seconds
  read_restart CPU = 3.393 seconds

group		solvent type 1
366462 atoms in group solvent
group 		hull  type 2
42816 atoms in group hull
group 		dummy type 3
66912 atoms in group dummy

neighbor      0.4 bin
neigh_modify  exclude molecule/intra cubes

pair_modify   shift yes

pair_coeff    1 1 1.0 1.0 #solvent
pair_coeff    2 2 1.0 1.0 1.12 #np
pair_coeff    3 3 0.0 0.0 0.0 #dummy
pair_coeff    2 3 0.0 0.0 0.0 #np dummy
pair_coeff    1 2 ${sol} 1.0  #np solvent
pair_coeff    1 2 0.65 1.0  
pair_coeff    1 3 0.0 0.0 0.0 #dummy solvent


comm_modify   mode multi cutoff/multi 1 2.5 cutoff/multi 2 2.5 cutoff/multi 3 6.95

reset_timestep 	0

balance 	1.05 shift z 10 1.05
Balancing ...
Unused restart file global fix info:
  fix style: STORE, fix ID: msd_COMPUTE_STORE
Unused restart file peratom fix info:
  fix style: STORE, fix ID: bin1_COMPUTE_STORE
  fix style: STORE, fix ID: bin3_COMPUTE_STORE
Neighbor list info ...
  update every 1 steps, delay 10 steps, check yes
  max neighbors/atom: 2000, page size: 100000
  master list distance cutoff = 2.9
  ghost atom cutoff = 6.95
  binsize = 1.45, bins = 56 56 111
  1 neighbor lists, perpetual/occasional/extra = 1 0 0
  (1) pair lj/cut/opt, perpetual
      attributes: half, newton on
      pair build: half/bin/newton
      stencil: half/bin/3d/newton
      bin: standard
 rebalancing time: 0.076 seconds
  iteration count = 5
  initial/final maximal load/proc = 2375.0000 1825.0000
  initial/final imbalance factor  = 1.6758017 1.2877213
  x cuts: 0.0000000 0.16666667 0.33333333 0.50000000 0.66666667 0.83333333 1.0000000
  y cuts: 0.0000000 0.25000000 0.50000000 0.75000000 1.0000000
  z cuts: 0.0000000 0.060267857 0.11830357 0.17187500 0.22098214 0.27232143 0.32589286 0.37946429 0.43303571 0.48883929 0.53348214 0.59151786 0.64955357 0.70535714 1.0000000

####################### WALLS ###########################

variable       epsilonWall equal 2*${epsilon}
variable       epsilonWall equal 2*1
variable       repulsive   equal   0.7147*${sigma}
variable       repulsive   equal   0.7147*1
variable       full	   equal   3*${sigma}
variable       full	   equal   3*1
region         lowWall block EDGE EDGE EDGE EDGE EDGE 2

fix            topWall all wall/lj93 zhi EDGE 	       ${epsilonWall} ${sigma} ${repulsive} units box
fix            topWall all wall/lj93 zhi EDGE 	       2 ${sigma} ${repulsive} units box
fix            topWall all wall/lj93 zhi EDGE 	       2 1 ${repulsive} units box
fix            topWall all wall/lj93 zhi EDGE 	       2 1 0.7147 units box
fix            lowSol solvent wall/lj93 zlo EDGE                ${epsilonWall} ${sigma} ${full} units box
fix            lowSol solvent wall/lj93 zlo EDGE                2 ${sigma} ${full} units box
fix            lowSol solvent wall/lj93 zlo EDGE                2 1 ${full} units box
fix            lowSol solvent wall/lj93 zlo EDGE                2 1 3 units box
fix 	       lowCub cubes wall/lj93 zlo EDGE                ${epsilonWall} ${sigma} ${repulsive} units box
fix 	       lowCub cubes wall/lj93 zlo EDGE                2 ${sigma} ${repulsive} units box
fix 	       lowCub cubes wall/lj93 zlo EDGE                2 1 ${repulsive} units box
fix 	       lowCub cubes wall/lj93 zlo EDGE                2 1 0.7147 units box


###################### COMPUTES ##########################

compute        bin1 solvent chunk/atom bin/1d z lower 1.0 units box
compute        bin3 solvent chunk/atom bin/3d x lower 5.0 y lower 5.0 z lower 5.0 units box

compute 	pe solvent 	   pe/atom
compute 	pe2 all 	   pe/atom

######################  FIXES ############################


fix             peclet solvent ave/chunk 10 10 10000 bin1 density/number norm                  none ave one file density.profile

fix              temp solvent ave/chunk 10 10 10000 bin1 temp norm                  none ave one file temp.profile

fix 		 dens solvent ave/chunk 10 10 500000 bin3 density/number norm 		 none ave one file dens3.profile

fix		 temp2 solvent ave/chunk 10 10 500000 bin3 temp norm none ave one file temp3.profile

fix 		pe solvent ave/chunk 1 1 500000 bin3 c_pe norm none ave one file pe3.profile



################### INTEGRATION

fix             1 cubes rigid/nve/small molecule
  create bodies CPU = 0.037 seconds
  96 rigid bodies with 109728 atoms
  6.9282032 = max distance from body owner to body atom

fix             2 solvent nve



## Thermostat
region          regthermo block EDGE EDGE EDGE EDGE 0 15
group           thermo dynamic solvent region regthermo every 1000
dynamic group thermo defined
fix             3 thermo langevin ${temp} ${temp} 10 156453
fix             3 thermo langevin 1.0 ${temp} 10 156453
fix             3 thermo langevin 1.0 1.0 10 156453

## Evaporation
region		regevap block EDGE EDGE EDGE EDGE 140 EDGE
fix 		4 solvent evaporate ${evap} 1 regevap 156415
fix 		4 solvent evaporate 35 1 regevap 156415


#### Load balancing

fix             bal all balance 1000 1.05 shift z 10 1.05

############### Diagnostics and computes ###################

compute        	com cubes          rigid/local   1 mol x y z
compute        	quat cubes         rigid/local   1 mol quatw quati quatj quatk

compute 	cc2 cubes 	   chunk/atom 	 molecule
compute 	msd cubes 	   msd/chunk 	 cc2

fix 		msd all ave/time  1 1 10000 c_msd[*] file dump.msd ave one mode vector

dump            1 all custom 500000 dump.lammpstrj id mol type x y z vx vy vz c_pe2
dump		sol  solvent custom 500000 dump.soltrj id x y z vx vy vz c_pe
dump		cubetrj cubes custom 500000 cubes.lammpstrj id mol type x y z vx vy vz
dump            com cubes local 500000 dump.*.xyz c_com[*]
dump	        xyz hull xyz 500000 cubes.xyz
#dump            quat cubes      local 100000 dump.*.quat c_quat[*]
dump		order cubes 	local 100000 dump.*.order c_com[*] c_quat[*]
#dump		mol cubes molfile 10000 mol.xyz xyz


dump            2 all image 100000 image.*.png type type zoom 1.5 size 1280 720
dump_modify     2 pad 8
dump		image cubes image 100000 image_cubes.*.png type type zoom 1.5 size 1280 720
dump_modify	image pad 8
dump            3 all movie 5000 movie.avi type type zoom 1.5 size 1280 720
dump		4 cubes movie 5000 movie_cubes.avi type type size 1280 720


thermo          1000
thermo_style    custom step temp epair evdwl etotal press pe ke atoms

restart         1000000 restart.dat
timestep        0.005
timer           full
New timer settings: style=full  mode=nosync  timeout=off

run 		${steps}
run 		30000000
Per MPI rank memory allocation (min/avg/max) = 16.69 | 22.10 | 25.55 Mbytes
Step Temp E_pair E_vdwl TotEng Press PotEng KinEng Atoms 
       0    1.0049722    -2.440242    -2.440242   -1.2795413  0.058763304    -2.440242    1.1607008   476190 
    1000    1.0051546   -2.4400815   -2.4400815   -1.2791018  0.072296918   -2.4400815    1.1609797   476162 
    2000     1.005995   -2.4409119   -2.4409119   -1.2788908   0.06014223   -2.4409119    1.1620211   476133 
    3000    1.0065085   -2.4421186   -2.4421186   -1.2794359  0.068849901   -2.4421186    1.1626827   476105 
    4000    1.0052639   -2.4416099   -2.4416099   -1.2802942  0.064497735   -2.4416099    1.1613157   476076 
    5000    1.0062255   -2.4420174   -2.4420174   -1.2795224  0.057290926   -2.4420174     1.162495   476048 
    6000    1.0048866   -2.4431191   -2.4431191   -1.2821002  0.067872943   -2.4431191    1.1610189   476019 
    7000    1.0051411   -2.4426088   -2.4426088   -1.2812252   0.06111045   -2.4426088    1.1613836   475990 
    8000    1.0032565   -2.4406025   -2.4406025   -1.2813281  0.068126749   -2.4406025    1.1592743   475962 
    9000    1.0053805   -2.4430618   -2.4430618   -1.2812624  0.063458763   -2.4430618    1.1617994   475933 
   10000    1.0044627   -2.4429798   -2.4429798   -1.2821727  0.074006219   -2.4429798    1.1608071   475905 
   11000    1.0040634   -2.4422597   -2.4422597   -1.2818433  0.070862287   -2.4422597    1.1604164   475876 
   12000    1.0057434   -2.4449909   -2.4449909   -1.2825645    0.0635643   -2.4449909    1.1624263   475848 
   13000    1.0049715   -2.4444232   -2.4444232   -1.2828182  0.068224596   -2.4444232     1.161605   475819 
   14000     1.004285    -2.443619    -2.443619   -1.2827367  0.069987338    -2.443619    1.1608823   475790 
   15000    1.0034642   -2.4439308   -2.4439308   -1.2839291  0.076152957   -2.4439308    1.1600018   475762 
   16000    1.0062077   -2.4482088   -2.4482088   -1.2849647  0.063802337   -2.4482088    1.1632441   475733 
   17000    1.0056313   -2.4480776   -2.4480776   -1.2854314   0.07311237   -2.4480776    1.1626462   475705 
   18000    1.0059407    -2.448096    -2.448096   -1.2850212  0.063246327    -2.448096    1.1630748   475676 
   19000    1.0037849   -2.4456969   -2.4456969   -1.2850462  0.071667574   -2.4456969    1.1606506   475648 
   20000    1.0041417   -2.4464399   -2.4464399    -1.285306  0.070241988   -2.4464399    1.1611339   475619 
   21000    1.0049057    -2.446418    -2.446418   -1.2843298  0.064383409    -2.446418    1.1620882   475590 
   22000    1.0047324   -2.4462317   -2.4462317   -1.2842754  0.076631265   -2.4462317    1.1619562   475562 
   23000    1.0053735   -2.4469639   -2.4469639   -1.2841953  0.064070608   -2.4469639    1.1627685   475533 
   24000    1.0042033   -2.4465849   -2.4465849   -1.2851013  0.065150673   -2.4465849    1.1614835   475505 
   25000    1.0057905   -2.4478655   -2.4478655   -1.2844752  0.064969282   -2.4478655    1.1633903   475476 
   26000    1.0049032   -2.4467322   -2.4467322   -1.2842998  0.068453781   -2.4467322    1.1624325   475448 
   27000    1.0033043   -2.4447664   -2.4447664   -1.2841127  0.076541797   -2.4447664    1.1606536   475419 
   28000    1.0052694   -2.4471629   -2.4471629    -1.284165  0.071797749   -2.4471629    1.1629979   475390 
   29000    1.0045603   -2.4470724   -2.4470724   -1.2848264  0.069096539   -2.4470724     1.162246   475362 
   30000    1.0038301   -2.4459315   -2.4459315   -1.2844595  0.064242237   -2.4459315     1.161472   475333 
   31000    1.0043657   -2.4465092   -2.4465092    -1.284349  0.062602698   -2.4465092    1.1621601   475305 
   32000    1.0049294   -2.4472596   -2.4472596   -1.2843762  0.067017428   -2.4472596    1.1628834   475276 
   33000    1.0029209   -2.4450088   -2.4450088   -1.2843812  0.072832671   -2.4450088    1.1606276   475248 
   34000    1.0029628   -2.4465342   -2.4465342   -1.2857873  0.066266186   -2.4465342    1.1607469   475219 
   35000    1.0039442    -2.447236    -2.447236   -1.2852824  0.063348601    -2.447236    1.1619536   475190 
   36000    1.0023337   -2.4453177   -2.4453177   -1.2851597  0.064163456   -2.4453177     1.160158   475162 
   37000    1.0011387     -2.44425     -2.44425   -1.2854045  0.067206778     -2.44425    1.1588455   475133 
   38000    1.0024989   -2.4449048   -2.4449048   -1.2844164  0.068940612   -2.4449048    1.1604884   475105 
   39000    1.0022957   -2.4454754   -2.4454754   -1.2851514  0.063518198   -2.4454754     1.160324   475076 
   40000    1.0006247   -2.4438334   -2.4438334   -1.2853755  0.065464433   -2.4438334    1.1584579   475048 
   41000   0.99909366   -2.4430608   -2.4430608   -1.2863049  0.062327154   -2.4430608    1.1567559   475019 
   42000     1.001842   -2.4461947   -2.4461947    -1.286186  0.060312924   -2.4461947    1.1600087   474990 
   43000     1.000079   -2.4439997   -2.4439997    -1.285964  0.063026584   -2.4439997    1.1580357   474962 
   44000    1.0005962   -2.4442157   -2.4442157   -1.2855103  0.063218856   -2.4442157    1.1587054   474933 
   45000     1.000632   -2.4441424   -2.4441424   -1.2853273   0.07288727   -2.4441424    1.1588151   474905 
   46000    1.0008118   -2.4443763   -2.4443763   -1.2852822  0.064006879   -2.4443763    1.1590941   474876 
   47000    1.0012489   -2.4445228   -2.4445228    -1.284854   0.06866873   -2.4445228    1.1596688   474848 
   48000    1.0003628   -2.4440866   -2.4440866   -1.2853734  0.065713163   -2.4440866    1.1587132   474819 
   49000   0.99962316   -2.4456537   -2.4456537   -1.2877265  0.074088587   -2.4456537    1.1579272   474790 
   50000    1.0012923   -2.4473258   -2.4473258   -1.2873967  0.068745331   -2.4473258    1.1599291   474762 
   51000   0.99907782   -2.4447603   -2.4447603   -1.2873259  0.068655353   -2.4447603    1.1574344   474733 
   52000    1.0013478   -2.4462768   -2.4462768   -1.2861441  0.068411166   -2.4462768    1.1601327   474705 
   53000    1.0008328   -2.4461674   -2.4461674   -1.2865606  0.069808498   -2.4461674    1.1596068   474676 
   54000    1.0006459    -2.445454    -2.445454   -1.2859954   0.06634777    -2.445454    1.1594586   474648 
   55000    1.0025531   -2.4469223   -2.4469223   -1.2851828  0.065822128   -2.4469223    1.1617395   474619 
   56000    1.0015864   -2.4462959   -2.4462959   -1.2856057  0.066471015   -2.4462959    1.1606902   474590 
   57000     1.001159   -2.4466773   -2.4466773   -1.2864138  0.071124407   -2.4466773    1.1602635   474562 
   58000    1.0025826   -2.4484924   -2.4484924   -1.2865081  0.067624069   -2.4484924    1.1619843   474533 
   59000    1.0013586   -2.4472596   -2.4472596   -1.2866254  0.066529328   -2.4472596    1.1606341   474505 
   60000    1.0013631   -2.4465865   -2.4465865   -1.2858761  0.071626636   -2.4465865    1.1607103   474476 
   61000     1.001362   -2.4464716   -2.4464716    -1.285694    0.0721656   -2.4464716    1.1607776   474448 
   62000    1.0015025   -2.4488378   -2.4488378   -1.2878265  0.065863937   -2.4488378    1.1610113   474419 
   63000    1.0025197   -2.4500832   -2.4500832   -1.2878216  0.063950847   -2.4500832    1.1622617   474390 
   64000    1.0016038   -2.4498737   -2.4498737   -1.2886054  0.073260379   -2.4498737    1.1612683   474362 
   65000   0.99953454    -2.446919    -2.446919   -1.2879789  0.066998339    -2.446919      1.15894   474333 
   66000   0.99990195   -2.4475614   -2.4475614   -1.2881269  0.066468656   -2.4475614    1.1594345   474305 
   67000   0.99872216   -2.4464556   -2.4464556   -1.2883183  0.068308391   -2.4464556    1.1581373   474276 
   68000   0.99965743   -2.4481194   -2.4481194   -1.2888291  0.068929717   -2.4481194    1.1592903   474248 
   69000    1.0001386   -2.4490363   -2.4490363   -1.2891171  0.069655414   -2.4490363    1.1599192   474219 
   70000   0.99851216   -2.4474547   -2.4474547    -1.289351  0.068495552   -2.4474547    1.1581037   474190 
   71000    1.0013751   -2.4495718   -2.4495718   -1.2880789  0.065598489   -2.4495718    1.1614929   474162 
   72000    1.0006477   -2.4490001   -2.4490001     -1.28828  0.070789866   -2.4490001    1.1607201   474133 
   73000   0.99942166   -2.4467713   -2.4467713   -1.2874048  0.067633265   -2.4467713    1.1593664   474105 
   74000   0.99872533   -2.4462412   -2.4462412   -1.2876116  0.066504756   -2.4462412    1.1586295   474076 
   75000   0.99838173   -2.4457531   -2.4457531   -1.2874537   0.07226894   -2.4457531    1.1582993   474048 
   76000     1.000306   -2.4486483   -2.4486483   -1.2880454  0.056823734   -2.4486483    1.1606029   474019 
   77000    1.0003228    -2.448864    -2.448864   -1.2881707  0.068302283    -2.448864    1.1606933   473990 
   78000    1.0008813   -2.4483849   -2.4483849   -1.2869749  0.072044614   -2.4483849    1.1614099   473962 
   79000   0.99821365   -2.4455466   -2.4455466   -1.2871613  0.071306953   -2.4455466    1.1583854   473933 
   80000    0.9989737   -2.4477239   -2.4477239    -1.288388  0.063079652   -2.4477239    1.1593358   473905 
   81000   0.99812908   -2.4471918   -2.4471918   -1.2887653  0.064599473   -2.4471918    1.1584265   473876 
   82000   0.99904666   -2.4485009   -2.4485009   -1.2889409  0.064479929   -2.4485009      1.15956   473848 
   83000    0.9976359   -2.4468488   -2.4468488   -1.2888554  0.057219249   -2.4468488    1.1579934   473819 
   84000   0.99706116   -2.4464894   -2.4464894   -1.2890922  0.064674923   -2.4464894    1.1573972   473790 
   85000    0.9978337    -2.446923    -2.446923   -1.2885606  0.064701341    -2.446923    1.1583624   473762 
   86000   0.99573662   -2.4452618   -2.4452618   -1.2892631  0.065065631   -2.4452618    1.1559987   473733 
   87000   0.99618049   -2.4458168   -2.4458168   -1.2892345   0.06642796   -2.4458168    1.1565824   473705 
   88000   0.99841709   -2.4482061   -2.4482061    -1.288956  0.068632526   -2.4482061    1.1592501   473676 
   89000   0.99669364   -2.4463382   -2.4463382   -1.2890208  0.067530752   -2.4463382    1.1573174   473648 
   90000   0.99839748   -2.4473619   -2.4473619   -1.2879951  0.068975366   -2.4473619    1.1593668   473619 
   91000   0.99838361   -2.4478019   -2.4478019   -1.2883802  0.062982109   -2.4478019    1.1594217   473590 
   92000    0.9982335   -2.4480729   -2.4480729    -1.288757   0.07320899   -2.4480729    1.1593159   473562 
   93000   0.99980549   -2.4492573   -2.4492573   -1.2880446  0.064174277   -2.4492573    1.1612127   473533 
   94000   0.99881337   -2.4480329   -2.4480329   -1.2879039  0.063928659   -2.4480329     1.160129   473505 
   95000   0.99943698   -2.4493387   -2.4493387   -1.2884143  0.065656452   -2.4493387    1.1609244   473476 
   96000   0.99976821   -2.4501682   -2.4501682   -1.2887904  0.064952066   -2.4501682    1.1613779   473448 
   97000   0.99963329   -2.4495347   -2.4495347   -1.2882424  0.070872822   -2.4495347    1.1612922   473419 
   98000   0.99859612   -2.4481571   -2.4481571   -1.2879987  0.068214772   -2.4481571    1.1601584   473390 
   99000   0.99828565   -2.4495482   -2.4495482   -1.2896819  0.060818005   -2.4495482    1.1598663   473362 
  100000   0.99856123   -2.4499847   -2.4499847   -1.2897271  0.070128454   -2.4499847    1.1602576   473333 
  101000   0.99744538   -2.4488139   -2.4488139   -1.2897843  0.065721894   -2.4488139    1.1590296   473305 
  102000   0.99694948   -2.4492055   -2.4492055   -1.2906811  0.067161619   -2.4492055    1.1585244   473276 
  103000   0.99805483    -2.449965    -2.449965   -1.2900875  0.069415857    -2.449965    1.1598775   473248 
  104000   0.99578405   -2.4484914   -2.4484914   -1.2911819  0.068016752   -2.4484914    1.1573094   473219 
  105000    0.9949234   -2.4480418   -2.4480418   -1.2916617  0.068551248   -2.4480418      1.15638   473190 
  106000   0.99684246   -2.4498711   -2.4498711    -1.291192  0.070275135   -2.4498711    1.1586791   473162 
  107000   0.99717213   -2.4501963   -2.4501963    -1.291063  0.073379046   -2.4501963    1.1591333   473133 
  108000   0.99601056   -2.4497369   -2.4497369   -1.2918853  0.065273128   -2.4497369    1.1578516   473105 
  109000   0.99530507    -2.449569    -2.449569   -1.2924665  0.072816625    -2.449569    1.1571024   473076 
  110000   0.99762164   -2.4508462   -2.4508462   -1.2909819  0.064923545   -2.4508462    1.1598642   473048 
  111000   0.99519571   -2.4485968   -2.4485968   -1.2914821  0.060721272   -2.4485968    1.1571147   473019 
  112000   0.99573057   -2.4494504   -2.4494504   -1.2916429  0.060699415   -2.4494504    1.1578076   472990 
  113000   0.99527708   -2.4483834   -2.4483834   -1.2910346  0.064545126   -2.4483834    1.1573488   472962 
  114000   0.99697125   -2.4502574   -2.4502574   -1.2908675  0.067299994   -2.4502574    1.1593899   472933 
  115000   0.99505349    -2.448623    -2.448623   -1.2913947  0.069070038    -2.448623    1.1572282   472905 
  116000   0.99562702   -2.4496643   -2.4496643    -1.291698  0.065801397   -2.4496643    1.1579663   472876 
  117000   0.99534406    -2.449281    -2.449281   -1.2915753  0.059378408    -2.449281    1.1577057   472848 
  118000   0.99488015   -2.4492893   -2.4492893   -1.2920522  0.064829074   -2.4492893    1.1572371   472819 
  119000   0.99620331    -2.449955    -2.449955   -1.2911077  0.073349788    -2.449955    1.1588473   472790 
  120000   0.99574604   -2.4487138   -2.4487138   -1.2903299  0.060474894   -2.4487138    1.1583839   472762 
  121000   0.99626199   -2.4506022   -2.4506022   -1.2915469  0.058415761   -2.4506022    1.1590553   472733 
  122000   0.99666453     -2.45027     -2.45027   -1.2906777  0.067836501     -2.45027    1.1595923   472705 
  123000   0.99564925   -2.4498149   -2.4498149   -1.2913328  0.060321214   -2.4498149    1.1584821   472676 
  124000   0.99527431   -2.4489416   -2.4489416   -1.2908272  0.072211465   -2.4489416    1.1581144   472648 
  125000   0.99453431   -2.4491276   -2.4491276   -1.2918033    0.0664896   -2.4491276    1.1573244   472619 
  126000   0.99518462   -2.4516594   -2.4516594   -1.2935073   0.06385726   -2.4516594    1.1581522   472590 
  127000   0.99449264   -2.4505453   -2.4505453   -1.2931298  0.059486458   -2.4505453    1.1574155   472562 
  128000   0.99639788   -2.4512895   -2.4512895   -1.2915855  0.069882175   -2.4512895     1.159704   472533 
  129000   0.99531063    -2.449585    -2.449585   -1.2910778  0.073769359    -2.449585    1.1585072   472505 
  130000   0.99565013   -2.4508091   -2.4508091   -1.2918356  0.071426982   -2.4508091    1.1589735   472476 
  131000   0.99468747   -2.4519888   -2.4519888   -1.2940673  0.070931014   -2.4519888    1.1579215   472448 
  132000   0.99489148   -2.4518367   -2.4518367   -1.2936066  0.072832076   -2.4518367    1.1582301   472419 
  133000   0.99398795   -2.4511662   -2.4511662   -1.2939169  0.066607299   -2.4511662    1.1572493   472390 
  134000   0.99327929   -2.4507395   -2.4507395   -1.2942467  0.065209189   -2.4507395    1.1564928   472362 
  135000   0.99516534    -2.452925    -2.452925   -1.2941651  0.069761536    -2.452925    1.1587599   472333 
  136000   0.99371931   -2.4523391   -2.4523391   -1.2951944  0.057343254   -2.4523391    1.1571447   472305 
  137000   0.99269544    -2.449999    -2.449999   -1.2939755  0.061561352    -2.449999    1.1560235   472276 
  138000   0.99308611   -2.4514543   -2.4514543   -1.2949073  0.061956474   -2.4514543     1.156547   472248 
  139000   0.99322689   -2.4509043   -2.4509043   -1.2941223  0.071933667   -2.4509043     1.156782   472219 
  140000   0.99368211   -2.4512409   -2.4512409   -1.2938576  0.072082777   -2.4512409    1.1573832   472190 
  141000   0.99333043    -2.451323    -2.451323   -1.2942808  0.060795179    -2.451323    1.1570422   472162 
  142000   0.99326096    -2.450307    -2.450307   -1.2932746  0.064687276    -2.450307    1.1570324   472133 
  143000   0.99394084   -2.4517723   -2.4517723   -1.2938793  0.072027328   -2.4517723     1.157893   472105 
  144000   0.99454101   -2.4537142   -2.4537142   -1.2950508  0.058859829   -2.4537142    1.1586634   472076 
  145000   0.99262549   -2.4511357   -2.4511357   -1.2946354  0.061471942   -2.4511357    1.1565003   472048 
  146000   0.99218982   -2.4506314   -2.4506314   -1.2945676  0.062559073   -2.4506314    1.1560638   472019 
  147000   0.99201262   -2.4510281   -2.4510281   -1.2950998  0.066096819   -2.4510281    1.1559283   471990 
  148000   0.99236288   -2.4514846   -2.4514846   -1.2950796  0.067305714   -2.4514846     1.156405   471962 
  149000   0.99098779   -2.4505136   -2.4505136   -1.2956399  0.067168805   -2.4505136    1.1548736   471933 
  150000   0.99066168   -2.4498488   -2.4498488   -1.2952867  0.068099645   -2.4498488    1.1545621   471905 
  151000    0.9925988   -2.4510768   -2.4510768   -1.2941861  0.061038884   -2.4510768    1.1568908   471876 
  152000   0.99121954   -2.4509146   -2.4509146   -1.2955629  0.061386826   -2.4509146    1.1553518   471848 
  153000   0.99031897   -2.4501909   -2.4501909   -1.2958179   0.06169828   -2.4501909     1.154373   471819 
  154000   0.99049979   -2.4496375   -2.4496375   -1.2949828   0.06381038   -2.4496375    1.1546548   471790 
  155000   0.99047195   -2.4497732   -2.4497732   -1.2950824  0.070650484   -2.4497732    1.1546909   471762 
  156000   0.99089044   -2.4497679   -2.4497679   -1.2945181  0.066014145   -2.4497679    1.1552497   471733 
  157000    0.9916805   -2.4505109   -2.4505109   -1.2942714  0.058404151   -2.4505109    1.1562395   471705 
  158000   0.99092108   -2.4491552   -2.4491552   -1.2937301  0.069527579   -2.4491552    1.1554251   471676 
  159000   0.99210591   -2.4512394   -2.4512394   -1.2943641  0.066994759   -2.4512394    1.1568753   471648 
  160000    0.9906141   -2.4500543   -2.4500543   -1.2948475  0.063098657   -2.4500543    1.1552067   471619 
  161000   0.99026399   -2.4512887   -2.4512887   -1.2964193  0.053204433   -2.4512887    1.1548695   471590 
  162000     0.990126    -2.450346    -2.450346   -1.2955689  0.069187084    -2.450346    1.1547771   471562 
  163000   0.99068345   -2.4506736   -2.4506736   -1.2951753  0.062756632   -2.4506736    1.1554983   471533 
  164000   0.99165364    -2.451035    -2.451035   -1.2943364  0.065354409    -2.451035    1.1566986   471505 
  165000   0.99231733    -2.451976    -2.451976   -1.2944321   0.05769729    -2.451976    1.1575439   471476 
  166000   0.99146668   -2.4501727   -2.4501727   -1.2935524  0.068264435   -2.4501727    1.1566203   471448 
  167000   0.99101525   -2.4499095   -2.4499095   -1.2937447  0.070004135   -2.4499095    1.1561648   471419 
  168000   0.99146003   -2.4513259   -2.4513259    -1.294571  0.068864574   -2.4513259    1.1567549   471390 
  169000   0.99068822    -2.450289    -2.450289   -1.2943659  0.060664341    -2.450289    1.1559231   471362 
  170000   0.98986761   -2.4486361   -2.4486361   -1.2935995  0.063210605   -2.4486361    1.1550367   471333 
  171000   0.99121719   -2.4503538   -2.4503538   -1.2936736  0.058319171   -2.4503538    1.1566801   471305 
  172000   0.99085022    -2.449631    -2.449631   -1.2933079  0.063703575    -2.449631    1.1563231   471276 
  173000   0.99153926   -2.4505157   -2.4505157   -1.2933198  0.066146894   -2.4505157    1.1571959   471248 
  174000    0.9899971   -2.4503589   -2.4503589   -1.2948916  0.064061814   -2.4503589    1.1554672   471219 
  175000   0.98859351   -2.4484824   -2.4484824   -1.2945824  0.061626245   -2.4484824    1.1539001   471190 
  176000   0.98924348   -2.4483589   -2.4483589   -1.2936315  0.061596012   -2.4483589    1.1547273   471162 
  177000   0.98703439   -2.4467392   -2.4467392   -1.2945196  0.070955765   -2.4467392    1.1522196   471133 
  178000   0.98896138   -2.4494379   -2.4494379   -1.2949002  0.062473471   -2.4494379    1.1545377   471105 
  179000   0.98787246   -2.4479052   -2.4479052   -1.2945677  0.061723704   -2.4479052    1.1533375   471076 
  180000   0.98897665   -2.4487703   -2.4487703   -1.2940751  0.067824803   -2.4487703    1.1546952   471048 
  181000   0.98871232   -2.4483869   -2.4483869   -1.2939292   0.07042818   -2.4483869    1.1544577   471019 
  182000   0.98812315    -2.448557    -2.448557   -1.2947162  0.067384511    -2.448557    1.1538408   470990 
  183000   0.98937376   -2.4492836   -2.4492836   -1.2939138  0.058840976   -2.4492836    1.1553698   470962 
  184000   0.98717702   -2.4467523   -2.4467523   -1.2938768  0.069266531   -2.4467523    1.1528755   470933 
  185000   0.98894857   -2.4492259   -2.4492259   -1.2942128   0.06267669   -2.4492259    1.1550131   470905 
  186000   0.98958961    -2.450017    -2.450017   -1.2941841  0.063313645    -2.450017     1.155833   470876 
  187000    0.9897549   -2.4491511   -2.4491511   -1.2930564  0.062186846   -2.4491511    1.1560948   470848 
  188000   0.98833439   -2.4489487   -2.4489487   -1.2944421  0.063383963   -2.4489487    1.1545066   470819 
  189000   0.98644002   -2.4474078   -2.4474078   -1.2950431  0.061473411   -2.4474078    1.1523647   470790 
  190000   0.98732216   -2.4486292   -2.4486292   -1.2951653  0.065080743   -2.4486292    1.1534638   470762 
  191000   0.98596515    -2.446758    -2.446758   -1.2948086  0.065458998    -2.446758    1.1519494   470733 
  192000   0.98668572   -2.4473767   -2.4473767   -1.2945168  0.063404073   -2.4473767    1.1528599   470705 
  193000     0.985555   -2.4466912   -2.4466912   -1.2950815  0.062686145   -2.4466912    1.1516097   470676 
  194000    0.9870452    -2.449466    -2.449466   -1.2960464  0.064378683    -2.449466    1.1534196   470648 
  195000   0.98855738   -2.4499699   -2.4499699   -1.2947121  0.057638163   -2.4499699    1.1552579   470619 
  196000   0.98612597   -2.4493939   -2.4493939   -1.2969065  0.066846413   -2.4493939    1.1524874   470590 
  197000    0.9874207   -2.4504005   -2.4504005   -1.2963312   0.05594366   -2.4504005    1.1540693   470562 
  198000    0.9871062   -2.4505626   -2.4505626   -1.2967898  0.060209761   -2.4505626    1.1537728   470533 
  199000   0.98785966   -2.4512982   -2.4512982    -1.296576   0.05893282   -2.4512982    1.1547222   470505 
  200000    0.9875747   -2.4508974   -2.4508974   -1.2964372   0.06438903   -2.4508974    1.1544602   470476 
  201000    0.9893277   -2.4517697   -2.4517697   -1.2951914  0.059521445   -2.4517697    1.1565783   470448 
  202000   0.98919993   -2.4515014   -2.4515014   -1.2950012  0.066299031   -2.4515014    1.1565002   470419 
  203000   0.98890823   -2.4509141   -2.4509141   -1.2946836  0.071267166   -2.4509141    1.1562305   470390 
  204000   0.98936103   -2.4516596   -2.4516596   -1.2948308  0.065747018   -2.4516596    1.1568288   470362 
  205000   0.98843273    -2.451459    -2.451459   -1.2956444  0.067510018    -2.451459    1.1558146   470333 
  206000   0.98703366    -2.450809    -2.450809   -1.2965617  0.063665238    -2.450809    1.1542473   470305 
  207000   0.98524394   -2.4493705   -2.4493705    -1.297145  0.058724928   -2.4493705    1.1522254   470276 
  208000   0.98546843   -2.4496313   -2.4496313   -1.2970747  0.061720892   -2.4496313    1.1525566   470248 
  209000   0.98566183   -2.4501812   -2.4501812   -1.2973273  0.066355136   -2.4501812    1.1528539   470219 
  210000   0.98588561   -2.4500636   -2.4500636   -1.2968769  0.069890406   -2.4500636    1.1531867   470190 
  211000   0.98596859   -2.4520303   -2.4520303   -1.2986778  0.058246664   -2.4520303    1.1533525   470162 
  212000   0.98412206   -2.4493269   -2.4493269   -1.2980634  0.064131578   -2.4493269    1.1512635   470133 
  213000   0.98556496   -2.4504783   -2.4504783   -1.2974581  0.060557806   -2.4504783    1.1530201   470105 
  214000   0.98608148   -2.4507786   -2.4507786    -1.297083   0.05716152   -2.4507786    1.1536956   470076 
  215000   0.98543488   -2.4512394   -2.4512394   -1.2982316    0.0549583   -2.4512394    1.1530077   470048 
  216000   0.98477455   -2.4500357   -2.4500357   -1.2977295  0.064136286   -2.4500357    1.1523062   470019 
  217000   0.98571438   -2.4502607   -2.4502607   -1.2967836  0.056417638   -2.4502607    1.1534771   469990 
  218000   0.98665235   -2.4511632   -2.4511632   -1.2965198  0.059842773   -2.4511632    1.1546435   469962 
  219000   0.98560959   -2.4492005   -2.4492005   -1.2957061  0.062445668   -2.4492005    1.1534944   469933 
  220000    0.9844341   -2.4472147   -2.4472147   -1.2950274  0.066704215   -2.4472147    1.1521873   469905 
  221000   0.98651527   -2.4501207   -2.4501207   -1.2954263  0.060471864   -2.4501207    1.1546944   469876 
  222000   0.98420936   -2.4474129   -2.4474129   -1.2953489  0.055705892   -2.4474129     1.152064   469848 
  223000   0.98525256   -2.4480662   -2.4480662   -1.2947098   0.06916885   -2.4480662    1.1533563   469819 
  224000    0.9849813   -2.4495026   -2.4495026   -1.2963927  0.067279401   -2.4495026      1.15311   469790 
  225000     0.985872    -2.450769    -2.450769   -1.2965475  0.065969623    -2.450769    1.1542215   469762 
  226000   0.98357623   -2.4495909   -2.4495909   -1.2979861  0.063318445   -2.4495909    1.1516048   469733 
  227000   0.98437526   -2.4503577   -2.4503577   -1.2977487  0.065270851   -2.4503577     1.152609   469705 
  228000     0.984125    -2.450781    -2.450781   -1.2983939  0.067612114    -2.450781    1.1523871   469676 
  229000   0.98368946   -2.4501917   -2.4501917   -1.2982459   0.06262195   -2.4501917    1.1519458   469648 
  230000   0.98384864   -2.4511015   -2.4511015   -1.2988982  0.062861663   -2.4511015    1.1522033   469619 
  231000   0.98248795   -2.4502444   -2.4502444   -1.2995635  0.061935882   -2.4502444    1.1506809   469590 
  232000     0.982349   -2.4492738   -2.4492738   -1.2986871  0.055355703   -2.4492738    1.1505867   469562 
  233000   0.98473799   -2.4531203   -2.4531203   -1.2996642  0.061352265   -2.4531203    1.1534561   469533 
  234000   0.98320415   -2.4515558   -2.4515558   -1.2998277  0.057048144   -2.4515558    1.1517282   469505 
  235000   0.98240141   -2.4509855   -2.4509855   -1.3001266  0.069918249   -2.4509855    1.1508589   469476 
  236000    0.9843804   -2.4541935   -2.4541935   -1.3009475  0.061054965   -2.4541935     1.153246   469448 
  237000    0.9822212   -2.4518833   -2.4518833   -1.3010958  0.056050606   -2.4518833    1.1507875   469419 
  238000   0.98413072   -2.4534577   -2.4534577   -1.3003617  0.064321349   -2.4534577     1.153096   469390 
  239000   0.98323668   -2.4520967   -2.4520967   -1.2999795  0.063470769   -2.4520967    1.1521172   469362 
  240000   0.98571172   -2.4543279   -2.4543279   -1.2992392   0.06923653   -2.4543279    1.1550887   469333 
  241000   0.98644532   -2.4548872   -2.4548872   -1.2988698  0.066881602   -2.4548872    1.1560173   469305 
  242000   0.98511597   -2.4529156   -2.4529156   -1.2983848  0.072237718   -2.4529156    1.1545308   469276 
  243000   0.98450129   -2.4535958   -2.4535958   -1.2997166  0.065775692   -2.4535958    1.1538792   469248 
  244000   0.98526609   -2.4551648   -2.4551648   -1.3003178  0.072552511   -2.4551648     1.154847   469219 
  245000   0.98396297   -2.4543044   -2.4543044   -1.3009135  0.063529562   -2.4543044    1.1533909   469190 
  246000   0.98289607   -2.4537202   -2.4537202   -1.3015112  0.061359062   -2.4537202     1.152209   469162 
  247000   0.98238625   -2.4530848   -2.4530848   -1.3014023  0.064486364   -2.4530848    1.1516826   469133 
  248000   0.98462796   -2.4550475   -2.4550475    -1.300668  0.058862449   -2.4550475    1.1543795   469105 
  249000   0.98172225   -2.4535759   -2.4535759   -1.3025319  0.063156992   -2.4535759     1.151044   469076 
  250000   0.98251116   -2.4540998   -2.4540998   -1.3020621  0.064824202   -2.4540998    1.1520377   469048 
  251000   0.98376305   -2.4545792   -2.4545792   -1.3010022  0.066109402   -2.4545792     1.153577   469019 
  252000   0.98277544   -2.4533787   -2.4533787   -1.3008885  0.067530518   -2.4533787    1.1524901   468990 
  253000   0.98254055   -2.4530143   -2.4530143   -1.3007308  0.067668267   -2.4530143    1.1522835   468962 
  254000   0.98222157   -2.4534095   -2.4534095   -1.3014289  0.070161328   -2.4534095    1.1519806   468933 
  255000   0.98129355   -2.4525667   -2.4525667   -1.3016057  0.059566797   -2.4525667    1.1509609   468905 
  256000   0.98170142   -2.4527255   -2.4527255    -1.301215  0.062823898   -2.4527255    1.1515105   468876 
  257000   0.98370869   -2.4541577   -2.4541577   -1.3002238  0.068079989   -2.4541577    1.1539339   468848 
  258000   0.98320988   -2.4531863   -2.4531863   -1.2997662  0.071631944   -2.4531863    1.1534201   468819 
  259000   0.98324158   -2.4529854   -2.4529854   -1.2994567  0.062699531   -2.4529854    1.1535287   468790 
  260000   0.98205151   -2.4514323   -2.4514323   -1.2992309  0.064213668   -2.4514323    1.1522013   468762 
  261000   0.98184508    -2.451587    -2.451587   -1.2995566  0.061349909    -2.451587    1.1520304   468733 
  262000   0.98178974   -2.4513654   -2.4513654   -1.2993311  0.064012496   -2.4513654    1.1520343   468705 
  263000    0.9828465   -2.4516635   -2.4516635   -1.2983178  0.065472037   -2.4516635    1.1533457   468676 
  264000   0.98287122   -2.4520942   -2.4520942   -1.2986506   0.06255704   -2.4520942    1.1534436   468648 
  265000   0.98139342   -2.4501367   -2.4501367   -1.2983561  0.067587491   -2.4501367    1.1517806   468619 
  266000   0.98069875   -2.4506079   -2.4506079   -1.2995714  0.059611231   -2.4506079    1.1510365   468590 
  267000   0.97958465   -2.4490849   -2.4490849   -1.2992873  0.064469137   -2.4490849    1.1497976   468562 
  268000   0.97972577   -2.4507239   -2.4507239   -1.3006895  0.060749532   -2.4507239    1.1500345   468533 
  269000   0.97881171   -2.4502852   -2.4502852   -1.3012551  0.058799814   -2.4502852    1.1490302   468505 
  270000   0.97909311   -2.4493044   -2.4493044   -1.2998728  0.055450873   -2.4493044    1.1494316   468476 
  271000   0.98019287   -2.4497828   -2.4497828   -1.2989913  0.053722012   -2.4497828    1.1507915   468448 
  272000   0.97958325   -2.4485311   -2.4485311   -1.2983841  0.065727692   -2.4485311     1.150147   468419 
  273000   0.97827557   -2.4480241   -2.4480241   -1.2993413  0.060097416   -2.4480241    1.1486827   468390 
  274000   0.97904658   -2.4492003   -2.4492003   -1.2995435  0.062357916   -2.4492003    1.1496568   468362 
  275000   0.97928903   -2.4489357   -2.4489357    -1.298923  0.063229309   -2.4489357    1.1500127   468333 
  276000    0.9795499   -2.4496274   -2.4496274   -1.2992396  0.069535929   -2.4496274    1.1503878   468305 
  277000   0.97888181   -2.4502989   -2.4502989   -1.3006245  0.055177346   -2.4502989    1.1496744   468276 
  278000   0.97793465   -2.4484683   -2.4484683   -1.2998376  0.058669049   -2.4484683    1.1486307   468248 
  279000   0.97985337   -2.4504534   -2.4504534   -1.2994979   0.05631229   -2.4504534    1.1509556   468219 
  280000   0.97987544   -2.4505375   -2.4505375   -1.2994847  0.062838744   -2.4505375    1.1510528   468190 
  281000   0.98151704   -2.4516682   -2.4516682    -1.298618  0.061272036   -2.4516682    1.1530501   468162 
  282000   0.98108639   -2.4523881   -2.4523881   -1.2997725  0.061243255   -2.4523881    1.1526156   468133 
  283000   0.98008079    -2.451127    -2.451127   -1.2996239  0.057730781    -2.451127    1.1515031   468105 
  284000   0.98025278   -2.4506402   -2.4506402   -1.2988637  0.067200623   -2.4506402    1.1517765   468076 
  285000   0.97992448    -2.451271    -2.451271   -1.2998113  0.061112245    -2.451271    1.1514596   468048 
  286000   0.97963269   -2.4516118   -2.4516118   -1.3004237  0.059771914   -2.4516118    1.1511881   468019 
  287000   0.97924447   -2.4529213   -2.4529213   -1.3021181  0.059077786   -2.4529213    1.1508032   467990 
  288000   0.97933386   -2.4527692   -2.4527692   -1.3017921   0.06599941   -2.4527692    1.1509771   467962 
  289000   0.97903525   -2.4522789   -2.4522789   -1.3015815  0.066687432   -2.4522789    1.1506975   467933 
  290000   0.97686418   -2.4501874   -2.4501874    -1.301973  0.063197335   -2.4501874    1.1482144   467905 
  291000   0.97652134   -2.4505307   -2.4505307   -1.3026481  0.064044918   -2.4505307    1.1478826   467876 
  292000   0.97935048   -2.4542174   -2.4542174   -1.3029403  0.062258161   -2.4542174    1.1512771   467848 
  293000   0.98011712    -2.454096    -2.454096   -1.3018462  0.063964906    -2.454096    1.1522497   467819 
  294000   0.97912186   -2.4540604   -2.4540604   -1.3029094  0.063120015   -2.4540604     1.151151   467790 
  295000   0.98086641   -2.4549756   -2.4549756   -1.3017044   0.05779674   -2.4549756    1.1532711   467762 
  296000   0.97802472   -2.4522277   -2.4522277   -1.3022264  0.061984881   -2.4522277    1.1500013   467733 
  297000   0.97987125   -2.4538412   -2.4538412   -1.3015998  0.064785817   -2.4538412    1.1522415   467705 
  298000   0.97933519   -2.4524955   -2.4524955   -1.3008129  0.058731174   -2.4524955    1.1516825   467676 
  299000   0.97770381   -2.4517242   -2.4517242   -1.3018913  0.068711681   -2.4517242    1.1498329   467648 
  300000   0.97762062   -2.4531209   -2.4531209   -1.3033146  0.057326013   -2.4531209    1.1498064   467619 
  301000   0.97857845    -2.452745    -2.452745   -1.3017407  0.068974206    -2.452745    1.1510043   467590 
  302000   0.97831399   -2.4504905   -2.4504905   -1.2997284  0.066961234   -2.4504905    1.1507621   467562 
  303000   0.97921417   -2.4536018   -2.4536018   -1.3017093  0.063166247   -2.4536018    1.1518924   467533 
  304000   0.97608654   -2.4504322   -2.4504322   -1.3021502  0.062447615   -2.4504322     1.148282   467505 
  305000   0.97701587   -2.4506626   -2.4506626    -1.301216   0.06087347   -2.4506626    1.1494466   467476 
  306000   0.97670434   -2.4507553   -2.4507553   -1.3016064  0.060355768   -2.4507553    1.1491489   467448 
  307000   0.97563231   -2.4500361   -2.4500361   -1.3020772  0.065473739   -2.4500361    1.1479588   467419 
  308000   0.97788104   -2.4528833   -2.4528833   -1.3022071  0.060064599   -2.4528833    1.1506761   467390 
  309000   0.97783108   -2.4524901   -2.4524901   -1.3018038  0.065759552   -2.4524901    1.1506863   467362 
  310000    0.9779278    -2.452531    -2.452531   -1.3016595  0.055921564    -2.452531    1.1508715   467333 
  311000   0.97827148   -2.4528204   -2.4528204   -1.3014755  0.054656147   -2.4528204     1.151345   467305 
  312000   0.97683166   -2.4515417   -2.4515417     -1.30182  0.060219644   -2.4515417    1.1497218   467276 
  313000   0.97505034   -2.4495648   -2.4495648   -1.3018708  0.053364571   -2.4495648    1.1476939   467248 
  314000   0.97576706   -2.4509304   -2.4509304   -1.3023215  0.058536191   -2.4509304    1.1486089   467219 
  315000   0.97446119   -2.4504122   -2.4504122   -1.3032693  0.055445502   -2.4504122    1.1471429   467190 
  316000   0.97534607   -2.4501667   -2.4501667   -1.3019133  0.061471724   -2.4501667    1.1482534   467162 
  317000   0.97472109   -2.4508673   -2.4508673   -1.3032785  0.057649658   -2.4508673    1.1475888   467133 
  318000   0.97420338   -2.4521935   -2.4521935   -1.3051454  0.065157269   -2.4521935    1.1470481   467105 
  319000   0.97720481     -2.45407     -2.45407   -1.3034166  0.059434076     -2.45407    1.1506535   467076 
  320000   0.97633938   -2.4530455   -2.4530455   -1.3033422  0.057450574   -2.4530455    1.1497033   467048 
  321000   0.97515152   -2.4511402   -2.4511402   -1.3027643  0.066333043   -2.4511402    1.1483759   467019 
  322000   0.97427405   -2.4506957   -2.4506957   -1.3032819  0.062139198   -2.4506957    1.1474138   466990 
  323000   0.97639845    -2.452934    -2.452934   -1.3029493  0.057003883    -2.452934    1.1499846   466962 
  324000   0.97552182   -2.4517898   -2.4517898   -1.3027663  0.058938973   -2.4517898    1.1490235   466933 
  325000    0.9757734   -2.4524776   -2.4524776   -1.3030889  0.060727942   -2.4524776    1.1493888   466905 
  326000   0.97536505   -2.4512029   -2.4512029   -1.3022238  0.067777898   -2.4512029    1.1489791   466876 
  327000   0.97628597   -2.4531867   -2.4531867   -1.3030538  0.054424299   -2.4531867     1.150133   466848 
  328000   0.97573505   -2.4532989   -2.4532989   -1.3037436   0.06131429   -2.4532989    1.1495553   466819 
  329000   0.97486749   -2.4516742   -2.4516742   -1.3030697  0.065874589   -2.4516742    1.1486046   466790 
  330000   0.97554361   -2.4528252   -2.4528252   -1.3033551   0.06426062   -2.4528252    1.1494702   466762 
  331000    0.9759213   -2.4533967   -2.4533967   -1.3034101  0.062945285   -2.4533967    1.1499866   466733 
  332000   0.97541848    -2.454621    -2.454621   -1.3051579   0.05902028    -2.454621    1.1494631   466705 
  333000   0.97610097   -2.4562961   -2.4562961   -1.3059573  0.059031995   -2.4562961    1.1503388   466676 
  334000   0.97539477   -2.4547683   -2.4547683   -1.3051927     0.062641   -2.4547683    1.1495755   466648 
  335000   0.97393212   -2.4551773   -2.4551773   -1.3072543  0.057317774   -2.4551773     1.147923   466619 
  336000   0.97442431   -2.4553923   -2.4553923   -1.3068177  0.054791157   -2.4553923    1.1485745   466590 
  337000    0.9751863   -2.4562625   -2.4562625   -1.3067208  0.071542475   -2.4562625    1.1495417   466562 
  338000   0.97307903   -2.4530697   -2.4530697   -1.3059407  0.065074146   -2.4530697     1.147129   466533 
  339000   0.97562394   -2.4562367   -2.4562367   -1.3060386  0.067420039   -2.4562367    1.1501981   466505 
  340000    0.9732595   -2.4544407   -2.4544407   -1.3069588  0.070606332   -2.4544407    1.1474819   466476 
  341000   0.97468767   -2.4549455   -2.4549455   -1.3057108  0.061981783   -2.4549455    1.1492347   466448 
  342000   0.97433916   -2.4559151   -2.4559151   -1.3070199    0.0690105   -2.4559151    1.1488952   466419 
  343000   0.97516396   -2.4558051   -2.4558051   -1.3058658  0.057122691   -2.4558051    1.1499393   466390 
  344000   0.97334554   -2.4541666   -2.4541666   -1.3063027  0.064020384   -2.4541666    1.1478639   466362 
  345000   0.97371512   -2.4544519   -2.4544519   -1.3060807  0.061873646   -2.4544519    1.1483711   466333 
  346000   0.97486895   -2.4558317   -2.4558317   -1.3060308  0.061318636   -2.4558317     1.149801   466305 
  347000   0.97377393   -2.4538664   -2.4538664   -1.3052855  0.055500397   -2.4538664    1.1485809   466276 
  348000   0.97323085   -2.4543152   -2.4543152   -1.3063059  0.063597353   -2.4543152    1.1480093   466248 
  349000   0.97297324   -2.4551056   -2.4551056   -1.3073288  0.058475739   -2.4551056    1.1477768   466219 
  350000    0.9713965   -2.4531965   -2.4531965   -1.3072084  0.059520134   -2.4531965     1.145988   466190 
  351000   0.97169072   -2.4547403   -2.4547403   -1.3083363  0.052569654   -2.4547403     1.146404   466162 
  352000   0.97364994   -2.4567992   -2.4567992   -1.3080122  0.060853665   -2.4567992    1.1487869   466133 
  353000   0.97198764   -2.4548385   -2.4548385    -1.307944  0.056474003   -2.4548385    1.1468945   466105 
  354000   0.97197517   -2.4547529   -2.4547529   -1.3078017  0.058706304   -2.4547529    1.1469512   466076 
  355000   0.97158193    -2.455113    -2.455113   -1.3085569  0.058343894    -2.455113     1.146556   466048 
  356000    0.9703108   -2.4538817   -2.4538817   -1.3087544  0.061140322   -2.4538817    1.1451272   466019 
  357000   0.97208986   -2.4558244   -2.4558244   -1.3085262  0.051445389   -2.4558244    1.1472982   465990 
  358000   0.97199831   -2.4544071   -2.4544071    -1.307148  0.054990232   -2.4544071    1.1472591   465962 
  359000   0.97153425   -2.4541189   -2.4541189   -1.3073362  0.059768842   -2.4541189    1.1467827   465933 
  360000   0.97393209   -2.4569301   -2.4569301   -1.3072479  0.063277156   -2.4569301    1.1496822   465905 
  361000   0.97315527   -2.4559974   -2.4559974   -1.3071607  0.064689698   -2.4559974    1.1488367   465876 
  362000   0.97332987   -2.4573753   -2.4573753   -1.3082635  0.055751455   -2.4573753    1.1491119   465848 
  363000   0.97141452   -2.4545502   -2.4545502   -1.3076282  0.058471223   -2.4545502     1.146922   465819 
  364000   0.97167855   -2.4552739   -2.4552739   -1.3079688  0.049826184   -2.4552739    1.1473052   465790 
  365000   0.97032852   -2.4543543   -2.4543543   -1.3085743  0.061714227   -2.4543543      1.14578   465762 
  366000   0.97056505   -2.4545455   -2.4545455   -1.3084148  0.055880553   -2.4545455    1.1461307   465733 
  367000   0.97044613   -2.4546387   -2.4546387   -1.3085796  0.056817352   -2.4546387    1.1460591   465705 
  368000   0.97002079   -2.4543024   -2.4543024   -1.3086742  0.064445004   -2.4543024    1.1456282   465676 
  369000   0.96989995   -2.4534621   -2.4534621   -1.3079078  0.062403229   -2.4534621    1.1455543   465648 
  370000   0.97182149   -2.4560602   -2.4560602   -1.3081648  0.063617231   -2.4560602    1.1478954   465619 
  371000   0.97090644   -2.4554993   -2.4554993   -1.3086134  0.066792908   -2.4554993     1.146886   465590 
  372000   0.97084759   -2.4559526   -2.4559526   -1.3090672  0.059520046   -2.4559526    1.1468854   465562 
  373000   0.97107555    -2.456397    -2.456397   -1.3091708  0.055906422    -2.456397    1.1472262   465533 
  374000   0.97168254   -2.4573232   -2.4573232   -1.3093108  0.056347442   -2.4573232    1.1480123   465505 
  375000   0.97046092   -2.4561213   -2.4561213   -1.3094808  0.053308124   -2.4561213    1.1466405   465476 
  376000   0.96982642   -2.4553538   -2.4553538   -1.3093941  0.060395505   -2.4553538    1.1459597   465448 
  377000   0.97072112    -2.456714    -2.456714   -1.3096256  0.052535936    -2.456714    1.1470884   465419 
  378000   0.96767238   -2.4526088   -2.4526088   -1.3090518  0.061252244   -2.4526088     1.143557   465390 
  379000    0.9692291   -2.4532467   -2.4532467   -1.3077811   0.05722988   -2.4532467    1.1454655   465362 
  380000   0.96976557   -2.4553129   -2.4553129    -1.309142  0.058150878   -2.4553129     1.146171   465333 
  381000   0.97097263   -2.4563889   -2.4563889   -1.3087222  0.062624077   -2.4563889    1.1476667   465305 
  382000   0.97126808   -2.4569748   -2.4569748   -1.3088874  0.055602091   -2.4569748    1.1480874   465276 
  383000   0.96962546   -2.4556496   -2.4556496   -1.3094348  0.054822289   -2.4556496    1.1462148   465248 
  384000   0.96760994   -2.4540897   -2.4540897   -1.3101863   0.06534153   -2.4540897    1.1439035   465219 
  385000   0.97009417   -2.4569059   -2.4569059   -1.3099941  0.064238165   -2.4569059    1.1469118   465190 
  386000   0.96870663   -2.4559309   -2.4559309   -1.3105906  0.062259308   -2.4559309    1.1453403   465162 
  387000   0.96982107   -2.4567197   -2.4567197   -1.3099902  0.057127213   -2.4567197    1.1467295   465133 
  388000   0.96830197   -2.4555933   -2.4555933   -1.3105911  0.059019705   -2.4555933    1.1450022   465105 
  389000   0.96780009   -2.4546783   -2.4546783   -1.3101982  0.055012221   -2.4546783    1.1444801   465076 
  390000   0.96870934   -2.4550673   -2.4550673    -1.309443  0.054729688   -2.4550673    1.1456243   465048 
  391000    0.9687984   -2.4560288   -2.4560288   -1.3102278  0.060721281   -2.4560288    1.1458011   465019 
  392000   0.96985762   -2.4574235   -2.4574235   -1.3102982  0.051703218   -2.4574235    1.1471253   464990 
  393000   0.96876312   -2.4566927   -2.4566927   -1.3107929  0.064929125   -2.4566927    1.1458998   464962 
  394000   0.96969467   -2.4573258   -2.4573258   -1.3102526  0.066654491   -2.4573258    1.1470732   464933 
  395000   0.96896138   -2.4568448   -2.4568448     -1.31057  0.060408078   -2.4568448    1.1462748   464905 
  396000   0.96821308   -2.4552883   -2.4552883   -1.3098272  0.054953439   -2.4552883     1.145461   464876 
  397000   0.96975938   -2.4580745   -2.4580745    -1.310715  0.060489974   -2.4580745    1.1473595   464848 
  398000   0.96946919   -2.4574384   -2.4574384   -1.3103507  0.054747766   -2.4574384    1.1470877   464819 
  399000   0.96816084   -2.4553864   -2.4553864   -1.3097752  0.059105936   -2.4553864    1.1456112   464790 
  400000   0.96847987   -2.4558872   -2.4558872   -1.3098295  0.058498093   -2.4558872    1.1460577   464762 
  401000   0.96835344   -2.4561985   -2.4561985   -1.3102188  0.063301044   -2.4561985    1.1459796   464733 
  402000   0.96612503   -2.4542554   -2.4542554   -1.3108441  0.060473056   -2.4542554    1.1434113   464705 
  403000    0.9677919   -2.4552803   -2.4552803   -1.3098248  0.057472149   -2.4552803    1.1454556   464676 
  404000   0.96635826   -2.4544819   -2.4544819   -1.3106542  0.059749241   -2.4544819    1.1438277   464648 
  405000    0.9682072   -2.4557358   -2.4557358   -1.3096481    0.0642697   -2.4557358    1.1460877   464619 
  406000   0.96795949   -2.4565643   -2.4565643   -1.3106983  0.052317278   -2.4565643     1.145866   464590 
  407000   0.96794196   -2.4567156   -2.4567156   -1.3108013  0.061771763   -2.4567156    1.1459143   464562 
  408000   0.96901261   -2.4586639   -2.4586639   -1.3114105  0.056385889   -2.4586639    1.1472534   464533 
  409000   0.96635989   -2.4553947   -2.4553947    -1.311213  0.057108815   -2.4553947    1.1441817   464505 
  410000   0.96692121   -2.4562963   -2.4562963   -1.3113785  0.057558142   -2.4562963    1.1449178   464476 
  411000   0.96550349   -2.4545392   -2.4545392   -1.3112312  0.054205113   -2.4545392     1.143308   464448 
  412000   0.96626442   -2.4554581   -2.4554581   -1.3111776  0.057900148   -2.4554581    1.1442805   464419 
  413000   0.96587589    -2.455369    -2.455369   -1.3114772  0.058940794    -2.455369    1.1438919   464390 
  414000   0.96696057   -2.4571529   -2.4571529   -1.3119074  0.058090679   -2.4571529    1.1452455   464362 
  415000   0.96562355   -2.4551227   -2.4551227   -1.3113893  0.053549887   -2.4551227    1.1437334   464333 
  416000    0.9641192   -2.4537607   -2.4537607   -1.3117402  0.054237605   -2.4537607    1.1420204   464305 
  417000   0.96482755   -2.4536213   -2.4536213   -1.3106905  0.055899311   -2.4536213    1.1429309   464276 
  418000   0.96602587   -2.4550938   -2.4550938   -1.3106744  0.059205186   -2.4550938    1.1444194   464248 
  419000   0.96584442   -2.4565698   -2.4565698   -1.3122938  0.050860517   -2.4565698    1.1442759   464219 
  420000   0.96532573   -2.4571321   -2.4571321   -1.3133992  0.058591803   -2.4571321    1.1437329   464190 
  421000   0.96792718   -2.4595976   -2.4595976   -1.3127134  0.052593091   -2.4595976    1.1468843   464162 
  422000   0.96769058   -2.4582643   -2.4582643   -1.3115887  0.056705415   -2.4582643    1.1466756   464133 
  423000   0.96749291   -2.4591704   -2.4591704   -1.3126599  0.060984633   -2.4591704    1.1465105   464105 
  424000   0.96834243   -2.4597599   -2.4597599   -1.3121709   0.05606257   -2.4597599    1.1475889   464076 
  425000   0.96535532   -2.4575305   -2.4575305   -1.3134126  0.057896538   -2.4575305    1.1441179   464048 
  426000   0.96757618   -2.4597046   -2.4597046   -1.3128829  0.056996094   -2.4597046    1.1468217   464019 
  427000   0.96485305   -2.4581253   -2.4581253   -1.3144597  0.053501467   -2.4581253    1.1436656   463990 
  428000   0.96479793    -2.458344    -2.458344   -1.3146747  0.059543864    -2.458344    1.1436693   463962 
  429000   0.96365293   -2.4573825   -2.4573825   -1.3149991  0.065206012   -2.4573825    1.1423834   463933 
  430000   0.96384491   -2.4567158   -2.4567158   -1.3140358  0.053769874   -2.4567158      1.14268   463905 
  431000   0.96386721   -2.4579943   -2.4579943   -1.3152165  0.055366583   -2.4579943    1.1427778   463876 
  432000   0.96497878   -2.4580814   -2.4580814   -1.3139166    0.0591405   -2.4580814    1.1441648   463848 
  433000   0.96393213   -2.4582752   -2.4582752     -1.31528  0.061096657   -2.4582752    1.1429952   463819 
  434000   0.96490917   -2.4595289   -2.4595289   -1.3153035  0.066328299   -2.4595289    1.1442253   463790 
  435000   0.96611358   -2.4601216   -2.4601216   -1.3143989  0.055021579   -2.4601216    1.1457227   463762 
  436000   0.96708189   -2.4607282   -2.4607282   -1.3137854  0.060517484   -2.4607282    1.1469428   463733 
  437000   0.96457539   -2.4575151   -2.4575151   -1.3134759  0.065769375   -2.4575151    1.1440392   463705 
  438000   0.96346315   -2.4565867   -2.4565867   -1.3137952  0.060093038   -2.4565867    1.1427915   463676 
  439000   0.96603386   -2.4605338   -2.4605338   -1.3146239  0.061860049   -2.4605338    1.1459099   463648 
  440000   0.96461485   -2.4579626   -2.4579626   -1.3136644  0.059926947   -2.4579626    1.1442982   463619 
  441000   0.96395974   -2.4585809   -2.4585809   -1.3149883  0.060150917   -2.4585809    1.1435926   463590 
  442000   0.96354625   -2.4580594   -2.4580594   -1.3148883  0.055995439   -2.4580594    1.1431711   463562 
  443000   0.96511787   -2.4597101   -2.4597101   -1.3146027  0.062802762   -2.4597101    1.1451073   463533 
  444000   0.96418591   -2.4585244   -2.4585244   -1.3144537  0.052536032   -2.4585244    1.1440707   463505 
  445000   0.96190234   -2.4565427   -2.4565427   -1.3151102  0.052546467   -2.4565427    1.1414325   463476 
  446000   0.96261489    -2.457359    -2.457359    -1.315012  0.060166513    -2.457359     1.142347   463448 
  447000   0.96312933   -2.4586337   -2.4586337   -1.3156046   0.06279322   -2.4586337    1.1430291   463419 
  448000   0.96030119   -2.4550969   -2.4550969   -1.3153529   0.06400177   -2.4550969     1.139744   463390 
  449000   0.96187925   -2.4570922   -2.4570922   -1.3154062  0.058624584   -2.4570922    1.1416859   463362 
  450000   0.96287955   -2.4570019   -2.4570019   -1.3140572  0.052997147   -2.4570019    1.1429447   463333 
  451000   0.96171723   -2.4555888   -2.4555888   -1.3139547  0.053406539   -2.4555888    1.1416341   463305 
  452000   0.96300741   -2.4558438   -2.4558438   -1.3126067   0.06275488   -2.4558438    1.1432371   463276 
  453000   0.96157416   -2.4547489   -2.4547489   -1.3131442  0.061545293   -2.4547489    1.1416047   463248 
  454000   0.96269664   -2.4570024   -2.4570024   -1.3139936  0.052385491   -2.4570024    1.1430089   463219 
  455000   0.96203802   -2.4550219   -2.4550219   -1.3127235  0.053047689   -2.4550219    1.1422984   463190 
  456000   0.96328154   -2.4560638   -2.4560638   -1.3122198  0.052343634   -2.4560638    1.1438441   463162 
  457000   0.96301374   -2.4556962   -2.4556962   -1.3120985  0.062620817   -2.4556962    1.1435977   463133 
  458000   0.95998108   -2.4539648   -2.4539648   -1.3138995   0.05178806   -2.4539648    1.1400652   463105 
  459000   0.96047954   -2.4544747   -2.4544747   -1.3137461  0.057695375   -2.4544747    1.1407286   463076 
  460000   0.96175421   -2.4565753   -2.4565753   -1.3142637  0.056845269   -2.4565753    1.1423116   463048 
  461000   0.96232513   -2.4567663   -2.4567663    -1.313705  0.062817348   -2.4567663    1.1430613   463019 
  462000   0.96123036   -2.4557553   -2.4557553   -1.3139229  0.051746814   -2.4557553    1.1418324   462990 
  463000   0.96185844   -2.4554038   -2.4554038   -1.3127562  0.053804992   -2.4554038    1.1426476   462962 
  464000    0.9626916   -2.4558015   -2.4558015   -1.3120925  0.054674436   -2.4558015     1.143709   462933 
  465000   0.96389063   -2.4569562   -2.4569562   -1.3117534  0.060621898   -2.4569562    1.1452028   462905 
  466000   0.96432081   -2.4579815   -2.4579815   -1.3121958  0.054039737   -2.4579815    1.1457856   462876 
  467000   0.96247508   -2.4558614   -2.4558614   -1.3121996  0.058627463   -2.4558614    1.1436618   462848 
  468000   0.96283549   -2.4560831   -2.4560831   -1.3119214  0.059989915   -2.4560831    1.1441617   462819 
  469000   0.96324649   -2.4580476   -2.4580476   -1.3133258  0.056813252   -2.4580476    1.1447218   462790 
  470000   0.96139441   -2.4569382   -2.4569382   -1.3143483   0.06020165   -2.4569382      1.14259   462762 
  471000   0.96101915   -2.4566295   -2.4566295    -1.314414  0.061316093   -2.4566295    1.1422156   462733 
  472000   0.96169852   -2.4578871   -2.4578871   -1.3147949  0.064377015   -2.4578871    1.1430922   462705 
  473000   0.96262102   -2.4582236   -2.4582236   -1.3139632  0.059485643   -2.4582236    1.1442604   462676 
  474000   0.96097044   -2.4576441   -2.4576441   -1.3152766  0.058156878   -2.4576441    1.1423675   462648 
  475000   0.96123254   -2.4580998   -2.4580998   -1.3153491  0.054986518   -2.4580998    1.1427507   462619 
  476000   0.96085606   -2.4581858   -2.4581858   -1.3158111   0.05934357   -2.4581858    1.1423748   462590 
  477000   0.95983084   -2.4582032   -2.4582032   -1.3169783   0.05859738   -2.4582032    1.1412249   462562 
  478000   0.96004783   -2.4585468   -2.4585468   -1.3169923  0.052025407   -2.4585468    1.1415545   462533 
  479000    0.9598619   -2.4577845   -2.4577845    -1.316382  0.056892371   -2.4577845    1.1414025   462505 
  480000   0.96080964   -2.4594301   -2.4594301   -1.3168289  0.056422942   -2.4594301    1.1426011   462476 
  481000   0.95989496   -2.4592797   -2.4592797   -1.3176972  0.064160708   -2.4592797    1.1415825   462448 
  482000   0.95920167   -2.4587589   -2.4587589   -1.3179294  0.051706268   -2.4587589    1.1408295   462419 
  483000   0.96038093   -2.4603403   -2.4603403   -1.3180366  0.057708727   -2.4603403    1.1423037   462390 
  484000   0.95897677   -2.4600018   -2.4600018   -1.3192991  0.055478089   -2.4600018    1.1407027   462362 
  485000   0.95834239   -2.4598176   -2.4598176    -1.319798  0.056028721   -2.4598176    1.1400196   462333 
  486000    0.9592352   -2.4602943   -2.4602943   -1.3191436  0.058404993   -2.4602943    1.1411507   462305 
  487000   0.96039208    -2.461508    -2.461508   -1.3189093  0.052430992    -2.461508    1.1425987   462276 
  488000   0.95953411   -2.4598661   -2.4598661    -1.318219  0.060179587   -2.4598661    1.1416471   462248 
  489000   0.96018977    -2.460732    -2.460732   -1.3182331  0.055606301    -2.460732    1.1424989   462219 
  490000   0.95980646   -2.4604943   -2.4604943   -1.3183798  0.061377964   -2.4604943    1.1421144   462190 
  491000   0.96030333    -2.461101    -2.461101   -1.3183261   0.05788603    -2.461101    1.1427749   462162 
  492000   0.96165935   -2.4633704   -2.4633704   -1.3189099  0.049193341   -2.4633704    1.1444604   462133 
  493000   0.95934771   -2.4608267   -2.4608267   -1.3190481  0.058141578   -2.4608267    1.1417785   462105 
  494000   0.95867779   -2.4597452   -2.4597452   -1.3186924  0.053871483   -2.4597452    1.1410528   462076 
  495000   0.95883055   -2.4617731   -2.4617731   -1.3204693  0.061199772   -2.4617731    1.1413038   462048 
  496000   0.95807407   -2.4605538   -2.4605538   -1.3200789  0.062413864   -2.4605538     1.140475   462019 
  497000   0.95840195   -2.4603237   -2.4603237   -1.3193868  0.052245859   -2.4603237    1.1409369   461990 
  498000   0.95814105   -2.4611211   -2.4611211   -1.3204257  0.053720714   -2.4611211    1.1406954   461962 
  499000   0.95649493   -2.4594742   -2.4594742   -1.3206671  0.055013158   -2.4594742    1.1388071   461933 
  500000   0.95744496   -2.4615016   -2.4615016   -1.3214943  0.056572628   -2.4615016    1.1400074   461905 
  501000   0.95886487   -2.4615486   -2.4615486   -1.3197789  0.055768512   -2.4615486    1.1417697   461876 
  502000   0.95674665   -2.4591181   -2.4591181   -1.3198016  0.061687425   -2.4591181    1.1393165   461848 
  503000   0.95866066    -2.460875    -2.460875   -1.3192076  0.050989534    -2.460875    1.1416674   461819 
  504000   0.95702476   -2.4599961   -2.4599961   -1.3202053  0.061127718   -2.4599961    1.1397908   461790 
  505000   0.95549019   -2.4571665   -2.4571665   -1.3191343  0.054391132   -2.4571665    1.1380322   461762 
  506000   0.95831893   -2.4614151   -2.4614151   -1.3199421  0.056093015   -2.4614151     1.141473   461733 
  507000   0.95751179   -2.4610324   -2.4610324   -1.3204516    0.0553028   -2.4610324    1.1405808   461705 
  508000   0.95707636   -2.4610139   -2.4610139   -1.3208801  0.055212155   -2.4610139    1.1401337   461676 
  509000    0.9549244   -2.4587018   -2.4587018   -1.3210626  0.050659846   -2.4587018    1.1376392   461648 
  510000   0.95668549   -2.4601974   -2.4601974   -1.3203886  0.054657247   -2.4601974    1.1398088   461619 
  511000   0.95762003     -2.46021     -2.46021   -1.3192161  0.058089086     -2.46021    1.1409939   461590 
  512000   0.95846277   -2.4614819   -2.4614819   -1.3194145  0.053903957   -2.4614819    1.1420673   461562 
  513000   0.95676694    -2.459989    -2.459989   -1.3198707  0.056438447    -2.459989    1.1401183   461533 
  514000   0.95664452   -2.4607937   -2.4607937   -1.3207521  0.061638791   -2.4607937    1.1400415   461505 
  515000   0.95620119    -2.460399    -2.460399   -1.3208142  0.056419225    -2.460399    1.1395848   461476 
  516000   0.95540325   -2.4604739   -2.4604739   -1.3217709  0.058788357   -2.4604739     1.138703   461448 
  517000   0.95623066    -2.461576    -2.461576   -1.3218152  0.054130829    -2.461576    1.1397607   461419 
  518000   0.95666514   -2.4616905   -2.4616905   -1.3213402  0.054096767   -2.4616905    1.1403503   461390 
  519000   0.95660902   -2.4610217   -2.4610217   -1.3206692   0.05163914   -2.4610217    1.1403526   461362 
  520000   0.95746516   -2.4624584   -2.4624584   -1.3210134  0.053838239   -2.4624584    1.1414449   461333 
  521000   0.95629063   -2.4613906   -2.4613906   -1.3212767  0.054002416   -2.4613906    1.1401139   461305 
  522000   0.95455164   -2.4595685   -2.4595685   -1.3214563    0.0605603   -2.4595685    1.1381122   461276 
  523000   0.95590777   -2.4623109   -2.4623109   -1.3225126  0.057726682   -2.4623109    1.1397983   461248 
  524000   0.95655186   -2.4621462   -2.4621462   -1.3215082  0.054732904   -2.4621462     1.140638   461219 
  525000   0.95638654   -2.4621081   -2.4621081   -1.3215955  0.058739968   -2.4621081    1.1405126   461190 
  526000    0.9568659   -2.4635407   -2.4635407   -1.3223872  0.056469765   -2.4635407    1.1411535   461162 
  527000   0.95596976   -2.4617922   -2.4617922   -1.3216357  0.059632094   -2.4617922    1.1401565   461133 
  528000   0.95522541   -2.4601607   -2.4601607   -1.3208229  0.049217835   -2.4601607    1.1393379   461105 
  529000   0.95731748   -2.4632332   -2.4632332   -1.3213282  0.059649367   -2.4632332     1.141905   461076 
  530000   0.95638717   -2.4623884   -2.4623884   -1.3215238  0.058271578   -2.4623884    1.1408646   461048 
  531000   0.95607057   -2.4627019   -2.4627019   -1.3221432  0.051563359   -2.4627019    1.1405587   461019 
  532000   0.95583862   -2.4630245   -2.4630245   -1.3226708  0.056824815   -2.4630245    1.1403537   460990 
  533000    0.9545621   -2.4604704   -2.4604704   -1.3215705  0.052374476   -2.4604704    1.1388999   460962 
  534000    0.9547855   -2.4604599   -2.4604599   -1.3212217  0.046778819   -2.4604599    1.1392381   460933 
  535000   0.95658359   -2.4622854   -2.4622854   -1.3208325  0.053322648   -2.4622854    1.1414529   460905 
  536000   0.95638796    -2.461809    -2.461809   -1.3205177  0.052821557    -2.461809    1.1412913   460876 
  537000   0.95601442    -2.461519    -2.461519   -1.3206041  0.061872659    -2.461519    1.1409149   460848 
  538000   0.95546759   -2.4604214   -2.4604214   -1.3200874  0.059333222   -2.4604214     1.140334   460819 
  539000   0.95429991   -2.4594061   -2.4594061    -1.320394  0.058459776   -2.4594061    1.1390121   460790 
  540000   0.95435541   -2.4597267   -2.4597267   -1.3205792  0.060094453   -2.4597267    1.1391476   460762 
  541000   0.95439361   -2.4599932   -2.4599932   -1.3207284  0.060764848   -2.4599932    1.1392649   460733 
  542000   0.95454213   -2.4593133   -2.4593133   -1.3198019   0.05825967   -2.4593133    1.1395114   460705 
  543000   0.95339811    -2.458655    -2.458655   -1.3204377  0.053720839    -2.458655    1.1382174   460676 
  544000   0.95114357   -2.4570526   -2.4570526   -1.3214578  0.062991773   -2.4570526    1.1355948   460648 
  545000   0.95273525   -2.4599057   -2.4599057   -1.3223389  0.049800156   -2.4599057    1.1375667   460619 
  546000   0.95106576   -2.4567774   -2.4567774   -1.3211326  0.056037082   -2.4567774    1.1356449   460590 
  547000    0.9537479   -2.4584102   -2.4584102   -1.3194934  0.056238139   -2.4584102    1.1389168   460562 
  548000   0.95372701   -2.4598425   -2.4598425   -1.3208789  0.052487252   -2.4598425    1.1389636   460533 
  549000   0.95362452   -2.4584141   -2.4584141   -1.3195037   0.05984022   -2.4584141    1.1389104   460505 
  550000    0.9516215   -2.4561791   -2.4561791   -1.3195893  0.054559366   -2.4561791    1.1365898   460476 
  551000   0.95165448   -2.4564026   -2.4564026   -1.3197044  0.052983828   -2.4564026    1.1366983   460448 
  552000   0.95186727   -2.4558062   -2.4558062   -1.3187822  0.049047486   -2.4558062    1.1370241   460419 
  553000   0.95268974   -2.4575811   -2.4575811   -1.3195029  0.052006013   -2.4575811    1.1380782   460390 
  554000   0.95201214    -2.457223    -2.457223    -1.319885  0.061103911    -2.457223    1.1373379   460362 
  555000   0.95149723   -2.4561084   -2.4561084    -1.319314  0.049444676   -2.4561084    1.1367944   460333 
  556000    0.9514568   -2.4568968   -2.4568968   -1.3200816  0.053024668   -2.4568968    1.1368152   460305 
  557000   0.95116804   -2.4573231   -2.4573231   -1.3207812  0.053305541   -2.4573231    1.1365418   460276 
  558000   0.95006303   -2.4561584   -2.4561584   -1.3208678  0.055626927   -2.4561584    1.1352905   460248 
  559000   0.95036846   -2.4555642   -2.4555642   -1.3198372  0.059340534   -2.4555642    1.1357271   460219 
  560000   0.95095782   -2.4554736   -2.4554736   -1.3189706  0.054465109   -2.4554736     1.136503   460190 
  561000   0.95171368   -2.4579799   -2.4579799   -1.3205044  0.046253317   -2.4579799    1.1374755   460162 
  562000   0.95301378   -2.4602496   -2.4602496   -1.3211484  0.049429599   -2.4602496    1.1391012   460133 
  563000   0.95278477   -2.4598814   -2.4598814   -1.3209846  0.051963351   -2.4598814    1.1388968   460105 
  564000   0.95198277   -2.4586787   -2.4586787   -1.3206688  0.048627205   -2.4586787    1.1380098   460076 
  565000   0.95137205   -2.4584547   -2.4584547   -1.3211057  0.061463198   -2.4584547     1.137349   460048 
  566000   0.95128958   -2.4589287   -2.4589287   -1.3216067  0.054615425   -2.4589287    1.1373221   460019 
  567000   0.94841462    -2.457559    -2.457559   -1.3236026  0.054678599    -2.457559    1.1339564   459990 
  568000   0.95066923   -2.4608639   -2.4608639   -1.3241426  0.058259069   -2.4608639    1.1367213   459962 
  569000   0.94856048   -2.4583218   -2.4583218   -1.3240505  0.054048694   -2.4583218    1.1342713   459933 
  570000   0.95104569   -2.4614263   -2.4614263    -1.324114  0.056420451   -2.4614263    1.1373123   459905 
  571000    0.9503103   -2.4607403   -2.4607403   -1.3242357  0.054321397   -2.4607403    1.1365046   459876 
  572000   0.95189352   -2.4633121   -2.4633121   -1.3248448  0.047281829   -2.4633121    1.1384673   459848 
  573000    0.9503145   -2.4624029   -2.4624029   -1.3257524  0.052074808   -2.4624029    1.1366505   459819 
  574000   0.95120134   -2.4634586   -2.4634586   -1.3256756  0.048476957   -2.4634586     1.137783   459790 
  575000   0.95040133   -2.4631001   -2.4631001   -1.3262048  0.057932709   -2.4631001    1.1368953   459762 
  576000   0.95162888   -2.4638838   -2.4638838   -1.3254482  0.057383363   -2.4638838    1.1384355   459733 
  577000   0.95094247    -2.462921    -2.462921   -1.3252373  0.056587567    -2.462921    1.1376837   459705 
  578000   0.95010456   -2.4624911   -2.4624911   -1.3257382  0.052773002   -2.4624911    1.1367529   459676 
  579000    0.9522792   -2.4643364   -2.4643364   -1.3249122  0.053120815   -2.4643364    1.1394242   459648 
  580000   0.95037302   -2.4625234   -2.4625234   -1.3253082  0.058947548   -2.4625234    1.1372151   459619 
  581000   0.95011311    -2.461883    -2.461883   -1.3249072  0.059929376    -2.461883    1.1369759   459590 
  582000    0.9508159   -2.4626496   -2.4626496   -1.3247634  0.053870581   -2.4626496    1.1378862   459562 
  583000   0.95241282   -2.4639289   -2.4639289   -1.3240597  0.058438333   -2.4639289    1.1398692   459533 
  584000   0.95074021   -2.4615663   -2.4615663   -1.3236295  0.056829273   -2.4615663    1.1379367   459505 
  585000   0.95333934   -2.4650728   -2.4650728   -1.3239531  0.056394148   -2.4650728    1.1411197   459476 
  586000   0.95184562     -2.46414     -2.46414   -1.3247389  0.056052878     -2.46414    1.1394012   459448 
  587000    0.9516247   -2.4631346   -2.4631346    -1.323926  0.053635262   -2.4631346    1.1392086   459419 
  588000   0.95005168   -2.4617852   -2.4617852   -1.3243879  0.057439046   -2.4617852    1.1373973   459390 
  589000   0.95087722   -2.4635594   -2.4635594   -1.3251044  0.057641237   -2.4635594     1.138455   459362 
  590000    0.9506244   -2.4622353   -2.4622353   -1.3240111  0.055555628   -2.4622353    1.1382242   459333 
  591000   0.95006898   -2.4604883   -2.4604883   -1.3228598   0.05784964   -2.4604883    1.1376285   459305 
  592000   0.95180271    -2.462028    -2.462028   -1.3222516    0.0530087    -2.462028    1.1397765   459276 
  593000   0.95101345   -2.4619199   -2.4619199   -1.3230191  0.056737092   -2.4619199    1.1389008   459248 
  594000   0.94921032   -2.4601901   -2.4601901    -1.323377  0.053687925   -2.4601901    1.1368132   459219 
  595000   0.95005988   -2.4611121   -2.4611121   -1.3232096   0.05323567   -2.4611121    1.1379025   459190 
  596000   0.94814048   -2.4598939   -2.4598939    -1.324221  0.058811674   -2.4598939    1.1356729   459162 
  597000   0.94737559    -2.458213    -2.458213   -1.3233846  0.058517263    -2.458213    1.1348284   459133 
  598000   0.94529807   -2.4564057   -2.4564057   -1.3239969  0.061663133   -2.4564057    1.1324088   459105 
  599000   0.94592893   -2.4563827   -2.4563827   -1.3231466  0.053627323   -2.4563827    1.1332362   459076 
  600000   0.94887482   -2.4593606   -2.4593606   -1.3225259  0.044905512   -2.4593606    1.1368347   459048 
  601000   0.94699546    -2.457017    -2.457017   -1.3223623  0.054795943    -2.457017    1.1346547   459019 
  602000   0.94825701   -2.4585109   -2.4585109   -1.3222728  0.049247393   -2.4585109    1.1362381   458990 
  603000   0.94804553   -2.4582947   -2.4582947   -1.3222407  0.056210757   -2.4582947     1.136054   458962 
  604000   0.94862884   -2.4583398   -2.4583398    -1.321515  0.056126903   -2.4583398    1.1368248   458933 
  605000   0.94904761   -2.4582051   -2.4582051   -1.3208091  0.052497608   -2.4582051     1.137396   458905 
  606000   0.94797212   -2.4569703   -2.4569703   -1.3207914  0.049930749   -2.4569703    1.1361789   458876 
  607000   0.94625199   -2.4555184   -2.4555184   -1.3213319  0.055684408   -2.4555184    1.1341865   458848 
  608000   0.94711457   -2.4564963   -2.4564963   -1.3212042  0.053031269   -2.4564963    1.1352921   458819 
  609000   0.94649889   -2.4573002   -2.4573002   -1.3226743   0.05276537   -2.4573002    1.1346258   458790 
  610000   0.94760226    -2.458729    -2.458729   -1.3227112  0.052524562    -2.458729    1.1360178   458762 
  611000   0.94588317   -2.4567725   -2.4567725   -1.3227439   0.05708474   -2.4567725    1.1340286   458733 
  612000   0.94639196   -2.4575351   -2.4575351   -1.3228272   0.05471295   -2.4575351    1.1347079   458705 
  613000   0.94533698   -2.4578843   -2.4578843   -1.3243696  0.056067862   -2.4578843    1.1335146   458676 
  614000    0.9460243   -2.4588529   -2.4588529   -1.3244448  0.048796212   -2.4588529     1.134408   458648 
  615000   0.94563244   -2.4572873   -2.4572873   -1.3232775  0.058214971   -2.4572873    1.1340098   458619 
  616000   0.94723179   -2.4591678   -2.4591678   -1.3231681  0.046568799   -2.4591678    1.1359996   458590 
  617000   0.94560935   -2.4580352   -2.4580352   -1.3239121  0.048374367   -2.4580352    1.1341231   458562 
  618000    0.9463676   -2.4585543   -2.4585543     -1.32345  0.057104356   -2.4585543    1.1351043   458533 
  619000   0.94533645   -2.4573852   -2.4573852   -1.3234484  0.053187723   -2.4573852    1.1339367   458505 
  620000    0.9446624   -2.4570701   -2.4570701   -1.3238702  0.053666078   -2.4570701    1.1331999   458476 
  621000   0.94585541   -2.4590871   -2.4590871   -1.3243868  0.054985981   -2.4590871    1.1347003   458448 
  622000   0.94736083   -2.4610316   -2.4610316   -1.3244534   0.05115683   -2.4610316    1.1365782   458419 
  623000    0.9465513   -2.4613412   -2.4613412   -1.3256624  0.054747973   -2.4613412    1.1356788   458390 
  624000   0.94520726   -2.4600243   -2.4600243   -1.3258888  0.059230924   -2.4600243    1.1341355   458362 
  625000   0.94642508   -2.4612461   -2.4612461   -1.3255775  0.057867874   -2.4612461    1.1356686   458333 
  626000   0.94604329   -2.4607332   -2.4607332   -1.3254534  0.054721282   -2.4607332    1.1352798   458305 
  627000   0.94723514   -2.4614659   -2.4614659   -1.3246839  0.058502487   -2.4614659     1.136782   458276 
  628000   0.94613082   -2.4610642   -2.4610642   -1.3255381  0.048478178   -2.4610642    1.1355261   458248 
  629000   0.94669533   -2.4606637   -2.4606637   -1.3243882  0.058244972   -2.4606637    1.1362755   458219 
  630000   0.94665303   -2.4626566   -2.4626566     -1.32636  0.054876843   -2.4626566    1.1362966   458190 
  631000   0.94611855   -2.4615324   -2.4615324   -1.3258079  0.054687888   -2.4615324    1.1357245   458162 
  632000   0.94617051   -2.4611612   -2.4611612   -1.3253025  0.056757248   -2.4611612    1.1358588   458133 
  633000    0.9451121   -2.4599543   -2.4599543   -1.3252968  0.056648868   -2.4599543    1.1346575   458105 
  634000   0.94621774    -2.461962    -2.461962   -1.3259052  0.049532573    -2.461962    1.1360568   458076 
  635000   0.94507855   -2.4599337   -2.4599337   -1.3251753  0.065108753   -2.4599337    1.1347584   458048 
  636000   0.94698996   -2.4620329   -2.4620329   -1.3249075  0.061422246   -2.4620329    1.1371255   458019 
  637000    0.9450506   -2.4593968   -2.4593968   -1.3245282  0.055560551   -2.4593968    1.1348686   457990 
  638000   0.94463554   -2.4596039   -2.4596039   -1.3251644   0.05325784   -2.4596039    1.1344395   457962 
  639000   0.94470317   -2.4593818   -2.4593818   -1.3247893  0.046367389   -2.4593818    1.1345926   457933 
  640000   0.94575578   -2.4620739   -2.4620739   -1.3261477  0.057348225   -2.4620739    1.1359262   457905 
  641000   0.94471175   -2.4604109   -2.4604109   -1.3256667  0.055067927   -2.4604109    1.1347441   457876 
  642000   0.94408566   -2.4592313   -2.4592313   -1.3251699  0.056274258   -2.4592313    1.1340614   457848 
  643000    0.9444443   -2.4600207   -2.4600207   -1.3254566  0.052641641   -2.4600207    1.1345641   457819 
  644000   0.94238092     -2.45763     -2.45763    -1.325473  0.055400653     -2.45763    1.1321571   457790 
  645000     0.943676   -2.4591307   -2.4591307   -1.3253484  0.051535645   -2.4591307    1.1337823   457762 
  646000   0.94142419   -2.4563353   -2.4563353   -1.3251868  0.050056409   -2.4563353    1.1311485   457733 
  647000   0.94312289   -2.4590485   -2.4590485   -1.3257897  0.047655031   -2.4590485    1.1332589   457705 
  648000   0.94290586   -2.4569212   -2.4569212   -1.3238513  0.057860387   -2.4569212    1.1330699   457676 
  649000   0.94379214   -2.4580683   -2.4580683    -1.323864  0.047539568   -2.4580683    1.1342043   457648 
  650000   0.94318475   -2.4572661   -2.4572661   -1.3237199  0.044583861   -2.4572661    1.1335462   457619 
  651000   0.94249504   -2.4570595   -2.4570595   -1.3242704  0.039493965   -2.4570595    1.1327891   457590 
  652000   0.94285605   -2.4573895   -2.4573895   -1.3240972  0.045609784   -2.4573895    1.1332923   457562 
  653000    0.9424477   -2.4569058   -2.4569058   -1.3240325  0.053165724   -2.4569058    1.1328733   457533 
  654000   0.94416831   -2.4594968   -2.4594968   -1.3244858  0.055320106   -2.4594968     1.135011   457505 
  655000   0.94406773   -2.4596949   -2.4596949   -1.3247328    0.0470279   -2.4596949     1.134962   457476 
[...]
29837000 0.00032259907            0            0 0.0016169335 5.8252131e-05            0 0.0016169335   109728 
29838000 0.00032234495 1.2736558e-06 1.2736558e-06 0.0016169334 8.3748367e-05 1.2736558e-06 0.0016156598   109728 
29839000 0.00032259905            0            0 0.0016169334 5.7883074e-05            0 0.0016169334   109728 
29840000 0.00032256179 1.8651676e-07 1.8651676e-07 0.0016169331 6.5415711e-05 1.8651676e-07 0.0016167466   109728 
29841000 0.00032259904            0            0 0.0016169333 5.7964164e-05            0 0.0016169333   109728 
29842000 0.00032259904            0            0 0.0016169333 5.7964164e-05            0 0.0016169333   109728 
29843000 0.00032259904            0            0 0.0016169333 5.7964164e-05            0 0.0016169333   109728 
29844000 0.00032249017 5.4564906e-07 5.4564906e-07 0.0016169333 7.1954684e-05 5.4564906e-07 0.0016163877   109728 
29845000 0.00032163175 1.4651304e-06 1.4651304e-06 0.0016135502 0.00019130686 1.4651304e-06 0.0016120851   109728 
29846000 0.00032227789 1.6560333e-06 1.6560333e-06 0.0016169797 9.567545e-05 1.6560333e-06 0.0016153237   109728 
29847000 0.00032190412 3.5407285e-06 3.5407285e-06  0.001616991 0.00011895195 3.5407285e-06 0.0016134502   109728 
29848000 0.00032254396 3.3413754e-07 3.3413754e-07 0.0016169914 6.7857248e-05 3.3413754e-07 0.0016166572   109728 
29849000 0.00032247525 6.785624e-07 6.785624e-07 0.0016169914 7.5571037e-05 6.785624e-07 0.0016163129   109728 
29850000 0.00032203854 2.8677205e-06 2.8677205e-06 0.0016169917 0.00011974219 2.8677205e-06  0.001614124   109728 
29851000 0.00032226826 1.7166216e-06 1.7166216e-06  0.001616992 8.0481927e-05 1.7166216e-06 0.0016152754   109728 
29852000 0.00032261103            0            0 0.0016169934 5.6855527e-05            0 0.0016169934   109728 
29853000 0.00032232565 1.4303613e-06 1.4303613e-06 0.0016169934 8.4122661e-05 1.4303613e-06  0.001615563   109728 
29854000 0.00032174251            0            0 0.0016126402 0.00017334737            0 0.0016126402   109728 
29855000 0.0003225485 3.6319877e-07 3.6319877e-07 0.0016170432 6.4559603e-05 3.6319877e-07   0.00161668   109728 
29856000 0.00032262095            0            0 0.0016170431 5.5785102e-05            0 0.0016170431   109728 
29857000 0.00032262095            0            0 0.0016170431 5.5785102e-05            0 0.0016170431   109728 
29858000 0.00032261658 2.2215866e-08 2.2215866e-08 0.0016170434 5.8472751e-05 2.2215866e-08 0.0016170212   109728 
29859000 0.00032262101            0            0 0.0016170434 5.5867789e-05            0 0.0016170434   109728 
29860000 0.00032125622 6.8403784e-06 6.8403784e-06 0.0016170432 0.00015759642 6.8403784e-06 0.0016102028   109728 
29861000 0.00032254465 3.8264254e-07 3.8264254e-07 0.0016170433 6.1349501e-05 3.8264254e-07 0.0016166607   109728 
29862000 0.00032231314 1.5428228e-06 1.5428228e-06 0.0016170431 7.8189144e-05 1.5428228e-06 0.0016155003   109728 
29863000 0.00032262096            0            0 0.0016170432 5.3886062e-05            0 0.0016170432   109728 
29864000 0.00032102363 8.0058408e-06 8.0058408e-06 0.0016170429 0.00015449031 8.0058408e-06  0.001609037   109728 
29865000 0.00032262096            0            0 0.0016170432 5.3661256e-05            0 0.0016170432   109728 
29866000 0.00032262096            0            0 0.0016170432 5.3661256e-05            0 0.0016170432   109728 
29867000 0.0003223023 1.5972659e-06 1.5972659e-06 0.0016170432 9.3426896e-05 1.5972659e-06  0.001615446   109728 
29868000 0.0003195803 1.5240585e-05 1.5240585e-05 0.0016170433 0.00022224436 1.5240585e-05 0.0016018028   109728 
29869000 0.00032150056 5.6040636e-06 5.6040636e-06 0.0016170315 0.00013543468 5.6040636e-06 0.0016114275   109728 
29870000 0.00032260298 7.8627205e-08 7.8627205e-08 0.0016170317  5.95324e-05 7.8627205e-08 0.0016169531   109728 
29871000 0.00031891206 1.8578211e-05 1.8578211e-05 0.0016170316 0.00023363005 1.8578211e-05 0.0015984534   109728 
29872000 0.00032223526 1.9215178e-06 1.9215178e-06 0.0016170315 8.6139312e-05 1.9215178e-06   0.00161511   109728 
29873000 0.00032240171 1.087257e-06 1.087257e-06 0.0016170315 7.0483201e-05 1.087257e-06 0.0016159443   109728 
29874000 0.00032251235 5.3255891e-07 5.3255891e-07 0.0016170314 6.355744e-05 5.3255891e-07 0.0016164988   109728 
29875000 0.00032232075 1.4930006e-06 1.4930006e-06 0.0016170315 8.5432345e-05 1.4930006e-06 0.0016155385   109728 
29876000 0.00032218079 2.1941945e-06 2.1941945e-06 0.0016170311 8.6668182e-05 2.1941945e-06  0.001614837   109728 
29877000 0.00032261859            0            0 0.0016170313 5.1479508e-05            0 0.0016170313   109728 
29878000 0.00032261859            0            0 0.0016170313 5.1479508e-05            0 0.0016170313   109728 
29879000 0.00032261859            0            0 0.0016170313 5.1485078e-05            0 0.0016170313   109728 
29880000 0.00032261859            0            0 0.0016170313 5.1485078e-05            0 0.0016170313   109728 
29881000 0.00032207092 9.8104414e-07 9.8104414e-07 0.0016152673 0.0001803542 9.8104414e-07 0.0016142862   109728 
29882000 0.00032239423 1.1047831e-06 1.1047831e-06 0.0016170115 7.7491558e-05 1.1047831e-06 0.0016159067   109728 
29883000 0.00032261464            0            0 0.0016170115 5.1408096e-05            0 0.0016170115   109728 
29884000 0.00032261464            0            0 0.0016170115 5.1408096e-05            0 0.0016170115   109728 
29885000 0.00032261237 1.1407704e-08 1.1407704e-08 0.0016170115 5.2968555e-05 1.1407704e-08 0.0016170001   109728 
29886000 0.00032251391 5.0500187e-07 5.0500187e-07 0.0016170116 6.413501e-05 5.0500187e-07 0.0016165066   109728 
29887000  0.000320995 8.1183062e-06 8.1183062e-06 0.0016170118  0.000159697 8.1183062e-06 0.0016088935   109728 
29888000 0.00032015916 1.230812e-05 1.230812e-05 0.0016170122 0.00015507788 1.230812e-05 0.0016047041   109728 
29889000 0.00032259307 1.0825483e-07 1.0825483e-07 0.0016170116 5.7891216e-05 1.0825483e-07 0.0016169034   109728 
29890000 0.0003220157            0            0 0.0016140095 0.00016572234            0 0.0016140095   109728 
29891000 0.00032261273            0            0 0.0016170019 5.2449219e-05            0 0.0016170019   109728 
29892000 0.00032261273            0            0 0.0016170019 5.2449219e-05            0 0.0016170019   109728 
29893000 0.00032022682 1.1958853e-05 1.1958853e-05 0.0016170021 0.0002068199 1.1958853e-05 0.0016050433   109728 
29894000 0.00032241483 9.9168415e-07 9.9168415e-07 0.0016170017 7.479339e-05 9.9168415e-07   0.00161601   109728 
29895000 0.00032233545 1.3644767e-06 1.3644767e-06 0.0016169766 7.8465389e-05 1.3644767e-06 0.0016156122   109728 
29896000 0.00032231036 1.4902987e-06 1.4902987e-06 0.0016169767 8.2565577e-05 1.4902987e-06 0.0016154864   109728 
29897000 0.00032083004 8.9103669e-06 8.9103669e-06 0.0016169771 0.00015922444 8.9103669e-06 0.0016080667   109728 
29898000 0.00031958017 1.5174279e-05 1.5174279e-05 0.0016169764 0.00024351905 1.5174279e-05 0.0016018021   109728 
29899000 0.0003219087 3.5030764e-06 3.5030764e-06 0.0016169763 0.00010897268 3.5030764e-06 0.0016134732   109728 
29900000 0.00032182331 3.9311512e-06 3.9311512e-06 0.0016169763 0.00011981842 3.9311512e-06 0.0016130452   109728 
29901000 0.00032236623 1.2092989e-06 1.2092989e-06 0.0016169757 8.7260808e-05 1.2092989e-06 0.0016157664   109728 
29902000 0.00032200707 3.0097054e-06 3.0097054e-06  0.001616976 0.00010518601 3.0097054e-06 0.0016139663   109728 
29903000 0.00032253778 3.4932411e-07 3.4932411e-07 0.0016169756 6.5268468e-05 3.4932411e-07 0.0016166262   109728 
29904000 0.00032239689 1.0552965e-06 1.0552965e-06 0.0016169754 7.7039824e-05 1.0552965e-06 0.0016159201   109728 
29905000 0.00032245379 7.6991548e-07 7.6991548e-07 0.0016169752 7.8655134e-05 7.6991548e-07 0.0016162053   109728 
29906000 0.00032148686 5.6160754e-06 5.6160754e-06 0.0016169749 0.00013891074 5.6160754e-06 0.0016113588   109728 
29907000 0.00032019867 1.2073076e-05 1.2073076e-05 0.0016169752 0.00019621452 1.2073076e-05 0.0016049022   109728 
29908000 0.00032145981 5.7516578e-06 5.7516578e-06 0.0016169749 0.00013329366 5.7516578e-06 0.0016112232   109728 
29909000 0.00032214237 2.3308815e-06 2.3308815e-06 0.0016169752 9.5189606e-05 2.3308815e-06 0.0016146444   109728 
29910000 0.00032199094 3.0900655e-06 3.0900655e-06 0.0016169755 9.4270876e-05 3.0900655e-06 0.0016138854   109728 
29911000 0.00032071108 2.0198377e-06 2.0198377e-06 0.0016094903 0.00019424913 2.0198377e-06 0.0016074705   109728 
29912000 0.0003222425 1.8608198e-06 1.8608198e-06 0.0016170071 8.7887565e-05 1.8608198e-06 0.0016151463   109728 
29913000   0.00032194  2.87738e-06  2.87738e-06 0.0016165074 0.00020820633  2.87738e-06 0.0016136301   109728 
29914000 0.00032230458 1.5367468e-06 1.5367468e-06 0.0016169942 9.5069422e-05 1.5367468e-06 0.0016154574   109728 
29915000 0.00032259787 6.6628604e-08 6.6628604e-08 0.0016169941 5.9651881e-05 6.6628604e-08 0.0016169274   109728 
29916000 0.00032261116            0            0 0.0016169941 5.5664728e-05            0 0.0016169941   109728 
29917000 0.00031848088 2.0702293e-05 2.0702293e-05 0.0016169945 0.00026060222 2.0702293e-05 0.0015962922   109728 
29918000 0.00032252046 4.5474971e-07 4.5474971e-07 0.0016169942 7.2401797e-05 4.5474971e-07 0.0016165395   109728 
29919000 0.00032204468 2.8402537e-06 2.8402537e-06  0.001616995 0.00011506009 2.8402537e-06 0.0016141548   109728 
29920000 0.00032145563 5.7933979e-06 5.7933979e-06 0.0016169957 0.00013270493 5.7933979e-06 0.0016112023   109728 
29921000 0.00031536567 3.6330192e-05 3.6330192e-05 0.0016170083 0.00038005367 3.6330192e-05 0.0015806781   109728 
29922000 0.00032180709 4.0487078e-06 4.0487078e-06 0.0016170126 0.0001213924 4.0487078e-06 0.0016129639   109728 
29923000 0.00032254088 3.7067507e-07 3.7067507e-07 0.0016170125 6.6365201e-05 3.7067507e-07 0.0016166418   109728 
29924000 0.00031999324 1.3159636e-05 1.3159636e-05 0.0016170321 0.00023330494 1.3159636e-05 0.0016038725   109728 
29925000 0.00032237123            0            0 0.0016157915 0.0001581495            0 0.0016157915   109728 
29926000 0.00032180033 4.1153094e-06 4.1153094e-06 0.0016170453 0.00010445639 4.1153094e-06   0.00161293   109728 
29927000 0.00031885614 1.8872002e-05 1.8872002e-05 0.0016170451 0.00027433146 1.8872002e-05 0.0015981731   109728 
29928000 0.00032227212 1.750401e-06 1.750401e-06 0.0016170451 8.8509165e-05 1.750401e-06 0.0016152947   109728 
29929000 0.00032262134            0            0 0.0016170451 5.5936921e-05            0 0.0016170451   109728 
29930000 0.00032262134            0            0 0.0016170451 5.5936921e-05            0 0.0016170451   109728 
29931000 0.00032262134            0            0 0.0016170451 5.5936921e-05            0 0.0016170451   109728 
29932000 0.00032257251 2.4485598e-07 2.4485598e-07 0.0016170452 6.5053025e-05 2.4485598e-07 0.0016168003   109728 
29933000 0.00032106594 7.7959277e-06 7.7959277e-06  0.001617045 0.00013293741 7.7959277e-06 0.0016092491   109728 
29934000 0.00032072222 9.5183793e-06 9.5183793e-06 0.0016170447 0.0001926185 9.5183793e-06 0.0016075263   109728 
29935000 0.0003226213            0            0 0.0016170449 5.5076021e-05            0 0.0016170449   109728 
29936000 0.0003226213            0            0 0.0016170449 5.5076021e-05            0 0.0016170449   109728 
29937000 0.00031950629 1.5613153e-05 1.5613153e-05 0.0016170449 0.00020681794 1.5613153e-05 0.0016014318   109728 
29938000 0.00032201071 3.0605885e-06 3.0605885e-06  0.001617045 9.7343069e-05 3.0605885e-06 0.0016139845   109728 
29939000 0.00032253345 4.4036129e-07 4.4036129e-07 0.0016170449 6.6950714e-05 4.4036129e-07 0.0016166046   109728 
29940000 0.00032239739 1.1224466e-06 1.1224466e-06  0.001617045 8.5556395e-05 1.1224466e-06 0.0016159226   109728 
29941000 0.00032261586 2.7171528e-08 2.7171528e-08 0.0016170448 5.6554823e-05 2.7171528e-08 0.0016170176   109728 
29942000 0.00032103791 7.9358258e-06 7.9358258e-06 0.0016170445 0.00015889328 7.9358258e-06 0.0016091086   109728 
29943000  0.000322617 2.1441419e-08 2.1441419e-08 0.0016170448 5.6967499e-05 2.1441419e-08 0.0016170233   109728 
29944000 0.00032262126            0            0 0.0016170447 5.4584554e-05            0 0.0016170447   109728 
29945000   0.00032262 6.0514972e-09 6.0514972e-09 0.0016170444 5.5724996e-05 6.0514972e-09 0.0016170384   109728 
29946000 0.00032262057 3.7603216e-09 3.7603216e-09  0.001617045 5.5230341e-05 3.7603216e-09 0.0016170412   109728 
29947000 0.00032225764 1.8228108e-06 1.8228108e-06  0.001617045 8.537874e-05 1.8228108e-06 0.0016152221   109728 
29948000 0.00032165491 4.8434928e-06 4.8434928e-06 0.0016170446 0.00013770052 4.8434928e-06 0.0016122011   109728 
29949000 0.00032262119 1.0336991e-09 1.0336991e-09 0.0016170453 5.5221094e-05 1.0336991e-09 0.0016170443   109728 
29950000 0.00032250541 5.811949e-07 5.811949e-07 0.0016170452 7.3720796e-05 5.811949e-07  0.001616464   109728 
29951000 0.00032262052 4.3821614e-09 4.3821614e-09 0.0016170454 5.6406993e-05 4.3821614e-09  0.001617041   109728 
29952000 0.00032211649 2.5310684e-06 2.5310684e-06 0.0016170457 0.00010407411 2.5310684e-06 0.0016145147   109728 
29953000 0.00032209595 2.6472198e-06 2.6472198e-06 0.0016170589 0.00011729453 2.6472198e-06 0.0016144117   109728 
29954000 0.00032262415            0            0 0.0016170592 5.5980607e-05            0 0.0016170592   109728 
29955000 0.00032173757 4.4437078e-06 4.4437078e-06 0.0016170591 0.00013259967 4.4437078e-06 0.0016126154   109728 
29956000 0.0003206266 1.0012446e-05 1.0012446e-05 0.0016170595 0.00016335744 1.0012446e-05  0.001607047   109728 
29957000 0.00032262422            0            0 0.0016170595 5.6645532e-05            0 0.0016170595   109728 
29958000 0.0003214236 6.0177116e-06 6.0177116e-06 0.0016170595 0.00012771907 6.0177116e-06 0.0016110418   109728 
29959000 0.00032064158 9.9377401e-06 9.9377401e-06 0.0016170598 0.00020411862 9.9377401e-06 0.0016071221   109728 
29960000 0.00032262434            0            0 0.0016170601 5.6514343e-05            0 0.0016170601   109728 
29961000 0.0003206112 1.0090586e-05 1.0090586e-05 0.0016170604 0.00015666439 1.0090586e-05 0.0016069698   109728 
29962000 0.00032180673 4.0985861e-06 4.0985861e-06 0.0016170607 0.00012322943 4.0985861e-06 0.0016129621   109728 
29963000 0.00032145204 5.8760677e-06 5.8760677e-06 0.0016170604 0.00012633228 5.8760677e-06 0.0016111843   109728 
29964000 0.00032262444            0            0 0.0016170606 5.5466201e-05            0 0.0016170606   109728 
29965000 0.00032262444            0            0 0.0016170606 5.5466201e-05            0 0.0016170606   109728 
29966000 0.00032262444            0            0 0.0016170606 5.5465318e-05            0 0.0016170606   109728 
29967000 0.00032262444            0            0 0.0016170606 5.5464163e-05            0 0.0016170606   109728 
29968000 0.00032262447            0            0 0.0016170608 5.5405853e-05            0 0.0016170608   109728 
29969000 0.00032239878 1.1313531e-06 1.1313531e-06 0.0016170609 8.1535593e-05 1.1313531e-06 0.0016159296   109728 
29970000 0.0003226245            0            0 0.0016170609 5.5395568e-05            0 0.0016170609   109728 
29971000 0.00032015546 1.2375265e-05 1.2375265e-05 0.0016170608 0.0002069525 1.2375265e-05 0.0016046856   109728 
29972000 0.00032239476 1.1507187e-06 1.1507187e-06 0.0016170601 8.4322982e-05 1.1507187e-06 0.0016159094   109728 
29973000 0.00032067256 9.7827871e-06 9.7827871e-06 0.0016170602 0.0001876716 9.7827871e-06 0.0016072774   109728 
29974000 0.00032190676 3.5965789e-06 3.5965789e-06   0.00161706 0.00010952531 3.5965789e-06 0.0016134635   109728 
29975000 0.00032262049 1.9001775e-08 1.9001775e-08 0.0016170599 5.7232352e-05 1.9001775e-08 0.0016170408   109728 
29976000 0.00032112483 7.5152879e-06 7.5152879e-06 0.0016170596 0.00019787891 7.5152879e-06 0.0016095443   109728 
29977000 0.00032262425            0            0 0.0016170596 5.4084858e-05            0 0.0016170596   109728 
29978000 0.00032208132 2.721393e-06 2.721393e-06 0.0016170598 9.7836626e-05 2.721393e-06 0.0016143384   109728 
29979000 0.00032241276 1.0604848e-06 1.0604848e-06 0.0016170601 7.2505494e-05 1.0604848e-06 0.0016159996   109728 
29980000 0.00032210272 2.6149105e-06 2.6149105e-06 0.0016170605 0.00010534321 2.6149105e-06 0.0016144456   109728 
29981000 0.00032230436 1.604524e-06 1.604524e-06 0.0016170609 7.8543322e-05 1.604524e-06 0.0016154563   109728 
29982000 0.00032262472            0            0  0.001617062 5.2754559e-05            0  0.001617062   109728 
29983000 0.00032262472            0            0  0.001617062 5.2754559e-05            0  0.001617062   109728 
29984000 0.00032262472            0            0  0.001617062 5.2754559e-05            0  0.001617062   109728 
29985000  0.000321574 5.2665937e-06 5.2665937e-06 0.0016170622 0.00011842479 5.2665937e-06 0.0016117956   109728 
29986000 0.00032251344 5.577934e-07 5.577934e-07 0.0016170621 6.6315153e-05 5.577934e-07 0.0016165043   109728 
29987000 0.00031917707 1.7279805e-05 1.7279805e-05 0.0016170615 0.00023316377 1.7279805e-05 0.0015997817   109728 
29988000 0.00032076628 9.3140427e-06 9.3140427e-06 0.0016170612 0.00017974809 9.3140427e-06 0.0016077471   109728 
29989000 0.00032045834 1.0857585e-05 1.0857585e-05 0.0016170613 0.00020992413 1.0857585e-05 0.0016062037   109728 
29990000 0.00032261088 6.9140642e-08 6.9140642e-08 0.0016170618 5.7362478e-05 6.9140642e-08 0.0016169927   109728 
29991000 0.00032262467            0            0 0.0016170618 5.2932545e-05            0 0.0016170618   109728 
29992000 0.00032140466 6.1154183e-06 6.1154183e-06 0.0016170623 0.00013287508 6.1154183e-06 0.0016109469   109728 
29993000 0.00032262483            0            0 0.0016170626 5.2535072e-05            0 0.0016170626   109728 
29994000 0.00032262483            0            0 0.0016170626 5.2535072e-05            0 0.0016170626   109728 
29995000 0.00032262483            0            0 0.0016170626 5.2535072e-05            0 0.0016170626   109728 
29996000 0.00032259071 1.7104726e-07 1.7104726e-07 0.0016170626 6.1181355e-05 1.7104726e-07 0.0016168916   109728 
29997000 0.00032236986 1.278143e-06 1.278143e-06 0.0016170628 8.8896247e-05 1.278143e-06 0.0016157846   109728 
29998000 0.00032164088 4.9322668e-06 4.9322668e-06 0.0016170631 0.00011143016 4.9322668e-06 0.0016121308   109728 
29999000 0.00032250445 6.0402972e-07 6.0402972e-07 0.0016170632 7.6413296e-05 6.0402972e-07 0.0016164592   109728 
30000000 0.00032235679 1.3436491e-06 1.3436491e-06 0.0016170627 7.8348983e-05 1.3436491e-06 0.0016157191   109728 
Loop time of 24462.9 on 336 procs for 30000000 steps with 109728 atoms

Performance: 529781.077 tau/day, 1226.345 timesteps/s
92.8% CPU use with 336 MPI tasks x 1 OpenMP threads

MPI task timing breakdown:
Section |  min time  |  avg time  |  max time  |%varavg|  %CPU | %total
-----------------------------------------------------------------------
Pair    | 480.79     | 1940.6     | 2504.5     |1084.4 |  94.9 |  7.93
Bond    | 19.431     | 20.06      | 20.81      |   5.6 | 100.0 |  0.08
Neigh   | 1119       | 2589.2     | 3130       | 906.3 |  98.2 | 10.58
Comm    | 7181.8     | 10392      | 13368      |1208.0 |  92.4 | 42.48
Output  | 2430.7     | 2432.9     | 2438.4     |   4.3 |  89.2 |  9.95
Modify  | 5263.4     | 6266.8     | 9460.1     |1308.8 |  92.2 | 25.62
Other   |            | 821.7      |            |       |       |  3.36

Nlocal:        326.571 ave        1302 max           0 min
Histogram: 118 50 51 36 23 19 25 9 1 4
Nghost:        1677.29 ave        3515 max          92 min
Histogram: 10 16 44 62 60 61 46 18 13 6
Neighs:       0.127976 ave          12 max           0 min
Histogram: 327 4 2 0 0 2 0 0 0 1

Total # of neighbors = 43
Ave neighs/atom = 0.00039187810
Ave special neighs/atom = 0.0000000
Neighbor list builds = 2165679
Dangerous builds = 1124071

Total wall time: 6:47:49
