LAMMPS (24 Dec 2020)
OMP_NUM_THREADS environment is not set. Defaulting to 1 thread. (src/comm.cpp:94)
  using 1 OpenMP thread(s) per MPI task
# Simple rigid body system
# needed variables:

#variable	startTemp equal 0.5
#variable 	temp 	  equal 0.8

units		lj
atom_style	full
dimension 	3
boundary	p p f
pair_style	lj/smooth/linear 1.5

variable 	sigma		equal 1.0
variable 	epsilon 	equal 1.0

region		box block 0 80 0 80 0 160
create_box 	3 box
Created orthogonal box = (0.0000000 0.0000000 0.0000000) to (80.000000 80.000000 160.00000)
  6 by 4 by 8 MPI processor grid

lattice 	sc 0.66
Lattice spacing in x,y,z = 1.1485556 1.1485556 1.1485556
region		fluid block EDGE EDGE EDGE EDGE 2 100 units box
create_atoms 	1 region fluid
Created 421400 atoms
  create_atoms CPU = 0.145 seconds

#lattice 	sc 0.045
#region		gas block EDGE EDGE EDGE EDGE 101 158 units box
#create_atoms    1 region gas

group		solvent type 1
421400 atoms in group solvent

mass		1 1.0
mass		2 1.0
mass		3 1.0



neighbor 	0.4 bin

pair_coeff	1 1 1.0 1.0
pair_coeff	2 2 0.0 0.0
pair_coeff	3 3 0.0 0.0
pair_coeff	2 3 0.0 0.0
pair_coeff	1 2*3 0.0 0.0

velocity 	solvent create ${startTemp} 563435 loop geom
velocity 	solvent create .25 563435 loop geom

balance 	1.05 shift z 10 1.05
Balancing ...
Neighbor list info ...
  update every 1 steps, delay 10 steps, check yes
  max neighbors/atom: 2000, page size: 100000
  master list distance cutoff = 1.9
  ghost atom cutoff = 1.9
  binsize = 0.95, bins = 85 85 169
  1 neighbor lists, perpetual/occasional/extra = 1 0 0
  (1) pair lj/smooth/linear, perpetual
      attributes: half, newton on
      pair build: half/bin/newton
      stencil: half/bin/3d/newton
      bin: standard
 rebalancing time: 0.038 seconds
  iteration count = 5
  initial/final maximal load/proc = 3888.0000 2376.0000
  initial/final imbalance factor  = 1.7714665 1.0825629
  x cuts: 0.0000000 0.16666667 0.33333333 0.50000000 0.66666667 0.83333333 1.0000000
  y cuts: 0.0000000 0.25000000 0.50000000 0.75000000 1.0000000
  z cuts: 0.0000000 0.089843750 0.16796875 0.24218750 0.32031250 0.39843750 0.48046875 0.55859375 1.0000000


####################### WALLS ###########################


variable       epsilonWall equal 2*${epsilon}
variable       epsilonWall equal 2*1

variable       cutoffTop   equal   0.7147*${sigma}
variable       cutoffTop   equal   0.7147*1

variable       cutoffLow   equal   3*${sigma}
variable       cutoffLow   equal   3*1


fix            topWall all wall/lj93 zhi EDGE                ${epsilonWall} ${sigma} ${cutoffTop} units box
fix            topWall all wall/lj93 zhi EDGE                2 ${sigma} ${cutoffTop} units box
fix            topWall all wall/lj93 zhi EDGE                2 1 ${cutoffTop} units box
fix            topWall all wall/lj93 zhi EDGE                2 1 0.7147 units box

fix            lowWall all wall/lj93 zlo EDGE                ${epsilonWall} ${sigma} ${cutoffLow} units box
fix            lowWall all wall/lj93 zlo EDGE                2 ${sigma} ${cutoffLow} units box
fix            lowWall all wall/lj93 zlo EDGE                2 1 ${cutoffLow} units box
fix            lowWall all wall/lj93 zlo EDGE                2 1 3 units box


###################### COMPUTES ##########################

compute        bin1 solvent chunk/atom bin/1d z upper 1.0


######################	FIXES ############################


fix 		peclet solvent ave/chunk 10 10 1000 bin1 density/number norm 		 none ave one file density.profile

fix 		 temp solvent ave/chunk 10 10 1000 bin1 temp norm 		 none ave one file temp.profile

fix 		2 solvent nve


## Thermostat


region		regthermo block EDGE EDGE EDGE EDGE EDGE EDGE units box

group 		thermo dynamic solvent region regthermo every 1000
dynamic group thermo defined

fix 		3 thermo langevin ${startTemp} ${temp} 10 156453
fix 		3 thermo langevin .25 ${temp} 10 156453
fix 		3 thermo langevin .25 .25 10 156453



#### Load balancing


fix 		bal all balance 1000 1.05 shift z 10 1.05


############### Diagnostics and computes ###################
#compute 	com cube	  rigid/local	1 mol x y z
#compute 	quat cube	  rigid/local	1 mol quatw quati quatj quatk

thermo 		1000
thermo_style 	custom step temp epair evdwl etotal press pe ke atoms

dump		1 all custom 100000 dump.lammpstrj id mol type x y z
dump 		2 all image 10000 image.*.png type type
dump 		3 all movie 1000 movie.avi type type

#dump 		com cube local 1000 dump.*.xyz c_com[*]
#dump		quat cube      local 1000 dump.*.quat c_quat[*]


restart 	1000000 restart.dat
timestep 	0.005
timer 		full
New timer settings: style=full  mode=nosync  timeout=off

run		10000000
Per MPI rank memory allocation (min/avg/max) = 9.959 | 9.999 | 10.10 Mbytes
Step Temp E_pair E_vdwl TotEng Press PotEng KinEng Atoms 
       0         0.25    2.2548251    2.2548251    2.6298242    5.5266711    2.2548251   0.37499911   421400 
    1000   0.85512569  -0.30352227  -0.30352227   0.97916322     1.579691  -0.30352227    1.2826855   421400 
    2000   0.54341271  -0.47565503  -0.47565503    0.3394621   0.78292066  -0.47565503   0.81511713   421400 
    3000   0.37589139  -0.52225224  -0.52225224  0.041583505   0.42572444  -0.52225224   0.56383574   421400 
    4000   0.30252247  -0.53611658  -0.53611658 -0.082333952   0.30304607  -0.53611658   0.45378263   421400 
    5000   0.27061274  -0.53872075  -0.53872075  -0.13280261   0.24623277  -0.53872075   0.40591815   421400 
    6000   0.25707555  -0.53741445  -0.53741445  -0.15180204   0.21620167  -0.53741445   0.38561242   421400 
    7000   0.25079301  -0.53324447  -0.53324447  -0.15705585   0.20312054  -0.53324447   0.37618862   421400 
    8000   0.24831222  -0.52828619  -0.52828619  -0.15581874   0.19516769  -0.52828619   0.37246745   421400 
    9000   0.24697154  -0.52361644  -0.52361644  -0.15316002   0.19138911  -0.52361644   0.37045643   421400 
   10000   0.24726765  -0.51928443  -0.51928443  -0.14838384   0.18849181  -0.51928443   0.37090059   421400 
   11000   0.24723711   -0.5154592   -0.5154592  -0.14460442   0.18633751   -0.5154592   0.37085478   421400 
   12000    0.2479626    -0.511708    -0.511708  -0.13976498   0.18559084    -0.511708   0.37194302   421400 
   13000   0.24753495  -0.50834449  -0.50834449  -0.13704295   0.18444624  -0.50834449   0.37130155   421400 
   14000    0.2474238  -0.50498892  -0.50498892  -0.13385411   0.18493161  -0.50498892   0.37113481   421400 
   15000   0.24832959  -0.50208127  -0.50208127  -0.12958777    0.1839554  -0.50208127   0.37249351   421400 
   16000   0.24875297  -0.49952763  -0.49952763  -0.12639905   0.18255509  -0.49952763   0.37312857   421400 
   17000   0.24814015  -0.49645207  -0.49645207  -0.12424273   0.18133132  -0.49645207   0.37220934   421400 
   18000   0.24828021  -0.49393322  -0.49393322  -0.12151378   0.17983835  -0.49393322   0.37241944   421400 
   19000   0.24864087  -0.49191875  -0.49191875  -0.11895833   0.17773422  -0.49191875   0.37296042   421400 
   20000   0.24861369  -0.48958986  -0.48958986  -0.11667021    0.1785156  -0.48958986   0.37291964   421400 
   21000   0.24844673  -0.48773421  -0.48773421  -0.11506501   0.17522686  -0.48773421    0.3726692   421400 
   22000   0.24806812  -0.48503631  -0.48503631  -0.11293501   0.17424299  -0.48503631    0.3721013   421400 
   23000    0.2482951    -0.482581    -0.482581  -0.11013923   0.17385194    -0.482581   0.37244176   421400 
   24000   0.24856128  -0.48061392  -0.48061392  -0.10777288     0.174052  -0.48061392   0.37284104   421400 
   25000   0.24828221  -0.47811598  -0.47811598  -0.10569355   0.17192664  -0.47811598   0.37242242   421400 
   26000     0.248256  -0.47620267  -0.47620267  -0.10381956   0.16960734  -0.47620267   0.37238311   421400 
   27000    0.2482555  -0.47464159  -0.47464159  -0.10225923   0.16928127  -0.47464159   0.37238236   421400 
   28000    0.2482382  -0.47173974  -0.47173974 -0.099383334   0.16972354  -0.47173974   0.37235641   421400 
   29000   0.24859797  -0.47060346  -0.47060346 -0.097707389   0.16803254  -0.47060346   0.37289607   421400 
   30000   0.24865952  -0.46866628  -0.46866628 -0.095677893   0.16739129  -0.46866628   0.37298839   421400 
   31000    0.2487206  -0.46698513  -0.46698513 -0.093905113   0.16596968  -0.46698513   0.37308002   421400 
   32000     0.248674  -0.46495242  -0.46495242 -0.091942305   0.16671659  -0.46495242   0.37301012   421400 
   33000   0.24858889  -0.46319507  -0.46319507  -0.09031262   0.16544054  -0.46319507   0.37288245   421400 
   34000   0.24834335  -0.46209047  -0.46209047 -0.089576329   0.16529903  -0.46209047   0.37251414   421400 
   35000   0.24838049  -0.45971803  -0.45971803 -0.087148187   0.16466022  -0.45971803   0.37256984   421400 
   36000   0.24899809   -0.4584321   -0.4584321 -0.084935854   0.16384946   -0.4584321   0.37349624   421400 
   37000   0.24933525  -0.45675342  -0.45675342 -0.082751427    0.1637378  -0.45675342   0.37400199   421400 
   38000   0.24966455  -0.45457966  -0.45457966 -0.080083724   0.16285185  -0.45457966   0.37449593   421400 
   39000   0.24976046   -0.4534941   -0.4534941 -0.078854309   0.16096165   -0.4534941    0.3746398   421400 
   40000   0.24944297  -0.45201127  -0.45201127 -0.077847702    0.1603809  -0.45201127   0.37416357   421400 
   41000   0.24967458  -0.45112718  -0.45112718 -0.076616203   0.16073548  -0.45112718   0.37451097   421400 
   42000    0.2488231  -0.44927839  -0.44927839 -0.076044633   0.15965206  -0.44927839   0.37323376   421400 
   43000   0.24861315  -0.44805551  -0.44805551 -0.075136671   0.15757962  -0.44805551   0.37291884   421400 
   44000   0.24943853  -0.44664918  -0.44664918  -0.07249227     0.159671  -0.44664918   0.37415691   421400 
   45000   0.24904536  -0.44577236  -0.44577236 -0.072205206   0.15832012  -0.44577236   0.37356716   421400 
   46000   0.24937761  -0.44386934  -0.44386934 -0.069803814    0.1580838  -0.44386934   0.37406553   421400 
   47000    0.2494079  -0.44297871  -0.44297871 -0.068867741   0.15577573  -0.44297871   0.37411097   421400 
   48000   0.24920037  -0.44130686  -0.44130686 -0.067507189   0.15599016  -0.44130686   0.37379967   421400 
   49000   0.24914126  -0.44035109  -0.44035109 -0.066640084   0.15525349  -0.44035109     0.373711   421400 
   50000    0.2487036   -0.4393827   -0.4393827  -0.06632819   0.15534988   -0.4393827   0.37305451   421400 
   51000    0.2492596  -0.43821046  -0.43821046 -0.064321953   0.15486887  -0.43821046   0.37388851   421400 
   52000   0.24918006  -0.43704669  -0.43704669 -0.063277495   0.15425119  -0.43704669    0.3737692   421400 
   53000   0.24954655  -0.43595319  -0.43595319 -0.061634262   0.15323816  -0.43595319   0.37431893   421400 
   54000   0.24951522  -0.43490507  -0.43490507  -0.06063314   0.15398915  -0.43490507   0.37427193   421400 
   55000   0.24967177  -0.43381271  -0.43381271 -0.059305944   0.15396469  -0.43381271   0.37450676   421400 
   56000   0.24931979  -0.43288558  -0.43288558  -0.05890679   0.15322999  -0.43288558   0.37397879   421400 
   57000   0.24912325   -0.4313573   -0.4313573 -0.057673317   0.15267914   -0.4313573   0.37368398   421400 
   58000   0.24972476  -0.43082525  -0.43082525  -0.05623899   0.15169665  -0.43082525   0.37458626   421400 
   59000    0.2494502  -0.42989496  -0.42989496 -0.055720544   0.15202956  -0.42989496   0.37417441   421400 
   60000   0.24962951  -0.42898064  -0.42898064 -0.054537262   0.15076648  -0.42898064   0.37444338   421400 
   61000   0.24951522  -0.42818701  -0.42818701 -0.053915069   0.15140718  -0.42818701   0.37427195   421400 
   62000   0.24928594  -0.42737649  -0.42737649 -0.053448468   0.14965436  -0.42737649   0.37392802   421400 
   63000   0.24939112   -0.4272808   -0.4272808 -0.053195005   0.15000449   -0.4272808    0.3740858   421400 
   64000   0.24935529  -0.42584483  -0.42584483  -0.05181278   0.14900081  -0.42584483   0.37403205   421400 
   65000   0.24925248  -0.42499721  -0.42499721 -0.051119379   0.14863362  -0.42499721   0.37387783   421400 
   66000   0.24955045  -0.42401051  -0.42401051 -0.049685716   0.14924268  -0.42401051   0.37432479   421400 
   67000   0.24994969  -0.42323039  -0.42323039 -0.048306735   0.14769317  -0.42323039   0.37492365   421400 
   68000   0.24922002  -0.42290666  -0.42290666 -0.049077516   0.14642648  -0.42290666   0.37382915   421400 
   69000   0.24931216  -0.42194322  -0.42194322 -0.047975866   0.14739469  -0.42194322   0.37396735   421400 
   70000   0.24936977  -0.42119515  -0.42119515 -0.047141387   0.14761159  -0.42119515   0.37405376   421400 
   71000    0.2497371  -0.42074531  -0.42074531 -0.046140543   0.14826216  -0.42074531   0.37460476   421400 
   72000   0.24935982  -0.42031797  -0.42031797 -0.046279133   0.14654252  -0.42031797   0.37403884   421400 
   73000   0.24940494  -0.41916858  -0.41916858 -0.045062054   0.14813474  -0.41916858   0.37410652   421400 
   74000   0.24897086  -0.41865004  -0.41865004 -0.045194632   0.14550348  -0.41865004   0.37345541   421400 
   75000   0.24926903  -0.41841973  -0.41841973  -0.04451708   0.14514856  -0.41841973   0.37390265   421400 
   76000   0.24992875  -0.41771649  -0.41771649 -0.042824252   0.14601564  -0.41771649   0.37489224   421400 
   77000   0.24965349  -0.41717811  -0.41717811 -0.042698763   0.14434182  -0.41717811   0.37447935   421400 
   78000   0.24957351  -0.41585827  -0.41585827 -0.041498891   0.14585679  -0.41585827   0.37435938   421400 
   79000   0.24982263  -0.41545291  -0.41545291 -0.040719858   0.14489662  -0.41545291   0.37473305   421400 
   80000   0.24971671  -0.41473869  -0.41473869 -0.040164512   0.14433957  -0.41473869   0.37457418   421400 
   81000   0.24938298  -0.41398322  -0.41398322 -0.039909637   0.14552955  -0.41398322   0.37407358   421400 
   82000   0.24969471  -0.41401152  -0.41401152 -0.039470337   0.14555552  -0.41401152   0.37454118   421400 
   83000   0.24993326  -0.41369775  -0.41369775  -0.03879876   0.14368451  -0.41369775   0.37489899   421400 
   84000   0.24968165  -0.41319798  -0.41319798  -0.03867639   0.14358899  -0.41319798   0.37452159   421400 
   85000   0.24998443  -0.41221904  -0.41221904 -0.037243284   0.14450072  -0.41221904   0.37497576   421400 
   86000    0.2498456  -0.41215141  -0.41215141 -0.037383897   0.14332829  -0.41215141   0.37476751   421400 
   87000   0.24947854  -0.41155462  -0.41155462 -0.037337696   0.14322768  -0.41155462   0.37421692   421400 
   88000   0.24996311  -0.41146029  -0.41146029 -0.036516523   0.14368392  -0.41146029   0.37494377   421400 
   89000   0.25033197  -0.41052431  -0.41052431 -0.035027249   0.14389852  -0.41052431   0.37549707   421400 
   90000   0.24968095  -0.40996802  -0.40996802 -0.035447487   0.14286666  -0.40996802   0.37452054   421400 
   91000    0.2500369  -0.41040517  -0.41040517 -0.035350704   0.14214694  -0.41040517   0.37505447   421400 
   92000   0.24950308  -0.40990743  -0.40990743 -0.035653709   0.14155084  -0.40990743   0.37425372   421400 
   93000   0.24872273  -0.40938046  -0.40938046  -0.03629725   0.14230795  -0.40938046   0.37308321   421400 
   94000   0.24961457  -0.40860381  -0.40860381 -0.034182847   0.14067425  -0.40860381   0.37442096   421400 
   95000   0.24940459  -0.40864224  -0.40864224 -0.034536242   0.14260069  -0.40864224     0.374106   421400 
   96000   0.24980214   -0.4082443   -0.4082443 -0.033541981   0.14229175   -0.4082443   0.37470232   421400 
   97000   0.24980995   -0.4076566   -0.4076566 -0.032942569   0.14111532   -0.4076566   0.37471404   421400 
   98000   0.25008038  -0.40713769  -0.40713769 -0.032018007   0.14291717  -0.40713769   0.37511969   421400 
   99000    0.2497382  -0.40674541  -0.40674541 -0.032138994    0.1414224  -0.40674541   0.37460642   421400 
  100000   0.25010846  -0.40636882  -0.40636882  -0.03120702   0.14152514  -0.40636882    0.3751618   421400 
  101000   0.25009109  -0.40574789  -0.40574789  -0.03061215   0.13999943  -0.40574789   0.37513574   421400 
  102000   0.24997306  -0.40592309  -0.40592309 -0.030964382   0.14186395  -0.40592309   0.37495871   421400 
  103000   0.24986777  -0.40533838  -0.40533838 -0.030537616   0.14060876  -0.40533838   0.37480076   421400 
  104000   0.25034376  -0.40555362  -0.40555362 -0.030038862   0.13952493  -0.40555362   0.37551475   421400 
  105000   0.25039067  -0.40470928  -0.40470928 -0.029124165   0.13944365  -0.40470928   0.37558511   421400 
  106000    0.2499041  -0.40420529  -0.40420529 -0.029350025   0.14102345  -0.40420529   0.37485526   421400 
  107000    0.2500411  -0.40403715  -0.40403715 -0.028976382    0.1385151  -0.40403715   0.37506077   421400 
  108000   0.24998469  -0.40362354  -0.40362354 -0.028647387   0.14135738  -0.40362354   0.37497615   421400 
  109000   0.25029673  -0.40339198  -0.40339198 -0.027947776    0.1399753  -0.40339198   0.37544421   421400 
  110000   0.25017047  -0.40298703  -0.40298703 -0.027732216   0.13951781  -0.40298703   0.37525481   421400 
  111000   0.24973233  -0.40269395  -0.40269395 -0.028096336   0.13929199  -0.40269395   0.37459761   421400 
  112000   0.24978595  -0.40234151  -0.40234151 -0.027663474   0.13937083  -0.40234151   0.37467803   421400 
  113000   0.24966461  -0.40244931  -0.40244931 -0.027953282   0.13930144  -0.40244931   0.37449602   421400 
  114000   0.24938968  -0.40178824  -0.40178824 -0.027704608   0.14038981  -0.40178824   0.37408364   421400 
  115000   0.24968024  -0.40159024  -0.40159024 -0.027070774   0.13818755  -0.40159024   0.37451947   421400 
  116000   0.24973584   -0.4018278   -0.4018278  -0.02722493   0.13812901   -0.4018278   0.37460287   421400 
  117000   0.24941353  -0.40118758  -0.40118758 -0.027068172    0.1388189  -0.40118758   0.37411941   421400 
  118000   0.25034856  -0.40122901  -0.40122901 -0.025707059   0.13947065  -0.40122901   0.37552195   421400 
  119000   0.25027938  -0.40101825  -0.40101825 -0.025600071   0.13885658  -0.40101825   0.37541818   421400 
  120000   0.25017698  -0.40125319  -0.40125319 -0.025988601   0.13896645  -0.40125319   0.37526459   421400 
  121000   0.25023885  -0.40090227  -0.40090227  -0.02554489   0.13775183  -0.40090227   0.37535738   421400 
  122000   0.24994664  -0.40054197  -0.40054197 -0.025622901   0.13812009  -0.40054197   0.37491907   421400 
  123000    0.2496509  -0.40059888  -0.40059888 -0.026123419   0.13650866  -0.40059888   0.37447546   421400 
  124000   0.24984962  -0.39994416  -0.39994416 -0.025170625   0.13856783  -0.39994416   0.37477354   421400 
  125000   0.24986926  -0.39965836  -0.39965836 -0.024855358   0.13856632  -0.39965836     0.374803   421400 
  126000   0.24972048  -0.39934663  -0.39934663 -0.024766798   0.13653044  -0.39934663   0.37457983   421400 
  127000   0.25021621  -0.39940737  -0.39940737 -0.024083953   0.13682105  -0.39940737   0.37532342   421400 
  128000   0.25043834  -0.39926902  -0.39926902 -0.023612403   0.13875751  -0.39926902   0.37565661   421400 
  129000   0.25041831  -0.39889859  -0.39889859 -0.023272015    0.1385861  -0.39889859   0.37562657   421400 
  130000   0.25013066  -0.39906185  -0.39906185 -0.023866749   0.13865962  -0.39906185    0.3751951   421400 
  131000   0.24997184  -0.39909787  -0.39909787 -0.024140994   0.13783025  -0.39909787   0.37495687   421400 
  132000   0.25000016  -0.39842082  -0.39842082 -0.023421468    0.1379225  -0.39842082   0.37499935   421400 
  133000   0.25013676   -0.3981031   -0.3981031 -0.022898851   0.13838764   -0.3981031   0.37520425   421400 
  134000   0.25019009  -0.39789238  -0.39789238 -0.022608136   0.13819415  -0.39789238   0.37528424   421400 
  135000    0.2500304  -0.39743473  -0.39743473 -0.022390025   0.13836422  -0.39743473   0.37504471   421400 
  136000   0.24985652  -0.39737537  -0.39737537 -0.022591486   0.13678273  -0.39737537   0.37478388   421400 
  137000   0.25017319  -0.39745073  -0.39745073  -0.02219183   0.13643579  -0.39745073    0.3752589   421400 
  138000   0.24944767  -0.39713285  -0.39713285 -0.022962232   0.13895846  -0.39713285   0.37417062   421400 
  139000   0.24984184  -0.39779656  -0.39779656 -0.023034682    0.1364065  -0.39779656   0.37476187   421400 
  140000   0.25041271  -0.39758263  -0.39758263  -0.02196446   0.13615473  -0.39758263   0.37561817   421400 
  141000    0.2501336  -0.39683802  -0.39683802 -0.021638507   0.13799764  -0.39683802   0.37519951   421400 
  142000   0.24982853  -0.39695501  -0.39695501 -0.022213097   0.13576827  -0.39695501   0.37474191   421400 
  143000   0.24984473  -0.39628002  -0.39628002 -0.021513814   0.13608222  -0.39628002   0.37476621   421400 
  144000   0.24998668  -0.39618026  -0.39618026 -0.021201136   0.13661921  -0.39618026   0.37497912   421400 
  145000   0.25010981  -0.39671283  -0.39671283 -0.021549006    0.1357243  -0.39671283   0.37516382   421400 
  146000    0.2497934  -0.39679771  -0.39679771   -0.0221085   0.13706913  -0.39679771   0.37468921   421400 
  147000   0.24982624  -0.39659767  -0.39659767   -0.0218592   0.13631307  -0.39659767   0.37473847   421400 
  148000   0.25058119  -0.39660902  -0.39660902 -0.020738129   0.13314679  -0.39660902   0.37587089   421400 
  149000   0.24988733   -0.3964197   -0.3964197 -0.021589587   0.13648555   -0.3964197   0.37483011   421400 
  150000   0.24969845  -0.39582349  -0.39582349 -0.021276712   0.13463199  -0.39582349   0.37454678   421400 
  151000   0.24990574  -0.39568538  -0.39568538  -0.02082765   0.13530422  -0.39568538   0.37485773   421400 
  152000   0.24981038   -0.3960614   -0.3960614 -0.021346729   0.13741294   -0.3960614   0.37471468   421400 
  153000   0.24969452  -0.39611673  -0.39611673 -0.021575834   0.13596032  -0.39611673   0.37454089   421400 
  154000   0.24993103  -0.39652512  -0.39652512  -0.02162947   0.13460892  -0.39652512   0.37489565   421400 
  155000    0.2497824  -0.39546534  -0.39546534 -0.020792628   0.13528474  -0.39546534   0.37467271   421400 
  156000   0.24999725  -0.39501781  -0.39501781 -0.020022829   0.13608352  -0.39501781   0.37499498   421400 
  157000   0.25005305  -0.39570011  -0.39570011 -0.020621423   0.13568232  -0.39570011   0.37507868   421400 
  158000   0.24991108  -0.39558431  -0.39558431 -0.020718584   0.13615691  -0.39558431   0.37486572   421400 
  159000    0.2497483  -0.39538631  -0.39538631 -0.020764738   0.13348116  -0.39538631   0.37462157   421400 
  160000   0.24974728  -0.39505172  -0.39505172  -0.02043169    0.1340085  -0.39505172   0.37462003   421400 
  161000    0.2499495  -0.39442854  -0.39442854 -0.019505182   0.13599912  -0.39442854   0.37492336   421400 
  162000   0.24953401  -0.39535261  -0.39535261 -0.021052481   0.13478856  -0.39535261   0.37430013   421400 
  163000   0.24965335  -0.39470637  -0.39470637 -0.020227227   0.13701459  -0.39470637   0.37447914   421400 
  164000   0.24973721  -0.39456908  -0.39456908  -0.01996415   0.13523504  -0.39456908   0.37460493   421400 
  165000   0.24916048  -0.39498621  -0.39498621 -0.021246381   0.13690714  -0.39498621   0.37373983   421400 
  166000   0.25008136  -0.39469703  -0.39469703 -0.019575876    0.1355353  -0.39469703   0.37512116   421400 
  167000   0.25000415  -0.39459044  -0.39459044 -0.019585107    0.1357215  -0.39459044   0.37500534   421400 
  168000   0.25003331  -0.39420472  -0.39420472 -0.019155647   0.13436772  -0.39420472   0.37504908   421400 
  169000   0.25000995  -0.39403371  -0.39403371 -0.019019675   0.13503324  -0.39403371   0.37501404   421400 
  170000   0.24957956  -0.39383791  -0.39383791 -0.019469462   0.13620165  -0.39383791   0.37436845   421400 
  171000   0.25018145  -0.39406125  -0.39406125  -0.01878997   0.13612471  -0.39406125   0.37527128   421400 
  172000    0.2500547  -0.39374966  -0.39374966   -0.0186685   0.13612439  -0.39374966   0.37508116   421400 
  173000   0.25029547  -0.39365532  -0.39365532 -0.018212996    0.1355566  -0.39365532   0.37544232   421400 
  174000   0.25016925  -0.39400224  -0.39400224 -0.018749257   0.13498714  -0.39400224   0.37525298   421400 
  175000   0.25003584  -0.39389411  -0.39389411 -0.018841235   0.13506388  -0.39389411   0.37505287   421400 
  176000   0.25002792  -0.39416705  -0.39416705 -0.019126066   0.13511216  -0.39416705   0.37504099   421400 
  177000   0.24979354  -0.39359983  -0.39359983 -0.018910399    0.1348201  -0.39359983   0.37468943   421400 
  178000   0.25048187  -0.39365736  -0.39365736 -0.017935444   0.13564983  -0.39365736   0.37572191   421400 
  179000    0.2502081  -0.39395389  -0.39395389 -0.018642627   0.13502028  -0.39395389   0.37531126   421400 
  180000   0.25006127  -0.39336425  -0.39336425 -0.018273242   0.13564389  -0.39336425   0.37509101   421400 
  181000   0.24988832  -0.39370338  -0.39370338 -0.018871785   0.13492792  -0.39370338    0.3748316   421400 
  182000   0.24951118  -0.39367255  -0.39367255 -0.019406673   0.13487955  -0.39367255   0.37426587   421400 
  183000   0.24962252  -0.39376892  -0.39376892 -0.019336025   0.13283718  -0.39376892   0.37443289   421400 
  184000   0.24999841  -0.39376083  -0.39376083 -0.018764102   0.13426092  -0.39376083   0.37499673   421400 
  185000   0.24990503   -0.3931163   -0.3931163 -0.018259651   0.13560548   -0.3931163   0.37485665   421400 
  186000   0.25007866  -0.39334974  -0.39334974 -0.018232633    0.1343899  -0.39334974   0.37511711   421400 
  187000   0.24907483  -0.39261601  -0.39261601  -0.01900466   0.13360375  -0.39261601   0.37361135   421400 
  188000   0.25000893  -0.39349086  -0.39349086 -0.018478353   0.13363513  -0.39349086   0.37501251   421400 
  189000   0.24974567  -0.39333157  -0.39333157 -0.018713958   0.13507709  -0.39333157   0.37461761   421400 
  190000   0.25037145  -0.39341074  -0.39341074 -0.017854459   0.13539888  -0.39341074   0.37555628   421400 
  191000   0.25019142  -0.39241732  -0.39241732 -0.017131085   0.13680503  -0.39241732   0.37528624   421400 
  192000    0.2501027  -0.39299229  -0.39299229 -0.017839127   0.13266884  -0.39299229   0.37515316   421400 
  193000   0.24994648  -0.39324843  -0.39324843 -0.018329604   0.13419482  -0.39324843   0.37491883   421400 
  194000   0.25024962   -0.3933098   -0.3933098 -0.017936257   0.13517019   -0.3933098   0.37537354   421400 
  195000   0.24973311  -0.39312176  -0.39312176 -0.018522986     0.134535  -0.39312176   0.37459877   421400 
  196000   0.25018293  -0.39271462  -0.39271462  -0.01744111   0.13445461  -0.39271462   0.37527351   421400 
  197000   0.24979531  -0.39239839  -0.39239839 -0.017706307   0.13517637  -0.39239839   0.37469208   421400 
  198000   0.25007772  -0.39259331  -0.39259331 -0.017477616   0.13492075  -0.39259331   0.37511569   421400 
  199000   0.25030987  -0.39276171  -0.39276171 -0.017297794   0.13574875  -0.39276171   0.37546392   421400 
  200000   0.24985842   -0.3924883   -0.3924883 -0.017701558   0.13615748   -0.3924883   0.37478674   421400 
  201000   0.24996183  -0.39264093  -0.39264093 -0.017699074   0.13435478  -0.39264093   0.37494185   421400 
  202000   0.25013457   -0.3927659   -0.3927659 -0.017564936   0.13351462   -0.3927659   0.37520096   421400 
  203000   0.24997717   -0.3929248   -0.3929248 -0.017959934   0.13348005   -0.3929248   0.37496486   421400 
  204000   0.24967519  -0.39207322  -0.39207322 -0.017561323   0.13387205  -0.39207322   0.37451189   421400 
  205000   0.25005549  -0.39209147  -0.39209147 -0.017009129   0.13612804  -0.39209147   0.37508234   421400 
  206000   0.24992894  -0.39286591  -0.39286591 -0.017973399   0.13474884  -0.39286591   0.37489252   421400 
  207000   0.25042494  -0.39225098  -0.39225098  -0.01661446   0.13427877  -0.39225098   0.37563652   421400 
  208000    0.2499172  -0.39277842  -0.39277842 -0.017903502   0.13264549  -0.39277842   0.37487491   421400 
  209000      0.25037  -0.39217497  -0.39217497 -0.016620865   0.13329404  -0.39217497    0.3755541   421400 
  210000   0.25030465  -0.39277222  -0.39277222 -0.017316126   0.13486722  -0.39277222   0.37545609   421400 
  211000   0.24969521  -0.39265527  -0.39265527 -0.018113349   0.13468596  -0.39265527   0.37454192   421400 
  212000   0.24998796  -0.39255559  -0.39255559 -0.017574539   0.13322255  -0.39255559   0.37498105   421400 
  213000   0.25002041  -0.39225394  -0.39225394 -0.017224214   0.13441115  -0.39225394   0.37502972   421400 
  214000   0.24969571   -0.3921036   -0.3921036 -0.017560934    0.1350683   -0.3921036   0.37454267   421400 
  215000   0.24993636  -0.39208798  -0.39208798 -0.017184331   0.13349983  -0.39208798   0.37490365   421400 
  216000   0.24937706  -0.39186665  -0.39186665 -0.017801949   0.13398632  -0.39186665    0.3740647   421400 
  217000   0.24995268  -0.39245902  -0.39245902 -0.017530894   0.13399094  -0.39245902   0.37492813   421400 
  218000   0.24980297  -0.39208011  -0.39208011 -0.017376533   0.13513016  -0.39208011   0.37470357   421400 
  219000   0.25024508  -0.39245543  -0.39245543 -0.017088701    0.1336111  -0.39245543   0.37536673   421400 
  220000   0.25024243  -0.39180789  -0.39180789 -0.016445135   0.13489279  -0.39180789   0.37536276   421400 
  221000   0.24981093  -0.39205827  -0.39205827 -0.017342762    0.1345319  -0.39205827    0.3747155   421400 
  222000   0.24939759  -0.39240561  -0.39240561 -0.018310111   0.13435513  -0.39240561    0.3740955   421400 
  223000   0.24965928  -0.39241791  -0.39241791 -0.017929876   0.13347956  -0.39241791   0.37448803   421400 
  224000   0.25002084  -0.39190641  -0.39190641 -0.016876043   0.13225026  -0.39190641   0.37503037   421400 
  225000   0.25013054  -0.39206234  -0.39206234 -0.016867425   0.13321687  -0.39206234   0.37519492   421400 
  226000   0.24997693  -0.39231814  -0.39231814 -0.017353636   0.13460974  -0.39231814   0.37496451   421400 
  227000   0.25018735  -0.39224033  -0.39224033 -0.016960192   0.13398745  -0.39224033   0.37528014   421400 
  228000   0.24984062  -0.39132229  -0.39132229 -0.016562246   0.13629652  -0.39132229   0.37476005   421400 
  229000   0.24978162  -0.39178623  -0.39178623 -0.017114687   0.13566902  -0.39178623   0.37467154   421400 
  230000   0.25021656  -0.39188361  -0.39188361 -0.016559654   0.13369572  -0.39188361   0.37532395   421400 
  231000    0.2502314  -0.39180631  -0.39180631   -0.0164601   0.13363863  -0.39180631   0.37534621   421400 
  232000   0.25001964  -0.39134611  -0.39134611  -0.01631755   0.13164839  -0.39134611   0.37502856   421400 
  233000   0.25078833  -0.39126299  -0.39126299 -0.015081394   0.13463755  -0.39126299    0.3761816   421400 
  234000   0.25030897  -0.39132797  -0.39132797  -0.01586541   0.13324407  -0.39132797   0.37546256   421400 
  235000   0.25054511  -0.39126132  -0.39126132 -0.015444545   0.13372244  -0.39126132   0.37581677   421400 
  236000   0.24963815   -0.3915144   -0.3915144 -0.017058068   0.13398381   -0.3915144   0.37445633   421400 
  237000    0.2502148  -0.39143563  -0.39143563 -0.016114322   0.13433309  -0.39143563   0.37532131   421400 
  238000   0.24982316  -0.39159288  -0.39159288 -0.016859031   0.13309128  -0.39159288   0.37473385   421400 
  239000    0.2496479  -0.39194236  -0.39194236 -0.017471398   0.13444855  -0.39194236   0.37447096   421400 
  240000   0.24998878  -0.39184727  -0.39184727 -0.016864992   0.13488384  -0.39184727   0.37498228   421400 
  241000   0.24999525  -0.39187478  -0.39187478 -0.016882787   0.13365618  -0.39187478   0.37499199   421400 
  242000   0.25044297  -0.39237037  -0.39237037  -0.01670681   0.13357571  -0.39237037   0.37566356   421400 
  243000   0.24983307  -0.39199849  -0.39199849  -0.01724978   0.13371644  -0.39199849   0.37474871   421400 
  244000    0.2499457  -0.39144226  -0.39144226 -0.016524599   0.13398616  -0.39144226   0.37491766   421400 
  245000   0.25017641  -0.39159546  -0.39159546 -0.016331736   0.13288464  -0.39159546   0.37526373   421400 
  246000   0.24985679  -0.39155422  -0.39155422 -0.016769936    0.1330458  -0.39155422   0.37478429   421400 
  247000   0.25021628  -0.39172382  -0.39172382 -0.016400282   0.13406934  -0.39172382   0.37532353   421400 
  248000   0.24959641  -0.39150854  -0.39150854 -0.017114817   0.13283975  -0.39150854   0.37439373   421400 
  249000   0.25013308  -0.39137143  -0.39137143 -0.016172699    0.1338008  -0.39137143   0.37519873   421400 
  250000   0.25006257  -0.39131459  -0.39131459 -0.016221636   0.13523775  -0.39131459   0.37509296   421400 
  251000   0.25015523  -0.39177423  -0.39177423 -0.016542276   0.13256818  -0.39177423   0.37523195   421400 
  252000     0.250699  -0.39125617  -0.39125617 -0.015208566   0.13421721  -0.39125617   0.37604761   421400 
  253000   0.25025291  -0.39134241  -0.39134241 -0.015963928   0.13250218  -0.39134241   0.37537848   421400 
  254000   0.25070731  -0.39129118  -0.39129118 -0.015231112   0.13322687  -0.39129118   0.37606007   421400 
  255000   0.25032683  -0.39143783  -0.39143783 -0.015948466   0.13436853  -0.39143783   0.37548936   421400 
  256000   0.25009465  -0.39136371  -0.39136371 -0.016222632   0.13386564  -0.39136371   0.37514108   421400 
  257000   0.25019159  -0.39162679  -0.39162679 -0.016340297   0.13312923  -0.39162679   0.37528649   421400 
  258000     0.249536  -0.39113384  -0.39113384 -0.016830728    0.1335003  -0.39113384   0.37430311   421400 
  259000   0.24975931  -0.39121525  -0.39121525 -0.016577172   0.13440064  -0.39121525   0.37463808   421400 
  260000   0.25043816   -0.3917028   -0.3917028 -0.016046447   0.13346755   -0.3917028   0.37565635   421400 
  261000    0.2500558  -0.39104777  -0.39104777  -0.01596495   0.13464857  -0.39104777   0.37508282   421400 
  262000    0.2504924  -0.39129955  -0.39129955 -0.015561836   0.13298727  -0.39129955   0.37573771   421400 
  263000   0.24985151  -0.39102442  -0.39102442 -0.016248048   0.13385987  -0.39102442   0.37477637   421400 
  264000   0.24940006  -0.39091532  -0.39091532 -0.016816118   0.13507537  -0.39091532    0.3740992   421400 
  265000   0.24963482  -0.39180509  -0.39180509 -0.017353744   0.13290786  -0.39180509   0.37445134   421400 
  266000   0.24985366  -0.39136677  -0.39136677 -0.016587172   0.13423101  -0.39136677    0.3747796   421400 
  267000   0.25035306  -0.39138026  -0.39138026 -0.015851566   0.13278927  -0.39138026    0.3755287   421400 
  268000   0.24994049  -0.39120588  -0.39120588 -0.016296027   0.13411326  -0.39120588   0.37490985   421400 
  269000   0.24983929  -0.39114275  -0.39114275 -0.016384707   0.13415314  -0.39114275   0.37475804   421400 
  270000   0.24994835  -0.39092075  -0.39092075 -0.015999121   0.13390584  -0.39092075   0.37492163   421400 
  271000   0.24990969  -0.39097609  -0.39097609 -0.016112435   0.13319076  -0.39097609   0.37486365   421400 
  272000   0.24987616  -0.39112911  -0.39112911 -0.016315752   0.13303627  -0.39112911   0.37481336   421400 
  273000   0.24926987  -0.39137576  -0.39137576 -0.017471843   0.13269958  -0.39137576   0.37390392   421400 
  274000   0.24967499  -0.39125447  -0.39125447 -0.016742878   0.13312313  -0.39125447   0.37451159   421400 
  275000   0.25009509  -0.39150736  -0.39150736 -0.016365617   0.13283807  -0.39150736   0.37514175   421400 
  276000   0.25006143   -0.3918919   -0.3918919 -0.016800653   0.13207779   -0.3918919   0.37509125   421400 
  277000   0.24964692  -0.39096568  -0.39096568 -0.016496183   0.13460891  -0.39096568    0.3744695   421400 
  278000   0.24994001  -0.39146898  -0.39146898  -0.01655986   0.13490001  -0.39146898   0.37490912   421400 
  279000   0.24974435  -0.39143242  -0.39143242 -0.016816787   0.13250115  -0.39143242   0.37461563   421400 
  280000     0.250064  -0.39129144  -0.39129144 -0.016196338   0.13476305  -0.39129144   0.37509511   421400 
  281000   0.25005433  -0.39137287  -0.39137287 -0.016292265   0.13186142  -0.39137287   0.37508061   421400 
  282000   0.24967599  -0.39123111  -0.39123111 -0.016718011   0.13214604  -0.39123111   0.37451309   421400 
  283000   0.25025155  -0.39155175  -0.39155175 -0.016175317   0.13355533  -0.39155175   0.37537643   421400 
  284000   0.25030965  -0.39202757  -0.39202757 -0.016563993   0.13183379  -0.39202757   0.37546358   421400 
  285000   0.24987903  -0.39145397  -0.39145397 -0.016636321   0.13328352  -0.39145397   0.37481765   421400 
  286000   0.24994526  -0.39125391  -0.39125391 -0.016336921   0.13248043  -0.39125391   0.37491699   421400 
  287000   0.25002086  -0.39163177  -0.39163177  -0.01660137   0.13333146  -0.39163177    0.3750304   421400 
  288000    0.2503752   -0.3905802   -0.3905802 -0.015018295    0.1337019   -0.3905802   0.37556191   421400 
  289000   0.25038948  -0.39090633  -0.39090633 -0.015323001   0.13473218  -0.39090633   0.37558333   421400 
  290000   0.24966934  -0.39095149  -0.39095149 -0.016448363   0.13388487  -0.39095149   0.37450313   421400 
  291000   0.25021555  -0.39100618  -0.39100618  -0.01568375   0.13471111  -0.39100618   0.37532243   421400 
  292000   0.24983332  -0.39125684  -0.39125684 -0.016507751   0.13578365  -0.39125684   0.37474909   421400 
  293000   0.25014488  -0.39096076  -0.39096076 -0.015744327   0.13301287  -0.39096076   0.37521643   421400 
  294000   0.25008305  -0.39086223  -0.39086223 -0.015738546   0.13342869  -0.39086223   0.37512369   421400 
  295000   0.25017292  -0.39116052  -0.39116052 -0.015902031   0.13220285  -0.39116052   0.37525849   421400 
  296000   0.24970361  -0.39105365  -0.39105365  -0.01649912   0.13426385  -0.39105365   0.37455453   421400 
  297000   0.24962538  -0.39094193  -0.39094193 -0.016504743   0.13422692  -0.39094193   0.37443719   421400 
  298000   0.24987806  -0.39133145  -0.39133145 -0.016515251   0.13514363  -0.39133145    0.3748162   421400 
  299000   0.24986566   -0.3908923   -0.3908923 -0.016094703   0.13402537   -0.3908923    0.3747976   421400 
  300000   0.25025188  -0.39101193  -0.39101193 -0.015634989   0.13223036  -0.39101193   0.37537694   421400 
  301000    0.2507242  -0.39151988  -0.39151988 -0.015434471   0.13407481  -0.39151988   0.37608541   421400 
  302000   0.25016738  -0.39096504  -0.39096504 -0.015714857   0.13376516  -0.39096504   0.37525018   421400 
  303000   0.25033079  -0.39127175  -0.39127175 -0.015776452   0.13310326  -0.39127175    0.3754953   421400 
  304000   0.25023522  -0.39100896  -0.39100896 -0.015657018   0.13459849  -0.39100896   0.37535194   421400 
  305000   0.25035939  -0.39094535  -0.39094535 -0.015407162   0.13517517  -0.39094535   0.37553819   421400 
  306000   0.25043102  -0.39129628  -0.39129628 -0.015650648   0.13211632  -0.39129628   0.37564563   421400 
  307000   0.24982384  -0.39020384  -0.39020384 -0.015468967   0.13315768  -0.39020384   0.37473487   421400 
  308000    0.2501359  -0.39065314  -0.39065314 -0.015450188   0.13353678  -0.39065314   0.37520295   421400 
  309000   0.25027428   -0.3910523   -0.3910523 -0.015641773   0.13324796   -0.3910523   0.37541053   421400 
  310000   0.25121897  -0.39160452  -0.39160452 -0.014776954   0.13351998  -0.39160452   0.37682757   421400 
  311000   0.24969453  -0.39090558  -0.39090558 -0.016364677   0.13267433  -0.39090558   0.37454091   421400 
  312000   0.24995586  -0.39112536  -0.39112536 -0.016192454   0.13363142  -0.39112536   0.37493291   421400 
  313000   0.24964923   -0.3910905   -0.3910905 -0.016617542   0.13373346   -0.3910905   0.37447296   421400 
  314000   0.24933957  -0.39063758  -0.39063758 -0.016629114   0.13347255  -0.39063758   0.37400846   421400 
  315000   0.24976498  -0.39155303  -0.39155303 -0.016906446   0.13295299  -0.39155303   0.37464658   421400 
  316000   0.24986838  -0.39086378  -0.39086378 -0.016062092   0.13622523  -0.39086378   0.37480169   421400 
  317000   0.25060333  -0.39104218  -0.39104218 -0.015138073   0.13486924  -0.39104218   0.37590411   421400 
  318000   0.25012674  -0.39042788  -0.39042788 -0.015238662   0.13496348  -0.39042788   0.37518922   421400 
  319000   0.25052319   -0.3903928   -0.3903928 -0.014608896   0.13541369   -0.3903928    0.3757839   421400 
  320000   0.25050655  -0.39036574  -0.39036574 -0.014606801   0.13376101  -0.39036574   0.37575894   421400 
  321000   0.25020476  -0.39071925  -0.39071925 -0.015413001   0.13536588  -0.39071925   0.37530625   421400 
  322000   0.25033459  -0.39082296  -0.39082296 -0.015321955   0.13425838  -0.39082296     0.375501   421400 
  323000   0.25000959  -0.39103017  -0.39103017 -0.016016669   0.13202484  -0.39103017    0.3750135   421400 
  324000    0.2498274  -0.39069561  -0.39069561   -0.0159554   0.13234533  -0.39069561   0.37474021   421400 
  325000   0.24998745  -0.39070393  -0.39070393 -0.015723654   0.13358121  -0.39070393   0.37498028   421400 
  326000   0.24975631  -0.39069065  -0.39069065 -0.016057074   0.13340867  -0.39069065   0.37463357   421400 
  327000   0.25022136  -0.39141206  -0.39141206  -0.01608091    0.1325476  -0.39141206   0.37533115   421400 
  328000   0.24987625  -0.39120821  -0.39120821 -0.016394721   0.13362281  -0.39120821   0.37481349   421400 
  329000   0.24982816  -0.39104937  -0.39104937 -0.016308025   0.13301921  -0.39104937   0.37474134   421400 
  330000   0.24989658   -0.3906352   -0.3906352 -0.015791218   0.13360744   -0.3906352   0.37484398   421400 
  331000    0.2498806  -0.39095727  -0.39095727 -0.016137264   0.13342388  -0.39095727   0.37482001   421400 
  332000   0.24956683  -0.39105736  -0.39105736 -0.016707994    0.1328227  -0.39105736   0.37434936   421400 
  333000   0.25014045  -0.39077108  -0.39077108 -0.015561295   0.13356595  -0.39077108   0.37520978   421400 
  334000   0.25043761  -0.39155334  -0.39155334  -0.01589782   0.13246025  -0.39155334   0.37565552   421400 
  335000   0.24998105  -0.39081597  -0.39081597 -0.015845289    0.1316029  -0.39081597   0.37497068   421400 
  336000   0.24992544  -0.39133725  -0.39133725 -0.016449991    0.1309233  -0.39133725   0.37488726   421400 
  337000   0.24983197  -0.39089777  -0.39089777 -0.016150707   0.13313985  -0.39089777   0.37474706   421400 
  338000   0.24949567  -0.39095949  -0.39095949 -0.016716871   0.13282187  -0.39095949   0.37424262   421400 
  339000   0.24964922  -0.39164367  -0.39164367 -0.017170734   0.13322911  -0.39164367   0.37447293   421400 
  340000   0.24990549  -0.39063219  -0.39063219 -0.015774849   0.13379632  -0.39063219   0.37485734   421400 
  341000   0.25002604  -0.39135082  -0.39135082 -0.016312654   0.13275807  -0.39135082   0.37503817   421400 
  342000   0.24965472  -0.39067488  -0.39067488 -0.016193684    0.1334413  -0.39067488    0.3744812   421400 
  343000   0.25009933  -0.39096804  -0.39096804 -0.015819945   0.13225842  -0.39096804    0.3751481   421400 
  344000   0.25001642  -0.39087343  -0.39087343  -0.01584969   0.13468959  -0.39087343   0.37502374   421400 
  345000   0.25026082     -0.39086     -0.39086 -0.015469654   0.13381231     -0.39086   0.37539035   421400 
  346000    0.2505393  -0.39144276  -0.39144276 -0.015634711   0.13206785  -0.39144276   0.37580805   421400 
  347000   0.24991275  -0.39043827  -0.39043827 -0.015570046   0.13320381  -0.39043827   0.37486823   421400 
  348000   0.25022442  -0.39083742  -0.39083742 -0.015501684   0.13333621  -0.39083742   0.37533574   421400 
  349000   0.24979587  -0.39073285  -0.39073285 -0.016039936   0.13317222  -0.39073285   0.37469291   421400 
  350000   0.24973409   -0.3904789   -0.3904789 -0.015878647   0.13393668   -0.3904789   0.37460025   421400 
  351000   0.24989317  -0.39097964  -0.39097964 -0.016140779    0.1344718  -0.39097964   0.37483886   421400 
  352000   0.24985489  -0.39102722  -0.39102722 -0.016245772   0.13382329  -0.39102722   0.37478145   421400 
  353000   0.25018878  -0.39120531  -0.39120531 -0.015923042   0.13415803  -0.39120531   0.37528227   421400 
  354000   0.25032563  -0.39087718  -0.39087718 -0.015389623   0.13355542  -0.39087718   0.37548756   421400 
  355000   0.24984305  -0.39101187  -0.39101187 -0.016248189   0.13319352  -0.39101187   0.37476368   421400 
  356000   0.25018774   -0.3908811   -0.3908811 -0.015600388   0.13472113   -0.3908811   0.37528071   421400 
  357000   0.24992399  -0.39064283  -0.39064283 -0.015757734    0.1334084  -0.39064283   0.37488509   421400 
  358000   0.24989421   -0.3906988   -0.3906988 -0.015858374   0.13322738   -0.3906988   0.37484042   421400 
  359000   0.25006797    -0.390769    -0.390769 -0.015667944   0.13294949    -0.390769   0.37510106   421400 
  360000   0.24956957  -0.39093562  -0.39093562 -0.016582153   0.13367429  -0.39093562   0.37435346   421400 
  361000   0.24978053  -0.39129362  -0.39129362 -0.016623718   0.13380571  -0.39129362    0.3746699   421400 
  362000   0.25006995  -0.39129085  -0.39129085 -0.016186821   0.13261721  -0.39129085   0.37510403   421400 
  363000   0.24917872   -0.3914494   -0.3914494 -0.017682205   0.13083604   -0.3914494    0.3737672   421400 
  364000   0.24924027  -0.39059048  -0.39059048 -0.016730951   0.13339446  -0.39059048   0.37385953   421400 
  365000   0.24973342  -0.39093318  -0.39093318 -0.016333932   0.13380712  -0.39093318   0.37459924   421400 
  366000   0.24991113  -0.39098167  -0.39098167 -0.016115862   0.13387611  -0.39098167    0.3748658   421400 
  367000   0.25009841  -0.39059743  -0.39059743 -0.015450707   0.13354768  -0.39059743   0.37514672   421400 
  368000   0.25005822  -0.39081427  -0.39081427 -0.015727827   0.13412352  -0.39081427   0.37508644   421400 
  369000   0.24967031  -0.39054708  -0.39054708   -0.0160425   0.13330667  -0.39054708   0.37450458   421400 
  370000   0.25027164  -0.39069953  -0.39069953 -0.015292967   0.13471089  -0.39069953   0.37540656   421400 
  371000   0.24986105  -0.39116425  -0.39116425 -0.016373558   0.13309232  -0.39116425   0.37479069   421400 
  372000   0.24972641  -0.39099826  -0.39099826 -0.016409532    0.1330005  -0.39099826   0.37458873   421400 
  373000   0.25030629  -0.39139854  -0.39139854 -0.015939999    0.1343403  -0.39139854   0.37545854   421400 
  374000   0.24948172  -0.39066549  -0.39066549 -0.016443801   0.13411264  -0.39066549   0.37422169   421400 
  375000   0.24967957  -0.39095648  -0.39095648 -0.016438009   0.13241222  -0.39095648   0.37451847   421400 
  376000   0.25024851  -0.39145079  -0.39145079 -0.016078917   0.13421755  -0.39145079   0.37537187   421400 
  377000   0.24935634  -0.39104647  -0.39104647 -0.017012844   0.13411985  -0.39104647   0.37403362   421400 
  378000   0.24929321  -0.39066434  -0.39066434 -0.016725422    0.1343192  -0.39066434   0.37393892   421400 
  379000   0.25002192  -0.39079507  -0.39079507 -0.015763082   0.13377505  -0.39079507   0.37503199   421400 
  380000    0.2497499  -0.39105732  -0.39105732  -0.01643336    0.1344215  -0.39105732   0.37462396   421400 
  381000   0.24969998  -0.39118442  -0.39118442  -0.01663533   0.13417674  -0.39118442   0.37454909   421400 
  382000   0.25005898   -0.3910007   -0.3910007 -0.015913119   0.13389618   -0.3910007   0.37508758   421400 
  383000   0.24961449  -0.39117903  -0.39117903 -0.016758184   0.13392572  -0.39117903   0.37442084   421400 
  384000   0.24986188   -0.3909841   -0.3909841 -0.016192167   0.13526759   -0.3909841   0.37479193   421400 
  385000   0.25021694  -0.39081819  -0.39081819 -0.015493668   0.13437733  -0.39081819   0.37532452   421400 
  386000   0.24966981   -0.3905007   -0.3905007 -0.015996863   0.13453065   -0.3905007   0.37450383   421400 
  387000   0.25023845  -0.39119122  -0.39119122 -0.015834446   0.13309876  -0.39119122   0.37535678   421400 
  388000   0.24994543  -0.39058722  -0.39058722 -0.015669961   0.13392965  -0.39058722   0.37491726   421400 
  389000   0.25010041  -0.39067953  -0.39067953 -0.015529804   0.13253441  -0.39067953   0.37514972   421400 
  390000   0.24988131  -0.39094419  -0.39094419 -0.016123115   0.13271253  -0.39094419   0.37482108   421400 
  391000   0.24971332  -0.39088653  -0.39088653 -0.016317437   0.13240819  -0.39088653   0.37456909   421400 
  392000   0.24968699  -0.39118156  -0.39118156 -0.016651962   0.13239109  -0.39118156    0.3745296   421400 
  393000   0.24950706  -0.39072185  -0.39072185 -0.016462152   0.13457862  -0.39072185    0.3742597   421400 
  394000   0.24973119  -0.39082914  -0.39082914 -0.016233242   0.13362227  -0.39082914    0.3745959   421400 
  395000   0.25009787  -0.39077038  -0.39077038 -0.015624464   0.13347768  -0.39077038   0.37514591   421400 
  396000   0.25045995  -0.39058378  -0.39058378 -0.014894742   0.13459879  -0.39058378   0.37568903   421400 
  397000   0.25046023  -0.39048459  -0.39048459 -0.014795138    0.1336566  -0.39048459   0.37568946   421400 
  398000   0.25040274  -0.39053396  -0.39053396  -0.01493074   0.13320288  -0.39053396   0.37560322   421400 
  399000   0.25000415  -0.39056798  -0.39056798 -0.015562643   0.13249443  -0.39056798   0.37500533   421400 
  400000    0.2505049  -0.39105162  -0.39105162 -0.015295168   0.13293026  -0.39105162   0.37575646   421400 
  401000   0.24997589  -0.39131951  -0.39131951  -0.01635657    0.1323854  -0.39131951   0.37496294   421400 
  402000   0.25008999  -0.39043928  -0.39043928  -0.01530519   0.13265836  -0.39043928   0.37513409   421400 
  403000     0.250696  -0.39107496  -0.39107496  -0.01503185     0.132599  -0.39107496   0.37604311   421400 
  404000   0.24976043  -0.39033178  -0.39033178 -0.015692027   0.13438687  -0.39033178   0.37463975   421400 
  405000   0.25005285  -0.39128279  -0.39128279 -0.016204404   0.13167407  -0.39128279   0.37507838   421400 
  406000   0.24995353  -0.39070497  -0.39070497 -0.015775565   0.13328464  -0.39070497    0.3749294   421400 
  407000   0.25029218  -0.39007814  -0.39007814 -0.014640761   0.13290981  -0.39007814   0.37543738   421400 
  408000   0.25061834  -0.39126548  -0.39126548 -0.015338866   0.13444645  -0.39126548   0.37592662   421400 
  409000   0.25051621  -0.39076801  -0.39076801  -0.01499459   0.13451805  -0.39076801   0.37577342   421400 
  410000   0.25018032  -0.39067893  -0.39067893 -0.015409334   0.13158507  -0.39067893   0.37526959   421400 
  411000   0.24988174  -0.39078581  -0.39078581 -0.015964082   0.13247648  -0.39078581   0.37482172   421400 
  412000   0.24971329  -0.39094163  -0.39094163 -0.016372585   0.13301271  -0.39094163   0.37456905   421400 
  413000   0.25012173  -0.39066701  -0.39066701 -0.015485297   0.13560732  -0.39066701   0.37518171   421400 
  414000   0.24965621  -0.39092348  -0.39092348 -0.016440053   0.13334909  -0.39092348   0.37448342   421400 
  415000   0.24999297  -0.39124842  -0.39124842 -0.016259857   0.13388764  -0.39124842   0.37498856   421400 
  416000   0.24985962  -0.39089393  -0.39089393 -0.016105393   0.13335133  -0.39089393   0.37478854   421400 
  417000   0.25024979  -0.39099236  -0.39099236  -0.01561856   0.13312712  -0.39099236    0.3753738   421400 
  418000   0.25004253  -0.39056002  -0.39056002 -0.015497109   0.13284601  -0.39056002   0.37506291   421400 
  419000    0.2498381  -0.39056444  -0.39056444 -0.015808175   0.13388156  -0.39056444   0.37475626   421400 
  420000   0.24988085  -0.39064941  -0.39064941 -0.015829025   0.13305503  -0.39064941   0.37482038   421400 
  421000   0.24984408  -0.39110386  -0.39110386 -0.016338636   0.13332492  -0.39110386   0.37476523   421400 
  422000   0.25020275  -0.39100297  -0.39100297 -0.015699734   0.13274556  -0.39100297   0.37530324   421400 
  423000   0.25033933  -0.39096505  -0.39096505 -0.015456951   0.13266536  -0.39096505    0.3755081   421400 
  424000    0.2500799  -0.39073719  -0.39073719 -0.015618221   0.13473823  -0.39073719   0.37511897   421400 
  425000   0.25039908  -0.39111007  -0.39111007 -0.015512343   0.13376632  -0.39111007   0.37559773   421400 
  426000   0.24975544  -0.39056352  -0.39056352 -0.015931254   0.13304291  -0.39056352   0.37463227   421400 
  427000   0.25013854  -0.39088098  -0.39088098  -0.01567407   0.13246206  -0.39088098   0.37520691   421400 
  428000   0.25039835  -0.39092116  -0.39092116 -0.015324525   0.13622102  -0.39092116   0.37559663   421400 
  429000   0.24974237  -0.39076538  -0.39076538 -0.016152717   0.13435577  -0.39076538   0.37461266   421400 
  430000   0.24979687  -0.39039592  -0.39039592 -0.015701498   0.13524547  -0.39039592   0.37469442   421400 
  431000    0.2496462    -0.390362    -0.390362 -0.015893588   0.13396809    -0.390362   0.37446841   421400 
  432000   0.24982765  -0.39020641  -0.39020641 -0.015465825   0.13224029  -0.39020641   0.37474058   421400 
  433000   0.25014994  -0.39053261  -0.39053261  -0.01530859   0.13372301  -0.39053261   0.37522402   421400 
  434000   0.24999944  -0.39046917  -0.39046917 -0.015470901   0.13350169  -0.39046917   0.37499827   421400 
  435000   0.25053862  -0.39083005  -0.39083005 -0.015023014   0.13421361  -0.39083005   0.37580704   421400 
  436000    0.2503352  -0.39126336  -0.39126336 -0.015761457    0.1319699  -0.39126336   0.37550191   421400 
  437000   0.24950529  -0.39082952  -0.39082952 -0.016572484   0.13204121  -0.39082952   0.37425704   421400 
  438000   0.24973014   -0.3905686   -0.3905686 -0.015974284   0.13355083   -0.3905686   0.37459432   421400 
  439000   0.25013799  -0.39102728  -0.39102728  -0.01582119   0.13313869  -0.39102728   0.37520609   421400 
  440000    0.2496674  -0.39150469  -0.39150469 -0.017004473   0.13296446  -0.39150469   0.37450022   421400 
  441000   0.25004857  -0.39138292  -0.39138292 -0.016310958   0.13176816  -0.39138292   0.37507196   421400 
  442000   0.24977056  -0.39043411  -0.39043411 -0.015779163   0.13455861  -0.39043411   0.37465495   421400 
  443000   0.25010455   -0.3911821   -0.3911821  -0.01602616   0.13286319   -0.3911821   0.37515594   421400 
  444000   0.25037467  -0.39109531  -0.39109531 -0.015534196   0.13415869  -0.39109531   0.37556111   421400 
  445000   0.25028995  -0.39068549  -0.39068549 -0.015251458   0.13410991  -0.39068549   0.37543403   421400 
  446000   0.24964812   -0.3908064   -0.3908064 -0.016335108    0.1350844   -0.3908064   0.37447129   421400 
  447000   0.24987052  -0.39112791  -0.39112791 -0.016323012   0.13341865  -0.39112791    0.3748049   421400 
  448000   0.24998671  -0.39086556  -0.39086556 -0.015886384   0.13300988  -0.39086556   0.37497918   421400 
  449000   0.24990949  -0.39087642  -0.39087642 -0.016013069   0.13375737  -0.39087642   0.37486335   421400 
  450000   0.25017313  -0.39143052  -0.39143052 -0.016171723   0.13340683  -0.39143052    0.3752588   421400 
  451000   0.24998387  -0.39126135  -0.39126135 -0.016286435   0.13253783  -0.39126135   0.37497492   421400 
  452000   0.24969748  -0.39109948  -0.39109948 -0.016554139    0.1336733  -0.39109948   0.37454534   421400 
  453000    0.2502132  -0.39119102  -0.39119102 -0.015872107    0.1332195  -0.39119102   0.37531891   421400 
  454000   0.25014254  -0.39039173  -0.39039173 -0.015178813   0.13412475  -0.39039173   0.37521291   421400 
  455000    0.2504572  -0.39016966  -0.39016966 -0.014484756   0.13347916  -0.39016966    0.3756849   421400 
  456000   0.25047666  -0.39069226  -0.39069226 -0.014978165   0.13301025  -0.39069226   0.37571409   421400 
  457000   0.25028509   -0.3908075   -0.3908075 -0.015380759    0.1347791   -0.3908075   0.37542674   421400 
  458000   0.25007377  -0.39077383  -0.39077383 -0.015664069   0.13480886  -0.39077383   0.37510976   421400 
  459000   0.25026863  -0.39091599  -0.39091599 -0.015513926   0.13273971  -0.39091599   0.37540206   421400 
  460000    0.2500655  -0.39085132  -0.39085132 -0.015753957   0.13422498  -0.39085132   0.37509736   421400 
  461000   0.24990607  -0.39095852  -0.39095852 -0.016100308   0.13295677  -0.39095852   0.37485821   421400 
  462000   0.25026539  -0.39130392  -0.39130392 -0.015906722   0.13439342  -0.39130392   0.37539719   421400 
  463000   0.24993081  -0.39082819  -0.39082819 -0.015932875   0.13187918  -0.39082819   0.37489532   421400 
  464000   0.24994898   -0.3907407   -0.3907407 -0.015818126    0.1339983   -0.3907407   0.37492258   421400 
  465000   0.25018628  -0.39047278  -0.39047278 -0.015194251   0.13382752  -0.39047278   0.37527853   421400 
  466000   0.25010303  -0.39077331  -0.39077331 -0.015619655    0.1327772  -0.39077331   0.37515365   421400 
  467000   0.24997364  -0.39078184  -0.39078184 -0.015822273   0.13515571  -0.39078184   0.37495956   421400 
  468000   0.25007919  -0.39113306  -0.39113306 -0.016015167   0.13382351  -0.39113306   0.37511789   421400 
  469000   0.25005024   -0.3910481   -0.3910481 -0.015973635   0.13137314   -0.3910481   0.37507447   421400 
  470000   0.24959969  -0.39120692  -0.39120692 -0.016808276   0.13236118  -0.39120692   0.37439865   421400 
  471000   0.24994921  -0.39097659  -0.39097659 -0.016053667   0.13488334  -0.39097659   0.37492292   421400 
  472000    0.2499202  -0.39049954  -0.39049954 -0.015620134   0.13382393  -0.39049954   0.37487941   421400 
  473000   0.24995995  -0.39095855  -0.39095855 -0.016019525   0.13288359  -0.39095855   0.37493903   421400 
  474000   0.25012582  -0.39033991  -0.39033991 -0.015152068   0.13513494  -0.39033991   0.37518784   421400 
  475000   0.25056843  -0.39056727  -0.39056727  -0.01471552   0.13310559  -0.39056727   0.37585175   421400 
  476000   0.25067684  -0.39106977  -0.39106977 -0.015055399   0.13309102  -0.39106977   0.37601438   421400 
  477000   0.25035583  -0.39076817  -0.39076817 -0.015235322   0.13373717  -0.39076817   0.37553285   421400 
  478000   0.25026992  -0.39074911  -0.39074911 -0.015345129   0.13417721  -0.39074911   0.37540398   421400 
  479000   0.25016477  -0.39068688  -0.39068688 -0.015440614   0.13424247  -0.39068688   0.37524627   421400 
  480000   0.25024937  -0.39043392  -0.39043392 -0.015060759   0.13433985  -0.39043392   0.37537317   421400 
  481000     0.250438  -0.39035858  -0.39035858 -0.014702467   0.13348176  -0.39035858   0.37565611   421400 
  482000   0.24962044  -0.39044825  -0.39044825 -0.016018467   0.13454409  -0.39044825   0.37442978   421400 
  483000   0.24993884  -0.39077069  -0.39077069 -0.015863318   0.13324375  -0.39077069   0.37490738   421400 
  484000   0.25006182  -0.39078709  -0.39078709 -0.015695257   0.13336978  -0.39078709   0.37509184   421400 
  485000   0.25066669  -0.39120244  -0.39120244 -0.015203292   0.13464362  -0.39120244   0.37599915   421400 
  486000   0.25041704  -0.39074005  -0.39074005 -0.015115382   0.13304165  -0.39074005   0.37562467   421400 
  487000   0.25074943  -0.39100452  -0.39100452 -0.014881258   0.13286431  -0.39100452   0.37612326   421400 
  488000    0.2502784  -0.39105497  -0.39105497 -0.015638257   0.13452296  -0.39105497   0.37541672   421400 
  489000   0.25053796  -0.39101864  -0.39101864 -0.015212594   0.13384565  -0.39101864   0.37580605   421400 
  490000   0.25062018  -0.39133428  -0.39133428 -0.015404908   0.13397792  -0.39133428   0.37592937   421400 
  491000   0.25049171   -0.3909826   -0.3909826 -0.015245924   0.13407344   -0.3909826   0.37573668   421400 
  492000   0.25026833  -0.39114871  -0.39114871 -0.015747106   0.13355172  -0.39114871    0.3754016   421400 
  493000   0.25013542  -0.39067062  -0.39067062 -0.015468391   0.13383088  -0.39067062   0.37520223   421400 
  494000   0.24991989  -0.39112526  -0.39112526 -0.016246319   0.13434164  -0.39112526   0.37487894   421400 
  495000   0.24977331  -0.39073883  -0.39073883  -0.01607976   0.13324346  -0.39073883   0.37465907   421400 
  496000   0.24993631  -0.39083424  -0.39083424  -0.01593067   0.13337113  -0.39083424   0.37490357   421400 
  497000   0.25016058  -0.39086929  -0.39086929 -0.015629302   0.13229799  -0.39086929   0.37523998   421400 
  498000   0.25024164   -0.3910475   -0.3910475 -0.015685926   0.13270829   -0.3910475   0.37536157   421400 
  499000   0.25029418  -0.39056311  -0.39056311 -0.015122722   0.13222927  -0.39056311   0.37544039   421400 
  500000   0.24998667  -0.39048841  -0.39048841 -0.015509297   0.13405105  -0.39048841   0.37497912   421400 
  501000    0.2501649  -0.39091053  -0.39091053 -0.015664065   0.13427507  -0.39091053   0.37524646   421400 
  502000   0.25003371  -0.39053683  -0.39053683 -0.015487161   0.13474638  -0.39053683   0.37504967   421400 
  503000   0.24996289  -0.39091552  -0.39091552 -0.015972069   0.13462709  -0.39091552   0.37494345   421400 
  504000   0.24977768  -0.39056721  -0.39056721 -0.015901577   0.13367236  -0.39056721   0.37466563   421400 
  505000    0.2498606  -0.39058553  -0.39058553 -0.015795518   0.13536563  -0.39058553   0.37479001   421400 
  506000   0.24959287  -0.39082274  -0.39082274 -0.016434332   0.13218088  -0.39082274   0.37438841   421400 
  507000   0.25005872  -0.39082573  -0.39082573 -0.015738542   0.13265366  -0.39082573   0.37508718   421400 
  508000   0.25041283  -0.39081053  -0.39081053 -0.015192169   0.13367132  -0.39081053   0.37561836   421400 
  509000   0.24983409  -0.39020536  -0.39020536 -0.015455118   0.13412294  -0.39020536   0.37475024   421400 
  510000   0.25040477  -0.39083211  -0.39083211 -0.015225841   0.13424202  -0.39083211   0.37560626   421400 
  511000   0.24944754  -0.39010967  -0.39010967 -0.015939238   0.13445228  -0.39010967   0.37417043   421400 
  512000   0.24972724  -0.39050646  -0.39050646 -0.015916488   0.13377281  -0.39050646   0.37458998   421400 
  513000   0.25039657  -0.39070525  -0.39070525 -0.015111291    0.1317309  -0.39070525   0.37559396   421400 
  514000   0.24994244  -0.39042534  -0.39042534 -0.015512571   0.13424639  -0.39042534   0.37491277   421400 
  515000   0.24959682  -0.39014793  -0.39014793 -0.015753583   0.13441755  -0.39014793   0.37439435   421400 
  516000   0.25061094  -0.39094147  -0.39094147 -0.015025949   0.13378155  -0.39094147   0.37591552   421400 
  517000   0.24982534  -0.39121367  -0.39121367 -0.016476553   0.13287104  -0.39121367   0.37473712   421400 
  518000   0.24963467    -0.391186    -0.391186 -0.016734888   0.13254076    -0.391186   0.37445111   421400 
  519000   0.25023455  -0.39166674  -0.39166674 -0.016315811   0.13158522  -0.39166674   0.37535093   421400 
  520000   0.24967071   -0.3908657   -0.3908657 -0.016360532   0.13280514   -0.3908657   0.37450517   421400 
  521000   0.24959723  -0.39042822  -0.39042822 -0.016033263    0.1346189  -0.39042822   0.37439495   421400 
  522000    0.2497434  -0.39097906  -0.39097906 -0.016364848   0.13412915  -0.39097906   0.37461422   421400 
  523000   0.25038106  -0.39105225  -0.39105225 -0.015481559   0.13392618  -0.39105225   0.37557069   421400 
  524000   0.24966401  -0.39071709  -0.39071709 -0.016221964   0.13214685  -0.39071709   0.37449513   421400 
  525000    0.2496775  -0.39028408  -0.39028408 -0.015768717   0.13584519  -0.39028408   0.37451536   421400 
  526000   0.25029209  -0.39091765  -0.39091765 -0.015480406   0.13530219  -0.39091765   0.37543724   421400 
  527000   0.25021884  -0.39097744  -0.39097744 -0.015650072    0.1338058  -0.39097744   0.37532736   421400 
  528000    0.2499321  -0.39069373  -0.39069373 -0.015796464   0.13459339  -0.39069373   0.37489727   421400 
  529000   0.25004285  -0.39052309  -0.39052309  -0.01545971   0.13448268  -0.39052309   0.37506338   421400 
  530000   0.25010793  -0.39091619  -0.39091619 -0.015755183   0.13439406  -0.39091619   0.37516101   421400 
  531000   0.24967646   -0.3906519   -0.3906519 -0.016138104   0.13322904   -0.3906519    0.3745138   421400 
  532000   0.24965168  -0.39093087  -0.39093087 -0.016454239   0.13372835  -0.39093087   0.37447663   421400 
  533000   0.24979309  -0.39063113  -0.39063113 -0.015942386   0.13349397  -0.39063113   0.37468874   421400 
  534000   0.24981562   -0.3913041   -0.3913041 -0.016581568   0.13127689   -0.3913041   0.37472254   421400 
  535000   0.24967936  -0.39114976  -0.39114976 -0.016631616   0.13350108  -0.39114976   0.37451815   421400 
  536000   0.24970752  -0.39115926  -0.39115926 -0.016598861   0.13220985  -0.39115926    0.3745604   421400 
  537000    0.2495428  -0.39070001  -0.39070001 -0.016386695   0.13429115  -0.39070001   0.37431331   421400 
  538000   0.24925381  -0.39036309  -0.39036309 -0.016483262   0.13332483  -0.39036309   0.37387982   421400 
  539000   0.24959874  -0.39105775  -0.39105775 -0.016660524   0.13368379  -0.39105775   0.37439723   421400 
  540000    0.2494547  -0.39007676  -0.39007676 -0.015895591   0.13473505  -0.39007676   0.37418116   421400 
  541000   0.24969734  -0.39057851  -0.39057851 -0.016033392   0.13298208  -0.39057851   0.37454512   421400 
  542000   0.24961471  -0.39062142  -0.39062142 -0.016200246   0.13374522  -0.39062142   0.37442117   421400 
  543000    0.2500772  -0.39157728  -0.39157728 -0.016462373   0.13294907  -0.39157728   0.37511491   421400 
  544000   0.24973528  -0.39070347  -0.39070347 -0.016101432   0.13476737  -0.39070347   0.37460204   421400 
  545000   0.25030021  -0.39067233  -0.39067233  -0.01522291   0.13361617  -0.39067233   0.37544942   421400 
  546000   0.25003521  -0.39092198  -0.39092198 -0.015870057   0.13366185  -0.39092198   0.37505192   421400 
  547000   0.24994357  -0.39052498  -0.39052498 -0.015610516   0.13641413  -0.39052498   0.37491446   421400 
  548000   0.25014773   -0.3911957   -0.3911957 -0.015975001   0.13402009   -0.3911957    0.3752207   421400 
  549000   0.25022904  -0.39078644  -0.39078644  -0.01544376   0.13345921  -0.39078644   0.37534268   421400 
  550000   0.24956377  -0.39084123  -0.39084123 -0.016496467   0.13265281  -0.39084123   0.37434477   421400 
  551000   0.25015031  -0.39101069  -0.39101069  -0.01578612   0.13196543  -0.39101069   0.37522457   421400 
  552000   0.25055789  -0.39113283  -0.39113283  -0.01529688   0.13163168  -0.39113283   0.37583595   421400 
  553000   0.24994256  -0.39080212  -0.39080212 -0.015889167    0.1334984  -0.39080212   0.37491295   421400 
  554000   0.25000714  -0.39026832  -0.39026832 -0.015258502   0.13458748  -0.39026832   0.37500982   421400 
  555000   0.24992638  -0.39114613  -0.39114613 -0.016257451   0.13295061  -0.39114613   0.37488867   421400 
  556000   0.24989582  -0.39074427  -0.39074427 -0.015901427   0.13398598  -0.39074427   0.37484284   421400 
  557000   0.25009172  -0.39105235  -0.39105235 -0.015915657   0.13530202  -0.39105235    0.3751367   421400 
  558000   0.25003977  -0.39029041  -0.39029041 -0.015231641   0.13489909  -0.39029041   0.37505877   421400 
  559000   0.25010991  -0.39009945  -0.39009945 -0.014935474   0.13536485  -0.39009945   0.37516398   421400 
  560000     0.250013  -0.39120384  -0.39120384  -0.01618524   0.13293028  -0.39120384    0.3750186   421400 
  561000   0.24963708  -0.39050501  -0.39050501 -0.016050277   0.13291096  -0.39050501   0.37445474   421400 
  562000   0.24995224  -0.39141107  -0.39141107 -0.016483597   0.13317364  -0.39141107   0.37492748   421400 
  563000   0.24981811   -0.3912262   -0.3912262 -0.016499917   0.13240104   -0.3912262   0.37472628   421400 
  564000   0.25001502  -0.39073387  -0.39073387 -0.015712229   0.13265751  -0.39073387   0.37502164   421400 
  565000   0.24983526  -0.39055113  -0.39055113 -0.015799118   0.13492467  -0.39055113   0.37475201   421400 
  566000   0.25011338  -0.39101401  -0.39101401 -0.015844829   0.13382693  -0.39101401   0.37516919   421400 
  567000   0.25069877  -0.39038533  -0.39038533 -0.014338069   0.13488596  -0.39038533   0.37604726   421400 
  568000   0.25038262  -0.39061371  -0.39061371 -0.015040665   0.13351935  -0.39061371   0.37557304   421400 
  569000   0.24988242  -0.39070747  -0.39070747  -0.01588473    0.1348059  -0.39070747   0.37482274   421400 
  570000   0.25043476  -0.39110903  -0.39110903 -0.015457783   0.13379019  -0.39110903   0.37565125   421400 
  571000   0.24976239  -0.39044162  -0.39044162 -0.015798934   0.13605764  -0.39044162   0.37464269   421400 
  572000   0.25026825  -0.39028548  -0.39028548 -0.014883998   0.13475868  -0.39028548   0.37540148   421400 
  573000    0.2497727  -0.39049408  -0.39049408 -0.015835907    0.1343663  -0.39049408   0.37465817   421400 
  574000   0.24981426   -0.3912469   -0.3912469 -0.016526399    0.1319586   -0.3912469    0.3747205   421400 
  575000   0.24977704  -0.39102995  -0.39102995 -0.016365285   0.13387128  -0.39102995   0.37466466   421400 
  576000    0.2499799  -0.39130074  -0.39130074 -0.016331775   0.13115418  -0.39130074   0.37496896   421400 
  577000   0.24944346  -0.39090578  -0.39090578 -0.016741475   0.13273149  -0.39090578    0.3741643   421400 
  578000   0.25008133  -0.39126868  -0.39126868 -0.016147569   0.13192108  -0.39126868   0.37512111   421400 
  579000   0.24996547  -0.39049533  -0.39049533 -0.015548015   0.13449526  -0.39049533   0.37494732   421400 
  580000   0.24994718  -0.39054195  -0.39054195 -0.015622065   0.13381775  -0.39054195   0.37491988   421400 
  581000   0.25005339   -0.3904332   -0.3904332 -0.015354006   0.13401376   -0.3904332    0.3750792   421400 
  582000    0.2503542  -0.39081537  -0.39081537  -0.01528495   0.13276689  -0.39081537   0.37553041   421400 
  583000   0.25018635  -0.39073588  -0.39073588 -0.015457241   0.13468361  -0.39073588   0.37527864   421400 
  584000    0.2501203  -0.39042121  -0.39042121 -0.015241655   0.13295214  -0.39042121   0.37517955   421400 
  585000   0.25040755  -0.39068148  -0.39068148 -0.015071057   0.13410878  -0.39068148   0.37561043   421400 
  586000   0.25038917  -0.39111557  -0.39111557 -0.015532705    0.1327325  -0.39111557   0.37558286   421400 
  587000   0.25056294  -0.39113902  -0.39113902 -0.015295497   0.13489058  -0.39113902   0.37584352   421400 
  588000   0.25005465  -0.39055901  -0.39055901 -0.015477927   0.13346304  -0.39055901   0.37508109   421400 
  589000    0.2500884  -0.39074302  -0.39074302 -0.015611301   0.13410669  -0.39074302   0.37513171   421400 
  590000   0.25044949   -0.3906977   -0.3906977 -0.015024361   0.13383664   -0.3906977   0.37567334   421400 
  591000   0.24974518  -0.39066055  -0.39066055 -0.016043663    0.1340915  -0.39066055   0.37461689   421400 
  592000   0.24993504  -0.39066185  -0.39066185  -0.01576018   0.13298186  -0.39066185   0.37490167   421400 
  593000    0.2501214   -0.3904823   -0.3904823 -0.015301079   0.13534622   -0.3904823   0.37518122   421400 
  594000   0.25028759  -0.39123224  -0.39123224 -0.015801739   0.13324264  -0.39123224    0.3754305   421400 
  595000    0.2502454  -0.39062484  -0.39062484 -0.015257636   0.13355109  -0.39062484   0.37536721   421400 
  596000   0.25022463  -0.39062197  -0.39062197 -0.015285925   0.13372461  -0.39062197   0.37533605   421400 
  597000   0.25010358  -0.39073909  -0.39073909 -0.015584619   0.13368427  -0.39073909   0.37515447   421400 
  598000    0.2501836  -0.39148701  -0.39148701 -0.016212506   0.13141637  -0.39148701   0.37527451   421400 
  599000   0.24953252  -0.39084139  -0.39084139 -0.016543495   0.13330172  -0.39084139    0.3742979   421400 
  600000   0.24991748  -0.39166994  -0.39166994 -0.016794605   0.13095419  -0.39166994   0.37487533   421400 
  601000   0.24963198  -0.39079675  -0.39079675 -0.016349672   0.13280492  -0.39079675   0.37444708   421400 
  602000   0.25006471  -0.39100933  -0.39100933 -0.015913155    0.1323439  -0.39100933   0.37509618   421400 
  603000   0.24947973   -0.3906889   -0.3906889 -0.016470195   0.13295643   -0.3906889   0.37421871   421400 
  604000   0.24978829  -0.39151889  -0.39151889 -0.016837353   0.13235989  -0.39151889   0.37468154   421400 
  605000   0.24943433  -0.39066656  -0.39066656 -0.016515947   0.13279329  -0.39066656   0.37415061   421400 
  606000   0.24989856  -0.39087293  -0.39087293 -0.016025982   0.13331008  -0.39087293   0.37484695   421400 
  607000   0.25067756   -0.3909157   -0.3909157 -0.014900247   0.13518454   -0.3909157   0.37601545   421400 
  608000   0.25015129  -0.39088553  -0.39088553 -0.015659491   0.13473203  -0.39088553   0.37522604   421400 
  609000   0.24971043   -0.3908866   -0.3908866 -0.016321843   0.13349845   -0.3908866   0.37456476   421400 
  610000   0.24978549  -0.39067839  -0.39067839 -0.016001042   0.13307839  -0.39067839   0.37467735   421400 
  611000   0.24960752  -0.39128194  -0.39128194 -0.016871552   0.13114858  -0.39128194   0.37441039   421400 
  612000    0.2498728  -0.39125904  -0.39125904 -0.016450722   0.13284025  -0.39125904   0.37480831   421400 
  613000   0.24959026  -0.39107675  -0.39107675 -0.016692256   0.13200054  -0.39107675   0.37438449   421400 
  614000   0.24987139  -0.39058708  -0.39058708 -0.015780881    0.1339724  -0.39058708    0.3748062   421400 
  615000   0.25023076  -0.39085002  -0.39085002 -0.015504774   0.13236569  -0.39085002   0.37534525   421400 
  616000   0.24989595   -0.3912745   -0.3912745 -0.016431461   0.13343873   -0.3912745   0.37484304   421400 
  617000   0.24990865  -0.39127845  -0.39127845 -0.016416365   0.13311926  -0.39127845   0.37486208   421400 
  618000   0.25031191  -0.39081915  -0.39081915 -0.015352176   0.13308598  -0.39081915   0.37546697   421400 
  619000   0.25022392   -0.3910031   -0.3910031 -0.015668105   0.13195154   -0.3910031   0.37533499   421400 
  620000   0.25071046  -0.39126372  -0.39126372 -0.015198912    0.1322271  -0.39126372    0.3760648   421400 
  621000   0.25034129  -0.39055166  -0.39055166 -0.015040625   0.13343598  -0.39055166   0.37551104   421400 
  622000   0.25027576  -0.39033538  -0.39033538 -0.014922625    0.1331997  -0.39033538   0.37541275   421400 
  623000   0.25027836  -0.39054968  -0.39054968 -0.015133029    0.1342314  -0.39054968   0.37541665   421400 
  624000   0.25057326  -0.39036864  -0.39036864  -0.01450964   0.13621033  -0.39036864     0.375859   421400 
  625000   0.25061452  -0.39132261  -0.39132261 -0.015401716   0.13503559  -0.39132261    0.3759209   421400 
  626000   0.24960592  -0.39101343  -0.39101343 -0.016605442   0.13170701  -0.39101343   0.37440799   421400 
  627000   0.24951139  -0.39131389  -0.39131389 -0.017047691   0.13287508  -0.39131389    0.3742662   421400 
  628000   0.24976982  -0.39082331  -0.39082331 -0.016169464   0.13374195  -0.39082331   0.37465384   421400 
  629000   0.24958419  -0.39098458  -0.39098458 -0.016609181   0.13393898  -0.39098458    0.3743754   421400 
  630000   0.24985723  -0.39115934  -0.39115934 -0.016374381    0.1322911  -0.39115934   0.37478495   421400 
  631000   0.24959865    -0.390574    -0.390574 -0.016176918   0.13328668    -0.390574   0.37439708   421400 
  632000   0.24977831  -0.39070511  -0.39070511 -0.016038542    0.1337884  -0.39070511   0.37466657   421400 
  633000   0.24949367  -0.39100747  -0.39100747 -0.016767851   0.13268761  -0.39100747   0.37423962   421400 
  634000   0.24992639  -0.39067361  -0.39067361 -0.015784904   0.13373973  -0.39067361    0.3748887   421400 
  635000   0.24948491    -0.390526    -0.390526 -0.016299519   0.13291699    -0.390526   0.37422648   421400 
  636000   0.24998425  -0.39091794  -0.39091794 -0.015942461   0.13346108  -0.39091794   0.37497548   421400 
  637000   0.25007572  -0.39122459  -0.39122459  -0.01611189   0.13222006  -0.39122459    0.3751127   421400 
  638000   0.25019919  -0.39049775  -0.39049775 -0.015199849   0.13417306  -0.39049775    0.3752979   421400 
  639000   0.25042114  -0.39036882  -0.39036882 -0.014738009   0.13539032  -0.39036882   0.37563081   421400 
  640000   0.25030293  -0.39054911  -0.39054911 -0.015095601   0.13250563  -0.39054911   0.37545351   421400 
  641000   0.25026754  -0.39040467  -0.39040467 -0.015004257   0.13412885  -0.39040467   0.37540041   421400 
  642000   0.25040287  -0.39041605  -0.39041605 -0.014812634   0.13515061  -0.39041605   0.37560342   421400 
  643000   0.25021651  -0.39094092  -0.39094092 -0.015617052   0.13349915  -0.39094092   0.37532387   421400 
  644000   0.24953602  -0.39004904  -0.39004904 -0.015745905   0.13474425  -0.39004904   0.37430314   421400 
  645000    0.2496475  -0.39019996  -0.39019996 -0.015729602   0.13390628  -0.39019996   0.37447035   421400 
  646000   0.25031522  -0.39070096  -0.39070096 -0.015229024   0.13520654  -0.39070096   0.37547194   421400 
  647000   0.25062418  -0.39109305  -0.39109305  -0.01515767   0.13394138  -0.39109305   0.37593538   421400 
  648000   0.24999214  -0.39057512  -0.39057512   -0.0155878   0.13341108  -0.39057512   0.37498732   421400 
  649000   0.25031607  -0.39053228  -0.39053228 -0.015059061   0.13342003  -0.39053228   0.37547322   421400 
  650000   0.25010307  -0.39057749  -0.39057749 -0.015423774   0.13330249  -0.39057749   0.37515372   421400 
  651000   0.24950018  -0.39066137  -0.39066137 -0.016411985   0.13351191  -0.39066137   0.37424939   421400 
  652000   0.24970453   -0.3914232   -0.3914232 -0.016867291   0.13262454   -0.3914232   0.37455591   421400 
  653000   0.24925215  -0.39086684  -0.39086684 -0.016989506   0.13309297  -0.39086684   0.37387734   421400 
  654000   0.24980727  -0.39137305  -0.39137305 -0.016663036   0.13236213  -0.39137305   0.37471002   421400 
  655000   0.25021075  -0.39094185  -0.39094185 -0.015626619   0.13240317  -0.39094185   0.37531523   421400 
  656000   0.25026743  -0.39106896  -0.39106896 -0.015668713   0.13214332  -0.39106896   0.37540025   421400 
  657000   0.25006892  -0.39116317  -0.39116317  -0.01606068   0.13343066  -0.39116317   0.37510249   421400 
  658000   0.24963821  -0.39102191  -0.39102191 -0.016565486   0.13217269  -0.39102191   0.37445643   421400 
  659000   0.24987322  -0.39071475  -0.39071475 -0.015905812   0.13465339  -0.39071475   0.37480894   421400 
  660000   0.25013004   -0.3907949   -0.3907949 -0.015600734   0.13337481   -0.3907949   0.37519416   421400 
  661000   0.24962558  -0.39098136  -0.39098136 -0.016543876    0.1323101  -0.39098136   0.37443748   421400 
  662000    0.2501229  -0.39109917  -0.39109917 -0.015915711   0.13380314  -0.39109917   0.37518346   421400 
  663000   0.24989804  -0.39080416  -0.39080416 -0.015957984   0.13328086  -0.39080416   0.37484617   421400 
  664000   0.25018871  -0.39124533  -0.39124533 -0.015963162   0.13418224  -0.39124533   0.37528217   421400 
  665000   0.24997032  -0.39085008  -0.39085008 -0.015895495   0.13370934  -0.39085008   0.37495459   421400 
  666000   0.25014571  -0.39088272  -0.39088272 -0.015665039   0.13317832  -0.39088272   0.37521768   421400 
  667000   0.24970074  -0.39051455  -0.39051455 -0.015964329   0.13365538  -0.39051455   0.37455022   421400 
  668000    0.2500925  -0.39052964  -0.39052964 -0.015391787   0.13249728  -0.39052964   0.37513785   421400 
  669000   0.24978342  -0.39062413  -0.39062413 -0.015949898   0.13406793  -0.39062413   0.37467423   421400 
  670000   0.25006598  -0.39072678  -0.39072678 -0.015628697   0.13332244  -0.39072678   0.37509808   421400 
  671000   0.24987492  -0.39043959  -0.39043959 -0.015628098   0.13349631  -0.39043959   0.37481149   421400 
  672000   0.25065022  -0.39092265  -0.39092265 -0.014948211    0.1355145  -0.39092265   0.37597443   421400 
  673000   0.24991895  -0.39027876  -0.39027876 -0.015401231   0.13399897  -0.39027876   0.37487753   421400 
  674000    0.2499204  -0.39079184  -0.39079184 -0.015912127   0.13474845  -0.39079184   0.37487971   421400 
  675000   0.24994453  -0.39104914  -0.39104914 -0.016133233   0.13159851  -0.39104914    0.3749159   421400 
  676000   0.25001767  -0.39047155  -0.39047155 -0.015445938   0.13394313  -0.39047155   0.37502561   421400 
  677000   0.25036401  -0.39107021  -0.39107021  -0.01552508   0.13268065  -0.39107021   0.37554513   421400 
  678000   0.24998451   -0.3915722   -0.3915722 -0.016596325   0.13211873   -0.3915722   0.37497587   421400 
  679000   0.24994419  -0.39094066  -0.39094066 -0.016025265   0.13284673  -0.39094066   0.37491539   421400 
  680000   0.25017634  -0.39045822  -0.39045822 -0.015194601   0.13450009  -0.39045822   0.37526362   421400 
  681000    0.2501999  -0.39092022  -0.39092022 -0.015621257   0.13329311  -0.39092022   0.37529896   421400 
  682000   0.25000915  -0.39076986  -0.39076986 -0.015757019   0.13456509  -0.39076986   0.37501284   421400 
  683000    0.2498275  -0.39074135  -0.39074135  -0.01600099   0.13192554  -0.39074135   0.37474036   421400 
[...]
 9834000   0.24998375  -0.39085455  -0.39085455 -0.015879814   0.13469678  -0.39085455   0.37497474   421400 
 9835000   0.24994011  -0.39068955  -0.39068955 -0.015780283   0.13358534  -0.39068955   0.37490927   421400 
 9836000   0.25033501  -0.39159391  -0.39159391 -0.016092281   0.13353008  -0.39159391   0.37550163   421400 
 9837000   0.24963951  -0.39079368  -0.39079368 -0.016335311   0.13403729  -0.39079368   0.37445837   421400 
 9838000   0.24968836  -0.39136321  -0.39136321 -0.016831554   0.13544598  -0.39136321   0.37453165   421400 
 9839000   0.24954278  -0.39067092  -0.39067092 -0.016357641   0.13375549  -0.39067092   0.37431328   421400 
 9840000   0.25001249  -0.39084516  -0.39084516  -0.01582732   0.13437987  -0.39084516   0.37501784   421400 
 9841000   0.24946483   -0.3904394   -0.3904394 -0.016243055   0.13313241   -0.3904394   0.37419635   421400 
 9842000   0.25014992  -0.39090125  -0.39090125 -0.015677259   0.13265963  -0.39090125   0.37522399   421400 
 9843000   0.24957643  -0.39081479  -0.39081479 -0.016451037   0.13348708  -0.39081479   0.37436376   421400 
 9844000   0.24956092  -0.39088912  -0.39088912 -0.016548628   0.13253664  -0.39088912   0.37434049   421400 
 9845000   0.25004452  -0.39143523  -0.39143523 -0.016369342   0.13313511  -0.39143523   0.37506589   421400 
 9846000   0.24993412  -0.39078594  -0.39078594  -0.01588565   0.13388446  -0.39078594   0.37490029   421400 
 9847000   0.25015776  -0.39091633  -0.39091633 -0.015680581   0.13371437  -0.39091633   0.37523575   421400 
 9848000   0.25014282  -0.39134009  -0.39134009 -0.016126748   0.13195229  -0.39134009   0.37521334   421400 
 9849000   0.24985596  -0.39081482  -0.39081482 -0.016031763   0.13520781  -0.39081482   0.37478306   421400 
 9850000   0.24979753  -0.39095512  -0.39095512  -0.01625971   0.13409922  -0.39095512   0.37469541   421400 
 9851000   0.25024402   -0.3914102   -0.3914102  -0.01604507   0.13348421   -0.3914102   0.37536513   421400 
 9852000   0.24953925  -0.39088602  -0.39088602 -0.016578034   0.13240878  -0.39088602   0.37430798   421400 
 9853000   0.24990399  -0.39072604  -0.39072604 -0.015870947   0.13412942  -0.39072604   0.37485509   421400 
 9854000   0.25001294  -0.39107058  -0.39107058  -0.01605207   0.13207724  -0.39107058   0.37501851   421400 
 9855000   0.24986336  -0.39116943  -0.39116943 -0.016375281   0.13317624  -0.39116943   0.37479414   421400 
 9856000   0.24994322  -0.39116149  -0.39116149 -0.016247547   0.13387046  -0.39116149   0.37491394   421400 
 9857000   0.24973593  -0.39136553  -0.39136553 -0.016762524   0.13098768  -0.39136553   0.37460301   421400 
 9858000   0.24982224  -0.39103584  -0.39103584 -0.016303367   0.13364104  -0.39103584   0.37473247   421400 
 9859000   0.24950742  -0.39078235  -0.39078235 -0.016522111   0.13283394  -0.39078235   0.37426023   421400 
 9860000   0.24971978  -0.39021785  -0.39021785 -0.015639062     0.134121  -0.39021785   0.37457879   421400 
 9861000   0.24994959  -0.39086026  -0.39086026 -0.015936776   0.13322505  -0.39086026   0.37492349   421400 
 9862000   0.25007564  -0.39060492  -0.39060492 -0.015492359   0.13448782  -0.39060492   0.37511256   421400 
 9863000   0.24967766  -0.39112695  -0.39112695 -0.016611358   0.13233982  -0.39112695   0.37451559   421400 
 9864000   0.25039987  -0.39138109  -0.39138109 -0.015782167   0.13289305  -0.39138109   0.37559892   421400 
 9865000   0.25044059  -0.39122972  -0.39122972 -0.015569724   0.13431926  -0.39122972   0.37565999   421400 
 9866000   0.24921656  -0.39076373  -0.39076373  -0.01693977   0.13251728  -0.39076373   0.37382396   421400 
 9867000   0.24959572  -0.39090022  -0.39090022 -0.016507524    0.1324587  -0.39090022   0.37439269   421400 
 9868000   0.25007467  -0.39047946  -0.39047946 -0.015368345   0.13475299  -0.39047946   0.37511112   421400 
 9869000   0.24957875  -0.39113527  -0.39113527 -0.016768035   0.13403525  -0.39113527   0.37436724   421400 
 9870000   0.24919843  -0.39117398  -0.39117398 -0.017377211   0.13253661  -0.39117398   0.37379676   421400 
 9871000   0.24995434  -0.39103997  -0.39103997  -0.01610935   0.13399743  -0.39103997   0.37493062   421400 
 9872000   0.25007441  -0.39128119  -0.39128119 -0.016170461   0.13210247  -0.39128119   0.37511072   421400 
 9873000   0.24995228  -0.39152842  -0.39152842 -0.016600894   0.13170021  -0.39152842   0.37492753   421400 
 9874000    0.2496878  -0.39097365  -0.39097365 -0.016442844   0.13286458  -0.39097365   0.37453081   421400 
 9875000   0.24991491  -0.39136194  -0.39136194 -0.016490468   0.13279038  -0.39136194   0.37487147   421400 
 9876000   0.24988222  -0.39102229  -0.39102229 -0.016199853   0.13389908  -0.39102229   0.37482244   421400 
 9877000   0.25033381  -0.39050607  -0.39050607 -0.015006244   0.13375121  -0.39050607   0.37549982   421400 
 9878000   0.25020081  -0.39047152  -0.39047152 -0.015171205   0.13386237  -0.39047152   0.37530032   421400 
 9879000   0.25009812  -0.39076482  -0.39076482 -0.015618528   0.13251701  -0.39076482   0.37514629   421400 
 9880000   0.25036142  -0.39072574  -0.39072574 -0.015184496   0.13286037  -0.39072574   0.37554124   421400 
 9881000   0.25013824  -0.39096053  -0.39096053 -0.015754055   0.13294461  -0.39096053   0.37520647   421400 
 9882000   0.24993317  -0.39081304  -0.39081304 -0.015914174   0.13389289  -0.39081304   0.37489886   421400 
 9883000   0.25070275   -0.3913941   -0.3913941 -0.015340862   0.13222227   -0.3913941   0.37605324   421400 
 9884000   0.25007902  -0.39099497  -0.39099497 -0.015877332   0.13303675  -0.39099497   0.37511764   421400 
 9885000   0.25012265  -0.39121592  -0.39121592 -0.016032829   0.13395394  -0.39121592   0.37518309   421400 
 9886000   0.24975969  -0.39113748  -0.39113748 -0.016498837   0.13183752  -0.39113748   0.37463864   421400 
 9887000   0.25017973  -0.39064462  -0.39064462 -0.015375913   0.13305697  -0.39064462   0.37526871   421400 
 9888000   0.25012207  -0.39020493  -0.39020493 -0.015022707   0.13311536  -0.39020493   0.37518222   421400 
 9889000   0.25062254  -0.39077483  -0.39077483 -0.014841912   0.13384333  -0.39077483   0.37593292   421400 
 9890000    0.2496027  -0.39034853  -0.39034853 -0.015945366   0.13267478  -0.39034853   0.37440316   421400 
 9891000   0.24997698  -0.39073648  -0.39073648   -0.0157719    0.1338259  -0.39073648   0.37496458   421400 
 9892000   0.25008951  -0.39081533  -0.39081533  -0.01568196   0.13295329  -0.39081533   0.37513337   421400 
 9893000   0.25025716  -0.39099045  -0.39099045 -0.015605608   0.13357779  -0.39099045   0.37538485   421400 
 9894000   0.25007299  -0.39083891  -0.39083891 -0.015730309   0.13460954  -0.39083891    0.3751086   421400 
 9895000   0.24976962  -0.39085168  -0.39085168 -0.016198142   0.13323581  -0.39085168   0.37465353   421400 
 9896000    0.2500938  -0.39113031  -0.39113031 -0.015990509   0.13229835  -0.39113031    0.3751398   421400 
 9897000    0.2501123   -0.3912276   -0.3912276 -0.016060036   0.13222912   -0.3912276   0.37516757   421400 
 9898000   0.24985763  -0.39081391  -0.39081391 -0.016028358   0.13282334  -0.39081391   0.37478555   421400 
 9899000   0.24968692  -0.39044046  -0.39044046 -0.015910977    0.1344895  -0.39044046   0.37452949   421400 
 9900000   0.24982273   -0.3908474   -0.3908474 -0.016114195   0.13276286   -0.3908474   0.37473321   421400 
 9901000   0.24987175   -0.3904154   -0.3904154 -0.015608664   0.13289896   -0.3904154   0.37480674   421400 
 9902000   0.25021998  -0.39099828  -0.39099828 -0.015669196    0.1339299  -0.39099828   0.37532908   421400 
 9903000   0.24951246  -0.39079942  -0.39079942 -0.016531622   0.13312368  -0.39079942    0.3742678   421400 
 9904000    0.2493857  -0.39135761  -0.39135761 -0.017279943   0.13136855  -0.39135761   0.37407766   421400 
 9905000   0.24962579  -0.39048547  -0.39048547 -0.016047681   0.13540333  -0.39048547   0.37443779   421400 
 9906000   0.24965425  -0.39101584  -0.39101584 -0.016535363   0.13280263  -0.39101584   0.37448048   421400 
 9907000   0.25046672  -0.39067195  -0.39067195 -0.014972758   0.13226386  -0.39067195   0.37569919   421400 
 9908000   0.25032276  -0.39070417  -0.39070417 -0.015220919   0.13417514  -0.39070417   0.37548325   421400 
 9909000   0.25069201  -0.39104263  -0.39104263 -0.015005505   0.13446587  -0.39104263   0.37603712   421400 
 9910000   0.25017627  -0.39047315  -0.39047315 -0.015209641   0.13419355  -0.39047315   0.37526351   421400 
 9911000   0.24989946  -0.39060144  -0.39060144 -0.015753138   0.13275951  -0.39060144   0.37484831   421400 
 9912000   0.25002258  -0.39081044  -0.39081044 -0.015777454   0.13344244  -0.39081044   0.37503298   421400 
 9913000   0.24961092  -0.39087737  -0.39087737 -0.016461879   0.13307125  -0.39087737   0.37441549   421400 
 9914000    0.2500826   -0.3909508   -0.3909508 -0.015827788   0.13363747   -0.3909508   0.37512301   421400 
 9915000   0.25056185  -0.39036017  -0.39036017 -0.014518288   0.13591251  -0.39036017   0.37584188   421400 
 9916000   0.25026454  -0.39068939  -0.39068939 -0.015293473   0.13499332  -0.39068939   0.37539591   421400 
 9917000   0.25036213  -0.39098623  -0.39098623 -0.015443929   0.13479699  -0.39098623    0.3755423   421400 
 9918000   0.25001019  -0.39106534  -0.39106534 -0.016050952    0.1337328  -0.39106534   0.37501439   421400 
 9919000   0.24999876  -0.39034997  -0.39034997 -0.015352727   0.13445058  -0.39034997   0.37499725   421400 
 9920000   0.25073244  -0.39081623  -0.39081623  -0.01471846   0.13382595  -0.39081623   0.37609777   421400 
 9921000   0.25015127  -0.39053029  -0.39053029 -0.015304269   0.13365049  -0.39053029   0.37522602   421400 
 9922000   0.25035272  -0.39079971  -0.39079971 -0.015271518   0.13342099  -0.39079971    0.3755282   421400 
 9923000   0.24958671  -0.39049978  -0.39049978 -0.016120599   0.13304193  -0.39049978   0.37437918   421400 
 9924000   0.24951773  -0.39090256  -0.39090256 -0.016626856   0.13367381  -0.39090256    0.3742757   421400 
 9925000   0.24957306   -0.3905954   -0.3905954 -0.016236692   0.13288466   -0.3905954    0.3743587   421400 
 9926000   0.24982233  -0.39078303  -0.39078303 -0.016050427   0.13240739  -0.39078303    0.3747326   421400 
 9927000   0.25025999   -0.3910273   -0.3910273 -0.015638205   0.13235189   -0.3910273   0.37538909   421400 
 9928000   0.24976233  -0.39016066  -0.39016066 -0.015518064   0.13410646  -0.39016066    0.3746426   421400 
 9929000   0.25002806  -0.39075351  -0.39075351 -0.015712303    0.1323202  -0.39075351    0.3750412   421400 
 9930000   0.25066918  -0.39107875  -0.39107875 -0.015075881   0.13296836  -0.39107875   0.37600287   421400 
 9931000   0.24985042  -0.39083261  -0.39083261 -0.016057876   0.13296324  -0.39083261   0.37477474   421400 
 9932000   0.25031419  -0.39103302  -0.39103302 -0.015562628   0.13390407  -0.39103302    0.3754704   421400 
 9933000   0.24991118  -0.39077946  -0.39077946 -0.015913582   0.13219669  -0.39077946   0.37486587   421400 
 9934000   0.24995808  -0.39094823  -0.39094823 -0.016012004   0.13218847  -0.39094823   0.37493623   421400 
 9935000   0.25005293  -0.39082289  -0.39082289 -0.015744392   0.13326605  -0.39082289    0.3750785   421400 
 9936000   0.25011956  -0.39130263  -0.39130263 -0.016124182   0.13222459  -0.39130263   0.37517845   421400 
 9937000   0.24953333  -0.39116257  -0.39116257 -0.016863462    0.1326275  -0.39116257    0.3742991   421400 
 9938000   0.24972783  -0.39110054  -0.39110054 -0.016509676   0.13194088  -0.39110054   0.37459086   421400 
 9939000   0.24975648  -0.39105284  -0.39105284 -0.016419001   0.13402855  -0.39105284   0.37463383   421400 
 9940000   0.24984606  -0.39085244  -0.39085244 -0.016084244   0.13379061  -0.39085244    0.3747682   421400 
 9941000    0.2498502  -0.39118963  -0.39118963 -0.016415219   0.13323946  -0.39118963   0.37477441   421400 
 9942000   0.25014025  -0.39133907  -0.39133907 -0.016129584    0.1322561  -0.39133907   0.37520949   421400 
 9943000   0.24993573  -0.39109501  -0.39109501 -0.016192307   0.13251847  -0.39109501    0.3749027   421400 
 9944000   0.24980091  -0.39085006  -0.39085006 -0.016149583   0.13320715  -0.39085006   0.37470047   421400 
 9945000   0.24976239  -0.39098231  -0.39098231 -0.016339612   0.13395397  -0.39098231   0.37464269   421400 
 9946000   0.24930941  -0.39087189  -0.39087189 -0.016908665   0.13254592  -0.39087189   0.37396322   421400 
 9947000   0.24971416  -0.39008959  -0.39008959 -0.015519245   0.13269613  -0.39008959   0.37457035   421400 
 9948000   0.25043813   -0.3904631   -0.3904631   -0.0148068    0.1339461   -0.3904631    0.3756563   421400 
 9949000    0.2503204  -0.39030831  -0.39030831 -0.014828599   0.13349568  -0.39030831   0.37547971   421400 
 9950000   0.24976197  -0.39061447  -0.39061447 -0.015972408    0.1354908  -0.39061447   0.37464206   421400 
 9951000   0.25000372  -0.39109109  -0.39109109 -0.016086401   0.13372455  -0.39109109   0.37500469   421400 
 9952000   0.24988547  -0.39073496  -0.39073496 -0.015907643   0.13312437  -0.39073496   0.37482731   421400 
 9953000   0.25017901   -0.3908155   -0.3908155  -0.01554787    0.1329782   -0.3908155   0.37526763   421400 
 9954000   0.25004846  -0.39068575  -0.39068575 -0.015613957   0.13386035  -0.39068575    0.3750718   421400 
 9955000   0.25001609  -0.39077086  -0.39077086 -0.015747616   0.13351172  -0.39077086   0.37502324   421400 
 9956000   0.25016339  -0.39087217  -0.39087217  -0.01562798   0.13278023  -0.39087217   0.37524419   421400 
 9957000   0.24980701  -0.39043271  -0.39043271 -0.015723081   0.13418461  -0.39043271   0.37470963   421400 
 9958000   0.25005887  -0.39074618  -0.39074618 -0.015658767   0.13213951  -0.39074618   0.37508742   421400 
 9959000   0.24977688  -0.39091553  -0.39091553 -0.016251096   0.13298245  -0.39091553   0.37466444   421400 
 9960000   0.24966268  -0.39065617  -0.39065617 -0.016163036    0.1337719  -0.39065617   0.37449313   421400 
 9961000   0.24999674  -0.39110533  -0.39110533 -0.016111111   0.13194772  -0.39110533   0.37499422   421400 
 9962000   0.24965171  -0.39085711  -0.39085711 -0.016380439   0.13227925  -0.39085711   0.37447667   421400 
 9963000   0.25017912  -0.39109418  -0.39109418 -0.015826394   0.13262173  -0.39109418   0.37526779   421400 
 9964000   0.24968438  -0.39043349  -0.39043349 -0.015907811   0.13247344  -0.39043349   0.37452568   421400 
 9965000   0.24977588  -0.39063648  -0.39063648 -0.015973545   0.13333047  -0.39063648   0.37466294   421400 
 9966000   0.24986758  -0.39110431  -0.39110431 -0.016303825   0.13363062  -0.39110431   0.37480049   421400 
 9967000   0.25027464  -0.39061376  -0.39061376  -0.01520269   0.13418366  -0.39061376   0.37541107   421400 
 9968000   0.24978104  -0.39095834  -0.39095834  -0.01628767   0.13304164  -0.39095834   0.37467066   421400 
 9969000   0.24916685  -0.39112606  -0.39112606 -0.017376672   0.13330831  -0.39112606   0.37374938   421400 
 9970000   0.24930304  -0.39100137  -0.39100137 -0.017047702    0.1319576  -0.39100137   0.37395367   421400 
 9971000   0.24981411  -0.39189419  -0.39189419 -0.017173915   0.13255284  -0.39189419   0.37472027   421400 
 9972000   0.24956814  -0.39090823  -0.39090823 -0.016556907   0.13424849  -0.39090823   0.37435133   421400 
 9973000    0.2495269  -0.39082816  -0.39082816 -0.016538701   0.13563337  -0.39082816   0.37428946   421400 
 9974000   0.24989221  -0.39090897  -0.39090897 -0.016071546   0.13339821  -0.39090897   0.37483743   421400 
 9975000   0.24991713  -0.39058358  -0.39058358  -0.01570877   0.13402199  -0.39058358   0.37487481   421400 
 9976000   0.24994427  -0.39027596  -0.39027596 -0.015360443   0.13300001  -0.39027596   0.37491552   421400 
 9977000   0.25025239  -0.39028245  -0.39028245 -0.014904752   0.13348207  -0.39028245    0.3753777   421400 
 9978000   0.25032292  -0.39081616  -0.39081616 -0.015332674   0.13497664  -0.39081616   0.37548349   421400 
 9979000   0.25045617  -0.39080864  -0.39080864  -0.01512528   0.13261206  -0.39080864   0.37568336   421400 
 9980000   0.24991158  -0.39069956  -0.39069956 -0.015833075   0.13394621  -0.39069956   0.37486648   421400 
 9981000    0.2499909  -0.39095714  -0.39095714 -0.015971685   0.13440465  -0.39095714   0.37498545   421400 
 9982000   0.25013114  -0.39085631  -0.39085631 -0.015660482   0.13267438  -0.39085631   0.37519582   421400 
 9983000   0.24973933  -0.39096443  -0.39096443 -0.016356321   0.13186965  -0.39096443   0.37460811   421400 
 9984000   0.25022649  -0.39095324  -0.39095324 -0.015614392   0.13297446  -0.39095324   0.37533885   421400 
 9985000    0.2503135  -0.39025098  -0.39025098 -0.014781628   0.13404424  -0.39025098   0.37546935   421400 
 9986000   0.25007985  -0.39068034  -0.39068034 -0.015561454   0.13491216  -0.39068034   0.37511889   421400 
 9987000   0.24979583  -0.39118238  -0.39118238 -0.016489518   0.13263059  -0.39118238   0.37469286   421400 
 9988000   0.24991959  -0.39071897  -0.39071897 -0.015840477   0.13459888  -0.39071897    0.3748785   421400 
 9989000   0.24998717  -0.39064912  -0.39064912 -0.015669253   0.13311099  -0.39064912   0.37497987   421400 
 9990000    0.2501508  -0.39090443  -0.39090443 -0.015679113   0.13374845  -0.39090443   0.37522532   421400 
 9991000   0.24946441  -0.39091813  -0.39091813 -0.016722405    0.1337538  -0.39091813   0.37419572   421400 
 9992000   0.25030912   -0.3907284   -0.3907284 -0.015265608   0.13203375   -0.3907284    0.3754628   421400 
 9993000   0.25011057  -0.39048471  -0.39048471 -0.015319747   0.13524191  -0.39048471   0.37516496   421400 
 9994000   0.25034749  -0.39134189  -0.39134189 -0.015821553    0.1345424  -0.39134189   0.37552034   421400 
 9995000   0.24993851  -0.39052532  -0.39052532 -0.015618452   0.13243346  -0.39052532   0.37490687   421400 
 9996000    0.2501432   -0.3905369   -0.3905369 -0.015322994   0.13461038   -0.3905369    0.3752139   421400 
 9997000   0.25008585  -0.39056082  -0.39056082 -0.015432943   0.13357989  -0.39056082   0.37512788   421400 
 9998000   0.25010982  -0.39094888  -0.39094888 -0.015785038   0.13236113  -0.39094888   0.37516384   421400 
 9999000   0.25062871  -0.39023759  -0.39023759 -0.014295416   0.13399966  -0.39023759   0.37594217   421400 
10000000   0.25092331  -0.39067441  -0.39067441 -0.014290346   0.13413643  -0.39067441   0.37638407   421400 
Loop time of 6586.16 on 192 procs for 10000000 steps with 421400 atoms

Performance: 655920.982 tau/day, 1518.336 timesteps/s
88.8% CPU use with 192 MPI tasks x 1 OpenMP threads

MPI task timing breakdown:
Section |  min time  |  avg time  |  max time  |%varavg|  %CPU | %total
-----------------------------------------------------------------------
Pair    | 1715.4     | 1827       | 1944.8     | 101.8 |  90.9 | 27.74
Bond    | 6.4614     | 6.6834     | 7.0184     |   4.0 | 100.0 |  0.10
Neigh   | 840.18     | 896.02     | 929.39     |  66.0 |  95.6 | 13.60
Comm    | 1631.4     | 1888.7     | 2081.3     | 197.2 |  88.6 | 28.68
Output  | 561.8      | 563.82     | 563.85     |   0.6 |  68.1 |  8.56
Modify  | 1138.1     | 1165.4     | 1264       |  65.4 |  90.4 | 17.70
Other   |            | 238.5      |            |       |       |  3.62

Nlocal:        2194.79 ave        2268 max        2122 min
Histogram: 9 6 20 28 26 41 31 14 11 6
Nghost:        1720.02 ave        1867 max        1426 min
Histogram: 15 28 5 0 0 0 3 27 84 30
Neighs:        11997.7 ave       13321 max       10860 min
Histogram: 5 7 20 38 44 40 22 9 5 2

Total # of neighbors = 2303557
Ave neighs/atom = 5.4664381
Ave special neighs/atom = 0.0000000
Neighbor list builds = 660167
Dangerous builds = 307
write_data	data.lj
System init for write_data ...


## Evaporation
#region          regevap block EDGE EDGE EDGE EDGE 140 180 units box
#fix             4 solvent evaporate ${evap} 1 regevap 156415

#run 		20000000
Total wall time: 1:49:50
