#LAMMPS data file for polygons: cubes, moment of inertia I = m edge^2/ 6
2 atoms
2 bodies
2 atom types
-20 20 xlo xhi
-20 20 ylo yhi
-20 20 zlo zhi

Atoms

1 1 1 1 0 0 0
2 2 1 1 0 0 12
Bodies

1 3 79
8 12 6
0.667 0.667 0.667 0 0 0
1 1 1
1 -1 1
-1 -1 1
-1 1 1
1 1 -1
1 -1 -1
-1 -1 -1
-1 1 -1
0 1
1 2
2 3
3 0
4 5
5 6
6 7
7 4
0 4
1 5
2 6
3 7
0 1 2 3
4 5 6 7
0 1 5 4
1 2 6 5
2 3 7 6
3 0 4 7
0.5
1 3 13
2 1 1
0 1.33333 1.33333 0 0 0
-2 0 0
2 0 0
0.5