#LAMMPS data file for polygons: cubes, moment of inertia I = m edge^2/ 6
1 atoms
1 bodies
2 atom types
0 2 xlo xhi
0 2 ylo yhi
0 2 zlo zhi

Atoms

1 1 1 1 1 1 1

Bodies

1 3 10
1 0 0
1 1 1 0 0 0
0 0 0
0.1