#LAMMPS data file for polygons: cubes, moment of inertia I = m edge^2/ 6
999 atoms
999 bodies
2 atom types
-20 20 xlo xhi
-20 20 ylo yhi
-20 20 zlo zhi

Atoms

1 1 1 1 0 0 0
2 2 1 1	16.2316774830248	-5.79705392484604	15.6906875292443
3 2 1 1	-14.9205273482598	19.8801308642659	-10.2958645488132
4 2 1 1	16.5350342455608	-11.0331400406749	-14.8161209664984
5 2 1 1	5.29436984901638	6.0980429187446		-10.9972847148835
6 2 1 1	-16.0983838000236	4.19962567633037	-5.99944323996935
7 2 1 1	-8.86007124531806	-4.5101827406746	-8.51661547415296
8 2 1 1	1.87526076819935	-14.3125136283798	17.0995202871771
9 2 1 1	18.3002734173719	-18.9946005715919	-17.9474497273282
10  2 1	1			18.5955414079711	-3.15550984939035	3.70667020825546
11  2 1	1			-13.6954767328981	-12.6359884228996	-13.4840439912907
12  2 1	1			18.8237112704246	9.03101069877813	13.5362307869212
13  2 1	1			18.2866779297178	-5.18549253939208	-13.2975627915492
14  2 1	1			-0.584974051086352	13.6624034987282	0.0880246163789096
15  2 1	1			12.011218755552		9.36918764773253	19.9731791610288
16  2 1	1			-14.3245464549114	2.84103491297515	-5.78371394928475
17  2 1	1			-3.129548694949		-12.9257976949879	-18.1168916180466
18  2 1	1			16.6294210075627	18.2953609038289	-11.453576595168
19  2 1	1			11.6882931823822	-9.3871185522832	-4.08643503589179
20  2 1	1			18.3796970557161	16.983235809584		-6.65327278478821
21  2 1	1			6.22962796626347	-11.0491838121184	-10.8158987212721
22  2 1	1			-18.5715328570324	-5.0574476942942	17.4448071000827
23  2 1	1			13.9651722347511	-16.4999860169366	7.32755138799931
24  2 1	1			17.359729910302		5.6046619298686		18.4845518289145
25  2 1	1			7.14940619431094	-12.7753244898757	-2.48107289468808
26  2 1	1			10.3096052231333	-18.197955701057	17.6134661768363
27  2 1	1			9.72529872499665	8.92693916732381	-19.7666270171052
28  2 1	1			-4.31091921863327	-6.1024941767284	4.41228120279501
29  2 1	1			6.21911560710227	6.42467298011615	12.0430302786448
30  2 1	1			-13.1525324875375	-4.64525595712114	-10.6807386634541
31  2 1	1			8.24184352078435	5.09386009773868	17.2987470368391
32  2 1	1			-18.7266861449032	-19.1340074147877	10.5305110133497
33  2 1	1			-8.9230806015644	16.4227995409211	13.0579815881073
34  2 1	1			-18.1531443747538	12.0223462511524	2.93854354419464
35  2 1	1			-16.1147287505661	9.83389937370885	11.703266564809
36  2 1	1			12.9383131330917	12.5245125444304	-6.8383521664301
37  2 1	1			7.79314491903268	-4.66774725497883	-11.0615209549659
38  2 1	1			-7.31602079756558	4.69116929265797	-7.50454631922986
39  2 1	1			18.0088819535342	3.01979438811255	3.38093914114222
40  2 1	1			-18.6221567798836	1.20206819060062	13.1965656408609
41  2 1	1			-2.45022561374407	-8.9972097671226	-8.38150033810928
42  2 1	1			-4.73766171627966	-10.0548416135212	-3.8978243174751
43  2 1	1			10.6206715259601	-1.93444918192109	14.4822919373258
44  2 1	1			11.8079960454825	-10.8914869589381	4.58958200865598
45  2 1	1			-12.5250958178249	12.1779833445228	19.6475115331917
46  2 1	1			-0.409424168470757	19.4441696758388	-11.8520449925751
47  2 1	1			-2.17655197156402	-18.8003219892244	13.0883633978662
48  2 1	1			5.85252040445059	1.42656762668951	7.03446475811097
49  2 1	1			8.3745932343229		-16.5169112039643	-10.0420211984077
50  2 1	1			10.1874672792944	12.0836576222322	-0.968574937218698
51  2 1	1			-8.95899692005687	19.5657963880136	-4.03699093092833
52  2 1	1			7.18810707414699	-17.32214966409		3.97752996365648
53  2 1	1			6.20392015895363	17.5759344753814	12.020910632154
54  2 1	1			-13.4955305922148	-19.2728986545322	-15.7972491483532
55  2 1	1			-15.2400927376649	7.35354454985421	12.8576877650557
56  2 1	1			-0.065437920714281	11.3494592033287	13.6434532018169
57  2 1	1			18.3897583406432	1.36550271530913	-5.81975022398244
58  2 1	1			-6.38457093335467	15.4143780372457	-2.79722149536666
59  2 1	1			3.41071003919109	15.9601959562456	2.88956873650739
60  2 1	1			-11.0475224203545	5.03750504321983	8.03298923084947
61  2 1	1			10.0506823722261	-14.4852403034977	9.69879027949121
62  2 1	1			-9.79619538162924	-11.287936251515	10.3153660248314
63  2 1	1			0.238282066605695	-12.7143569643827	-4.43484945723092
64  2 1	1			7.96306890626744	-18.3272054410818	-2.8279006000065
65  2 1	1			15.6361301014319	-15.7223336579917	18.2537863000263
66  2 1	1			18.3716570082178	4.65773940342741	2.91885469081937
67  2 1	1			1.88862119855212	17.5864404064427	13.9888821687469
68  2 1	1			-14.4550222868528	-5.82177076130685	-8.94618734807106
69  2 1	1			-14.0282397776377	-3.57483639761944	4.89294460609802
70  2 1	1			-9.69966983505054	19.3739766793781	3.53446738454156
71  2 1	1			13.6286902393465	17.8231675614105	18.5387386322797
72  2 1	1			-9.82871284113876	7.06578713734157	-16.56389220131
73  2 1	1			12.5713930427527	19.5320904925315	0.0199556641580223
74  2 1	1			-10.2590012510004	10.6732554886638	0.863587059922196
75  2 1	1			17.1705449274891	-6.53202942434095	-16.3933599132415
76  2 1	1			-6.00064936060765	6.49527441597925	16.186659187605
77  2 1	1			-12.1361899827517	-10.2333885283888	15.3755575403944
78  2 1	1			-9.95664568095876	-8.17970996673613	-2.44041332777639
79  2 1	1			4.64178704586557	7.20713484922008	11.2689045166866
80  2 1	1			-1.06844604389083	1.11387321675192	-14.0613990822637
81  2 1	1			-5.93361971748013	-3.53625946369862	4.79263709043484
82  2 1	1			13.2331451158516	4.10552872145589	-9.57505282422317
83  2 1	1			3.41056364610897	10.0208022369494	-2.17375154241699
84  2 1	1			1.98894433164558	3.34132697047835	13.7599804589974
85  2 1	1			16.6877465531924	2.0717005974387		-12.1518032507499
86  2 1	1			-8.56643924718506	3.34282475030858	-7.8459350888939
87  2 1	1			10.2880091644288	0.472796798339008	-0.668217290628576
88  2 1	1			10.1491637711398	-16.696290920052	-6.48751824515905
89  2 1	1			-4.78216612098573	8.78280539437959	11.939433180862
90  2 1	1			2.71286562900885	19.8462444518748	19.4995030075741
91  2 1	1			-16.9658284174775	-5.81862780172313	-13.6380978111042
92  2 1	1			-17.8419952533357	18.8503526073362	-10.5248086709578
93  2 1	1			1.23190212035891	-6.14204954798561	8.08946530671562
94  2 1	1			11.1666892040804	15.4617544704123	-4.9811334920981
95  2 1	1			17.3604273691673	-1.81220540032369	18.9481961069994
96  2 1	1			-14.8037516610508	-3.46290843916739	18.8922222275383
97  2 1	1			2.75294643488771	-11.290717265708	5.74792197685619
98  2 1	1			-1.22437435767177	-14.973816505495	14.4039550741664
99  2 1	1			-19.5239172199503	-7.64341625732739	-3.92466407967657
100 2 1	1			-6.51509422404474	9.04417726659327	5.27723191909828
101 2 1	1			-13.5127076722703	11.3148829191649	19.4094655765932
102 2 1	1			11.7713816273563	7.75150459947589	2.37909623949102
103 2 1	1			-7.55139831820781	-19.6079099094775	17.3436766336884
104 2 1	1			1.14132542024851	13.7285335204204	8.81372824002992
105 2 1	1			-13.3740508200088	16.893279911851		-0.638459327506329
106 2 1	1			4.07927765606546	10.838168826957		5.56124370724921
107 2 1	1			-9.48114861839423	-18.2936057625981	15.5054746355842
108 2 1	1			6.16316393907129	-4.87255451799125	-12.0505299960432
109 2 1	1			7.56858012560031	8.17358497933471	-4.18534904179159
110 2 1	1			9.92606371294838	9.18052182018588	19.6870120998122
111 2 1	1			-1.97833605990009	-11.0289171734194	-3.90593532256208
112 2 1	1			-16.6471448801227	-9.2378107290654	6.35425924291724
113 2 1	1			-10.8409212513272	6.92124660016476	16.0539249213805
114 2 1	1			16.5334944600668	-0.900312090925549	19.8152710607155
115 2 1	1			-13.9048792412311	4.9486565066977		6.12653124378761
116 2 1	1			13.0326790995819	-10.5422026943636	-15.6625428857794
117 2 1	1			1.53369741040228	-12.9150498200673	-18.5554387681858
118 2 1	1			19.8453886650754	13.1857354279034	4.72364956187895
119 2 1	1			-16.8729788498727	10.6768667174106	2.68577447591982
120 2 1	1			-2.29286920898215	17.3791309247308	18.478586312213
121 2 1	1			-15.7338891927766	-15.6844437966255	9.84421877675551
122 2 1	1			18.4759232342021	-12.7108997759578	6.50064393740327
123 2 1	1			-19.8146310346373	-16.0361887031017	0.932532736480383
124 2 1	1			10.9964185884601	-0.409447923062125	-9.6042287406241
125 2 1	1			12.6921288261373	-12.2701867812452	18.4797506766469
126 2 1	1			14.7477882145404	15.8356629517027	1.6081615005408
127 2 1	1			-16.6225661795636	-16.0364140127274	-18.7891934632093
128 2 1	1			-4.00869403604414	-18.2333771294936	7.85257853644509
129 2 1	1			-9.60518388597383	2.29180623219047	0.788646316835123
130 2 1	1			12.0027392089723	10.899802687505		-17.6387777734206
131 2 1	1			-2.74344690145821	-7.52239770014925	15.6014493291285
132 2 1	1			16.4259037771809	-12.8407008274266	-6.79191029943918
133 2 1	1			-12.7261188678859	-6.44177287009127	-10.8119520851552
134 2 1	1			-9.4478833391204	-11.5941745182579	-15.4420543201924
135 2 1	1			-14.1784407846113	0.406100790610008	-7.56309146185577
136 2 1	1			-14.5572576516535	16.2545729306086	-10.8627071145705
137 2 1	1			14.7716883056036	5.15695754609272	6.07988668868013
138 2 1	1			3.18818349462281	-15.9386444475075	-17.3535950160669
139 2 1	1			1.99440807345328	-4.36580989094582	-8.98274480556332
140 2 1	1			-14.2018080710509	-17.8153353910537	-8.72719049756533
141 2 1	1			14.1212447088758	0.0513165281286092	15.2026503890422
142 2 1	1			4.88220525940264	-2.73115312463011	-2.22678565203061
143 2 1	1			-5.96190476430916	19.9024139804876	10.2365648363184
144 2 1	1			0.529981594682134	12.4641032398129	4.13185503261394
145 2 1	1			-3.92767864992233	-0.573933204079292	11.3306374961615
146 2 1	1			-16.9613323323663	15.7779102226957	-15.442774452863
147 2 1	1			-10.4033538578537	-14.4981362093174	19.1425554063991
148 2 1	1			-15.0672426065934	-4.39980342218858	13.943867019182
149 2 1	1			-12.6436884687033	17.094248999925		-17.9741400931783
150 2 1	1			-10.4018989734039	16.6997532966447	-1.35192664837456
151 2 1	1			-3.30931723662522	8.54296046377263	-6.97386900207866
152 2 1	1			-18.0138227869703	4.7334953448776		5.20820499998999
153 2 1	1			16.1086443966112	-6.26848439034618	-10.788033448893
154 2 1	1			17.7914875888658	17.4410930675908	3.19539893125156
155 2 1	1			-0.365436301276802	-15.0090383735803	4.12625281759586
156 2 1	1			-0.429894463999247	9.22341446022828	3.99516383331428
157 2 1	1			-6.49122360714491	5.85909729703255	-2.06288478464339
158 2 1	1			16.0021538567065	13.3260794267718	-18.5830615726885
159 2 1	1			-5.2301287551914	-4.06871087124898	0.552593401531063
160 2 1	1			-15.5518897882485	9.99288837442544	-3.69079352909452
161 2 1	1			11.2100827328455	13.4088204191252	-15.6781585353776
162 2 1	1			-4.41044652154986	-7.10158410550962	-1.60497484230744
163 2 1	1			-10.3323485634467	2.0904646743342		-1.96468985296679
164 2 1	1			-3.84351417647541	19.1651652973557	2.04561343217675
165 2 1	1			-16.1418189932645	1.97234132073211	12.2161726803199
166 2 1	1			-14.7210682957466	-6.78305561573589	8.03400291144242
167 2 1	1			17.6820236310194	4.7788622071112		14.8894201568639
168 2 1	1			18.2453816091921	-5.57453715991189	-17.912313902844
169 2 1	1			3.00834380313862	10.2603817400778	-11.2127475437862
170 2 1	1			-17.6088182821138	-3.44397005239241	-1.61431959554534
171 2 1	1			-10.6088034651037	-0.30619582460249	18.3413438451604
172 2 1	1			-5.87365715111716	7.7897293253044		11.6018142791775
173 2 1	1			12.8477616079184	18.9093554031914	-1.92501563829996
174 2 1	1			-19.3838624939378	-6.88980158026373	-6.66287254156534
175 2 1	1			-18.2790479336877	13.512127323143		-17.6361874927968
176 2 1	1			-13.2403988214918	9.56288909094112	9.6362121157435
177 2 1	1			5.96461899825808	18.1669782551817	0.271780962220099
178 2 1	1			9.26889542634681	-18.7230948198409	-12.0029834744258
179 2 1	1			5.90983852545227	-5.72524055269832	-2.91225795594848
180 2 1	1			-1.9630517427622	6.50615337148858	-13.2523888515092
181 2 1	1			1.8803556914538		-8.73993763406038	10.0677836341875
182 2 1	1			-8.14716777568907	-10.7846773073015	-5.26596633484798
183 2 1	1			9.78771228296625	8.445142047213		17.6727118095954
184 2 1	1			-12.4417993986982	4.98291667973234	-19.3130983635713
185 2 1	1			7.4710173346126		3.62434611678544	13.162236351152
186 2 1	1			-12.6595537705092	6.41751865250408	5.06363899821104
187 2 1	1			-5.26061614038654	-18.0978130754454	1.54986060628877
188 2 1	1			5.02474242918762	-6.04860765959764	6.02030541520242
189 2 1	1			11.2090974060551	-1.94637678577027	9.06518129226057
190 2 1	1			-16.7549692453686	-10.3638001151956	-16.2204574431769
191 2 1	1			17.1754388387492	8.60180053184706	15.1029573723064
192 2 1	1			11.0285071443361	14.2472916802515	-19.4255142421606
193 2 1	1			-0.528334703873107	-8.73969219525787	-8.22789492615051
194 2 1	1			-2.56565645676324	9.24203318894966	-12.8034048598304
195 2 1	1			-2.12865002280775	-14.4894842992193	17.051770727918
196 2 1	1			-7.7460211193377	13.4689112699887	-17.2727825269186
197 2 1	1			0.340346215245081	-14.4559313703056	3.24372910313966
198 2 1	1			0.430862566884386	3.52837541557975	5.48604890100899
199 2 1	1			12.7051083328905	-5.35372798180249	6.05077059059769
200 2 1	1			11.7932566753381	12.2703817864442	14.5848805013421
201 2 1	1			5.77272520774767	0.151231431046238	-17.7618988237192
202 2 1	1			-4.85562469358926	-0.416226451065832	12.674206950954
203 2 1	1			12.4632183312991	15.0819489354018	1.15689865313714
204 2 1	1			1.31302355197819	-5.87432748244178	7.77402242489767
205 2 1	1			-5.97091585692467	-2.02225773713007	-11.5038041487266
206 2 1	1			17.5600624799955	18.5412114737371	1.73119784999404
207 2 1	1			15.0377124597194	-18.3080880834183	8.10081088613855
208 2 1	1			2.00625371593689	18.9183333656254	18.2573822904188
209 2 1	1			4.8990034400491		-12.431726275105	-2.21831348506115
210 2 1	1			3.48178818125667	6.684812001603		-16.5840867674942
211 2 1	1			-11.6903082906789	3.45758458715672	-17.7063940983497
212 2 1	1			-7.95014678882037	7.00449665620461	5.17801944397917
213 2 1	1			-1.16306605929637	-5.55911803221356	11.8471626599383
214 2 1	1			-10.7804735915377	4.81113708284342	7.64765331432574
215 2 1	1			13.7723517078156	12.4460354040114	-6.18768551139338
216 2 1	1			-12.209428417318	-19.2297009034343	17.8726666864638
217 2 1	1			-10.963128761104	-16.645059668684	0.807612728459087
218 2 1	1			-13.1716781140857	18.9920666873956	18.1525210079171
219 2 1	1			-10.8934280873379	6.05398129661413	-17.056174567672
220 2 1	1			-2.57205263584403	-10.7504873534259	-11.718722077077
221 2 1	1			-7.55590853398349	-3.86035427501641	11.0011125592787
222 2 1	1			16.9351856841298	-15.1191792699148	16.5675128497509
223 2 1	1			-2.79170434681664	-9.26244714410867	11.302025908412
224 2 1	1			-12.6073471950346	-9.68615319549581	-8.17863215340496
225 2 1	1			16.1952387471957	-6.73339045029483	-13.9261711074206
226 2 1	1			19.1899351342434	-13.9106394854821	13.9164208925513
227 2 1	1			-2.44520107495587	-6.07969361135546	11.394183643726
228 2 1	1			-15.555231062376	-15.133661827691	-9.16673991394731
229 2 1	1			-9.67741216351732	15.3661223099864	-10.8875718073547
230 2 1	1			-3.65120615549792	-16.2288643974342	-7.15907131644196
231 2 1	1			3.79584296034457	17.2016250442996	13.1824721759667
232 2 1	1			-9.51153008876618	-4.03920123861778	12.887287784039
233 2 1	1			4.11372357528332	-18.103941518834	2.82731401927513
234 2 1	1			8.44863121734732	-6.30505987357041	2.8731854491539
235 2 1	1			-11.1301306393104	9.43864635520656	-8.55926910002479
236 2 1	1			-15.3032939657678	11.7872862933522	7.96534237204836
237 2 1	1			-8.13296507126692	1.79623592978686	11.8503177312631
238 2 1	1			-7.24886792296471	7.44893851936164	-2.33643775395109
239 2 1	1			-3.03332961144771	15.7453078373441	-2.15137553235114
240 2 1	1			0.314331386444728	-17.8083284032107	-1.37350366539557
241 2 1	1			-16.5793681163982	-7.85354481131936	-8.83843250901541
242 2 1	1			-9.50071061206669	-18.1523377467381	7.01501273666379
243 2 1	1			12.0405849107895	-12.1809294546481	16.1465810545416
244 2 1	1			-18.8311888975141	8.80663210066103	16.341035953935
245 2 1	1			17.1541655791218	8.87013093997187	9.88787776522852
246 2 1	1			9.21323451421812	15.1119628460611	-9.57953971665816
247 2 1	1			-0.455641047856833	3.29731857949641	7.58551360296436
248 2 1	1			3.14100244093756	-17.172626584534	-14.7267733809795
249 2 1	1			-10.5086568091391	16.9097828075637	-15.059966707208
250 2 1	1			-1.64604687280276	12.0148836940443	-12.3638858702204
251 2 1	1			18.5235415714765	-8.56212574318547	-14.1707160201483
252 2 1	1			1.87222874955872	1.74652931365447	3.40174461074862
253 2 1	1			0.845433232160062	19.3910494788244	-17.0655323967813
254 2 1	1			-10.736224531659	8.62712268506486	12.8930488874122
255 2 1	1			-0.444090243193322	13.5587838932		8.91611893073861
256 2 1	1			4.96240352694758	-2.66957755968207	17.0343215206994
257 2 1	1			7.16542163462991	-1.17501137573837	-0.294456061528756
258 2 1	1			-4.17939137325628	2.42853644178224	6.19531593798674
259 2 1	1			-5.30253405822094	-9.2363382587601	15.6049391184675
260 2 1	1			19.5192801264653	9.96073870567784	1.54102297876085
261 2 1	1			-18.4904453504179	0.155510938419546	-8.71179341767111
262 2 1	1			15.406720328099		5.87238665091122	19.0383007151986
263 2 1	1			16.5314731055696	-7.69017671876237	-18.5429793789808
264 2 1	1			11.8473549434085	-14.4510145568742	-6.9502170775875
265 2 1	1			-16.051508853777	-0.977082648097483	18.9205449557128
266 2 1	1			-9.52515264517136	-5.50162876725016	-5.3986949877701
267 2 1	1			-6.58572640148814	11.5245371359419	-7.63401524416331
268 2 1	1			7.18911805509352	11.2118328337644	-15.1635046167749
269 2 1	1			-14.5378745057852	6.7404885701418		16.6306281616316
270 2 1	1			8.84909994326961	-14.6598456135475	-14.5808717727399
271 2 1	1			-15.7295255357103	-19.1377645118601	-6.71528432686637
272 2 1	1			6.15029394674238	2.39362823490039	15.8991956959954
273 2 1	1			-0.233042534429195	-7.96723927722044	-0.014048886109066
274 2 1	1			11.162068929251		17.5763885549383	4.61152968860227
275 2 1	1			8.60148313602776	19.2361454418744	3.32531872354593
276 2 1	1			16.1488224222526	-8.53518444422963	7.93015706509656
277 2 1	1			15.6369001732316	12.0328114780614	-18.8267062898255
278 2 1	1			-6.63347789050015	15.8444540573041	1.11530750954589
279 2 1	1			7.94983329339178	3.90106307271319	-18.7170861432006
280 2 1	1			-12.0876069325628	15.3606694289528	13.0856929134526
281 2 1	1			-18.7783621478145	17.7492616478317	-6.40055174071326
282 2 1	1			9.76297041469849	1.96632349679611	13.8684383552212
283 2 1	1			0.000897423608034131	9.13547298377427	-10.1572173157561
284 2 1	1			-0.803114354157582	3.07033191432039	3.2596500947253
285 2 1	1			16.1888895226945	-18.9657011566744	17.507075162991
286 2 1	1			4.39466593690234	-2.13876086860743	-18.0885083045974
287 2 1	1			4.70665558353819	5.85207829402622	-17.8408936331905
288 2 1	1			14.3776922258485	0.848118106896727	-19.1752786352004
289 2 1	1			12.2195769811874	-5.10749356881952	7.2591405678485
290 2 1	1			3.0688606245874		17.4853866536625	3.94514106532938
291 2 1	1			-12.6831012234034	13.1813129810606	-15.4387986193738
292 2 1	1			-10.4027195772513	13.9634191981782	11.8498140290338
293 2 1	1			15.4604773230441	-5.09863040401842	4.71402348557115
294 2 1	1			-18.8530339014358	3.72738300873961	-17.1914590405217
295 2 1	1			-0.403944459511045	14.9021025859023	-17.2288410972799
296 2 1	1			-13.2829141727097	17.3400643402842	-14.5597044551964
297 2 1	1			19.1472259856464	6.73857097445502	11.5556527862804
298 2 1	1			8.50777886715656	-11.7289416825958	-16.3040616830468
299 2 1	1			0.0188649661937212	6.15402368250352	-10.4852483197077
300 2 1	1			-1.15646501832243	-17.117937951174	-10.2540834953286
301 2 1	1			-17.6152452968144	-3.73092339642545	-15.8071114936442
302 2 1	1			7.27887616596253	6.67726132829995	14.3341104091503
303 2 1	1			-18.3027544999703	17.3490263818372	7.92799064718265
304 2 1	1			-17.1421814159743	12.4380012895306	9.34968533053125
305 2 1	1			0.865993698571348	-0.618069126600385	6.0212249781965
306 2 1	1			-16.1307989687653	10.2699684026205	0.650822630965159
307 2 1	1			12.725942154385		-3.31810185028932	-6.94447459644472
308 2 1	1			12.7018836831715	18.8714397195718	6.47104787114005
309 2 1	1			8.89758369467369	19.5189880492333	-15.2973806151297
310 2 1	1			-14.0053823008813	14.5659011612481	-14.0873034327357
311 2 1	1			6.38421011633229	-4.44464896350286	-19.2094134508473
312 2 1	1			0.743797700421528	-1.81032687843553	18.5716692119824
313 2 1	1			18.9189821905545	-10.1325120944768	18.8149160805325
314 2 1	1			5.95965970849424	11.3769237209671	-15.0455797141272
315 2 1	1			12.0132230140961	15.3135042233221	-1.30359892902161
316 2 1	1			-1.84809165092322	16.5484672517207	6.26776013217894
317 2 1	1			-2.70433984866153	2.331396944891		-8.39257733468532
318 2 1	1			13.0125518160818	3.95472410984821	10.1814655886518
319 2 1	1			-16.6612074056434	-14.044931186498	2.32472205435886
320 2 1	1			-14.6731596957135	15.9885393814295	-2.88829617806176
321 2 1	1			-13.0644554752398	-1.98425677391538	-9.312237709032
322 2 1	1			-4.36248790705058	-11.7731064214415	10.1494429653225
323 2 1	1			13.2551897135628	15.9860396203632	15.9350530002252
324 2 1	1			12.1345756640976	10.5034215749291	9.13776135831144
325 2 1	1			-17.5811528332043	15.2994522960119	-3.72679461382047
326 2 1	1			-4.02968917545697	-8.60199127900715	17.5326336101479
327 2 1	1			1.07503322033184	6.92903945809031	-9.7829018024879
328 2 1	1			-3.32802128276852	6.57119617672203	1.3265296243529
329 2 1	1			6.27439563894829	-15.087400244019	18.1901948150548
330 2 1	1			5.11893436760417	-3.70726307772749	-9.29009854239615
331 2 1	1			-8.3206368015314	-8.9885219473724	-9.99661517641642
332 2 1	1			-2.73395319005119	8.66678962556567	17.1069088095739
333 2 1	1			-19.3805149745592	-8.66462473484255	-17.2567060577818
334 2 1	1			19.3625489751661	15.8479542739798	-8.0239845375654
335 2 1	1			-13.3132636034138	13.0631556925424	3.66334136625468
336 2 1	1			-15.7513462028534	-4.39893948744009	-11.8680341857465
337 2 1	1			-5.10361039777852	-0.0838822814325368	5.43532795547549
338 2 1	1			-12.075263898281	7.79220770689975	11.9348103132103
339 2 1	1			-0.412494479359044	13.3747600439975	0.0680420945687317
340 2 1	1			-6.42026346436969	4.3851875870293		6.03248543796568
341 2 1	1			18.0652185911091	2.98948643425632	11.8381994222451
342 2 1	1			16.8132815934625	-6.95831316308835	-10.6650492771373
343 2 1	1			-17.8929200927683	-1.74301596593012	4.0335575373917
344 2 1	1			9.51432382067986	8.55182332932538	-15.5015048646685
345 2 1	1			-9.23522294405776	15.3762018110398	0.630626127836575
346 2 1	1			-3.08657539964769	8.83422683267726	13.5136276348094
347 2 1	1			1.91483604859379	-19.2554890109446	16.8316043199482
348 2 1	1			17.7094793710774	6.99105868513143	-0.0708828217857658
349 2 1	1			-3.29023582733351	-2.45964703053949	-8.89555510942447
350 2 1	1			19.3220986587942	-2.4871928333492	6.10079842993176
351 2 1	1			-7.94180205151738	-15.3185272197737	16.6919521520267
352 2 1	1			8.04395023603705	12.5872675807433	0.393578140589419
353 2 1	1			6.65355406337703	-7.00578245477964	18.9676593521039
354 2 1	1			1.56505860171427	-10.1508754306143	-12.1088423161074
355 2 1	1			7.92422080721234	-6.29147115506882	-15.5526006484427
356 2 1	1			6.66111653610347	-4.97231439961647	-8.10582826525512
357 2 1	1			-12.8747018239865	1.86215172331836	-4.14325857753093
358 2 1	1			-14.8794240111931	2.47680617063907	-3.16977266606031
359 2 1	1			19.9632157904544	-4.16711085503996	-7.5409856939819
360 2 1	1			-13.1551573457427	-4.07476481874657	7.75372683728904
361 2 1	1			-18.6959671787789	0.614688768462894	-16.32512666914
362 2 1	1			2.4479917083864		6.30122168383644	-3.91645523851814
363 2 1	1			15.2746600180724	18.0366079305984	-8.19276783880151
364 2 1	1			6.76701218137575	8.89394057309992	-7.74012883894483
365 2 1	1			-12.3826693128018	-3.9968101855065	-15.777554770589
366 2 1	1			-5.2433381574442	13.2748535731924	3.75310418257073
367 2 1	1			-1.57096250958354	-14.6264663308517	-8.69089935020967
368 2 1	1			19.26551803883		-17.5813291224069	-13.79113516242
369 2 1	1			-13.7438019109375	-16.6301179074136	-19.9736532965555
370 2 1	1			14.2209122338365	-13.4440672668117	-8.65618331686474
371 2 1	1			5.79058147480352	-7.03120318823804	2.03243499918399
372 2 1	1			-4.94911158884674	-7.93092891181412	14.8360876601474
373 2 1	1			-12.3630521905479	-19.5327603547864	-18.3098629867003
374 2 1	1			-2.86988028082456	1.59620375398501	16.1888792586531
375 2 1	1			-0.719117558725749	-16.1850922948871	-14.7610365453933
376 2 1	1			-15.1755354681135	-14.1394057423107	13.3491579249226
377 2 1	1			3.58029938780236	5.2456482805982		12.0187349959625
378 2 1	1			-10.952492809893	14.3728164571514	16.7152036799456
379 2 1	1			-4.61523502522357	18.9688652495485	-14.5078536621649
380 2 1	1			3.31945530990696	2.83353709888734	0.189292702297944
381 2 1	1			-9.92775510110749	19.8740085829979	-3.80166079530811
382 2 1	1			-8.38237342892083	2.1416629398213		-13.0571135386113
383 2 1	1			4.68363537572893	0.618338193613035	3.00734449871414
384 2 1	1			-9.38876360759883	-6.77271736038932	4.24871730291133
385 2 1	1			12.9750506675534	-2.79992806426414	-11.4221703833609
386 2 1	1			19.306535988878		-0.327749855850211	0.797290202257525
387 2 1	1			9.20995169070391	-17.1585166434819	19.5674323855755
388 2 1	1			-6.24491983540068	15.5095686213086	-0.403393503464219
389 2 1	1			3.36277333113808	-17.4146563579653	7.7949284474833
390 2 1	1			-15.6892393902503	-2.55260177074206	-3.54312690448941
391 2 1	1			16.2523260259893	13.0651802647557	-18.6089303960101
392 2 1	1			15.1861489792762	-4.21861263067866	-8.28673776125861
393 2 1	1			12.7104223748257	4.53899526821048	12.0576695111014
394 2 1	1			-9.57088003778141	12.7456294032884	-6.1399203774769
395 2 1	1			3.77425002657323	15.4494015625043	-16.6673622070451
396 2 1	1			-19.0994962903907	17.2444650994888	0.444254837714393
397 2 1	1			-2.9896271914346	-12.3686140796351	-5.32666368590853
398 2 1	1			-7.49124452717538	-9.65670994324911	9.57918019549947
399 2 1	1			-13.54061022753		15.914627393612		0.989606557679792
400 2 1	1			-12.8493525299053	3.73447441544436	12.1808350983492
401 2 1	1			-3.08457243599662	0.153603273873916	12.6764471619813
402 2 1	1			-16.2308264444906	4.51238355342237	-12.4211407325824
403 2 1	1			3.94094675026965	12.776889689275		-15.0522617254255
404 2 1	1			-1.16302974566664	1.27556677971703	12.8398591596409
405 2 1	1			7.83797253206432	-11.9169961380627	5.51590480045743
406 2 1	1			7.99551399713166	-1.84426137277912	-19.3552079247114
407 2 1	1			5.54123033087352	-2.88356320719317	15.8381851055893
408 2 1	1			-18.6558465573428	18.64210998448		0.615002284799154
409 2 1	1			-17.247756035278	4.80220216533895	1.78087753384987
410 2 1	1			-7.21601059278015	7.81559807672014	4.25768832994108
411 2 1	1			1.23457122776506	8.80658448071918	10.4174487136072
412 2 1	1			6.17782831028265	-6.12419238849546	14.213874875076
413 2 1	1			-3.6952321183539	0.679616821012409	-4.68526206672951
414 2 1	1			12.7992489112776	2.26778528048408	-16.614032455311
415 2 1	1			8.73435772823535	-13.7401912354382	9.35493195125087
416 2 1	1			18.7459732092437	2.48224182247099	-6.72042669502278
417 2 1	1			1.25335626262698	7.79213156433825	13.5899813949858
418 2 1	1			-6.9941727271776	-2.9417785715905	-5.13106767933771
419 2 1	1			-15.7748318668391	13.4508168270526	13.1286108013452
420 2 1	1			4.43834634984803	9.25548264647732	-12.9392548415376
421 2 1	1			11.1520896729637	-5.59875831656914	-14.8192055586133
422 2 1	1			-3.06188324149047	-1.83150512586406	15.1953432967151
423 2 1	1			-16.3670685685024	-4.54440405631311	-18.2368348612921
424 2 1	1			-9.3411403688371	11.0221856900214	7.46880073923211
425 2 1	1			-13.8537312963477	9.37084422743757	9.35091619734368
426 2 1	1			-8.75978789864516	-2.78888619703378	-2.51310251021366
427 2 1	1			-2.39659443993116	7.75010296535654	-4.80644332369487
428 2 1	1			1.08570967042609	17.8085394867384	19.186297593863
429 2 1	1			-1.70302537249304	11.3693039292696	-4.04026309553482
430 2 1	1			15.0148639441674	8.22287432524275	-2.3925234292253
431 2 1	1			0.722084334444165	-15.6266304190262	-13.7276844982242
432 2 1	1			17.7449049819355	-4.4027737137406	-6.95862863734323
433 2 1	1			5.50836392288696	3.63618921621346	-7.43752285306141
434 2 1	1			18.3077575936633	-1.62479808134698	15.7800265561702
435 2 1	1			-10.3717185807936	-17.9864005304418	-10.1190328294384
436 2 1	1			7.04489215455007	-10.8524966391912	-7.57283936349403
437 2 1	1			-8.43741713302093	13.367562442276		-3.64524367831316
438 2 1	1			6.87232661656861	-19.3742122921389	8.32043576256212
439 2 1	1			7.80561998206949	14.5484346022346	-14.2544961976203
440 2 1	1			-17.2802892611996	-16.8772378787026	14.8528826629209
441 2 1	1			-9.80839373611979	6.76170360326222	-16.6737641298616
442 2 1	1			-11.0383987670313	0.00845297124409683	-1.53048646527475
443 2 1	1			6.71330908054866	-11.2802480499939	-18.7844390535539
444 2 1	1			13.7756862610882	2.86462901616357	10.1280213083542
445 2 1	1			-6.22150354795831	-15.1124339630632	8.00170678118478
446 2 1	1			11.2207861092543	6.84664931954612	-11.4195101534404
447 2 1	1			7.01328262987998	3.98342192491256	7.19618742093675
448 2 1	1			-19.7313874272609	-17.7609537044884	2.29170722759715
449 2 1	1			4.08681950327181	-17.7462792582657	14.0271561036041
450 2 1	1			-4.52915221916061	-13.8999745199012	2.34261967211543
451 2 1	1			16.639649765257		-19.2151573293766	16.0709465619025
452 2 1	1			-19.9539577148357	-2.59297817212193	-3.2192918394726
453 2 1	1			-1.50203363030685	13.2888590113127	-5.67486588843855
454 2 1	1			-3.02603840738499	4.69560685816337	-0.440499304820548
455 2 1	1			-1.56334535884144	0.80517661242968	-9.76151435991237
456 2 1	1			10.8063891443444	14.5547289173444	17.1667707596959
457 2 1	1			-7.10112771252886	-16.0920832735423	-1.32972743158257
458 2 1	1			11.3895717904297	16.3220881274708	-9.8396859777222
459 2 1	1			-1.14571385157554	-15.6793322345296	-2.75126210887704
460 2 1	1			-18.5694906692353	0.679870323877797	8.10120045009371
461 2 1	1			-12.9650233726588	-14.273759116657	-3.90680528053594
462 2 1	1			8.8703213356441		2.37482289612016	-12.7263968533725
463 2 1	1			-1.06056028138719	-19.8168150421071	14.2500446458673
464 2 1	1			-13.8911519824707	10.6672799448595	3.36804898146394