<<<<<<< HEAD
<<<<<<< HEAD
LAMMPS data file for polygons: cubes, moment of inertia I = m edge^2/ 6
1 atoms
1 bodies
1 atom types
-100 100 xlo xhi
-100 100 ylo yhi
-0.5 0.5 zlo zhi
=======
lLAMMPS data file for polygons: cubes, moment of inertia I = m edge^2/ 6
1 atoms
1 bodies
1 atom types
-10 10 xlo xhi
-10 10 ylo yhi
-5 5 zlo zhi
>>>>>>> ecd00f1d52af84f2c48783a4b57c89661c541c89
=======
#LAMMPS data file for polygons: cubes, moment of inertia I = m edge^2/ 6
1 atoms
1 bodies
2 atom types
0 20 xlo xhi
0 20 ylo yhi
0 20 zlo zhi
>>>>>>> 595a29cff173724a79115595c6fa80b6536e48f5

Atoms

1 2 1 5.401 10 10 20

Bodies

1 3 79
8 12 6
90 90 90 0 0 0
<<<<<<< HEAD
25 25 25
25 -25 25
-25 -25 25
-25 25 25
25 25 -25
25 -25 -25 
-25 -25 -25
-25 25 -25
=======
3 3 3
3 -3 3
-3 -3 3
-3 3 3
3 3 -3
3 -3 -3 
-3 -3 -3
-3 3 -3
>>>>>>> ecd00f1d52af84f2c48783a4b57c89661c541c89
0 1
1 2
2 3
3 0
4 5
5 6
6 7
7 4
0 4
1 5
2 6
3 7
0 1 2 3
4 5 6 7
0 1 5 4
1 2 6 5
2 3 7 6
3 0 4 7
<<<<<<< HEAD
<<<<<<< HEAD
10
=======
4.0
>>>>>>> ecd00f1d52af84f2c48783a4b57c89661c541c89
#2 3 79
#8 12 6
#0.667 0.667 0.667 0 0 0
#1 1 1
#1 -1 1
#-1 -1 1
#-1 1 1
#1 1 -1
#1 -1 -1
#-1 -1 -1
#-1 1 -1
#0 1
#1 2
#2 3
#3 0
#4 5
#5 6
#6 7
#7 4
#0 4
#1 5
#2 6
#3 7
#0 1 2 3
#4 5 6 7
#0 1 5 4
#1 2 6 5
#2 3 7 6
#3 0 4 7
#0.1

=======
0.5
>>>>>>> 595a29cff173724a79115595c6fa80b6536e48f5
