# lj particles data file

1000 atoms
1 atom types
1 bodies
-20 20 xlo xhi
-20 20 ylo yhi
-20 20 zlo zhi



Atoms

1	1	1	1	-7.94806165788355	4.32813323493658	4.008032804547
2	1	1	1	-13.643510606291	-19.127311553243	-0.239814500983094
3	1	1	1	1.91747041547606	-5.17613756258256	3.53667850348813
4	1	1	1	-2.84453177021571	-18.3529809687124	-16.6577542135445
5	1	1	1	-14.0181299139234	-12.4280293219074	-6.58245476597596
6	1	1	1	-7.25373650645039	-19.7308257264681	15.8132437756463
7	1	1	1	11.327114661075		13.7026506299621	-18.135715863412
8	1	1	1	10.1462716678086	18.9320747716829	-9.48698299361493
9	1	1	1	-2.06090080498036	-4.1127173791954	7.95356141113431
10	1	1	1	3.08479960997908	6.92907988931605	-7.14433820936012
11	1	1	1	17.6242643958404	8.69503420758214	3.76305224073476
12	1	1	1	-9.22446309844674	16.0203916094586	11.4740727473171
13	1	1	1	-3.15981675527173	-7.41299882951982	13.8275021130577
14	1	1	1	1.90852991971917	9.39467183219385	-7.47356367752827
15	1	1	1	-15.3615533237162	-11.1893101708592	17.1073951615308
16	1	1	1	19.3979243398193	-4.37905622520478	3.67269271020561
17	1	1	1	-4.37057969710113	-12.9767043587136	1.19207385595553
18	1	1	1	0.177035250685496	13.8808639140956	-11.2092525047521
19	1	1	1	12.1442277199128	-2.30969404955423	-9.80805834916564
20	1	1	1	18.5680442189063	12.4331375177793	2.21529069049828
21	1	1	1	2.76603467873898	-5.53067001553023	-0.0888950503596746
22	1	1	1	-15.5411377750309	19.3319086340841	-16.2571935008046
23	1	1	1	9.23898957399137	-5.91029243169471	-3.54557290887282
24	1	1	1	13.2265818256054	-17.3556865393976	6.6856595720124
25	1	1	1	16.9470333451805	0.524037954194231	-10.4857646638939
26	1	1	1	-1.99301249063424	13.278357824545		-11.7888298325446
27	1	1	1	13.5242822951493	8.52424045882195	6.76804188231877
28	1	1	1	5.88670200127877	-11.2388710065479	12.9589008687876
29	1	1	1	-6.01182862366115	18.6760809088163	-15.9097229734851
30	1	1	1	14.1983224538682	12.9709283983888	-19.7794343824557
31	1	1	1	7.49416921571567	-8.99021924456845	-16.1997730438256
32	1	1	1	15.9323650169763	1.78376586976271	-9.46942089636885
33	1	1	1	-15.6168810159802	4.2638792182062		-5.18280993284283
34	1	1	1	7.8743411873311		-11.0597912181655	16.1235123664831
35	1	1	1	-11.7612987735771	4.06913537430597	-18.8945245885582
36	1	1	1	11.2885170002496	13.6383313438057	19.9949984474282
37	1	1	1	1.9820068869021		-1.68795943326206	-5.359280679045
38	1	1	1	-12.3870193220521	2.10228028543713	10.6380761585847
39	1	1	1	-15.6132737176581	7.2669992743305		-3.83335619442174
40	1	1	1	2.14422358219393	-7.86323459425479	15.2818231493478
41	1	1	1	3.13499240511966	17.4087578826812	9.70106800655484
42	1	1	1	-9.17749192490614	14.723947466335		-9.00182302771522
43	1	1	1	12.3133446564388	4.30761330577871	16.955023400286
44	1	1	1	5.16700244161516	-17.1854939447169	10.3240018284284
45	1	1	1	7.44976251160529	4.97095346136609	12.1904856929903
46	1	1	1	17.180829010636		-15.1474353849283	-6.66818973977271
47	1	1	1	-11.6291265470204	-2.17680344503303	-17.0447570561051
48	1	1	1	-3.15836549390939	8.35395797345204	-7.11649966737621
49	1	1	1	-2.59723784675688	-13.3599794964348	-19.8827746990494
50	1	1	1	-12.5802447433987	13.2716032678036	15.5215226103301
51	1	1	1	9.44366086091625	12.0399444001325	-5.61598945112424
52	1	1	1	-9.58728182655614	5.03982002847858	-14.0527688023633
53	1	1	1	16.2765699724009	16.8131626949527	-4.07521429543689
54	1	1	1	-3.04584269120931	15.9022101568072	-14.081623357941
55	1	1	1	-12.0102693948386	14.7435807229446	-17.5324181119395
56	1	1	1	-4.84611494405144	-17.8525977606041	-19.9366323103466
57	1	1	1	1.7432703172563		18.4168254384052	3.77254418890519
58	1	1	1	11.7178744639421	-0.324017979044875	-15.1945572192376
59	1	1	1	7.79271524731758	-8.59948920369016	-19.0958165710492
60	1	1	1	1.65212569717098	-2.56449640893853	3.37479779124202
61	1	1	1	-1.40954189722187	10.2928549628168	-2.06861165786477
62	1	1	1	1.24730236302444	-15.4065663709046	16.7581521653323
63	1	1	1	-9.47739862704864	2.03229319878723	-6.35373948807529
64	1	1	1	-2.8844179110894	17.6120466810638	-19.1617888816111
65	1	1	1	3.18869212590217	2.84624292031239	-8.20710904562835
66	1	1	1	10.8838272424144	-1.09786251773679	-5.5333743926637
67	1	1	1	-7.77023124560636	-5.67566660713675	11.4845327367534
68	1	1	1	-14.6281860040935	-1.79991350115435	-15.4381436684151
69	1	1	1	14.7877953789237	10.5542309490626	-5.9031060740439
70	1	1	1	15.7100026146461	16.2501742915283	-12.9879499845325
71	1	1	1	16.7961213477231	1.10434775719046	12.8345234371027
72	1	1	1	-5.37999297012372	-7.8027695632124	14.5796985902483
73	1	1	1	-6.37179063998821	0.479722469405463	16.4207477960295
74	1	1	1	16.8351419012905	16.6612586456014	8.90629116211811
75	1	1	1	19.8843583713796	11.0220142004562	2.1260869063186
76	1	1	1	18.368541044807		10.3747695925578	-4.29678420207435
77	1	1	1	-15.9576953540795	12.2292056291155	3.57741060549071
78	1	1	1	-5.07522650047125	12.0127408997403	-6.22994095650709
79	1	1	1	4.53031648059856	1.60785573199232	-2.17085117431541
80	1	1	1	10.3798478875962	-6.61154696107527	-6.87530104612995
81	1	1	1	5.15831894360308	-18.3331529145536	18.1434433700449
82	1	1	1	16.4966072513643	-16.197114641646	19.0113731861761
83	1	1	1	-18.6540295863104	-13.7014443763348	-5.47125184316282
84	1	1	1	14.0930138268803	15.6334884105291	-11.4774462331775
85	1	1	1	-19.6690106330254	-0.122524415887746	4.07632500449081
86	1	1	1	-18.2480774893602	-7.72113294787691	16.1840519850325
87	1	1	1	-11.9987293266206	6.98849587662743	14.2681286933687
88	1	1	1	13.1177491017018	7.65406197452715	-16.7303182984856
89	1	1	1	-5.26133710944917	-19.0669761419272	-11.3741051043682
90	1	1	1	-1.47150764617973	19.7098796268369	-16.3227642780067
91	1	1	1	-17.9832055171883	-12.0377344462128	-0.330952983680088
92	1	1	1	-6.9004050814496	-11.6110457849108	-18.6112921765043
93	1	1	1	-16.2448676216405	-13.9940956758043	-2.52392628802004
94	1	1	1	-2.59606069784707	16.5113395762909	-1.30951973257158
95	1	1	1	17.0947033758601	-12.55496386371		19.4303205103713
96	1	1	1	9.83944790320179	2.6619626124619		19.0517387864115
97	1	1	1	-1.14371509102061	0.643033901756958	-10.0534913950014
98	1	1	1	-10.6481776311804	15.9436592799185	4.20710852722162
99	1	1	1	-2.77188359416529	16.1252807630154	12.0234687931546
100	1	1	1	4.25269849010222	16.9196831770107	-10.1647233719379
101	1	1	1	-2.96431044771798	-16.771472584819	-1.97958800040108
102	1	1	1	-9.8036816263775	12.1336422574954	-5.59787792496477
103	1	1	1	0.41586760286738	-19.2142993993349	14.101702736254
104	1	1	1	14.1221773443242	16.1149464937248	15.8182641998547
105	1	1	1	15.2703136444042	14.2220898151322	5.61521911204308
106	1	1	1	7.0558518576144		-12.7864942321819	15.6813190879368
107	1	1	1	6.58065038929141	-3.73412369367777	-8.54782508127403
108	1	1	1	18.200414980928		-17.639915157126	1.0136657526342
109	1	1	1	-1.6800977665557	-16.2276299623343	-16.4742446029919
110	1	1	1	12.7949137512215	1.42459639675882	14.0845166715131
111	1	1	1	0.150902461201802	8.60430418528		10.5044685081651
112	1	1	1	18.7934175091871	-11.6047281821671	13.7885884983346
113	1	1	1	-0.48535693367899	1.44674470301627	-0.797378315105984
114	1	1	1	8.64566188459492	7.50267441926437	10.031582667273
115	1	1	1	-16.8246531151567	17.0785599306999	-7.88080425507106
116	1	1	1	-2.7321263043115	15.2949013161001	-9.37419936492859
117	1	1	1	9.09153640798877	5.78277311719754	-10.105381799517
118	1	1	1	-6.24249379362182	13.7315980629638	-14.5212562001732
119	1	1	1	8.41917178932187	-1.78786702980577	-2.73132245334849
120	1	1	1	-0.763714447076808	-7.84256232159768	16.0915658419231
121	1	1	1	-19.2599088163622	-10.968226927233	-4.1049402330924
122	1	1	1	-12.4579589230189	8.03823422599148	14.5839627951732
123	1	1	1	-2.34776788366503	7.43331053078568	13.3744750237793
124	1	1	1	16.2501884413962	-19.016730514267	2.93437260086371
125	1	1	1	17.5839985956118	6.225476273427		2.8907412386182
126	1	1	1	2.53233964381621	15.0709798851664	-5.7368248839983
127	1	1	1	4.4519027328661		17.0764131982302	15.1438876705776
128	1	1	1	15.6515908257792	10.6141895072696	-6.78893288197803
129	1	1	1	0.23929767415143	-10.3484487140306	-4.25329251436599
130	1	1	1	-11.3969200968046	19.9200763879495	4.66254866807905
131	1	1	1	8.09332544563425	-7.29321219144294	11.4992083558381
132	1	1	1	12.2649438818112	1.56497046652494	-4.11342348445455
133	1	1	1	6.84499816169664	19.3953643175359	-12.8515888192625
134	1	1	1	1.19415923552464	-10.7493560199211	19.3939158936647
135	1	1	1	16.5233896340679	-6.7007250429405	10.9682701930991
136	1	1	1	-7.88130897219582	-17.4587666869018	1.47131558532064
137	1	1	1	-7.76885192584379	12.1051172191043	-5.8359821240055
138	1	1	1	0.784195485880424	1.55873565969472	1.66347784157215
139	1	1	1	-4.80591142562782	-11.2124638896247	-15.2814885794271
140	1	1	1	-3.26487749823483	18.6588732272268	10.7274408584024
141	1	1	1	8.25823681370284	-12.7054650115094	-6.68512015255271
142	1	1	1	-1.21172557799116	10.2951091190919	-1.00367025625758
143	1	1	1	17.5513598618598	15.5474976362692	5.3971538474227
144	1	1	1	10.3453836065301	-3.35885635164514	-4.44262040363574
145	1	1	1	-0.328083969746359	13.5892606527431	-15.9233270835386
146	1	1	1	-17.6485030473772	0.640056184031078	8.45548267549928
147	1	1	1	18.5537787031492	-8.54524539725686	-10.6083910894646
148	1	1	1	-0.317407541356751	14.5019076292386	17.6706463019634
149	1	1	1	-0.0107497293402901	-11.3472514279828	-9.31387957544734
150	1	1	1	3.19753555459106	16.1617185769578	17.3955364560587
151	1	1	1	-7.217502487877		-16.3016146065003	3.07326111800746
152	1	1	1	-7.34473185118535	16.2889210989394	12.8153946469589
153	1	1	1	-10.9501373713801	3.53168925083333	5.83535715623326
154	1	1	1	-14.1325656099354	-7.64660899989446	-12.2528111109554
155	1	1	1	1.40225775576492	0.221265775764913	-10.320667155916
156	1	1	1	9.12177104057298	17.663311904498		-13.1886744052374
157	1	1	1	2.33268690970597	17.0328322404518	12.7246221314055
158	1	1	1	-15.6358795478331	5.83357372815147	13.0558492148789
159	1	1	1	15.5411154981397	-16.5360055886505	2.90016754942863
160	1	1	1	-12.3685277263195	17.6942193950041	-3.82727704272406
161	1	1	1	12.0574116368052	-7.74445413120678	-16.9774082771815
162	1	1	1	2.65775226973238	-6.25181427744		13.385719882748
163	1	1	1	-10.2312940706103	-3.4722053310206	-12.9370181031293
164	1	1	1	-6.61342601894212	-3.95752463997898	-0.803881130779239
165	1	1	1	7.91147600641995	15.2621029670696	6.48790666784403
166	1	1	1	12.9584334583731	-6.78916824140861	-16.9544812361477
167	1	1	1	-8.97115340106666	1.1162265321983		-7.87634914143214
168	1	1	1	-1.32270888814432	-14.3294435039201	-13.0647494971556
169	1	1	1	-17.3396460054525	17.0837691035255	-5.36908934865259
170	1	1	1	-6.64727051633933	9.31633856636148	3.72966033665849
171	1	1	1	10.7255876930951	14.5384089009317	19.3169990702025
172	1	1	1	-4.62019131879055	19.2734564940388	-9.5897207159388
173	1	1	1	5.85129731057945	-14.4302142219108	-13.577839772592
174	1	1	1	-8.18900986247765	15.175127107132		4.91765764408261
175	1	1	1	-2.9425732469159	16.3709972507365	-7.50909550490111
176	1	1	1	4.20588487710155	-8.42386388749102	12.1054811899925
177	1	1	1	17.0211597360068	2.50810909007353	7.26606584693036
178	1	1	1	19.4756815726627	-1.45496859994739	-19.2646800149682
179	1	1	1	10.821647891042		17.5215309300096	15.7642872976489
180	1	1	1	2.00766517316265	-18.9892223157816	-0.493757629180422
181	1	1	1	-4.53651999958263	13.7624862352995	-13.199613165796
182	1	1	1	-17.1708897642888	-19.1547728549597	7.96829642802015
183	1	1	1	11.8370111334823	0.16929982975677	5.2778690564911
184	1	1	1	-19.4658166236048	-13.6223680063785	14.6725316864457
185	1	1	1	-0.728684298930556	-7.0769760706853	17.6999357700679
186	1	1	1	-17.5848369394532	-3.31744328307542	-13.0780109499502
187	1	1	1	-18.0449317661646	13.2181587544484	-5.63507277485746
188	1	1	1	-4.48324498642041	13.1319113048442	-17.6116678342866
189	1	1	1	1.25567533086254	-12.3044560211679	-1.71977083591184
190	1	1	1	12.5930350861764	-18.8778589655657	-16.3200241127531
191	1	1	1	19.3193613624214	-18.3718697155172	10.7534306387046
192	1	1	1	10.6116251675129	-7.24565913910117	-18.4607904719847
193	1	1	1	-1.86308051618752	-4.95010708982091	-11.193988772697
194	1	1	1	-10.482327269104	12.1322778573533	-2.44199888768632
195	1	1	1	13.5861924370215	18.2750041176673	-14.0185319205782
196	1	1	1	6.45061613419269	11.2031682635427	-8.74075545454038
197	1	1	1	-12.6211196395947	4.12404362093136	-0.102734706028773
198	1	1	1	-0.397860601156093	11.8094464004067	4.96234880647144
199	1	1	1	5.15007886273876	-0.300896533846448	11.0234060522458
200	1	1	1	-18.1966302535958	0.571699389969517	-12.2192889284608
201	1	1	1	2.64317427983322	-8.6390225415018	14.5595970814089
202	1	1	1	-14.8831870787339	-1.95060454926795	-19.3631607550124
203	1	1	1	-18.5487569954912	15.0669942120657	-17.7913330097346
204	1	1	1	-2.55190984852589	-10.5743433527697	-15.7715085128133
205	1	1	1	3.79688537291946	0.0874297919608615	9.28698426929532
206	1	1	1	14.6382127467167	3.21662318179727	9.16843137090746
207	1	1	1	0.819818710993463	-7.85545449874787	10.6468244740558
208	1	1	1	19.952402684935		-14.6889253170097	8.64423821125769
209	1	1	1	-17.6873969305571	-4.86474759732665	-18.4758006664215
210	1	1	1	5.96905287306066	-11.6922055071479	9.3843351782141
211	1	1	1	9.99681742527147	3.43699158827865	-14.6393940589698
212	1	1	1	19.0525277400779	-9.4330415968814	11.389778405538
213	1	1	1	-16.1553169771812	-12.9907369800804	-0.487252403802145
214	1	1	1	-8.19936067998852	-0.83782069303307	-13.2511452995671
215	1	1	1	12.7183379975003	-11.5690319165181	18.3432556426106
216	1	1	1	17.0215189236441	1.58369836539123	2.76115849827693
217	1	1	1	9.64822063058927	-16.0336498664046	19.6023240172294
218	1	1	1	2.78127843701114	-1.91393124732511	-17.7072129780688
219	1	1	1	-18.4217927976828	18.6697006952485	13.1328663684948
220	1	1	1	12.0812086173361	8.90359142235648	11.1779427779875
221	1	1	1	-1.88606707680385	0.186733385434934	8.94302836717916
222	1	1	1	17.3153327131444	-14.0184266146775	-5.10861441237718
223	1	1	1	12.3009121296127	-5.04663389644714	9.48784266200504
224	1	1	1	17.8560134138846	-17.5350816639444	-16.6318164234495
225	1	1	1	11.5185999374003	6.01952566255967	5.57697565080998
226	1	1	1	14.5292578486516	0.0501047312478384	-13.6920226625043
227	1	1	1	19.009735180516		-13.4248166322363	-7.13442936312692
228	1	1	1	-3.23006804762756	-3.84854625361685	-3.49538922896478
229	1	1	1	-19.3112006879364	9.73381021704528	-11.071507495054
230	1	1	1	-11.8871327646908	-3.71950892686727	-18.3892201982032
231	1	1	1	16.2927582821491	13.0919447976631	17.0122105501321
232	1	1	1	-11.7005685887699	17.2114566071781	-2.5186518876587
233	1	1	1	4.49921378774612	1.37389305339156	4.47700361701234
234	1	1	1	14.3530231134315	-2.86563686148545	9.63648843690745
235	1	1	1	-11.223270264588	-12.026344920781	3.20938474231622
236	1	1	1	-17.8903142326759	3.62442561075857	0.526847053878647
237	1	1	1	2.68575910602073	-2.03734772802175	3.21076949575128
238	1	1	1	10.8231817704109	-16.7591041592096	1.51929238957775
239	1	1	1	10.4655949162705	-5.56906644356495	-13.1456959656352
240	1	1	1	-7.36817807258557	-9.58299863799886	15.9827865880266
241	1	1	1	-6.91576253519813	-4.48048521338301	11.0491761878056
242	1	1	1	7.28296506094772	0.151270783940234	9.98993694601796
243	1	1	1	-9.80231256368275	11.6217087019638	7.32489845743757
244	1	1	1	12.4057209423592	-4.15201353280593	-15.6787539106144
245	1	1	1	6.48477610571815	18.9703142493969	12.6058055192193
246	1	1	1	4.54402669641166	-6.03008377830096	5.59594741174923
247	1	1	1	2.24711741385453	-6.01770673770655	9.29148381641154
248	1	1	1	-3.60517669463601	11.738871442843		-18.6214245855503
249	1	1	1	0.393526055892629	-16.9215916857962	-17.8762473773454
250	1	1	1	-15.9502140236212	-10.4163488825841	16.2303699164438
251	1	1	1	17.515139145655		-8.15925697323266	-1.66210169322131
252	1	1	1	12.2079477621677	19.5674019307504	-6.02477770872954
253	1	1	1	-17.9725220658736	-1.7743027051867	-9.50749001628657
254	1	1	1	-18.242272463458	5.80350184107516	-14.5090559350979
255	1	1	1	-3.43446764287662	18.2539208220639	10.9776067323187
256	1	1	1	1.01614809706261	6.42104577453442	12.4355284947021
257	1	1	1	5.29467073047275	7.45018878269166	-11.8548851898162
258	1	1	1	-8.97792031857156	-1.53393783534186	15.5829366994497
259	1	1	1	4.20830125431817	5.4325172663223		-5.98532746627617
260	1	1	1	12.983455961765		-17.6607626288486	-16.9333848962094
261	1	1	1	12.3992977415749	15.3186217775348	-19.007823823501
262	1	1	1	5.14763485730618	-4.14583172529849	-19.3280429940137
263	1	1	1	-4.0001023500379	18.8570959318007	-17.7769461895147
264	1	1	1	-2.16003202034216	5.88746476460823	-10.0382884468554
265	1	1	1	-8.98259193318636	-6.12142345515845	0.751258237696966
266	1	1	1	15.2990622991755	-8.08837408636009	14.0754140997186
267	1	1	1	-9.71020401705623	15.6250430927613	3.91900514774886
268	1	1	1	-6.97855387146962	3.25612394709397	-0.966366034388066
269	1	1	1	-15.0399233798371	-13.8500076734604	3.36784826630523
270	1	1	1	-19.264594439289	-19.5042306846264	19.8494193514504
271	1	1	1	-13.2591929678013	18.5579807478116	-15.8933025249891
272	1	1	1	-11.6124655124145	0.557999837560811	-10.3206365899372
273	1	1	1	13.2420079789604	15.178480032503		12.5327565715461
274	1	1	1	1.03224928074337	19.084820177896		9.032850136769
275	1	1	1	-13.307924436449	-14.4450946695123	-17.8051574282042
276	1	1	1	7.61363411744319	-12.939569766269	10.513830243958
277	1	1	1	-11.5693701127726	-14.2425523458486	-8.54819376662361
278	1	1	1	4.57055518832491	-9.90113293060847	0.147587644567192
279	1	1	1	3.42670876874034	-12.9332719145234	-11.9704995653317
280	1	1	1	-18.0823114879905	-11.7980182309225	12.7573660390608
281	1	1	1	-2.85269698109332	-9.80451607298397	19.7862365630815
282	1	1	1	14.1119970235664	-1.24040199428567	12.8715362275087
283	1	1	1	-3.11834951574877	8.19201526227758	3.32526635833795
284	1	1	1	-10.5964724016436	-9.89361709762699	15.8198447560405
285	1	1	1	6.07054555705774	-7.50167209777098	8.78311636392852
286	1	1	1	-17.1739454680626	-5.98328371739909	6.53367716254172
287	1	1	1	-14.0701977402086	5.08538620525006	-13.3087297609302
288	1	1	1	-19.4408133332291	-17.571782761934	-4.26917300527037
289	1	1	1	-2.64891211770317	10.1660289532615	1.60490489443873
290	1	1	1	14.0699225334584	1.19955261480042	6.8611950908427
291	1	1	1	3.44217441558643	9.35960803756821	10.7473281381015
292	1	1	1	3.83118641229351	-1.36134403838844	-8.72333485838089
293	1	1	1	6.89610074907904	19.9386778163591	19.7179723691185
294	1	1	1	15.0755015767477	17.3904806158385	19.1378201482391
295	1	1	1	-17.3876206487657	0.371641017315987	15.3516446218083
296	1	1	1	-11.6574128769823	0.314516056905433	15.2016202351221
297	1	1	1	-1.67011360192917	11.1932774652983	6.77089777947458
298	1	1	1	-12.0807793070522	-9.91150905540809	7.21253225521022
299	1	1	1	6.4195502996545		16.6106480870211	-16.6918569066341
300	1	1	1	-4.39892756584698	-16.4326052658711	4.74357898832531
301	1	1	1	2.52421369535792	2.34920494759346	-14.0924148626781
302	1	1	1	1.55119789780724	-8.88433531767499	16.6363404577522
303	1	1	1	4.71113613213667	6.19275697812074	12.170114801704
304	1	1	1	-12.8860839783676	-4.76837201507944	-19.8032645620112
305	1	1	1	-6.88422445364747	-2.42572868162241	9.74105389844058
306	1	1	1	-19.0351811718367	-18.1292826279367	-19.8392670481711
307	1	1	1	17.7773683947654	1.31234307954382	14.3828881794826
308	1	1	1	7.0787215305132		9.10005649603481	-4.25358963372698
309	1	1	1	-7.78794238804817	1.8672873609873		-19.1378826533836
310	1	1	1	-8.08969529089103	-15.1571392968044	-9.99349812366334
311	1	1	1	-17.1351934768122	17.9339124539535	4.55948259718454
312	1	1	1	10.1108909044696	10.0788637941139	-14.4885900610145
313	1	1	1	1.26396779865203	-8.04256916358094	-2.19460047991085
314	1	1	1	-7.65842847850452	-9.17860372543116	11.5673229867889
315	1	1	1	-3.72640774603055	-13.4382100429066	12.9643572094001
316	1	1	1	-1.84824249017647	14.6644393730968	-2.11271323251146
317	1	1	1	16.1504545411131	-16.7887722114355	14.7934129654322
318	1	1	1	-9.25387172943728	16.5492989879042	-11.7536368282742
319	1	1	1	-7.21783286714417	2.62117164177871	-14.3596905348169
320	1	1	1	5.93371724399839	12.7867846831872	-15.5124954953271
321	1	1	1	11.580721881388		12.0705413457579	4.46180455376456
322	1	1	1	15.4274120578346	11.3893869218026	-5.53802125074728
323	1	1	1	-18.5565854531984	19.130146206251		5.71890669072157
324	1	1	1	8.09368587583504	11.8296030549549	-18.7013677060873
325	1	1	1	8.65598466196406	0.556364247825289	2.85962866141882
326	1	1	1	-15.7046061686883	-12.4015762218288	12.1370102061056
327	1	1	1	-10.6138812029305	-11.4588746467913	-2.98219751927941
328	1	1	1	2.27125419435523	-11.0002296428401	13.0608074356025
329	1	1	1	-5.57302976832623	19.8299548517327	-6.20610308329319
330	1	1	1	0.269916113704749	15.9909480853933	-16.9645851956533
331	1	1	1	-15.7747789013058	13.9365043401942	-1.78602278243443
332	1	1	1	-6.16459371244659	0.760000909987212	-17.252233024685
333	1	1	1	4.13396673135059	-19.2637799790282	-3.70394320677154
334	1	1	1	6.88807924956022	-17.6879023114443	16.7889892581799
335	1	1	1	-2.01537984490607	-19.9162611257841	-4.57211403638291
336	1	1	1	2.14128356621268	-1.09577215270976	-18.2504490420061
337	1	1	1	-0.648636110501556	-13.2845166516358	6.567008222093
338	1	1	1	-19.2122164976544	10.8466667542431	-0.645661415033523
339	1	1	1	-9.56336029032607	-19.9840228754482	10.8778279997244
340	1	1	1	-7.53372687355577	-6.72510207501137	-6.09338056717654
341	1	1	1	16.8692400480842	13.8192579379798	10.9661775409946
342	1	1	1	-8.9840919210921	-11.1883965747017	3.22228979114568
343	1	1	1	10.0723075703566	-11.7370468660645	5.54887870739531
344	1	1	1	6.5309815906602		18.4232962687691	13.5488953459794
345	1	1	1	-0.905996845287799	10.1303834809181	2.5742380626209
346	1	1	1	-6.46629551203534	-1.36998472204953	13.6715898111409
347	1	1	1	-18.6941019976845	-7.68664695234318	1.92404763111478
348	1	1	1	3.49336334189289	13.1186927719649	1.75356384888522
349	1	1	1	-17.8102188275642	-0.845138813874385	16.8287761473819
350	1	1	1	-10.7203161798291	16.4370324422931	-17.2597031851828
351	1	1	1	-0.4214584659459	16.6434840978715	-14.6561618086593
352	1	1	1	12.1453146170185	18.2080640648274	-10.2912138064067
353	1	1	1	-15.1589211565924	15.4550880152957	16.568665799202
354	1	1	1	5.18385006864819	-13.8695482109887	-1.3794999252694
355	1	1	1	2.12817833446914	-4.88587978835738	-0.0446442003783751
356	1	1	1	15.3052666674712	19.1028450724548	-18.4808055716445
357	1	1	1	19.6124870486838	19.6268621306516	15.2314148267211
358	1	1	1	-18.6186673218091	-10.7158934718325	-3.28124973322567
359	1	1	1	-3.19706406613861	-11.327100113371	-10.6542762911252
360	1	1	1	-4.89100089381235	5.059990585874		-1.20094721992958
361	1	1	1	-4.80550797078373	-13.7727257392087	4.6484658389838
362	1	1	1	3.20568001013152	-5.32728330579521	-1.15651025710059
363	1	1	1	3.20243119255354	2.74019381444275	5.59249719396625
364	1	1	1	19.4757530039485	-12.2642918150395	-13.2069380095721
365	1	1	1	10.4514777840362	12.2190824230147	-1.92730981800383
366	1	1	1	-8.5647458286828	-9.8063719486345	-5.30874480736655
367	1	1	1	-10.1016220164764	16.6027439095722	16.7274164623509
368	1	1	1	18.9406878192805	15.6001628937912	2.70386454895612
369	1	1	1	-18.9086123386531	13.9240920551154	-15.9592118748771
370	1	1	1	-2.10693728701559	-7.76768609838562	2.60390696856971
371	1	1	1	7.46164166338298	-9.37645984258174	-6.98981321498705
372	1	1	1	-2.19459879206784	-19.0654936569053	12.3996667256473
373	1	1	1	7.65663403998745	1.40105163422813	8.71920277868895
374	1	1	1	-14.0603064853843	-14.3334542901539	12.9320780676387
375	1	1	1	-7.51551296155336	17.0885735996865	-6.88376707992871
376	1	1	1	-14.9685058637422	-6.86939794281523	-8.59923239614568
377	1	1	1	6.33816571731421	-17.4850738758549	17.7319807137056
378	1	1	1	14.2175777130242	17.5919717747142	-2.75020049524855
379	1	1	1	2.71567843376648	4.79942387280318	-6.64633502714413
380	1	1	1	12.6131506687643	-15.0347974823686	-10.6261158166473
381	1	1	1	-7.15198381719917	-9.64722361586809	6.29210889018993
382	1	1	1	1.77495122066668	3.12557410385249	12.5738659605828
383	1	1	1	18.0934662485271	19.511103201914		-4.98295124265638
384	1	1	1	18.0323947107713	15.548788004156		18.0680419080378
385	1	1	1	-18.1500260041293	10.3158935771844	6.73670397622566
386	1	1	1	9.11419302551938	-16.857566274163	-7.17468612023926
387	1	1	1	-9.58065034539139	-11.1767470303684	-18.5537396064733
388	1	1	1	17.6516208954917	-8.1500604534744	10.3602071845033
389	1	1	1	4.97915331949387	2.5673321105693		18.0424271256019
390	1	1	1	-3.58011377614771	15.3234663002253	1.40324111056679
391	1	1	1	-7.52271991575009	-8.87347721714094	18.2727314030774
392	1	1	1	-1.61251728185359	-15.9643102705222	5.39337638603532
393	1	1	1	9.28445947436518	-9.34957223939373	3.51023215228889
394	1	1	1	13.7172880751617	-4.76100294591997	1.80951011874856
395	1	1	1	-13.7929139221878	-13.6394404800508	-14.1818648351382
396	1	1	1	5.03781514114326	-11.7913586373047	-2.9992723177636
397	1	1	1	4.1941335849511		-15.2313723872896	5.7976036780244
398	1	1	1	15.9584930393217	-19.7652799936973	-15.9591746857263
399	1	1	1	11.2322647516667	-17.5229186415765	-3.72086440906184
400	1	1	1	-19.733026866337	-9.73908915507355	12.2079294709111
401	1	1	1	12.3390550385093	-9.55376940518115	7.48956152488707
402	1	1	1	-16.5197118114687	-19.503173972368	13.3142846543942
403	1	1	1	18.3179414764483	4.70915746465026	-19.2045263560705
404	1	1	1	-19.5606825772197	-5.33304150062454	-11.4421767325143
405	1	1	1	-10.9089818300768	-3.91668365570325	-0.0596639910404981
406	1	1	1	1.69506282154962	-7.85854772223597	0.688802775342712
407	1	1	1	5.89164525063932	-12.644605470082	12.530820610707
408	1	1	1	-12.3121715261533	17.2704876484259	14.5274769286503
409	1	1	1	5.07601155349888	-19.4849422155662	-16.5212708395561
410	1	1	1	1.50946188698029	-13.4596017243692	8.84789777323258
411	1	1	1	17.9556436664169	-15.2069231391057	15.1976690635336
412	1	1	1	-11.2079531322705	-12.8285826509256	14.6544048995003
413	1	1	1	-5.31835821612017	11.5365524772974	1.18068790897614
414	1	1	1	-4.35837449684015	-17.5250825729435	15.2944298294359
415	1	1	1	-13.4166615277923	-6.96860223485156	-8.10844728873326
416	1	1	1	-1.30876221958591	-10.339482994279	10.2413360183153
417	1	1	1	-2.90000172955033	12.0747830826891	16.5094175621484
418	1	1	1	1.18636502315328	-17.7530061795013	-10.245267602459
419	1	1	1	0.818511148268115	16.4323715765907	-10.9940277852983
420	1	1	1	-6.20117777092561	1.94958847712632	3.3695673121783
421	1	1	1	-5.62969800333637	-18.9984821866563	0.843637096354225
422	1	1	1	6.5031758758007		13.6307479041555	0.391240685801865
423	1	1	1	18.6821805807428	-1.99331864215191	-5.30135118749219
424	1	1	1	-3.46871856696667	0.898223264166383	4.13453331521005
425	1	1	1	15.1094393931315	9.18306596215758	-13.8031195348188
426	1	1	1	-9.91578811758244	-16.4057796244322	-3.0269452548617
427	1	1	1	19.3310094315924	-18.4692413283909	-0.166536391868277
428	1	1	1	6.08421413873398	-6.19508658470977	-19.3357985375844
429	1	1	1	-11.3672257262803	19.9129728400795	-8.63906394442349
430	1	1	1	-11.3554267577391	16.6595359584952	7.6181915138957
431	1	1	1	-15.2669235430757	-17.3955820866903	17.0767450221413
432	1	1	1	-13.4261610674896	-11.954272127625	-2.10134574615105
433	1	1	1	-5.29719110562279	-12.7413224127954	10.1774428832128
434	1	1	1	-19.8712304679308	17.9073919595007	3.17077784127951
435	1	1	1	12.70895967978		-14.03395777409		-15.1220968986816
436	1	1	1	-1.67820067730784	-16.4325220587879	10.1960403141717
437	1	1	1	-12.2423759301233	-16.2560574989215	-4.45913989479984
438	1	1	1	11.8060396485099	-2.90410377244853	18.4035099544009
439	1	1	1	-6.44859652897912	-11.5777411287907	-17.8300398149443
440	1	1	1	-16.1221487320148	1.96719063309882	14.8839377515269
441	1	1	1	16.0701753547961	-1.24117655656054	13.2529535084814
442	1	1	1	11.4153977974494	-16.5593144222086	13.9472820300189
443	1	1	1	19.7923985406305	19.7007071158611	-8.38493013783017
444	1	1	1	17.3720269413483	16.4041577156607	15.6207294587997
445	1	1	1	2.16451860555452	-18.5022080769458	1.75478297491449
446	1	1	1	-9.67211903310582	-13.0463476563392	15.1935847380872
447	1	1	1	0.113235682661749	6.11661025257011	-5.03823241727054
448	1	1	1	-1.41692813233426	-17.7760395918181	9.26562725618304
449	1	1	1	-13.5837871382949	5.75004901404102	1.62195725143426
450	1	1	1	15.8117179477466	-5.54969062699308	10.1528739587058
451	1	1	1	-10.411992341971	-3.92991662523947	-17.8535888433147
452	1	1	1	7.38975904506202	-1.03099360175451	-17.7075364951983
453	1	1	1	2.41373556101123	0.716397063929225	-7.8048779562932
454	1	1	1	15.1112616821461	18.5940357598137	-0.640252397595912
455	1	1	1	-6.48068177419403	-14.6389890382578	-18.1256481402202
456	1	1	1	-16.5873320677227	11.553955266721		-15.4928892541458
457	1	1	1	9.29775910080013	-6.49215272148922	17.2135436070204
458	1	1	1	-19.8022903221842	-1.23453227521652	5.3323734282567
459	1	1	1	-6.42082780983259	1.11300189142132	2.42798785537476
460	1	1	1	-2.40494568531462	14.6593532557048	-13.3156501011795
461	1	1	1	-13.0344121811098	10.3763804045519	3.07563627365225
462	1	1	1	-2.03605455857051	10.3213228959157	-16.6900912962576
463	1	1	1	11.8389658232346	14.4513351003776	-9.0412105144334
464	1	1	1	-16.4847631372895	12.7591849759559	-8.61094428958756
465	1	1	1	-3.43160376952145	-4.38271268079069	-15.6207132011037
466	1	1	1	3.20087318648044	-11.2146412673634	-13.0146536215805
467	1	1	1	16.2936673495974	4.92171119855557	-4.16683393072315
468	1	1	1	-19.5893239802215	16.0115358971573	-5.9452493281178
469	1	1	1	10.7549368721437	-3.62580520497113	-7.80391245474377
470	1	1	1	5.31302608258352	4.510437565947		-19.6350167558234
471	1	1	1	10.273670644843		19.5204190930815	11.7331360106141
472	1	1	1	8.75720438270866	7.41477064862273	3.71832424968943
473	1	1	1	7.16659722925919	-15.4261767207291	-2.88289338852256
474	1	1	1	-0.193196544902548	-2.03373922956474	5.92075852343946
475	1	1	1	9.88628444579197	12.4228666030734	15.7801726027854
476	1	1	1	11.0466932766415	-17.8699250581773	-9.82551814412141
477	1	1	1	-11.2996433761225	4.89556432166793	-4.24371269352235
478	1	1	1	4.29879171404275	16.5279395054634	1.59837653405306
479	1	1	1	11.1091933953456	-18.2838000090929	15.4692916338588
480	1	1	1	-0.545873745652781	-11.5500593389765	-9.88250431638272