lLAMMPS data file for polygons: cubes, moment of inertia I = m edge^2/ 6
1 atoms
1 bodies
1 atom types
-5 5 xlo xhi
-5 5 ylo yhi
-5 5 zlo zhi

Atoms

1 1 1 5.401 0 0 0
#2 1 1 1 4.0 4.0 4.0

Bodies

1 3 79
8 12 6
90 90 90 0 0 0
3 3 3
3 -3 3
-3 -3 3
-3 3 3
3 3 -3
3 -3 -3 
-3 -3 -3
-3 3 -3
0 1
1 2
2 3
3 0
4 5
5 6
6 7
7 4
0 4
1 5
2 6
3 7
0 1 2 3
4 5 6 7
0 1 5 4
1 2 6 5
2 3 7 6
3 0 4 7
4.0
#2 3 79
#8 12 6
#0.667 0.667 0.667 0 0 0
#1 1 1
#1 -1 1
#-1 -1 1
#-1 1 1
#1 1 -1
#1 -1 -1
#-1 -1 -1
#-1 1 -1
#0 1
#1 2
#2 3
#3 0
#4 5
#5 6
#6 7
#7 4
#0 4
#1 5
#2 6
#3 7
#0 1 2 3
#4 5 6 7
#0 1 5 4
#1 2 6 5
#2 3 7 6
#3 0 4 7
#0.1

