# lj particles data file

1 atoms
1 atom types
1 bodies
-10 10 xlo xhi
-10 10 ylo yhi
-10 10 zlo zhi

Atoms
1 1 1 1 0 0 0

Bodies
1 3 10
1 1 1
0.9 0.9 0.9 0 0 0
0 0 0
3.0
