LAMMPS (29 Oct 2020)
  using 1 OpenMP thread(s) per MPI task
#Read the equilibrated lj fluid and add nanocubes

units           lj
atom_style      full
atom_modify     map array first cubes
dimension       3
boundary        p p f
pair_style      lj/smooth/linear 2.0

variable        sigma           equal 1.0
variable        epsilon         equal 1.0
read_restart	restart.dat.5000000
Reading restart file ...
  restart file = 24 Dec 2020, LAMMPS = 29 Oct 2020
WARNING: Restart file used different # of processors: 192 vs. 64 (src/read_restart.cpp:697)
  restoring atom style full from restart
  orthogonal box = (0.0000000 0.0000000 0.0000000) to (80.000000 80.000000 160.00000)
  2 by 4 by 8 MPI processor grid
  restoring pair style lj/smooth/linear from restart
  439061 atoms
Finding 1-2 1-3 1-4 neighbors ...
  special bond factors lj:    0.0      0.0      0.0     
  special bond factors coul:  0.0      0.0      0.0     
     0 = max # of 1-2 neighbors
     0 = max # of 1-3 neighbors
     0 = max # of 1-4 neighbors
     1 = max # of special neighbors
  special bonds CPU = 11.174 seconds
  read_restart CPU = 11.741 seconds

group		solvent type 1
439061 atoms in group solvent

read_data	data_96.cubes group cubes add append
Reading data file ...
  orthogonal box = (0.0000000 0.0000000 0.0000000) to (80.000000 80.000000 160.00000)
  2 by 4 by 8 MPI processor grid
WARNING: Pair style in data file differs from currently defined pair style (src/read_data.cpp:588)
  reading atoms ...
  109728 atoms
  reading velocities ...
  109728 velocities
Finding 1-2 1-3 1-4 neighbors ...
  special bond factors lj:    0.0      0.0      0.0     
  special bond factors coul:  0.0      0.0      0.0     
     0 = max # of 1-2 neighbors
     0 = max # of 1-3 neighbors
     0 = max # of 1-4 neighbors
     1 = max # of special neighbors
  special bonds CPU = 0.018 seconds
  read_data CPU = 0.278 seconds

group 		hull  type 2
42816 atoms in group hull
group 		dummy type 3
66912 atoms in group dummy

neighbor      0.4 bin
neigh_modify  exclude molecule/intra cubes


pair_modify   shift yes

pair_coeff    1 1 1.0 1.0 #solvent
pair_coeff    2 2 1.0 1.0 1.12 #np
pair_coeff    3 3 0.0 0.0 0.0 #dummy
pair_coeff    2 3 0.0 0.0 0.0 #np dummy
pair_coeff    1 2 ${sol} 1.0  #np solvent
pair_coeff    1 2 .90 1.0  
pair_coeff    1 3 0.0 0.0 2.0 #dummy solvent

# delete solvent where the cubes are
delete_atoms  overlap 1.0 solvent cubes
System init for delete_atoms ...
Neighbor list info ...
  update every 1 steps, delay 10 steps, check yes
  max neighbors/atom: 2000, page size: 100000
  master list distance cutoff = 2.4
  ghost atom cutoff = 2.4
  binsize = 1.2, bins = 67 67 134
  2 neighbor lists, perpetual/occasional/extra = 1 1 0
  (1) command delete_atoms, occasional
      attributes: full, newton on
      pair build: full/bin
      stencil: full/bin/3d
      bin: standard
  (2) pair lj/smooth/linear, perpetual
      attributes: half, newton on
      pair build: half/bin/newton
      stencil: half/bin/3d/newton
      bin: standard
WARNING: Delete_atoms cutoff > minimum neighbor cutoff (src/delete_atoms.cpp:307)
WARNING: Ignoring 'compress yes' for molecular system (src/delete_atoms.cpp:125)
Deleted 82778 atoms, new total = 466011

pair_coeff    1 1 1.0 1.0 #solvent
pair_coeff    2 2 1.0 1.0 1.12 #np
pair_coeff    3 3 0.0 0.0 0.0 #dummy
pair_coeff    2 3 0.0 0.0 0.0 #np dummy
pair_coeff    1 2 ${sol} 1.0  #np solvent
pair_coeff    1 2 .90 1.0  
pair_coeff    1 3 0.0 0.0 0.0 #dummy solvent


comm_modify   mode multi cutoff/multi 1 2.0 cutoff/multi 2 2.0 cutoff/multi 3 6.95

reset_timestep 	0

balance 	1.05 shift z 10 1.05
Balancing ...
Neighbor list info ...
  update every 1 steps, delay 10 steps, check yes
  max neighbors/atom: 2000, page size: 100000
  master list distance cutoff = 2.4
  ghost atom cutoff = 6.95
  binsize = 1.2, bins = 67 67 134
  1 neighbor lists, perpetual/occasional/extra = 1 0 0
  (1) pair lj/smooth/linear, perpetual
      attributes: half, newton on
      pair build: half/bin/newton
      stencil: half/bin/3d/newton
      bin: standard
 rebalancing time: 0.011 seconds
  iteration count = 4
  initial/final maximal load/proc = 11057.000 8804.0000
  initial/final imbalance factor  = 1.5185221 1.2091045
  x cuts: 0.0000000 0.5 1.0000000
  y cuts: 0.0000000 0.25 0.5 0.75 1.0000000
  z cuts: 0.0000000 0.0859375 0.1796875 0.2578125 0.359375 0.421875 0.515625 0.6171875 1.0000000

####################### WALLS ###########################

variable       epsilonWall equal 2*${epsilon}
variable       epsilonWall equal 2*1
variable       repulsive   equal   0.7147*${sigma}
variable       repulsive   equal   0.7147*1
variable       full	   equal   3*${sigma}
variable       full	   equal   3*1
region         lowWall block EDGE EDGE EDGE EDGE EDGE 2

fix            topWall all wall/lj93 zhi EDGE 	       ${epsilonWall} ${sigma} ${repulsive} units box
fix            topWall all wall/lj93 zhi EDGE 	       2 ${sigma} ${repulsive} units box
fix            topWall all wall/lj93 zhi EDGE 	       2 1 ${repulsive} units box
fix            topWall all wall/lj93 zhi EDGE 	       2 1 0.7147 units box
fix            lowSol solvent wall/lj93 zlo EDGE                ${epsilonWall} ${sigma} ${full} units box
fix            lowSol solvent wall/lj93 zlo EDGE                2 ${sigma} ${full} units box
fix            lowSol solvent wall/lj93 zlo EDGE                2 1 ${full} units box
fix            lowSol solvent wall/lj93 zlo EDGE                2 1 3 units box
fix 	       lowCub cubes wall/lj93 zlo EDGE                ${epsilonWall} ${sigma} ${repulsive} units box
fix 	       lowCub cubes wall/lj93 zlo EDGE                2 ${sigma} ${repulsive} units box
fix 	       lowCub cubes wall/lj93 zlo EDGE                2 1 ${repulsive} units box
fix 	       lowCub cubes wall/lj93 zlo EDGE                2 1 0.7147 units box


###################### COMPUTES ##########################

compute        bin1 solvent chunk/atom bin/1d z lower 1.0 units box
compute        bin3 solvent chunk/atom bin/3d x lower 1.0 y lower 1.0 z lower 1.0 units box

compute 	pe solvent 	   pe/atom
compute 	pe2 all 	   pe/atom

######################  FIXES ############################


fix             peclet solvent ave/chunk 10 10 10000 bin1 density/number norm                  none ave one file density.profile

fix              temp solvent ave/chunk 10 10 10000 bin1 temp norm                  none ave one file temp.profile

fix 		 dens solvent ave/chunk 10 10 500000 bin3 density/number norm 		 none ave one file dens3.profile

fix		 temp2 solvent ave/chunk 10 10 500000 bin3 temp norm none ave one file temp3.profile

fix 		pe solvent ave/chunk 1 1 500000 bin3 c_pe norm none ave one file pe3.profile

fix             1 cubes rigid/nve/small molecule
  create bodies CPU = 0.014 seconds
  96 rigid bodies with 109728 atoms
  6.9282032 = max distance from body owner to body atom

fix             2 solvent nve# temp ${temp} ${temp} 10


## Thermostat
region          regthermo block EDGE EDGE EDGE EDGE 0 15
group           thermo dynamic solvent region regthermo every 1000
dynamic group thermo defined
fix             3 thermo langevin ${temp} ${temp} 10 156453
fix             3 thermo langevin 0.6 ${temp} 10 156453
fix             3 thermo langevin 0.6 0.6 10 156453


#### Load balancing

fix             bal all balance 1000 1.05 shift z 10 1.05

############### Diagnostics and computes ###################

compute        	com cubes          rigid/local   1 mol x y z
compute        	quat cubes         rigid/local   1 mol quatw quati quatj quatk

compute 	cc2 cubes 	   chunk/atom 	 molecule
compute 	msd cubes 	   msd/chunk 	 cc2

fix 		msd all ave/time  1 1 10000 c_msd[*] file dump.msd ave one mode vector


dump            1 all custom 500000 dump.lammpstrj id mol type x y z vx vy vz c_pe2
dump		sol  solvent custom 500000 dump.soltrj id x y z vx vy vz c_pe
dump		cubetrj cubes custom 500000 cubes.lammpstrj id mol type x y z vx vy vz
dump            com cubes local 100000 dump.*.xyz c_com[*]
dump	        xyz hull xyz 100000 cubes.xyz
dump            quat cubes      local 100000 dump.*.quat c_quat[*]
dump		order cubes 	local 100000 dump.*.order c_com[*] c_quat[*]
#dump		mol cubes molfile 10000 mol.xyz xyz


dump            2 all image 100000 image.*.png type type zoom 1.5 size 1280 720
dump_modify     2 pad 8
dump		image cubes image 100000 image_cubes.*.png type type zoom 1.5 size 1280 720
dump_modify	image pad 8
dump            3 all movie 5000 movie.avi type type zoom 1.5 size 1280 720
dump		4 cubes movie 5000 movie_cubes.avi type type size 1280 720


thermo          1000
thermo_style    custom step temp epair evdwl etotal press pe ke atoms

restart         1000000 restart.dat
timestep        0.005
timer           full
New timer settings: style=full  mode=nosync  timeout=off

run 		10000000
Per MPI rank memory allocation (min/avg/max) = 86.32 | 97.19 | 101.2 Mbytes
Step Temp E_pair E_vdwl TotEng Press PotEng KinEng Atoms 
       0   0.61217182   -1.7461371   -1.7461371    -1.043718 -0.032645082   -1.7461371   0.70241905   466011 
    1000   0.62256885   -1.7592342   -1.7592342   -1.0448854  0.036093989   -1.7592342   0.71434883   466011 
    2000   0.62183268   -1.7592072   -1.7592072   -1.0457031  0.037380873   -1.7592072   0.71350414   466011 
    3000   0.62250206   -1.7604941   -1.7604941   -1.0462219  0.037943809   -1.7604941   0.71427219   466011 
    4000   0.62195806    -1.760538    -1.760538     -1.04689  0.041004501    -1.760538     0.713648   466011 
    5000   0.62131664   -1.7610735   -1.7610735   -1.0481614  0.036413764   -1.7610735   0.71291202   466011 
    6000   0.62171703   -1.7620754   -1.7620754    -1.048704  0.039213872   -1.7620754   0.71337143   466011 
    7000   0.62082635   -1.7620638   -1.7620638   -1.0497144  0.032626874   -1.7620638   0.71234945   466011 
    8000    0.6206268   -1.7627553   -1.7627553   -1.0506348  0.038403276   -1.7627553   0.71212047   466011 
    9000   0.62113653   -1.7630785   -1.7630785   -1.0503731   0.03862898   -1.7630785   0.71270535   466011 
   10000   0.62107202   -1.7632671   -1.7632671   -1.0506358  0.038302901   -1.7632671   0.71263134   466011 
   11000   0.62100156    -1.764227    -1.764227   -1.0516766  0.034142941    -1.764227   0.71255048   466011 
   12000   0.62076057   -1.7645494   -1.7645494   -1.0522754  0.040504569   -1.7645494   0.71227397   466011 
   13000   0.61975979   -1.7643073   -1.7643073   -1.0531817  0.035326836   -1.7643073   0.71112565   466011 
   14000   0.61965846   -1.7648468   -1.7648468   -1.0538374  0.037286901   -1.7648468   0.71100939   466011 
   15000   0.62006501   -1.7653735   -1.7653735   -1.0538976  0.034952109   -1.7653735   0.71147587   466011 
   16000   0.62026593   -1.7654598   -1.7654598   -1.0537534  0.042933954   -1.7654598   0.71170641   466011 
   17000   0.61928642   -1.7654246   -1.7654246   -1.0548421   0.04017423   -1.7654246    0.7105825   466011 
   18000   0.61904933   -1.7647572   -1.7647572   -1.0544467  0.039700665   -1.7647572   0.71031045   466011 
   19000   0.61885963    -1.764827    -1.764827   -1.0547342  0.037987079    -1.764827   0.71009279   466011 
   20000   0.61928853   -1.7654521   -1.7654521   -1.0548671  0.036359068   -1.7654521   0.71058492   466011 
   21000   0.61973905   -1.7655204   -1.7655204   -1.0544185  0.044335904   -1.7655204   0.71110186   466011 
   22000   0.62054072   -1.7670137   -1.7670137    -1.054992  0.034672422   -1.7670137   0.71202171   466011 
   23000    0.6195023   -1.7657173   -1.7657173   -1.0548871  0.036569137   -1.7657173   0.71083021   466011 
   24000   0.61943188   -1.7669017   -1.7669017   -1.0561523  0.040084599   -1.7669017    0.7107494   466011 
   25000   0.61942412   -1.7663877   -1.7663877   -1.0556472  0.040585243   -1.7663877    0.7107405   466011 
   26000   0.62018636   -1.7673221   -1.7673221    -1.055707  0.039043958   -1.7673221   0.71161512   466011 
   27000   0.61975311   -1.7677924   -1.7677924   -1.0566744  0.038180616   -1.7677924   0.71111799   466011 
   28000    0.6197299   -1.7676335   -1.7676335   -1.0565422  0.041038068   -1.7676335   0.71109136   466011 
   29000   0.61907192   -1.7673109   -1.7673109   -1.0569745  0.035755768   -1.7673109   0.71033638   466011 
   30000   0.61844824   -1.7667976   -1.7667976   -1.0571769  0.039341037   -1.7667976   0.70962075   466011 
   31000   0.61906304   -1.7675718   -1.7675718   -1.0572456  0.035803765   -1.7675718   0.71032619   466011 
   32000   0.61895448   -1.7680233   -1.7680233   -1.0578217   0.03710306   -1.7680233   0.71020162   466011 
   33000   0.62008935   -1.7689472   -1.7689472   -1.0574434  0.040794858   -1.7689472    0.7115038   466011 
   34000   0.61981505    -1.768346    -1.768346    -1.057157  0.039821011    -1.768346   0.71118906   466011 
   35000   0.61874927   -1.7678727   -1.7678727   -1.0579065  0.039894389   -1.7678727   0.70996617   466011 
   36000   0.61868744   -1.7676776   -1.7676776   -1.0577823  0.038388996   -1.7676776   0.70989522   466011 
   37000   0.61943249   -1.7691076   -1.7691076   -1.0583575  0.041444986   -1.7691076   0.71075011   466011 
   38000   0.61915279   -1.7691374   -1.7691374   -1.0587083  0.042176855   -1.7691374   0.71042917   466011 
   39000    0.6200007   -1.7701376   -1.7701376   -1.0587355  0.039279518   -1.7701376   0.71140208   466011 
   40000   0.61956425   -1.7705621   -1.7705621   -1.0596608  0.041053002   -1.7705621   0.71090129   466011 
   41000   0.61782548   -1.7696601   -1.7696601   -1.0607539  0.040942124   -1.7696601   0.70890618   466011 
   42000   0.61888032   -1.7702189   -1.7702189   -1.0601024   0.03660816   -1.7702189   0.71011653   466011 
   43000   0.61909246   -1.7702995   -1.7702995   -1.0599395  0.043897349   -1.7702995   0.71035995   466011 
   44000   0.61881379   -1.7699806   -1.7699806   -1.0599405  0.041805135   -1.7699806   0.71004019   466011 
   45000   0.61879696   -1.7708325   -1.7708325   -1.0608116  0.041760945   -1.7708325   0.71002088   466011 
   46000   0.61972837   -1.7721911   -1.7721911   -1.0611015  0.036376757   -1.7721911    0.7110896   466011 
   47000   0.62036662   -1.7730707   -1.7730707   -1.0612487  0.039454158   -1.7730707   0.71182195   466011 
   48000   0.61953795   -1.7727792   -1.7727792   -1.0619081  0.039900657   -1.7727792   0.71087111   466011 
   49000   0.61935053   -1.7733245   -1.7733245   -1.0626684  0.034606361   -1.7733245   0.71065606   466011 
   50000   0.61996943   -1.7746459   -1.7746459   -1.0632797   0.03849331   -1.7746459    0.7113662   466011 
   51000   0.62000123   -1.7747492   -1.7747492   -1.0633465  0.038282468   -1.7747492   0.71140269   466011 
   52000   0.61934002   -1.7740124   -1.7740124   -1.0633684  0.039804796   -1.7740124     0.710644   466011 
   53000   0.61950053    -1.774641    -1.774641   -1.0638128  0.041254102    -1.774641   0.71082817   466011 
   54000   0.61946902    -1.774913    -1.774913    -1.064121  0.036986687    -1.774913   0.71079202   466011 
   55000   0.61811169    -1.774071    -1.774071   -1.0648364  0.042477758    -1.774071   0.70923459   466011 
   56000   0.61759706   -1.7741647   -1.7741647   -1.0655206  0.033901501   -1.7741647   0.70864409   466011 
   57000   0.61793125   -1.7747679   -1.7747679   -1.0657404  0.040872209   -1.7747679   0.70902755   466011 
   58000   0.61850295   -1.7749912   -1.7749912   -1.0653076  0.037511269   -1.7749912   0.70968352   466011 
   59000   0.61848104   -1.7752019   -1.7752019   -1.0655435  0.043003039   -1.7752019   0.70965839   466011 
   60000   0.61889753   -1.7762416   -1.7762416   -1.0661054  0.035589669   -1.7762416   0.71013628   466011 
   61000   0.61846874   -1.7753419   -1.7753419   -1.0656976  0.037385612   -1.7753419   0.70964428   466011 
   62000   0.61925333   -1.7769931   -1.7769931   -1.0664485  0.038091973   -1.7769931   0.71054453   466011 
   63000   0.61960132   -1.7766519   -1.7766519   -1.0657081  0.033788569   -1.7766519   0.71094382   466011 
   64000    0.6197614   -1.7770364   -1.7770364   -1.0659089  0.039663802   -1.7770364    0.7111275   466011 
   65000   0.61957162   -1.7756266   -1.7756266   -1.0647168  0.036086327   -1.7756266   0.71090974   466011 
   66000   0.61987067   -1.7757472   -1.7757472   -1.0644943  0.040118997   -1.7757472   0.71125288   466011 
   67000    0.6190358   -1.7758583   -1.7758583   -1.0655633  0.038078089   -1.7758583   0.71029494   466011 
   68000   0.61992427   -1.7771358   -1.7771358   -1.0658214  0.042311835   -1.7771358   0.71131438   466011 
   69000   0.62005196   -1.7772132   -1.7772132   -1.0657523  0.048036828   -1.7772132   0.71146089   466011 
   70000   0.61935901   -1.7764518   -1.7764518    -1.065786  0.037184788   -1.7764518   0.71066579   466011 
   71000   0.61920565   -1.7762712   -1.7762712   -1.0657814  0.040647399   -1.7762712   0.71048982   466011 
   72000    0.6199178   -1.7767831   -1.7767831   -1.0654761  0.040876681   -1.7767831   0.71130696   466011 
   73000   0.61932921    -1.777017    -1.777017   -1.0663854  0.038465094    -1.777017    0.7106316   466011 
   74000   0.61798959   -1.7755138   -1.7755138   -1.0664193  0.044096142   -1.7755138   0.70909449   466011 
   75000   0.61877515   -1.7769591   -1.7769591   -1.0669632  0.040503769   -1.7769591   0.70999585   466011 
   76000   0.61989613   -1.7776771   -1.7776771   -1.0663951  0.039541695   -1.7776771   0.71128209   466011 
   77000   0.61905738   -1.7768104   -1.7768104   -1.0664907  0.047239844   -1.7768104    0.7103197   466011 
   78000   0.61794728   -1.7764756   -1.7764756   -1.0674297  0.035171779   -1.7764756   0.70904594   466011 
   79000   0.61786431   -1.7759024   -1.7759024   -1.0669517  0.042106717   -1.7759024   0.70895074   466011 
   80000   0.61858696   -1.7769254   -1.7769254   -1.0671455  0.040972017   -1.7769254   0.70977993   466011 
   81000   0.61824229   -1.7771366   -1.7771366   -1.0677521  0.037726905   -1.7771366   0.70938444   466011 
   82000   0.61851103   -1.7774587   -1.7774587   -1.0677659  0.038554512   -1.7774587    0.7096928   466011 
   83000   0.61874499   -1.7771074   -1.7771074   -1.0671461  0.045287894   -1.7771074   0.70996125   466011 
   84000   0.61926395   -1.7774884   -1.7774884   -1.0669317  0.038040161   -1.7774884   0.71055672   466011 
   85000   0.61804148   -1.7772497   -1.7772497   -1.0680957  0.038757887   -1.7772497   0.70915403   466011 
   86000   0.61750166   -1.7767214   -1.7767214   -1.0681868  0.036158454   -1.7767214   0.70853462   466011 
   87000   0.61799998   -1.7772025   -1.7772025   -1.0680961  0.037050101   -1.7772025   0.70910641   466011 
   88000   0.61883782   -1.7777036   -1.7777036   -1.0676359  0.035784828   -1.7777036   0.71006776   466011 
   89000   0.61838765   -1.7776115   -1.7776115   -1.0680602  0.041242305   -1.7776115   0.70955123   466011 
   90000   0.61795332   -1.7775981   -1.7775981   -1.0685453   0.03880245   -1.7775981   0.70905287   466011 
   91000   0.61815744   -1.7775257   -1.7775257   -1.0682387  0.036072717   -1.7775257   0.70928708   466011 
   92000   0.61891483   -1.7783181   -1.7783181    -1.068162   0.03596867   -1.7783181   0.71015613   466011 
   93000   0.61792881   -1.7775867   -1.7775867    -1.068562  0.038538232   -1.7775867   0.70902475   466011 
   94000   0.61820745    -1.778117    -1.778117   -1.0687725  0.042241478    -1.778117   0.70934447   466011 
   95000   0.61786242    -1.777933    -1.777933   -1.0689845   0.04119188    -1.777933   0.70894857   466011 
   96000   0.61908375   -1.7800129   -1.7800129    -1.069663  0.037275599   -1.7800129   0.71034995   466011 
   97000   0.61707061   -1.7780144   -1.7780144   -1.0699744  0.035567207   -1.7780144   0.70804003   466011 
   98000   0.61888597   -1.7795265   -1.7795265   -1.0694034  0.038322732   -1.7795265   0.71012302   466011 
   99000   0.61859917   -1.7794189   -1.7794189   -1.0696249  0.041505037   -1.7794189   0.70979393   466011 
  100000   0.61902324   -1.7794247   -1.7794247   -1.0691442  0.051267301   -1.7794247   0.71028052   466011 
  101000   0.61857778   -1.7803001   -1.7803001   -1.0705307  0.040023752   -1.7803001   0.70976939   466011 
  102000   0.61883164   -1.7809067   -1.7809067   -1.0708461  0.040561858   -1.7809067   0.71006067   466011 
  103000   0.61892643   -1.7808536   -1.7808536   -1.0706842  0.036130407   -1.7808536   0.71016943   466011 
  104000   0.61882423     -1.78105     -1.78105   -1.0709979  0.045045279     -1.78105   0.71005217   466011 
  105000   0.61889799   -1.7809303   -1.7809303   -1.0707935  0.038266791   -1.7809303   0.71013681   466011 
  106000   0.61842221   -1.7808625   -1.7808625   -1.0712716  0.038809718   -1.7808625   0.70959089   466011 
  107000   0.61812177   -1.7807016   -1.7807016   -1.0714555  0.038580295   -1.7807016   0.70924615   466011 
  108000   0.61755531   -1.7807619   -1.7807619   -1.0721657  0.039464149   -1.7807619   0.70859618   466011 
  109000   0.61751007   -1.7801274   -1.7801274   -1.0715832  0.035172342   -1.7801274   0.70854427   466011 
  110000   0.61855166   -1.7811829   -1.7811829   -1.0714434  0.040165871   -1.7811829   0.70973942   466011 
  111000   0.61713468   -1.7794221   -1.7794221   -1.0713085  0.045227524   -1.7794221   0.70811355   466011 
  112000   0.61774422   -1.7807754   -1.7807754   -1.0719624   0.03694196   -1.7807754   0.70881295   466011 
  113000   0.61788561   -1.7811252   -1.7811252     -1.07215  0.041663772   -1.7811252   0.70897518   466011 
  114000    0.6177477   -1.7807511   -1.7807511   -1.0719342  0.039449893   -1.7807511   0.70881694   466011 
  115000   0.61823107   -1.7804916   -1.7804916     -1.07112  0.041700804   -1.7804916   0.70937157   466011 
  116000   0.61843698    -1.781824    -1.781824   -1.0722161  0.034746627    -1.781824   0.70960784   466011 
  117000   0.61751431   -1.7812253   -1.7812253   -1.0726762  0.035541547   -1.7812253   0.70854914   466011 
  118000   0.61712472   -1.7812677   -1.7812677   -1.0731656  0.037182111   -1.7812677   0.70810211   466011 
  119000   0.61777807   -1.7824874   -1.7824874   -1.0736356  0.041285561   -1.7824874   0.70885178   466011 
  120000   0.61758559   -1.7819563   -1.7819563   -1.0733254  0.038445296   -1.7819563   0.70863093   466011 
  121000   0.61794502   -1.7820173   -1.7820173   -1.0729739  0.040624355   -1.7820173   0.70904335   466011 
  122000   0.61777985   -1.7811014   -1.7811014   -1.0722476   0.03560121   -1.7811014   0.70885382   466011 
  123000   0.61784026   -1.7814512   -1.7814512    -1.072528  0.043785829   -1.7814512   0.70892314   466011 
  124000   0.61759589   -1.7810983   -1.7810983   -1.0724556  0.030764031   -1.7810983   0.70864275   466011 
  125000   0.61754384   -1.7814818   -1.7814818   -1.0728988  0.038358446   -1.7814818   0.70858303   466011 
  126000    0.6179606   -1.7811707   -1.7811707   -1.0721094  0.041898149   -1.7811707   0.70906122   466011 
  127000   0.61838477   -1.7818039   -1.7818039    -1.072256  0.038627698   -1.7818039   0.70954793   466011 
  128000   0.61736256    -1.781103    -1.781103    -1.072728  0.041438845    -1.781103   0.70837503   466011 
  129000    0.6174461   -1.7810011   -1.7810011   -1.0725302  0.040588211   -1.7810011   0.70847088   466011 
  130000   0.61708619   -1.7810528   -1.7810528   -1.0729949  0.038911514   -1.7810528   0.70805791   466011 
  131000   0.61707793   -1.7812474   -1.7812474    -1.073199  0.039688809   -1.7812474   0.70804842   466011 
  132000   0.61816133   -1.7825713   -1.7825713   -1.0732797  0.033167446   -1.7825713   0.70929155   466011 
  133000    0.6173478   -1.7820942   -1.7820942   -1.0737361  0.041080009   -1.7820942   0.70835808   466011 
  134000   0.61751725   -1.7823381   -1.7823381   -1.0737856  0.032878011   -1.7823381   0.70855252   466011 
  135000   0.61638773   -1.7814657   -1.7814657   -1.0742093  0.037704225   -1.7814657   0.70725647   466011 
  136000   0.61698556   -1.7821543   -1.7821543   -1.0742118  0.036816655   -1.7821543   0.70794244   466011 
  137000   0.61694673   -1.7824335   -1.7824335   -1.0745356    0.0381425   -1.7824335   0.70789789   466011 
  138000   0.61780706   -1.7828063   -1.7828063   -1.0739212  0.032144418   -1.7828063   0.70888505   466011 
  139000   0.61637522   -1.7808984   -1.7808984   -1.0736563  0.041576624   -1.7808984   0.70724212   466011 
  140000   0.61640643   -1.7814218   -1.7814218   -1.0741439  0.041321117   -1.7814218   0.70727794   466011 
  141000   0.61646112   -1.7820577   -1.7820577    -1.074717  0.037576897   -1.7820577   0.70734069   466011 
  142000   0.61665132   -1.7826283   -1.7826283   -1.0750694  0.039162762   -1.7826283   0.70755893   466011 
  143000   0.61707961   -1.7827999   -1.7827999   -1.0747495  0.038965221   -1.7827999   0.70805036   466011 
  144000   0.61734688   -1.7831889   -1.7831889   -1.0748318  0.038032045   -1.7831889   0.70835703   466011 
  145000   0.61824486   -1.7843891   -1.7843891   -1.0750017  0.038753635   -1.7843891    0.7093874   466011 
  146000   0.61816411   -1.7837848   -1.7837848     -1.07449  0.036529256   -1.7837848   0.70929474   466011 
  147000   0.61756758    -1.782722    -1.782722   -1.0741117  0.042162805    -1.782722   0.70861026   466011 
  148000   0.61730531   -1.7829353   -1.7829353    -1.074626  0.040410434   -1.7829353   0.70830933   466011 
  149000   0.61662846   -1.7831289   -1.7831289   -1.0755962  0.041600787   -1.7831289    0.7075327   466011 
  150000   0.61707418   -1.7836881   -1.7836881    -1.075644  0.036424448   -1.7836881   0.70804413   466011 
  151000   0.61707125   -1.7839098   -1.7839098   -1.0758691  0.041681856   -1.7839098   0.70804076   466011 
  152000   0.61721435   -1.7837352   -1.7837352   -1.0755303  0.043304253   -1.7837352   0.70820496   466011 
  153000   0.61680008   -1.7837382   -1.7837382   -1.0760086  0.039026756   -1.7837382   0.70772962   466011 
  154000   0.61766592   -1.7852709   -1.7852709   -1.0765478  0.041683507   -1.7852709    0.7087231   466011 
  155000   0.61645003   -1.7838218   -1.7838218   -1.0764938  0.043761838   -1.7838218   0.70732797   466011 
  156000   0.61802217   -1.7862001   -1.7862001   -1.0770683  0.038381965   -1.7862001   0.70913188   466011 
  157000   0.61747816   -1.7856282   -1.7856282   -1.0771205  0.037380202   -1.7856282   0.70850766   466011 
  158000   0.61815159   -1.7862311   -1.7862311   -1.0769508  0.037286787   -1.7862311   0.70928037   466011 
  159000   0.61803499   -1.7858262   -1.7858262   -1.0766796  0.038601627   -1.7858262   0.70914658   466011 
  160000   0.61721893   -1.7857506   -1.7857506   -1.0775404  0.037020287   -1.7857506   0.70821022   466011 
  161000    0.6166357   -1.7849933   -1.7849933   -1.0774523  0.042684009   -1.7849933     0.707541   466011 
  162000   0.61653796   -1.7852468   -1.7852468   -1.0778179  0.042682233   -1.7852468   0.70742886   466011 
  163000   0.61660435   -1.7853684   -1.7853684   -1.0778634  0.035555552   -1.7853684   0.70750504   466011 
  164000   0.61696118   -1.7860186   -1.7860186   -1.0781042  0.033151549   -1.7860186   0.70791446   466011 
  165000   0.61700655   -1.7857712   -1.7857712   -1.0778047  0.041437854   -1.7857712   0.70796653   466011 
  166000   0.61642453   -1.7845102   -1.7845102   -1.0772115  0.039288873   -1.7845102    0.7072987   466011 
  167000   0.61663687    -1.785459    -1.785459   -1.0779166  0.043608018    -1.785459   0.70754235   466011 
  168000   0.61596572    -1.784891    -1.784891   -1.0781188   0.04139142    -1.784891   0.70677225   466011 
  169000   0.61707401   -1.7864291   -1.7864291   -1.0783852  0.043687335   -1.7864291   0.70804393   466011 
  170000   0.61722607   -1.7863543   -1.7863543   -1.0781359   0.04439302   -1.7863543   0.70821841   466011 
  171000   0.61736496   -1.7872426   -1.7872426   -1.0788649  0.040188597   -1.7872426   0.70837778   466011 
  172000   0.61605033   -1.7858257   -1.7858257   -1.0789564  0.035190573   -1.7858257   0.70686934   466011 
  173000   0.61516611   -1.7854713   -1.7854713   -1.0796165  0.038616867   -1.7854713   0.70585477   466011 
  174000   0.61530414   -1.7851122   -1.7851122   -1.0790991  0.039643598   -1.7851122   0.70601314   466011 
  175000   0.61670674   -1.7861507   -1.7861507   -1.0785282  0.034456108   -1.7861507   0.70762251   466011 
  176000   0.61643403   -1.7857941   -1.7857941   -1.0784845  0.036879244   -1.7857941    0.7073096   466011 
  177000   0.61713647   -1.7869587   -1.7869587   -1.0788431  0.043059332   -1.7869587   0.70811561   466011 
  178000   0.61599156   -1.7859228   -1.7859228   -1.0791209  0.040379815   -1.7859228    0.7068019   466011 
  179000   0.61604207     -1.78641     -1.78641   -1.0795501   0.04140258     -1.78641   0.70685987   466011 
  180000   0.61615238   -1.7864675   -1.7864675   -1.0794811  0.040875873   -1.7864675   0.70698643   466011 
  181000   0.61813428     -1.78863     -1.78863   -1.0793695  0.040111352     -1.78863   0.70926051   466011 
  182000   0.61701939   -1.7876179   -1.7876179   -1.0796366  0.034356038   -1.7876179   0.70798126   466011 
  183000   0.61604962   -1.7869666   -1.7869666   -1.0800981  0.037833427   -1.7869666   0.70686853   466011 
  184000   0.61706016   -1.7879078   -1.7879078   -1.0798797  0.030754106   -1.7879078   0.70802804   466011 
  185000   0.61738283   -1.7878914   -1.7878914   -1.0794931  0.040664734   -1.7878914   0.70839828   466011 
  186000   0.61640109   -1.7864753   -1.7864753   -1.0792035  0.047807725   -1.7864753   0.70727181   466011 
  187000   0.61721319   -1.7864129   -1.7864129   -1.0782093   0.04496006   -1.7864129   0.70820363   466011 
  188000   0.61853198   -1.7883608   -1.7883608    -1.078644  0.045071812   -1.7883608   0.70971684   466011 
  189000   0.61836939   -1.7881457   -1.7881457   -1.0786154  0.039596823   -1.7881457   0.70953028   466011 
  190000   0.61782293    -1.788044    -1.788044   -1.0791408  0.043532086    -1.788044   0.70890326   466011 
  191000   0.61824547   -1.7887268   -1.7887268   -1.0793387  0.041843236   -1.7887268   0.70938809   466011 
  192000    0.6163957   -1.7866663   -1.7866663   -1.0794007   0.04442373   -1.7866663   0.70726563   466011 
  193000   0.61703208   -1.7874172   -1.7874172   -1.0794214  0.049182138   -1.7874172   0.70799582   466011 
  194000   0.61726119   -1.7886303   -1.7886303   -1.0803716  0.038832228   -1.7886303    0.7082587   466011 
  195000   0.61696495   -1.7887067   -1.7887067   -1.0807879  0.043583348   -1.7887067    0.7079188   466011 
  196000   0.61576161   -1.7867514   -1.7867514   -1.0802133   0.04260929   -1.7867514   0.70653805   466011 
  197000   0.61684576   -1.7884673   -1.7884673   -1.0806852  0.044187311   -1.7884673   0.70778204   466011 
  198000   0.61637712   -1.7882253   -1.7882253    -1.080981  0.036275163   -1.7882253    0.7072443   466011 
  199000   0.61565368   -1.7874821   -1.7874821   -1.0810679  0.043871852   -1.7874821   0.70641421   466011 
  200000   0.61576063   -1.7878731   -1.7878731   -1.0813362  0.039000488   -1.7878731   0.70653693   466011 
  201000   0.61564235   -1.7874039   -1.7874039   -1.0810027  0.039956952   -1.7874039   0.70640121   466011 
  202000   0.61607406   -1.7882644   -1.7882644   -1.0813678  0.042599976   -1.7882644   0.70689657   466011 
  203000   0.61627907   -1.7880319   -1.7880319   -1.0809001  0.034322466   -1.7880319   0.70713181   466011 
  204000   0.61602024   -1.7883856   -1.7883856   -1.0815508  0.041371894   -1.7883856   0.70683481   466011 
  205000   0.61799887   -1.7895426   -1.7895426   -1.0804374  0.041673288   -1.7895426   0.70910513   466011 
  206000   0.61652459   -1.7886697   -1.7886697   -1.0812562  0.037290115   -1.7886697   0.70741352   466011 
  207000   0.61654668   -1.7883391   -1.7883391   -1.0809002  0.043023308   -1.7883391   0.70743886   466011 
  208000   0.61677367   -1.7895561   -1.7895561   -1.0818568  0.038346754   -1.7895561   0.70769932   466011 
  209000   0.61624794   -1.7884502   -1.7884502   -1.0813541  0.042173015   -1.7884502   0.70709608   466011 
  210000    0.6160703   -1.7880885   -1.7880885   -1.0811963  0.040261066   -1.7880885   0.70689225   466011 
  211000   0.61845192   -1.7905237   -1.7905237   -1.0808987  0.039892758   -1.7905237   0.70962497   466011 
  212000   0.61711477   -1.7887212   -1.7887212   -1.0806304  0.037799135   -1.7887212   0.70809071   466011 
  213000   0.61766402   -1.7887651   -1.7887651   -1.0800442  0.042966095   -1.7887651   0.70872092   466011 
  214000   0.61740157   -1.7889878   -1.7889878    -1.080568  0.046932951   -1.7889878   0.70841978   466011 
  215000   0.61713064   -1.7888128   -1.7888128   -1.0807039  0.040527325   -1.7888128   0.70810891   466011 
  216000   0.61732648   -1.7885238   -1.7885238   -1.0801902  0.046893061   -1.7885238   0.70833362   466011 
  217000   0.61684413   -1.7882714   -1.7882714   -1.0804912  0.045707882   -1.7882714   0.70778016   466011 
  218000   0.61818835   -1.7900732   -1.7900732   -1.0807507  0.041327731   -1.7900732   0.70932255   466011 
  219000   0.61437498   -1.7865187   -1.7865187   -1.0815717  0.041582916   -1.7865187   0.70494701   466011 
  220000   0.61632367   -1.7883631   -1.7883631   -1.0811801  0.035566098   -1.7883631   0.70718298   466011 
  221000   0.61634084   -1.7891412   -1.7891412   -1.0819385  0.040346375   -1.7891412   0.70720268   466011 
  222000   0.61647675   -1.7896507   -1.7896507    -1.082292  0.032874221   -1.7896507   0.70735863   466011 
  223000    0.6156726   -1.7892408   -1.7892408   -1.0828049  0.033489336   -1.7892408   0.70643593   466011 
  224000   0.61534891   -1.7886202   -1.7886202   -1.0825557  0.039543879   -1.7886202   0.70606452   466011 
  225000     0.616165   -1.7903399   -1.7903399    -1.083339  0.034069474   -1.7903399   0.70700092   466011 
  226000   0.61650651   -1.7901939   -1.7901939   -1.0828012  0.037074215   -1.7901939   0.70739277   466011 
  227000   0.61629949   -1.7890082   -1.7890082    -1.081853  0.049213606   -1.7890082   0.70715523   466011 
  228000   0.61651052   -1.7896954   -1.7896954    -1.082298  0.042090361   -1.7896954   0.70739738   466011 
  229000   0.61645183   -1.7896219   -1.7896219   -1.0822919  0.034136894   -1.7896219   0.70733003   466011 
  230000    0.6161262   -1.7897092   -1.7897092   -1.0827528  0.041347523   -1.7897092   0.70695639   466011 
  231000    0.6162337   -1.7900753   -1.7900753   -1.0829956  0.038208186   -1.7900753   0.70707975   466011 
  232000   0.61549069   -1.7895015   -1.7895015   -1.0832743  0.038900383   -1.7895015   0.70622719   466011 
  233000   0.61579112   -1.7900901   -1.7900901   -1.0835182  0.043096647   -1.7900901   0.70657192   466011 
  234000   0.61602275   -1.7907309   -1.7907309   -1.0838932  0.043059165   -1.7907309    0.7068377   466011 
  235000   0.61645852   -1.7909952   -1.7909952   -1.0836575  0.038387961   -1.7909952   0.70733771   466011 
  236000   0.61639052   -1.7907568   -1.7907568   -1.0834971  0.041193143   -1.7907568   0.70725968   466011 
  237000   0.61581994   -1.7901323   -1.7901323   -1.0835273  0.037205763   -1.7901323   0.70660498   466011 
  238000   0.61646948   -1.7911006   -1.7911006   -1.0837503  0.042925111   -1.7911006   0.70735029   466011 
  239000   0.61569462   -1.7898916   -1.7898916   -1.0834304  0.041575593   -1.7898916   0.70646119   466011 
  240000   0.61648195   -1.7907795   -1.7907795   -1.0834149  0.041525591   -1.7907795   0.70736459   466011 
  241000   0.61773716   -1.7920536   -1.7920536   -1.0832487  0.040589379   -1.7920536   0.70880485   466011 
  242000   0.61623381   -1.7900364   -1.7900364   -1.0829566  0.042640669   -1.7900364   0.70707987   466011 
  243000   0.61718988   -1.7911225   -1.7911225   -1.0829456  0.040963715   -1.7911225   0.70817688   466011 
  244000   0.61649409   -1.7908677   -1.7908677   -1.0834892  0.036622524   -1.7908677   0.70737852   466011 
  245000   0.61644406   -1.7907524   -1.7907524   -1.0834313  0.039558133   -1.7907524   0.70732112   466011 
  246000    0.6167614    -1.791515    -1.791515   -1.0838297   0.03658066    -1.791515   0.70768524   466011 
  247000   0.61646851   -1.7918037   -1.7918037   -1.0844545  0.037106926   -1.7918037   0.70734917   466011 
  248000   0.61635659   -1.7910497   -1.7910497    -1.083829  0.043678149   -1.7910497   0.70722074   466011 
  249000   0.61731217   -1.7920442   -1.7920442    -1.083727  0.043680297   -1.7920442    0.7083172   466011 
  250000   0.61643834   -1.7910313   -1.7910313   -1.0837168  0.039817071   -1.7910313   0.70731455   466011 
  251000   0.61773294   -1.7922925   -1.7922925   -1.0834925  0.046305159   -1.7922925       0.7088   466011 
  252000   0.61653262   -1.7912296   -1.7912296   -1.0838068  0.041687106   -1.7912296   0.70742274   466011 
  253000   0.61528841   -1.7897044   -1.7897044   -1.0837093  0.043138717   -1.7897044   0.70599509   466011 
  254000   0.61640384   -1.7917066   -1.7917066   -1.0844316  0.040248547   -1.7917066   0.70727497   466011 
  255000   0.61579837   -1.7907983   -1.7907983    -1.084218  0.037812752   -1.7907983   0.70658024   466011 
  256000   0.61679877   -1.7919231   -1.7919231    -1.084195  0.037495046   -1.7919231   0.70772811   466011 
  257000   0.61638952   -1.7923498   -1.7923498   -1.0850913  0.039925618   -1.7923498   0.70725853   466011 
  258000   0.61597186    -1.791995    -1.791995   -1.0852157  0.043955018    -1.791995    0.7067793   466011 
  259000   0.61669626   -1.7927332   -1.7927332   -1.0851227   0.03802115   -1.7927332    0.7076105   466011 
  260000   0.61632628   -1.7916661   -1.7916661   -1.0844802  0.036937538   -1.7916661   0.70718597   466011 
  261000    0.6153725   -1.7914689   -1.7914689   -1.0853773  0.040331894   -1.7914689   0.70609158   466011 
  262000   0.61548234    -1.790978    -1.790978   -1.0847603  0.039093767    -1.790978   0.70621761   466011 
  263000   0.61671185    -1.791382    -1.791382   -1.0837536  0.042656119    -1.791382   0.70762838   466011 
  264000   0.61612469   -1.7905858   -1.7905858   -1.0836311  0.047490623   -1.7905858   0.70695466   466011 
  265000   0.61582319   -1.7916937   -1.7916937    -1.085085  0.043015789   -1.7916937   0.70660872   466011 
  266000   0.61513445   -1.7905618   -1.7905618   -1.0847434  0.041876182   -1.7905618   0.70581844   466011 
  267000   0.61523808   -1.7910808   -1.7910808   -1.0851434  0.040972265   -1.7910808   0.70593734   466011 
  268000   0.61653446   -1.7915211   -1.7915211   -1.0840963  0.040604382   -1.7915211   0.70742484   466011 
  269000   0.61590252   -1.7910559   -1.7910559   -1.0843562  0.041663134   -1.7910559   0.70669974   466011 
  270000   0.61657339   -1.7921812   -1.7921812   -1.0847117  0.033886604   -1.7921812   0.70746951   466011 
  271000   0.61633213   -1.7919728   -1.7919728   -1.0847801  0.048006751   -1.7919728   0.70719269   466011 
  272000   0.61617169   -1.7917929   -1.7917929   -1.0847843  0.041729114   -1.7917929   0.70700859   466011 
  273000   0.61516177   -1.7912758   -1.7912758    -1.085426  0.039861036   -1.7912758   0.70584979   466011 
  274000   0.61722519   -1.7928886   -1.7928886   -1.0846712  0.040970061   -1.7928886    0.7082174   466011 
  275000   0.61656134   -1.7916886   -1.7916886    -1.084233  0.042718033   -1.7916886   0.70745568   466011 
  276000   0.61703565   -1.7919765   -1.7919765   -1.0839766  0.040020072   -1.7919765   0.70799991   466011 
  277000   0.61675145   -1.7919258   -1.7919258    -1.084252   0.04226667   -1.7919258   0.70767382   466011 
  278000   0.61694992   -1.7923083   -1.7923083   -1.0844067  0.041946671   -1.7923083   0.70790154   466011 
  279000   0.61794106   -1.7930554   -1.7930554   -1.0840166  0.040351907   -1.7930554    0.7090388   466011 
  280000   0.61745816    -1.792269    -1.792269   -1.0837843  0.042903803    -1.792269   0.70848472   466011 
  281000   0.61627355   -1.7912968   -1.7912968   -1.0841714  0.042891624   -1.7912968   0.70712547   466011 
  282000   0.61808367   -1.7932293   -1.7932293   -1.0840268   0.04847467   -1.7932293   0.70920244   466011 
  283000   0.61697864   -1.7915996   -1.7915996   -1.0836651  0.039237808   -1.7915996   0.70793451   466011 
  284000    0.6173361    -1.792353    -1.792353   -1.0840083  0.039536738    -1.792353   0.70834466   466011 
  285000   0.61585557   -1.7912589   -1.7912589    -1.084613  0.046184583   -1.7912589   0.70664586   466011 
  286000   0.61694972   -1.7919662   -1.7919662   -1.0840649  0.042944675   -1.7919662   0.70790132   466011 
  287000   0.61666275   -1.7916079   -1.7916079   -1.0840359  0.046248898   -1.7916079   0.70757205   466011 
  288000    0.6167688   -1.7915975   -1.7915975   -1.0839038  0.031879579   -1.7915975   0.70769373   466011 
  289000   0.61584517   -1.7915299   -1.7915299   -1.0848959  0.041842818   -1.7915299   0.70663394   466011 
  290000   0.61587228   -1.7916963   -1.7916963   -1.0850312   0.03766433   -1.7916963   0.70666504   466011 
  291000   0.61526594   -1.7904316   -1.7904316   -1.0844623  0.046100239   -1.7904316   0.70596932   466011 
  292000   0.61536203   -1.7916202   -1.7916202   -1.0855407  0.042908506   -1.7916202   0.70607957   466011 
  293000   0.61645683    -1.792899    -1.792899   -1.0855632  0.038219394    -1.792899   0.70733577   466011 
  294000   0.61622936   -1.7926651   -1.7926651   -1.0855903  0.040724856   -1.7926651   0.70707476   466011 
  295000   0.61517484   -1.7921026   -1.7921026   -1.0862378  0.042337325   -1.7921026   0.70586478   466011 
  296000    0.6150067   -1.7915381   -1.7915381   -1.0858662  0.041118459   -1.7915381   0.70567186   466011 
  297000   0.61470961   -1.7913549   -1.7913549    -1.086024   0.04383404   -1.7913549   0.70533097   466011 
  298000   0.61509335   -1.7918347   -1.7918347   -1.0860634   0.03936938   -1.7918347   0.70577128   466011 
  299000   0.61394406   -1.7909165   -1.7909165   -1.0864639  0.040752039   -1.7909165   0.70445256   466011 
  300000   0.61595917   -1.7930695   -1.7930695   -1.0863047  0.040686334   -1.7930695   0.70676475   466011 
  301000   0.61608886   -1.7932994   -1.7932994   -1.0863858   0.03560397   -1.7932994   0.70691356   466011 
  302000    0.6163478   -1.7930627   -1.7930627    -1.085852  0.043652992   -1.7930627   0.70721066   466011 
  303000   0.61500629   -1.7922779   -1.7922779   -1.0866065  0.039547523   -1.7922779   0.70567138   466011 
  304000   0.61508173   -1.7926541   -1.7926541   -1.0868962  0.036962351   -1.7926541   0.70575795   466011 
  305000   0.61685693   -1.7948282   -1.7948282   -1.0870333  0.035992891   -1.7948282   0.70779485   466011 
  306000   0.61480716   -1.7925346   -1.7925346   -1.0870917  0.041991045   -1.7925346    0.7054429   466011 
  307000   0.61618556   -1.7950523   -1.7950523   -1.0880278  0.039252433   -1.7950523   0.70702451   466011 
  308000   0.61502576   -1.7940254   -1.7940254   -1.0883317  0.040718201   -1.7940254   0.70569372   466011 
  309000   0.61503515   -1.7941748   -1.7941748   -1.0884703   0.03994528   -1.7941748    0.7057045   466011 
  310000    0.6167091   -1.7958682   -1.7958682    -1.088243  0.036876768   -1.7958682   0.70762523   466011 
  311000   0.61579742   -1.7952662   -1.7952662   -1.0886871  0.040952737   -1.7952662   0.70657914   466011 
  312000   0.61536557   -1.7949714   -1.7949714   -1.0888878  0.039214354   -1.7949714   0.70608363   466011 
  313000   0.61524096   -1.7949241   -1.7949241   -1.0889835  0.040252319   -1.7949241   0.70594065   466011 
  314000   0.61523298   -1.7949793   -1.7949793   -1.0890478  0.043266398   -1.7949793    0.7059315   466011 
  315000    0.6155893   -1.7955186   -1.7955186   -1.0891783   0.03903654   -1.7955186   0.70634035   466011 
  316000   0.61469993   -1.7952621   -1.7952621   -1.0899423  0.045118326   -1.7952621   0.70531986   466011 
  317000   0.61620735   -1.7965679   -1.7965679   -1.0895184  0.037399845   -1.7965679   0.70704951   466011 
  318000   0.61602819   -1.7967029   -1.7967029    -1.089859  0.035974997   -1.7967029   0.70684393   466011 
  319000   0.61605322   -1.7965815   -1.7965815   -1.0897088  0.043865946   -1.7965815   0.70687265   466011 
  320000    0.6160853   -1.7968648   -1.7968648   -1.0899553  0.040920831   -1.7968648   0.70690947   466011 
  321000   0.61531171   -1.7961905   -1.7961905   -1.0901686  0.043282891   -1.7961905   0.70602183   466011 
  322000   0.61665838   -1.7974967   -1.7974967   -1.0899297  0.043787352   -1.7974967   0.70756703   466011 
  323000   0.61701434   -1.7976385   -1.7976385    -1.089663  0.038326043   -1.7976385   0.70797546   466011 
  324000   0.61525409   -1.7959348   -1.7959348   -1.0899791  0.046657417   -1.7959348   0.70595572   466011 
  325000   0.61625149   -1.7968601   -1.7968601     -1.08976  0.039704439   -1.7968601   0.70710016   466011 
  326000   0.61580613   -1.7967023   -1.7967023   -1.0901132  0.043723365   -1.7967023   0.70658914   466011 
  327000   0.61534919   -1.7962934   -1.7962934   -1.0902285  0.045772084   -1.7962934   0.70606484   466011 
  328000   0.61638334   -1.7973532   -1.7973532   -1.0901017   0.03855309   -1.7973532   0.70725144   466011 
  329000   0.61604664   -1.7967741   -1.7967741    -1.089909    0.0448391   -1.7967741   0.70686511   466011 
  330000   0.61622826   -1.7969518   -1.7969518   -1.0898783  0.038199555   -1.7969518    0.7070735   466011 
  331000   0.61614524   -1.7973317   -1.7973317   -1.0903535  0.038611406   -1.7973317   0.70697825   466011 
  332000   0.61458561   -1.7959969   -1.7959969   -1.0908082   0.03858195   -1.7959969   0.70518869   466011 
  333000   0.61565765   -1.7968279   -1.7968279   -1.0904091   0.04155438   -1.7968279   0.70641877   466011 
  334000   0.61627901   -1.7971208   -1.7971208   -1.0899891  0.036320393   -1.7971208   0.70713174   466011 
  335000    0.6160786   -1.7960111   -1.7960111   -1.0891094  0.038623595   -1.7960111   0.70690177   466011 
  336000   0.61709791   -1.7972887   -1.7972887   -1.0892174  0.040722021   -1.7972887   0.70807136   466011 
  337000   0.61590224   -1.7956595   -1.7956595     -1.08896  0.039717039   -1.7956595   0.70669942   466011 
  338000   0.61512948   -1.7947019   -1.7947019   -1.0888891  0.035153094   -1.7947019   0.70581274   466011 
  339000   0.61535884   -1.7957737   -1.7957737   -1.0896978  0.035898854   -1.7957737    0.7060759   466011 
  340000    0.6161832   -1.7963835   -1.7963835   -1.0893617  0.042873026   -1.7963835    0.7070218   466011 
  341000   0.61550017   -1.7950466   -1.7950466   -1.0888085  0.038142457   -1.7950466   0.70623808   466011 
  342000   0.61545525    -1.794973    -1.794973   -1.0887865  0.044936955    -1.794973   0.70618654   466011 
  343000   0.61640876   -1.7961999   -1.7961999   -1.0889193  0.038614489   -1.7961999   0.70728061   466011 
  344000   0.61443185   -1.7944846   -1.7944846   -1.0894723  0.041061576   -1.7944846   0.70501226   466011 
  345000   0.61538192   -1.7960454   -1.7960454    -1.089943  0.039510343   -1.7960454    0.7061024   466011 
  346000   0.61529814   -1.7957893   -1.7957893    -1.089783  0.037323917   -1.7957893   0.70600626   466011 
  347000   0.61582873   -1.7966607   -1.7966607   -1.0900456  0.030897916   -1.7966607   0.70661507   466011 
  348000   0.61591714   -1.7964937   -1.7964937   -1.0897772  0.039509458   -1.7964937   0.70671652   466011 
  349000   0.61503153   -1.7953832   -1.7953832   -1.0896828  0.042623934   -1.7953832   0.70570035   466011 
  350000   0.61518406   -1.7958306   -1.7958306   -1.0899552  0.038620008   -1.7958306   0.70587536   466011 
  351000   0.61508912   -1.7958654   -1.7958654    -1.090099  0.033730686   -1.7958654   0.70576643   466011 
  352000   0.61618789    -1.796879    -1.796879   -1.0898518  0.035061941    -1.796879   0.70702718   466011 
  353000   0.61528243   -1.7953938   -1.7953938   -1.0894056  0.043740199   -1.7953938   0.70598824   466011 
  354000   0.61513731   -1.7953544   -1.7953544   -1.0895327  0.040110665   -1.7953544   0.70582173   466011 
  355000   0.61552678   -1.7956169   -1.7956169   -1.0893483   0.04691361   -1.7956169   0.70626861   466011 
  356000   0.61609418   -1.7962273   -1.7962273   -1.0893076  0.041452242   -1.7962273   0.70691965   466011 
  357000   0.61474217   -1.7946372   -1.7946372   -1.0892689  0.044487348   -1.7946372   0.70536833   466011 
  358000   0.61606594   -1.7959356   -1.7959356   -1.0890484  0.046295095   -1.7959356   0.70688726   466011 
  359000   0.61607412   -1.7960723   -1.7960723   -1.0891757  0.042390279   -1.7960723   0.70689663   466011 
  360000   0.61609117   -1.7962685   -1.7962685   -1.0893523  0.040520539   -1.7962685    0.7069162   466011 
  361000   0.61657847    -1.796398    -1.796398   -1.0889227  0.041842083    -1.796398   0.70747534   466011 
  362000    0.6166226   -1.7969327   -1.7969327   -1.0894067  0.039742256   -1.7969327   0.70752598   466011 
  363000   0.61531929   -1.7952766   -1.7952766    -1.089246   0.05306036   -1.7952766   0.70603053   466011 
  364000   0.61581864   -1.7964505   -1.7964505    -1.089847  0.042855866   -1.7964505   0.70660349   466011 
  365000   0.61512161    -1.795669    -1.795669   -1.0898653  0.044234875    -1.795669    0.7058037   466011 
  366000    0.6152534   -1.7965682   -1.7965682   -1.0906133   0.04628113   -1.7965682   0.70595493   466011 
  367000   0.61511392   -1.7964054   -1.7964054   -1.0906105  0.033780313   -1.7964054   0.70579488   466011 
  368000   0.61402339   -1.7957674   -1.7957674   -1.0912238   0.04094641   -1.7957674   0.70454359   466011 
  369000    0.6151284   -1.7964515   -1.7964515     -1.09064  0.047866873   -1.7964515    0.7058115   466011 
  370000   0.61546939   -1.7973317   -1.7973317    -1.091129  0.037411457   -1.7973317   0.70620276   466011 
  371000   0.61451288   -1.7963413   -1.7963413   -1.0912361  0.043628993   -1.7963413   0.70510523   466011 
  372000   0.61510075   -1.7973139   -1.7973139   -1.0915342   0.03623458   -1.7973139   0.70577977   466011 
  373000   0.61533025   -1.7968609   -1.7968609   -1.0908178  0.039747659   -1.7968609    0.7060431   466011 
  374000   0.61538018   -1.7980425   -1.7980425   -1.0919421  0.030750442   -1.7980425   0.70610039   466011 
  375000   0.61498932   -1.7964781   -1.7964781   -1.0908262  0.039889793   -1.7964781   0.70565192   466011 
  376000   0.61511834   -1.7966396   -1.7966396   -1.0908396  0.043576088   -1.7966396   0.70579995   466011 
  377000   0.61546177   -1.7966303   -1.7966303   -1.0904362  0.044226694   -1.7966303   0.70619402   466011 
  378000   0.61495424    -1.795755    -1.795755   -1.0901434  0.037125487    -1.795755   0.70561167   466011 
  379000    0.6155577    -1.796526    -1.796526   -1.0902219  0.039418422    -1.796526   0.70630408   466011 
  380000   0.61620876   -1.7976363   -1.7976363   -1.0905851  0.038626401   -1.7976363   0.70705113   466011 
  381000   0.61582449   -1.7971297   -1.7971297   -1.0905195  0.039503175   -1.7971297    0.7066102   466011 
  382000   0.61625169    -1.798094    -1.798094   -1.0909937  0.043419391    -1.798094   0.70710039   466011 
  383000   0.61446878   -1.7962046   -1.7962046     -1.09115  0.042502017   -1.7962046   0.70505464   466011 
  384000   0.61656992   -1.7984813   -1.7984813   -1.0910158  0.043371626   -1.7984813   0.70746553   466011 
  385000   0.61521452    -1.798059    -1.798059   -1.0921487  0.041876357    -1.798059   0.70591032   466011 
  386000   0.61512719   -1.7974746   -1.7974746   -1.0916645  0.035512175   -1.7974746   0.70581011   466011 
  387000   0.61479079   -1.7967372   -1.7967372    -1.091313  0.043622919   -1.7967372   0.70542412   466011 
  388000    0.6157855   -1.7975499   -1.7975499   -1.0909844  0.039641319   -1.7975499   0.70656547   466011 
  389000   0.61519429   -1.7975257   -1.7975257   -1.0916386  0.042630479   -1.7975257    0.7058871   466011 
  390000   0.61493392   -1.7975311   -1.7975311   -1.0919427  0.039308138   -1.7975311   0.70558835   466011 
  391000   0.61468434   -1.7973018   -1.7973018   -1.0919998  0.044844731   -1.7973018   0.70530198   466011 
  392000   0.61638959   -1.7990348   -1.7990348   -1.0917761  0.045862634   -1.7990348   0.70725862   466011 
  393000   0.61512511   -1.7974602   -1.7974602   -1.0916525  0.038350497   -1.7974602   0.70580772   466011 
  394000    0.6147257   -1.7978068   -1.7978068   -1.0924574  0.041725598   -1.7978068   0.70534943   466011 
  395000   0.61599976   -1.7988215   -1.7988215   -1.0920101  0.042381278   -1.7988215   0.70681132   466011 
  396000   0.61699788   -1.7995545   -1.7995545   -1.0915979  0.036861495   -1.7995545   0.70795658   466011 
  397000   0.61549897   -1.7982373   -1.7982373   -1.0920006  0.042194228   -1.7982373    0.7062367   466011 
  398000    0.6154525   -1.7987477   -1.7987477   -1.0925643  0.048052376   -1.7987477   0.70618337   466011 
  399000   0.61591253   -1.7994189   -1.7994189   -1.0927076   0.04062497   -1.7994189   0.70671122   466011 
  400000    0.6151672    -1.798678    -1.798678    -1.092822  0.041306745    -1.798678   0.70585602   466011 
  401000   0.61493027   -1.7988919   -1.7988919   -1.0933078  0.035641173   -1.7988919   0.70558416   466011 
  402000   0.61518327   -1.7986094   -1.7986094   -1.0927349  0.043376344   -1.7986094   0.70587445   466011 
  403000   0.61570021   -1.7993445   -1.7993445   -1.0928769  0.044084297   -1.7993445   0.70646761   466011 
  404000   0.61503305   -1.7988905   -1.7988905   -1.0931884  0.041160135   -1.7988905   0.70570209   466011 
  405000   0.61552173    -1.799278    -1.799278   -1.0930152  0.037878376    -1.799278   0.70626282   466011 
  406000   0.61509996   -1.7984445   -1.7984445   -1.0926657   0.04395901   -1.7984445   0.70577887   466011 
  407000   0.61584677   -1.7992352   -1.7992352   -1.0925995  0.037113044   -1.7992352   0.70663578   466011 
  408000   0.61628643    -1.799252    -1.799252   -1.0921117  0.044691854    -1.799252   0.70714025   466011 
  409000   0.61485404   -1.7978129   -1.7978129   -1.0923162  0.038275286   -1.7978129   0.70549669   466011 
  410000    0.6156993   -1.7991183   -1.7991183   -1.0926517  0.033949672   -1.7991183   0.70646655   466011 
  411000   0.61492427   -1.7983667   -1.7983667   -1.0927895  0.037802367   -1.7983667   0.70557728   466011 
  412000   0.61458636   -1.7978635   -1.7978635    -1.092674  0.045571035   -1.7978635   0.70518955   466011 
  413000   0.61388566   -1.7974108   -1.7974108   -1.0930253  0.041548592   -1.7974108   0.70438555   466011 
  414000   0.61491333   -1.7989096   -1.7989096   -1.0933449  0.037856953   -1.7989096   0.70556472   466011 
  415000   0.61427657   -1.7982663   -1.7982663   -1.0934322  0.044048178   -1.7982663   0.70483409   466011 
  416000   0.61429763   -1.7993128   -1.7993128   -1.0944545  0.036283033   -1.7993128   0.70485826   466011 
  417000   0.61479348   -1.7989837   -1.7989837   -1.0935565  0.038760618   -1.7989837    0.7054272   466011 
  418000   0.61532196   -1.7990139   -1.7990139   -1.0929804  0.037561058   -1.7990139   0.70603359   466011 
  419000   0.61435306   -1.7981542   -1.7981542   -1.0932323  0.040577686   -1.7981542   0.70492186   466011 
  420000   0.61429611   -1.7978501   -1.7978501   -1.0929936  0.037504682   -1.7978501   0.70485651   466011 
  421000   0.61475975   -1.7982936   -1.7982936   -1.0929051  0.040658026   -1.7982936   0.70538851   466011 
  422000   0.61410725   -1.7976929   -1.7976929   -1.0930531  0.036813195   -1.7976929   0.70463981   466011 
  423000   0.61514721   -1.7989211   -1.7989211   -1.0930881  0.044495268   -1.7989211   0.70583308   466011 
  424000   0.61549175   -1.7996737   -1.7996737   -1.0934453  0.039601802   -1.7996737   0.70622841   466011 
  425000   0.61558386   -1.7993789   -1.7993789   -1.0930448  0.037963703   -1.7993789    0.7063341   466011 
  426000   0.61490618   -1.7988223   -1.7988223   -1.0932658  0.042750436   -1.7988223   0.70555652   466011 
  427000   0.61613238   -1.8005185   -1.8005185   -1.0935551   0.04236166   -1.8005185   0.70696348   466011 
  428000   0.61510032   -1.7996923   -1.7996923   -1.0939131  0.034083913   -1.7996923   0.70577927   466011 
  429000   0.61515767   -1.7996735   -1.7996735   -1.0938284  0.045125234   -1.7996735   0.70584508   466011 
  430000   0.61591116   -1.8006745   -1.8006745   -1.0939648  0.038558191   -1.8006745   0.70670965   466011 
  431000   0.61519568   -1.8004197   -1.8004197    -1.094531  0.039224752   -1.8004197    0.7058887   466011 
  432000   0.61589118   -1.8015435   -1.8015435   -1.0948568  0.042890072   -1.8015435   0.70668672   466011 
  433000   0.61535475   -1.8008092   -1.8008092   -1.0947379  0.036534048   -1.8008092   0.70607122   466011 
  434000   0.61441711   -1.8006592   -1.8006592   -1.0956639  0.041552891   -1.8006592   0.70499535   466011 
  435000   0.61464055   -1.8005826   -1.8005826   -1.0953309  0.044265916   -1.8005826   0.70525172   466011 
  436000   0.61599022   -1.8020984   -1.8020984    -1.095298  0.039126562   -1.8020984   0.70680036   466011 
  437000   0.61509473   -1.8015827   -1.8015827   -1.0958098  0.048097537   -1.8015827   0.70577287   466011 
  438000   0.61404261   -1.8010091   -1.8010091   -1.0964434  0.041065084   -1.8010091   0.70456564   466011 
  439000   0.61578119   -1.8029026   -1.8029026   -1.0963421  0.044725286   -1.8029026   0.70656052   466011 
  440000   0.61564489   -1.8039716   -1.8039716   -1.0975675  0.036975317   -1.8039716   0.70640413   466011 
  441000   0.61421456   -1.8017792   -1.8017792   -1.0970163  0.037579691   -1.8017792   0.70476294   466011 
  442000   0.61522387   -1.8026025   -1.8026025   -1.0966815  0.036472379   -1.8026025   0.70592105   466011 
  443000   0.61508819   -1.8017225   -1.8017225   -1.0959572  0.047932219   -1.8017225   0.70576536   466011 
  444000   0.61652913   -1.8035941   -1.8035941   -1.0961754  0.039109519   -1.8035941   0.70741872   466011 
  445000    0.6133826   -1.8001945   -1.8001945   -1.0963862   0.04509914   -1.8001945   0.70380834   466011 
  446000   0.61402452   -1.8010373   -1.8010373   -1.0964924  0.045713589   -1.8010373   0.70454488   466011 
  447000   0.61482169   -1.8017119   -1.8017119   -1.0962524  0.042713733   -1.8017119   0.70545957   466011 
  448000   0.61506349    -1.802812    -1.802812   -1.0970749  0.039852111    -1.802812   0.70573702   466011 
  449000   0.61494203   -1.8026559   -1.8026559   -1.0970583  0.042887893   -1.8026559   0.70559766   466011 
  450000    0.6158925   -1.8035794   -1.8035794   -1.0968912  0.040683622   -1.8035794   0.70668825   466011 
  451000   0.61392814    -1.801905    -1.801905   -1.0974707  0.034629548    -1.801905    0.7044343   466011 
  452000   0.61499899   -1.8024138   -1.8024138   -1.0967508  0.037512214   -1.8024138   0.70566301   466011 
  453000   0.61568338   -1.8024574   -1.8024574   -1.0960091  0.037805893   -1.8024574   0.70644829   466011 
  454000   0.61449311   -1.8008412   -1.8008412   -1.0957586  0.040644136   -1.8008412   0.70508255   466011 
  455000   0.61540432   -1.8016298   -1.8016298   -1.0955017   0.04084634   -1.8016298   0.70612809   466011 
  456000    0.6156141   -1.8025024   -1.8025024   -1.0961336  0.036165595   -1.8025024   0.70636881   466011 
  457000   0.61558788   -1.8025081   -1.8025081   -1.0961694  0.042605468   -1.8025081   0.70633871   466011 
  458000   0.61448606   -1.8017391   -1.8017391   -1.0966647  0.040079463   -1.8017391   0.70507446   466011 
  459000    0.6144277   -1.8011128   -1.8011128   -1.0961053  0.042124356   -1.8011128   0.70500749   466011 
  460000   0.61424027   -1.8013174   -1.8013174    -1.096525  0.037887577   -1.8013174   0.70479244   466011 
  461000   0.61364027   -1.8008511   -1.8008511   -1.0967471  0.038254284   -1.8008511   0.70410398   466011 
  462000   0.61375395   -1.8017382   -1.8017382   -1.0975037  0.037839415   -1.8017382   0.70423442   466011 
  463000   0.61340987   -1.8011694   -1.8011694   -1.0973298  0.041158282   -1.8011694   0.70383962   466011 
  464000   0.61434928    -1.801522    -1.801522   -1.0966044  0.038836417    -1.801522   0.70491752   466011 
  465000   0.61411164   -1.8011852   -1.8011852   -1.0965403  0.046601537   -1.8011852   0.70464485   466011 
  466000   0.61393013   -1.8014104   -1.8014104   -1.0969738  0.042843961   -1.8014104   0.70443657   466011 
  467000    0.6139415   -1.8014238   -1.8014238   -1.0969742  0.039219848   -1.8014238   0.70444962   466011 
  468000   0.61427184   -1.8013781   -1.8013781   -1.0965494  0.037520164   -1.8013781   0.70482866   466011 
  469000   0.61378932   -1.8010071   -1.8010071   -1.0967321  0.043489658   -1.8010071   0.70427501   466011 
  470000   0.61491313   -1.8013564   -1.8013564   -1.0957919   0.04283867   -1.8013564   0.70556449   466011 
  471000   0.61445533    -1.801157    -1.801157   -1.0961178  0.042352405    -1.801157    0.7050392   466011 
  472000   0.61443837   -1.8014371   -1.8014371   -1.0964174   0.03914026   -1.8014371   0.70501975   466011 
  473000   0.61399102   -1.8014042   -1.8014042   -1.0968977  0.050419512   -1.8014042   0.70450644   466011 
  474000    0.6151109   -1.8021927   -1.8021927   -1.0964013  0.046000821   -1.8021927   0.70579142   466011 
  475000   0.61478231   -1.8017654   -1.8017654    -1.096351  0.038242238   -1.8017654   0.70541438   466011 
  476000   0.61466322   -1.8019074   -1.8019074   -1.0966297  0.044242504   -1.8019074   0.70527774   466011 
  477000    0.6157013   -1.8032171   -1.8032171   -1.0967482  0.041531919   -1.8032171   0.70646885   466011 
  478000   0.61566028   -1.8024589   -1.8024589   -1.0960371  0.049488901   -1.8024589   0.70642179   466011 
  479000   0.61508863   -1.8029204   -1.8029204   -1.0971546  0.041534948   -1.8029204   0.70576587   466011 
  480000   0.61433998   -1.8021195   -1.8021195   -1.0972127  0.045406165   -1.8021195   0.70490685   466011 
  481000   0.61409118   -1.8021382   -1.8021382   -1.0975168  0.039886484   -1.8021382   0.70462137   466011 
  482000   0.61506476   -1.8033147   -1.8033147   -1.0975762  0.043839499   -1.8033147   0.70573848   466011 
  483000   0.61418998   -1.8027446   -1.8027446   -1.0980099  0.036927194   -1.8027446   0.70473473   466011 
  484000   0.61386679   -1.8025962   -1.8025962   -1.0982323  0.038526308   -1.8025962   0.70436389   466011 
  485000   0.61379024    -1.802773    -1.802773   -1.0984969  0.039538376    -1.802773   0.70427606   466011 
  486000   0.61432062   -1.8039069   -1.8039069   -1.0990222  0.043046841   -1.8039069   0.70488463   466011 
  487000   0.61398428   -1.8035696   -1.8035696   -1.0990709  0.042400757   -1.8035696   0.70449871   466011 
  488000   0.61320801   -1.8028184   -1.8028184   -1.0992104  0.039159716   -1.8028184     0.703608   466011 
  489000   0.61297246    -1.801998    -1.801998   -1.0986603  0.046313326    -1.801998   0.70333772   466011 
  490000   0.61389634   -1.8033814   -1.8033814   -1.0989836  0.036210174   -1.8033814    0.7043978   466011 
  491000   0.61395725   -1.8043185   -1.8043185   -1.0998508  0.047949437   -1.8043185    0.7044677   466011 
  492000   0.61447379   -1.8044461   -1.8044461   -1.0993857  0.041175646   -1.8044461   0.70506039   466011 
  493000   0.61392594   -1.8039671   -1.8039671   -1.0995354   0.03824828   -1.8039671   0.70443177   466011 
  494000   0.61478298   -1.8047777   -1.8047777   -1.0993625  0.041773956   -1.8047777   0.70541515   466011 
  495000   0.61364028   -1.8040864   -1.8040864   -1.0999824  0.046323306   -1.8040864     0.704104   466011 
  496000   0.61423795   -1.8045975   -1.8045975   -1.0998077  0.043914226   -1.8045975   0.70478977   466011 
  497000   0.61479848     -1.80475     -1.80475   -1.0993171  0.043302163     -1.80475   0.70543294   466011 
  498000   0.61558167   -1.8054897   -1.8054897   -1.0991581   0.04131519   -1.8054897   0.70633159   466011 
  499000   0.61599904   -1.8058929   -1.8058929   -1.0990824  0.042015039   -1.8058929   0.70681049   466011 
  500000   0.61461068   -1.8041356   -1.8041356   -1.0989181  0.042939945   -1.8041356   0.70521746   466011 
  501000   0.61441072   -1.8041318   -1.8041318   -1.0991437  0.042984504   -1.8041318   0.70498802   466011 
  502000    0.6156611   -1.8051983   -1.8051983   -1.0987756  0.039765322   -1.8051983   0.70642273   466011 
  503000   0.61419397   -1.8040514   -1.8040514   -1.0993121  0.042646776   -1.8040514   0.70473932   466011 
  504000   0.61354008   -1.8026169   -1.8026169   -1.0986279  0.041494497   -1.8026169   0.70398902   466011 
  505000   0.61468575   -1.8045161   -1.8045161   -1.0992125  0.038207093   -1.8045161   0.70530359   466011 
  506000    0.6153611   -1.8057366   -1.8057366   -1.0996581  0.043465322   -1.8057366   0.70607851   466011 
  507000   0.61324725   -1.8032631   -1.8032631   -1.0996101  0.043450189   -1.8032631   0.70365302   466011 
  508000   0.61430374   -1.8048396   -1.8048396   -1.0999744  0.037789348   -1.8048396   0.70486527   466011 
  509000   0.61374243    -1.804226    -1.804226   -1.1000048  0.046349189    -1.804226   0.70422121   466011 
  510000   0.61485349   -1.8052586   -1.8052586   -1.0997626  0.037904645   -1.8052586   0.70549605   466011 
  511000   0.61403404   -1.8044993   -1.8044993   -1.0999435  0.038087442   -1.8044993   0.70455581   466011 
  512000    0.6131647   -1.8033869   -1.8033869   -1.0998286  0.042038541   -1.8033869    0.7035583   466011 
  513000   0.61433867     -1.80347     -1.80347   -1.0985647  0.037603763     -1.80347   0.70490534   466011 
  514000    0.6130436   -1.8025478   -1.8025478   -1.0991284  0.035660835   -1.8025478   0.70341935   466011 
  515000   0.61456551   -1.8037949   -1.8037949   -1.0986293  0.036905576   -1.8037949   0.70516562   466011 
  516000   0.61393465   -1.8027742   -1.8027742   -1.0983324  0.037580429   -1.8027742   0.70444176   466011 
  517000   0.61336621    -1.802947    -1.802947   -1.0991574  0.045660735    -1.802947   0.70378952   466011 
  518000   0.61453701   -1.8048038   -1.8048038   -1.0996709  0.044647993   -1.8048038   0.70513292   466011 
  519000    0.6146297   -1.8052856   -1.8052856   -1.1000464  0.043207916   -1.8052856   0.70523927   466011 
  520000   0.61477245   -1.8047598   -1.8047598   -1.0993568  0.040053489   -1.8047598   0.70540307   466011 
  521000   0.61412899   -1.8053397   -1.8053397    -1.100675  0.044158791   -1.8053397   0.70466475   466011 
  522000   0.61436862   -1.8056431   -1.8056431   -1.1007033  0.038480773   -1.8056431   0.70493971   466011 
  523000   0.61411991   -1.8055453   -1.8055453    -1.100891  0.044838633   -1.8055453   0.70465434   466011 
  524000   0.61370269   -1.8054025   -1.8054025   -1.1012268  0.043957988   -1.8054025   0.70417561   466011 
  525000   0.61454367   -1.8071253   -1.8071253   -1.1019847  0.041225865   -1.8071253   0.70514056   466011 
  526000   0.61418804   -1.8063122   -1.8063122   -1.1015797   0.03984341   -1.8063122   0.70473251   466011 
  527000   0.61307086   -1.8058228   -1.8058228   -1.1023721  0.041462534   -1.8058228   0.70345064   466011 
  528000   0.61302114   -1.8051028   -1.8051028   -1.1017092  0.039446748   -1.8051028   0.70339358   466011 
  529000   0.61281345   -1.8055467   -1.8055467   -1.1023914  0.038288424   -1.8055467   0.70315528   466011 
  530000   0.61408642   -1.8064169   -1.8064169    -1.101801  0.036068944   -1.8064169    0.7046159   466011 
  531000   0.61429581   -1.8062227   -1.8062227   -1.1013665  0.036940515   -1.8062227   0.70485616   466011 
  532000   0.61405235   -1.8061493   -1.8061493   -1.1015725  0.042558762   -1.8061493   0.70457681   466011 
  533000   0.61457463   -1.8061634   -1.8061634   -1.1009873  0.041141948   -1.8061634   0.70517609   466011 
  534000   0.61466382   -1.8059749   -1.8059749   -1.1006964  0.043461829   -1.8059749   0.70527843   466011 
  535000   0.61439519   -1.8058289   -1.8058289   -1.1008588  0.047007393   -1.8058289   0.70497019   466011 
  536000   0.61568951   -1.8066524   -1.8066524    -1.100197  0.047035163   -1.8066524   0.70645533   466011 
  537000    0.6147912   -1.8066101   -1.8066101   -1.1011855  0.041368155   -1.8066101   0.70542459   466011 
  538000   0.61318561   -1.8057008   -1.8057008   -1.1021185  0.040502854   -1.8057008    0.7035823   466011 
  539000     0.614459    -1.807218    -1.807218   -1.1021746  0.037714748    -1.807218   0.70504341   466011 
  540000    0.6148557   -1.8075696   -1.8075696    -1.102071  0.038047329   -1.8075696   0.70549859   466011 
  541000   0.61352244   -1.8060461   -1.8060461   -1.1020773  0.043785801   -1.8060461   0.70396878   466011 
  542000   0.61367243   -1.8068935   -1.8068935   -1.1027526  0.034853835   -1.8068935   0.70414088   466011 
  543000   0.61460656   -1.8079331   -1.8079331   -1.1027203  0.046090886   -1.8079331   0.70521273   466011 
  544000   0.61388054   -1.8065284   -1.8065284   -1.1021488  0.043196839   -1.8065284   0.70437968   466011 
  545000   0.61500794   -1.8070495   -1.8070495   -1.1013762  0.043441952   -1.8070495   0.70567328   466011 
  546000   0.61406044   -1.8061909   -1.8061909   -1.1016048  0.043693951   -1.8061909   0.70458609   466011 
  547000   0.61425465   -1.8065027   -1.8065027   -1.1016937  0.040656487   -1.8065027   0.70480894   466011 
  548000   0.61522135   -1.8078666   -1.8078666   -1.1019485  0.040677172   -1.8078666   0.70591816   466011 
  549000   0.61416827   -1.8063479   -1.8063479   -1.1016381  0.039552247   -1.8063479   0.70470982   466011 
  550000    0.6140084   -1.8058666   -1.8058666   -1.1013402  0.038506321   -1.8058666   0.70452638   466011 
  551000   0.61477352   -1.8076768   -1.8076768   -1.1022725  0.035761441   -1.8076768    0.7054043   466011 
  552000   0.61334642   -1.8062921   -1.8062921   -1.1025253  0.041421251   -1.8062921   0.70376682   466011 
  553000   0.61468835   -1.8077153   -1.8077153   -1.1024087  0.033958066   -1.8077153   0.70530657   466011 
  554000   0.61424626   -1.8066906   -1.8066906   -1.1018913  0.040446937   -1.8066906   0.70479931   466011 
  555000   0.61440583   -1.8065792   -1.8065792   -1.1015968    0.0368243   -1.8065792   0.70498241   466011 
  556000   0.61461856   -1.8069736   -1.8069736   -1.1017471  0.040357429   -1.8069736   0.70522649   466011 
  557000   0.61503304   -1.8071692   -1.8071692   -1.1014671  0.041805856   -1.8071692   0.70570208   466011 
  558000   0.61431003   -1.8068194   -1.8068194   -1.1019469  0.042860437   -1.8068194   0.70487248   466011 
  559000   0.61385115    -1.807356    -1.807356     -1.10301  0.040537027    -1.807356   0.70434596   466011 
  560000   0.61326622   -1.8065156   -1.8065156   -1.1028409  0.044808805   -1.8065156    0.7036748   466011 
  561000   0.61364742   -1.8066134   -1.8066134   -1.1025012  0.040228869   -1.8066134   0.70411219   466011 
  562000    0.6130603   -1.8058874   -1.8058874   -1.1024489  0.048001227   -1.8058874   0.70343852   466011 
  563000   0.61399359   -1.8068419   -1.8068419   -1.1023325   0.04073861   -1.8068419   0.70450939   466011 
  564000   0.61313842   -1.8060873   -1.8060873   -1.1025592  0.043287031   -1.8060873   0.70352815   466011 
  565000   0.61407729   -1.8071768   -1.8071768   -1.1025713  0.039425291   -1.8071768   0.70460544   466011 
  566000   0.61312867   -1.8061518   -1.8061518   -1.1026349   0.04182447   -1.8061518   0.70351696   466011 
  567000   0.61344265   -1.8064103   -1.8064103   -1.1025331  0.036525247   -1.8064103   0.70387723   466011 
  568000   0.61417788   -1.8077903   -1.8077903   -1.1030694   0.04235227   -1.8077903   0.70472085   466011 
  569000   0.61339946   -1.8069055   -1.8069055   -1.1030778  0.040088094   -1.8069055   0.70382768   466011 
  570000   0.61374695   -1.8067443   -1.8067443   -1.1025179  0.038345021   -1.8067443   0.70422639   466011 
  571000   0.61281622   -1.8051853   -1.8051853   -1.1020269  0.038526047   -1.8051853   0.70315845   466011 
  572000   0.61393845   -1.8065904   -1.8065904   -1.1021443  0.031820861   -1.8065904   0.70444612   466011 
  573000   0.61289002   -1.8059225   -1.8059225   -1.1026794  0.040203275   -1.8059225   0.70324314   466011 
  574000   0.61315212   -1.8060887   -1.8060887   -1.1025448  0.034926144   -1.8060887   0.70354387   466011 
  575000   0.61285896    -1.806307    -1.806307   -1.1030995  0.036804264    -1.806307   0.70320749   466011 
  576000   0.61173934   -1.8050522   -1.8050522   -1.1031294  0.047922178   -1.8050522   0.70192281   466011 
  577000     0.613073   -1.8069046   -1.8069046   -1.1034515  0.036012094   -1.8069046   0.70345308   466011 
  578000   0.61258398    -1.806149    -1.806149    -1.103257  0.047537387    -1.806149   0.70289198   466011 
  579000   0.61359751   -1.8075415   -1.8075415   -1.1034866  0.035280571   -1.8075415   0.70405492   466011 
  580000   0.61300843    -1.807042    -1.807042   -1.1036629  0.040919981    -1.807042     0.703379   466011 
  581000   0.61353495   -1.8078333   -1.8078333   -1.1038502  0.039324029   -1.8078333   0.70398314   466011 
  582000   0.61320722   -1.8081576   -1.8081576   -1.1045505  0.041067813   -1.8081576    0.7036071   466011 
  583000   0.61364433   -1.8086049   -1.8086049   -1.1044963  0.042776465   -1.8086049   0.70410864   466011 
  584000   0.61367072   -1.8083366   -1.8083366   -1.1041977  0.044142074   -1.8083366   0.70413893   466011 
  585000   0.61369444   -1.8083916   -1.8083916   -1.1042254  0.043302268   -1.8083916   0.70416614   466011 
  586000   0.61399303   -1.8083205   -1.8083205   -1.1038117  0.043550337   -1.8083205   0.70450875   466011 
  587000   0.61366132   -1.8087604   -1.8087604   -1.1046322  0.042785622   -1.8087604   0.70412814   466011 
  588000   0.61456919   -1.8094271   -1.8094271   -1.1042573  0.041355056   -1.8094271   0.70516984   466011 
  589000   0.61566636   -1.8101968   -1.8101968    -1.103768  0.040333989   -1.8101968   0.70642877   466011 
  590000   0.61368592   -1.8090907   -1.8090907   -1.1049344  0.045449886   -1.8090907   0.70415636   466011 
  591000   0.61475748   -1.8102893   -1.8102893   -1.1049034  0.046806888   -1.8102893   0.70538589   466011 
  592000   0.61374966   -1.8096624   -1.8096624   -1.1054329  0.044505951   -1.8096624    0.7042295   466011 
  593000   0.61403647   -1.8095833   -1.8095833   -1.1050247  0.045119399   -1.8095833    0.7045586   466011 
  594000   0.61382019   -1.8090051   -1.8090051   -1.1046946  0.044560635   -1.8090051   0.70431044   466011 
  595000    0.6143253   -1.8094292   -1.8094292   -1.1045392   0.04417115   -1.8094292      0.70489   466011 
  596000   0.61410021   -1.8087859   -1.8087859   -1.1041542  0.043055815   -1.8087859   0.70463173   466011 
  597000    0.6134787   -1.8089879   -1.8089879   -1.1050693  0.034677886   -1.8089879    0.7039186   466011 
  598000   0.61411607   -1.8097874   -1.8097874   -1.1051375   0.03976005   -1.8097874   0.70464992   466011 
  599000   0.61359364   -1.8092379   -1.8092379   -1.1051874  0.035595083   -1.8092379   0.70405048   466011 
  600000   0.61458693   -1.8103675   -1.8103675   -1.1051773  0.036061483   -1.8103675   0.70519021   466011 
  601000    0.6121262   -1.8073196   -1.8073196   -1.1049529   0.04061189   -1.8073196   0.70236671   466011 
  602000   0.61267499   -1.8083114   -1.8083114    -1.105315  0.042229888   -1.8083114   0.70299641   466011 
  603000   0.61299585    -1.808504    -1.808504   -1.1051394  0.037729478    -1.808504   0.70336457   466011 
  604000   0.61338679    -1.808813    -1.808813   -1.1049999  0.038313929    -1.808813   0.70381313   466011 
  605000   0.61301341   -1.8080035   -1.8080035   -1.1046188  0.037581902   -1.8080035   0.70338472   466011 
  606000   0.61322507   -1.8082272   -1.8082272   -1.1045996  0.036054775   -1.8082272   0.70362758   466011 
  607000   0.61360684   -1.8086336   -1.8086336    -1.104568  0.039483648   -1.8086336   0.70406563   466011 
  608000   0.61284367   -1.8072523   -1.8072523   -1.1040623   0.03763977   -1.8072523   0.70318995   466011 
  609000   0.61303942   -1.8076048   -1.8076048   -1.1041903   0.04167422   -1.8076048   0.70341455   466011 
  610000   0.61458294   -1.8098999   -1.8098999   -1.1047143  0.036544097   -1.8098999   0.70518563   466011 
  611000   0.61373358   -1.8084364   -1.8084364   -1.1042253  0.040859091   -1.8084364   0.70421105   466011 
  612000   0.61466284   -1.8095265   -1.8095265   -1.1042492  0.041578242   -1.8095265    0.7052773   466011 
  613000   0.61393837   -1.8092077   -1.8092077   -1.1047617  0.040764414   -1.8092077   0.70444603   466011 
  614000   0.61364535   -1.8085364   -1.8085364   -1.1044266  0.044791161   -1.8085364   0.70410981   466011 
  615000   0.61313773   -1.8086391   -1.8086391   -1.1051118  0.040633776   -1.8086391   0.70352736   466011 
  616000   0.61407426   -1.8091051   -1.8091051   -1.1045031  0.041907841   -1.8091051   0.70460196   466011 
  617000   0.61468229   -1.8102303   -1.8102303   -1.1049307  0.038477869   -1.8102303   0.70529962   466011 
  618000   0.61290358   -1.8085078   -1.8085078   -1.1052491  0.040578075   -1.8085078    0.7032587   466011 
  619000   0.61409708   -1.8095263   -1.8095263   -1.1048981  0.036383009   -1.8095263   0.70462814   466011 
  620000   0.61404263   -1.8093246   -1.8093246   -1.1047589  0.044372967   -1.8093246   0.70456566   466011 
  621000   0.61361327   -1.8092962   -1.8092962   -1.1052232  0.039683818   -1.8092962   0.70407301   466011 
  622000   0.61337716   -1.8100343   -1.8100343   -1.1062322  0.047995912   -1.8100343   0.70380208   466011 
  623000   0.61244559   -1.8087037   -1.8087037   -1.1059705  0.041603598   -1.8087037   0.70273319   466011 
  624000   0.61476695   -1.8112264   -1.8112264   -1.1058296  0.046041893   -1.8112264   0.70539676   466011 
  625000   0.61459332   -1.8109115   -1.8109115    -1.105714  0.041927598   -1.8109115   0.70519753   466011 
  626000   0.61438426   -1.8110049   -1.8110049   -1.1060473    0.0365556   -1.8110049   0.70495766   466011 
  627000   0.61231021   -1.8086728   -1.8086728    -1.106095  0.045740078   -1.8086728   0.70257784   466011 
  628000   0.61396238   -1.8109978   -1.8109978   -1.1065242  0.037300024   -1.8109978   0.70447358   466011 
  629000   0.61325824   -1.8093651   -1.8093651   -1.1056995  0.038850212   -1.8093651   0.70366564   466011 
  630000   0.61280181   -1.8091475   -1.8091475   -1.1060056  0.039613144   -1.8091475   0.70314192   466011 
  631000   0.61147929    -1.807951    -1.807951   -1.1063265  0.045511264    -1.807951   0.70162443   466011 
  632000   0.61307382   -1.8100427   -1.8100427   -1.1065887   0.04069946   -1.8100427   0.70345403   466011 
  633000   0.61320056   -1.8104078   -1.8104078   -1.1068084  0.038189563   -1.8104078   0.70359945   466011 
  634000   0.61364016   -1.8101224   -1.8101224   -1.1060185  0.039291315   -1.8101224   0.70410386   466011 
  635000    0.6122316   -1.8092446   -1.8092446   -1.1067569  0.039756245   -1.8092446   0.70248765   466011 
  636000   0.61300693   -1.8100162   -1.8100162   -1.1066389  0.044233956   -1.8100162   0.70337728   466011 
  637000   0.61328398   -1.8099543   -1.8099543   -1.1062592  0.037851835   -1.8099543   0.70369517   466011 
  638000   0.61351816   -1.8106765   -1.8106765   -1.1067126  0.033299093   -1.8106765   0.70396388   466011 
  639000   0.61304623   -1.8101963   -1.8101963    -1.106774  0.042503695   -1.8101963   0.70342237   466011 
  640000   0.61214455   -1.8094682   -1.8094682   -1.1070804  0.042802601   -1.8094682   0.70238776   466011 
  641000   0.61308364   -1.8107449   -1.8107449   -1.1072796  0.035675149   -1.8107449    0.7034653   466011 
  642000   0.61299991   -1.8108193   -1.8108193     -1.10745  0.042662276   -1.8108193   0.70336923   466011 
  643000   0.61374083   -1.8116366   -1.8116366   -1.1074172  0.042667585   -1.8116366   0.70421937   466011 
  644000   0.61276905   -1.8109526   -1.8109526   -1.1078482  0.036096668   -1.8109526   0.70310433   466011 
[...]
 9832000   0.60453732   -1.8722976   -1.8722976   -1.1786385  0.039284412   -1.8722976   0.69365907   466011 
 9833000   0.60398481   -1.8717746   -1.8717746   -1.1787495  0.033778504   -1.8717746   0.69302511   466011 
 9834000   0.60462139   -1.8727146   -1.8727146   -1.1789591  0.036695964   -1.8727146   0.69375553   466011 
 9835000   0.60522692   -1.8731488   -1.8731488   -1.1786985  0.039107287   -1.8731488   0.69445033   466011 
 9836000   0.60326048   -1.8719389   -1.8719389   -1.1797449  0.034862331   -1.8719389   0.69219399   466011 
 9837000   0.60315267   -1.8717443   -1.8717443    -1.179674   0.03598813   -1.8717443   0.69207029   466011 
 9838000   0.60404717   -1.8737768   -1.8737768   -1.1806801  0.036122593   -1.8737768   0.69309666   466011 
 9839000   0.60426415    -1.874014    -1.874014   -1.1806684  0.034074114    -1.874014   0.69334562   466011 
 9840000   0.60328148   -1.8722305   -1.8722305   -1.1800124   0.03806034   -1.8722305   0.69221808   466011 
 9841000   0.60324103    -1.872761    -1.872761   -1.1805893   0.03621456    -1.872761   0.69217168   466011 
 9842000   0.60349081   -1.8727097   -1.8727097   -1.1802514  0.033175228   -1.8727097   0.69245828   466011 
 9843000    0.6031974   -1.8723633   -1.8723633   -1.1802417  0.035233796   -1.8723633   0.69212162   466011 
 9844000   0.60294426   -1.8719652   -1.8719652    -1.180134  0.035052741   -1.8719652   0.69183115   466011 
 9845000   0.60386007    -1.872904    -1.872904    -1.180022  0.033617064    -1.872904   0.69288198   466011 
 9846000   0.60405724   -1.8729958   -1.8729958   -1.1798876  0.040078963   -1.8729958   0.69310821   466011 
 9847000   0.60390609   -1.8720164   -1.8720164   -1.1790816  0.042496505   -1.8720164   0.69293478   466011 
 9848000   0.60619111   -1.8739169   -1.8739169   -1.1783602  0.036025969   -1.8739169   0.69555666   466011 
 9849000   0.60421182   -1.8724113   -1.8724113   -1.1791257  0.038344091   -1.8724113   0.69328558   466011 
 9850000   0.60422375   -1.8726411   -1.8726411   -1.1793419  0.034904795   -1.8726411   0.69329927   466011 
 9851000   0.60309639   -1.8712845   -1.8712845   -1.1792787  0.041787012   -1.8712845   0.69200571   466011 
 9852000   0.60458051   -1.8718697   -1.8718697   -1.1781611    0.0336503   -1.8718697   0.69370862   466011 
 9853000   0.60371542   -1.8716702   -1.8716702   -1.1789542  0.034943419   -1.8716702     0.692716   466011 
 9854000   0.60370816   -1.8715092   -1.8715092   -1.1788015  0.030588741   -1.8715092   0.69270767   466011 
 9855000   0.60272893   -1.8704352   -1.8704352   -1.1788511  0.038164335   -1.8704352   0.69158408   466011 
 9856000    0.6039547   -1.8717906   -1.8717906      -1.1788  0.030958074   -1.8717906   0.69299056   466011 
 9857000   0.60371294   -1.8716021   -1.8716021    -1.178889  0.032458808   -1.8716021   0.69271315   466011 
 9858000   0.60474422   -1.8725125   -1.8725125   -1.1786161  0.031764536   -1.8725125   0.69389646   466011 
 9859000   0.60424632   -1.8727282   -1.8727282    -1.179403  0.030704899   -1.8727282   0.69332517   466011 
 9860000   0.60293319   -1.8706783   -1.8706783   -1.1788599  0.032444587   -1.8706783   0.69181845   466011 
 9861000   0.60380266   -1.8720291   -1.8720291    -1.179213  0.035698326   -1.8720291    0.6928161   466011 
 9862000   0.60338469   -1.8706675   -1.8706675    -1.178331  0.038300504   -1.8706675   0.69233651   466011 
 9863000   0.60472305   -1.8718268   -1.8718268   -1.1779547  0.041680957   -1.8718268   0.69387218   466011 
 9864000   0.60524837    -1.872101    -1.872101    -1.177626  0.038435209    -1.872101   0.69447494   466011 
 9865000    0.6052797   -1.8729292   -1.8729292   -1.1784183  0.040741003   -1.8729292   0.69451089   466011 
 9866000    0.6039113   -1.8714748   -1.8714748   -1.1785341  0.030497369   -1.8714748   0.69294075   466011 
 9867000   0.60362475   -1.8707686   -1.8707686   -1.1781567  0.032869838   -1.8707686   0.69261196   466011 
 9868000   0.60501353   -1.8721397   -1.8721397   -1.1779342  0.038234527   -1.8721397   0.69420547   466011 
 9869000   0.60449378   -1.8716634   -1.8716634   -1.1780543    0.0412055   -1.8716634    0.6936091   466011 
 9870000   0.60452387   -1.8720504   -1.8720504   -1.1784067  0.036435581   -1.8720504   0.69364363   466011 
 9871000   0.60364256   -1.8710601   -1.8710601   -1.1784277  0.034763073   -1.8710601    0.6926324   466011 
 9872000   0.60377917   -1.8714561   -1.8714561   -1.1786669  0.034920093   -1.8714561   0.69278915   466011 
 9873000   0.60368947   -1.8718607   -1.8718607   -1.1791744  0.033139322   -1.8718607   0.69268622   466011 
 9874000    0.6032434   -1.8717544   -1.8717544     -1.17958  0.034166694   -1.8717544   0.69217439   466011 
 9875000    0.6033265   -1.8726494   -1.8726494   -1.1803796  0.036463492   -1.8726494   0.69226975   466011 
 9876000   0.60338354   -1.8723761   -1.8723761   -1.1800409  0.041771231   -1.8723761    0.6923352   466011 
 9877000   0.60377766   -1.8717824   -1.8717824    -1.178995  0.033327808   -1.8717824   0.69278741   466011 
 9878000   0.60371744   -1.8716186   -1.8716186   -1.1789003  0.036243155   -1.8716186   0.69271832   466011 
 9879000   0.60313008   -1.8708414   -1.8708414   -1.1787971  0.031152057   -1.8708414   0.69204437   466011 
 9880000   0.60431791   -1.8719839   -1.8719839   -1.1785765  0.036789631   -1.8719839    0.6934073   466011 
 9881000   0.60518643    -1.872582    -1.872582   -1.1781781  0.034075152    -1.872582   0.69440386   466011 
 9882000   0.60285801   -1.8702428   -1.8702428   -1.1785106  0.040577612   -1.8702428   0.69173219   466011 
 9883000   0.60386974   -1.8710317   -1.8710317   -1.1781387  0.035488347   -1.8710317   0.69289307   466011 
 9884000    0.6039922   -1.8714678   -1.8714678   -1.1784342  0.038491101   -1.8714678   0.69303358   466011 
 9885000   0.60549909   -1.8733446   -1.8733446    -1.178582  0.034767039   -1.8733446   0.69476262   466011 
 9886000   0.60406369   -1.8715707   -1.8715707    -1.178455  0.038999177   -1.8715707   0.69311562   466011 
 9887000   0.60354084   -1.8707455   -1.8707455   -1.1782298  0.038653832   -1.8707455   0.69251568   466011 
 9888000   0.60355588   -1.8704371   -1.8704371   -1.1779042   0.03795858   -1.8704371   0.69253294   466011 
 9889000   0.60378202   -1.8709758   -1.8709758   -1.1781834   0.03686879   -1.8709758   0.69279242   466011 
 9890000   0.60338109   -1.8714554   -1.8714554    -1.179123  0.032789852   -1.8714554   0.69233238   466011 
 9891000    0.6040176   -1.8713633   -1.8713633   -1.1783006  0.038777287   -1.8713633   0.69306273   466011 
 9892000    0.6032122   -1.8709016   -1.8709016    -1.178763  0.041291895   -1.8709016   0.69213859   466011 
 9893000   0.60369602   -1.8713088   -1.8713088   -1.1786151  0.032962742   -1.8713088   0.69269374   466011 
 9894000   0.60406423   -1.8712579   -1.8712579   -1.1781416  0.031737094   -1.8712579   0.69311623   466011 
 9895000   0.60344317   -1.8713626   -1.8713626    -1.178959  0.040344255   -1.8713626   0.69240361   466011 
 9896000   0.60402129   -1.8722073   -1.8722073   -1.1791403   0.04057088   -1.8722073   0.69306696   466011 
 9897000   0.60287403   -1.8708759   -1.8708759   -1.1791253  0.039263566   -1.8708759   0.69175057   466011 
 9898000    0.6051783   -1.8734678   -1.8734678   -1.1790733  0.035305151   -1.8734678   0.69439454   466011 
 9899000   0.60304783   -1.8713805   -1.8713805   -1.1794305  0.036681183   -1.8713805   0.69194999   466011 
 9900000   0.60360698   -1.8711077   -1.8711077   -1.1785161   0.03578338   -1.8711077   0.69259158   466011 
 9901000   0.60311975   -1.8709846   -1.8709846   -1.1789521  0.037623399   -1.8709846   0.69203252   466011 
 9902000   0.60337465   -1.8713664   -1.8713664   -1.1790414   0.03207233   -1.8713664     0.692325   466011 
 9903000   0.60283654   -1.8709978   -1.8709978   -1.1792903    0.0349075   -1.8709978   0.69170756   466011 
 9904000   0.60383788   -1.8721195   -1.8721195    -1.179263  0.042601862   -1.8721195   0.69285652   466011 
 9905000   0.60418464   -1.8722185   -1.8722185   -1.1789641  0.039961596   -1.8722185   0.69325439   466011 
 9906000   0.60404055   -1.8721853   -1.8721853   -1.1790963  0.033558369   -1.8721853   0.69308906   466011 
 9907000    0.6043601    -1.872473    -1.872473   -1.1790172  0.044580251    -1.872473   0.69345572   466011 
 9908000   0.60473687   -1.8733309   -1.8733309   -1.1794428  0.033113155   -1.8733309   0.69388803   466011 
 9909000   0.60399267   -1.8723617   -1.8723617   -1.1793276  0.037401674   -1.8723617   0.69303412   466011 
 9910000   0.60459051   -1.8729323   -1.8729323   -1.1792122  0.037600285   -1.8729323   0.69372009   466011 
 9911000   0.60464311   -1.8726915   -1.8726915    -1.178911  0.034487052   -1.8726915   0.69378045   466011 
 9912000   0.60330599   -1.8721957   -1.8721957   -1.1799494  0.032912156   -1.8721957   0.69224621   466011 
 9913000    0.6035161   -1.8728693   -1.8728693    -1.180382  0.030680911   -1.8728693    0.6924873   466011 
 9914000   0.60333189   -1.8722071   -1.8722071   -1.1799312  0.037029071   -1.8722071   0.69227594   466011 
 9915000   0.60324014   -1.8726343   -1.8726343   -1.1804637  0.041808985   -1.8726343   0.69217065   466011 
 9916000     0.602717   -1.8719537   -1.8719537   -1.1803834  0.034761533   -1.8719537   0.69157039   466011 
 9917000   0.60339557   -1.8725464   -1.8725464   -1.1801974  0.036520036   -1.8725464     0.692349   466011 
 9918000   0.60340152   -1.8731581   -1.8731581   -1.1808023  0.033097381   -1.8731581   0.69235583   466011 
 9919000   0.60366511   -1.8723985   -1.8723985   -1.1797402  0.032147504   -1.8723985   0.69265827   466011 
 9920000   0.60284213   -1.8711036   -1.8711036   -1.1793897  0.038372966   -1.8711036   0.69171397   466011 
 9921000   0.60434182   -1.8726884   -1.8726884   -1.1792536  0.038489672   -1.8726884   0.69343475   466011 
 9922000   0.60354819   -1.8722364   -1.8722364   -1.1797123  0.037020995   -1.8722364   0.69252411   466011 
 9923000   0.60378988    -1.872965    -1.872965   -1.1801636  0.032845451    -1.872965   0.69280143   466011 
 9924000   0.60301776   -1.8712638   -1.8712638   -1.1793483  0.033862443   -1.8712638   0.69191549   466011 
 9925000   0.60391498   -1.8720882   -1.8720882   -1.1791432  0.036958891   -1.8720882   0.69294498   466011 
 9926000   0.60325271   -1.8709472   -1.8709472   -1.1787621  0.038082548   -1.8709472   0.69218508   466011 
 9927000   0.60392045    -1.871751    -1.871751   -1.1787998  0.037019546    -1.871751   0.69295125   466011 
 9928000   0.60423882   -1.8723613   -1.8723613   -1.1790448  0.043690761   -1.8723613   0.69331656   466011 
 9929000   0.60492135   -1.8727599   -1.8727599   -1.1786602   0.03457975   -1.8727599   0.69409971   466011 
 9930000   0.60423898    -1.871473    -1.871473   -1.1781563  0.034284129    -1.871473   0.69331675   466011 
 9931000   0.60443621   -1.8718862   -1.8718862   -1.1783432  0.035164158   -1.8718862   0.69354305   466011 
 9932000   0.60409229    -1.872189    -1.872189   -1.1790405   0.03113679    -1.872189   0.69314843   466011 
 9933000   0.60216554   -1.8701616   -1.8701616   -1.1792239  0.030063426   -1.8701616   0.69093764   466011 
 9934000   0.60254942   -1.8706004   -1.8706004   -1.1792223  0.033980918   -1.8706004   0.69137811   466011 
 9935000   0.60406197   -1.8721122   -1.8721122   -1.1789986  0.025263081   -1.8721122   0.69311364   466011 
 9936000    0.6032098   -1.8711169   -1.8711169    -1.178981  0.036907031   -1.8711169   0.69213584   466011 
 9937000   0.60309662   -1.8712638   -1.8712638   -1.1792578  0.032792659   -1.8712638   0.69200597   466011 
 9938000   0.60362358   -1.8719997   -1.8719997   -1.1793891  0.035942062   -1.8719997   0.69261062   466011 
 9939000   0.60437188   -1.8720101   -1.8720101   -1.1785408  0.033557772   -1.8720101   0.69346924   466011 
 9940000   0.60363491   -1.8713732   -1.8713732   -1.1787496  0.037910218   -1.8713732   0.69262362   466011 
 9941000   0.60437057    -1.871696    -1.871696   -1.1782283  0.029271299    -1.871696   0.69346773   466011 
 9942000   0.60530135    -1.872545    -1.872545   -1.1780092  0.035826363    -1.872545   0.69453573   466011 
 9943000   0.60557302   -1.8730428   -1.8730428   -1.1781953  0.036735126   -1.8730428   0.69484746   466011 
 9944000   0.60498566   -1.8719597   -1.8719597   -1.1777862  0.041950826   -1.8719597    0.6941735   466011 
 9945000   0.60485063   -1.8721713   -1.8721713   -1.1781528  0.036449209   -1.8721713   0.69401856   466011 
 9946000   0.60444465   -1.8719025   -1.8719025   -1.1783498  0.040020584   -1.8719025   0.69355274   466011 
 9947000   0.60429198   -1.8716569   -1.8716569   -1.1782794  0.036388114   -1.8716569   0.69337756   466011 
 9948000   0.60420162   -1.8722417   -1.8722417   -1.1789678  0.041028895   -1.8722417   0.69327388   466011 
 9949000   0.60617306    -1.874108    -1.874108    -1.178572  0.039537173    -1.874108   0.69553595   466011 
 9950000    0.6045932   -1.8724872   -1.8724872    -1.178764  0.039984368   -1.8724872   0.69372319   466011 
 9951000   0.60504412   -1.8727309   -1.8727309   -1.1784903  0.035357465   -1.8727309   0.69424058   466011 
 9952000   0.60468918   -1.8727576   -1.8727576   -1.1789243  0.034492805   -1.8727576   0.69383332   466011 
 9953000   0.60400676    -1.872127    -1.872127   -1.1790767  0.035775442    -1.872127   0.69305029   466011 
 9954000   0.60385595   -1.8721469   -1.8721469   -1.1792696  0.040765972   -1.8721469   0.69287724   466011 
 9955000   0.60422459   -1.8727094   -1.8727094   -1.1794092   0.02926999   -1.8727094   0.69330024   466011 
 9956000   0.60389574   -1.8730636   -1.8730636   -1.1801407  0.028949139   -1.8730636   0.69292291   466011 
 9957000   0.60336864   -1.8727504   -1.8727504   -1.1804323  0.035328591   -1.8727504    0.6923181   466011 
 9958000   0.60407196   -1.8723825   -1.8723825   -1.1792574  0.040472961   -1.8723825    0.6931251   466011 
 9959000   0.60378358   -1.8732065   -1.8732065   -1.1804122  0.033412106   -1.8732065   0.69279421   466011 
 9960000   0.60353697   -1.8723746   -1.8723746   -1.1798633   0.03462972   -1.8723746   0.69251124   466011 
 9961000   0.60413065   -1.8722631   -1.8722631   -1.1790707  0.029654548   -1.8722631   0.69319244   466011 
 9962000   0.60383055   -1.8720029   -1.8720029   -1.1791548  0.039517968   -1.8720029   0.69284811   466011 
 9963000   0.60471025   -1.8728756   -1.8728756   -1.1790181  0.032244061   -1.8728756   0.69385749   466011 
 9964000     0.604093   -1.8717311   -1.8717311   -1.1785818  0.028196549   -1.8717311   0.69314924   466011 
 9965000   0.60352095     -1.87155     -1.87155   -1.1790571  0.034635082     -1.87155   0.69249286   466011 
 9966000   0.60479441    -1.872123    -1.872123    -1.178169  0.032940731    -1.872123   0.69395406   466011 
 9967000     0.604084   -1.8718588   -1.8718588   -1.1787199    0.0355091   -1.8718588   0.69313891   466011 
 9968000   0.60376113   -1.8709732   -1.8709732   -1.1782047  0.031780139   -1.8709732   0.69276845   466011 
 9969000   0.60345814   -1.8711712   -1.8711712   -1.1787504  0.037444406   -1.8711712   0.69242079   466011 
 9970000   0.60389943   -1.8722308   -1.8722308   -1.1793036  0.035986911   -1.8722308   0.69292714   466011 
 9971000   0.60485531   -1.8725041   -1.8725041   -1.1784801  0.041831615   -1.8725041   0.69402393   466011 
 9972000   0.60306788   -1.8709963   -1.8709963   -1.1790233  0.036357666   -1.8709963     0.691973   466011 
 9973000   0.60282592   -1.8703205   -1.8703205   -1.1786251  0.034509208   -1.8703205   0.69169537   466011 
 9974000   0.60409089    -1.871808    -1.871808   -1.1786612  0.039493199    -1.871808   0.69314682   466011 
 9975000   0.60442856   -1.8721751   -1.8721751   -1.1786408  0.037211845   -1.8721751   0.69353427   466011 
 9976000   0.60368974    -1.870929    -1.870929   -1.1782425  0.028891388    -1.870929   0.69268653   466011 
 9977000   0.60431007   -1.8708876   -1.8708876   -1.1774893  0.039525105   -1.8708876   0.69339831   466011 
 9978000   0.60550784   -1.8721075   -1.8721075   -1.1773348  0.036179835   -1.8721075   0.69477266   466011 
 9979000   0.60392188   -1.8716236   -1.8716236   -1.1786707  0.031871469   -1.8716236   0.69295289   466011 
 9980000   0.60554632   -1.8729833   -1.8729833   -1.1781665  0.033138838   -1.8729833   0.69481681   466011 
 9981000   0.60403611   -1.8710564   -1.8710564   -1.1779725   0.04134523   -1.8710564   0.69308397   466011 
 9982000   0.60402257   -1.8715045   -1.8715045   -1.1784361  0.033291758   -1.8715045   0.69306843   466011 
 9983000   0.60514236   -1.8729775   -1.8729775   -1.1786242  0.033825572   -1.8729775   0.69435331   466011 
 9984000   0.60370605   -1.8712509   -1.8712509   -1.1785456  0.030522705   -1.8712509   0.69270525   466011 
 9985000   0.60421771   -1.8718783   -1.8718783    -1.178586  0.038628417   -1.8718783   0.69329234   466011 
 9986000   0.60496269   -1.8726977   -1.8726977   -1.1785506  0.043628297   -1.8726977   0.69414715   466011 
 9987000   0.60361858   -1.8718278   -1.8718278   -1.1792229  0.039193156   -1.8718278   0.69260489   466011 
 9988000    0.6041751   -1.8726366   -1.8726366   -1.1793931  0.036618189   -1.8726366   0.69324345   466011 
 9989000   0.60247261   -1.8708835   -1.8708835   -1.1795935  0.038979037   -1.8708835   0.69128997   466011 
 9990000   0.60280682   -1.8722719   -1.8722719   -1.1805985  0.034595306   -1.8722719   0.69167345   466011 
 9991000   0.60292988    -1.872245    -1.872245   -1.1804303  0.030219367    -1.872245   0.69181465   466011 
 9992000   0.60229589   -1.8710685   -1.8710685   -1.1799813  0.034314086   -1.8710685   0.69108721   466011 
 9993000   0.60323824   -1.8723408   -1.8723408   -1.1801724  0.035054636   -1.8723408   0.69216848   466011 
 9994000   0.60480757    -1.873922    -1.873922   -1.1799528  0.033365865    -1.873922   0.69396916   466011 
 9995000   0.60453797   -1.8731829   -1.8731829   -1.1795231  0.035158928   -1.8731829   0.69365981   466011 
 9996000   0.60425557   -1.8726672   -1.8726672   -1.1793314  0.039661614   -1.8726672   0.69333578   466011 
 9997000   0.60494716   -1.8744555   -1.8744555   -1.1803262  0.042994825   -1.8744555   0.69412932   466011 
 9998000   0.60528129   -1.8745828   -1.8745828   -1.1800701  0.038903386   -1.8745828   0.69451271   466011 
 9999000     0.605329   -1.8746961   -1.8746961   -1.1801287  0.038880805   -1.8746961   0.69456746   466011 
10000000   0.60474353   -1.8742879   -1.8742879   -1.1803922  0.036370493   -1.8742879   0.69389567   466011 
Loop time of 56521.2 on 64 procs for 10000000 steps with 466011 atoms

Performance: 76431.559 tau/day, 176.925 timesteps/s
98.8% CPU use with 64 MPI tasks x 1 OpenMP threads

MPI task timing breakdown:
Section |  min time  |  avg time  |  max time  |%varavg|  %CPU | %total
-----------------------------------------------------------------------
Pair    | 11169      | 18233      | 23908      |2289.6 |  98.7 | 32.26
Bond    | 3.6793     | 4.1645     | 5.1404     |  17.6 | 100.0 |  0.01
Neigh   | 5321       | 9487.5     | 12824      |1724.1 |  99.7 | 16.79
Comm    | 11061      | 19057      | 24553      |2404.6 |  98.4 | 33.72
Output  | 403.4      | 405.28     | 408.36     |   7.6 |  98.4 |  0.72
Modify  | 6434.8     | 8630.5     | 14114      |3026.0 |  98.7 | 15.27
Other   |            | 703.9      |            |       |       |  1.25

Nlocal:        7281.42 ave        7945 max        6570 min
Histogram: 2 1 4 14 11 12 4 9 5 2
Nghost:        9052.05 ave       12922 max        4743 min
Histogram: 11 4 1 1 5 6 17 11 5 3
Neighs:        98455.8 ave      133149 max       55149 min
Histogram: 4 1 3 2 13 14 16 3 1 7

Total # of neighbors = 6301170
Ave neighs/atom = 13.521505
Ave special neighs/atom = 0.0000000
Neighbor list builds = 993195
Dangerous builds = 871240

Total wall time: 15:42:18
