#LAMMPS data file for rigid bodies
739 atoms
3 atom types

0 17.14   xlo xhi
0 17.14   ylo yhi
0 16   zlo zhi

Masses

1 1.0
2 1.0
3 1.0

Atoms

38	1	2	0	8	9	3.8333
39	1	2	0	8	10	3.8333
40	1	2	0	8	11	3.8333
48	1	2	0	9	8	3.8333
49	1	2	0	9	9	3.8333
50	1	2	0	9	10	3.8333
51	1	2	0	9	11	3.8333
52	1	2	0	9	12	3.8333
59	1	2	0	10	8	3.8333
60	1	2	0	10	9	3.8333
61	1	2	0	10	10	3.8333
62	1	2	0	10	11	3.8333
63	1	2	0	10	12	3.8333
70	1	2	0	11	8	3.8333
71	1	2	0	11	9	3.8333
72	1	2	0	11	10	3.8333
73	1	2	0	11	11	3.8333
74	1	2	0	11	12	3.8333
82	1	2	0	12	9	3.8333
83	1	2	0	12	10	3.8333
84	1	2	0	12	11	3.8333
147	1	2	0	7	8	4.8333
148	1	2	0	7	9	4.8333
149	1	2	0	7	10	4.8333
150	1	2	0	7	11	4.8333
151	1	2	0	7	12	4.8333
157	1	2	0	8	7	4.8333
158	1	2	0	8	8	4.8333
159	1	3	0	8	9	4.8333
160	1	3	0	8	10	4.8333
161	1	3	0	8	11	4.8333
162	1	2	0	8	12	4.8333
163	1	2	0	8	13	4.8333
168	1	2	0	9	7	4.8333
169	1	3	0	9	8	4.8333
170	1	3	0	9	9	4.8333
171	1	3	0	9	10	4.8333
172	1	3	0	9	11	4.8333
173	1	3	0	9	12	4.8333
174	1	2	0	9	13	4.8333
179	1	2	0	10	7	4.8333
180	1	3	0	10	8	4.8333
181	1	3	0	10	9	4.8333
182	1	3	0	10	10	4.8333
183	1	3	0	10	11	4.8333
184	1	3	0	10	12	4.8333
185	1	2	0	10	13	4.8333
190	1	2	0	11	7	4.8333
191	1	3	0	11	8	4.8333
192	1	3	0	11	9	4.8333
193	1	3	0	11	10	4.8333
194	1	3	0	11	11	4.8333
195	1	3	0	11	12	4.8333
196	1	2	0	11	13	4.8333
201	1	2	0	12	7	4.8333
202	1	2	0	12	8	4.8333
203	1	3	0	12	9	4.8333
204	1	3	0	12	10	4.8333
205	1	3	0	12	11	4.8333
206	1	2	0	12	12	4.8333
207	1	2	0	12	13	4.8333
213	1	2	0	13	8	4.8333
214	1	2	0	13	9	4.8333
215	1	2	0	13	10	4.8333
216	1	2	0	13	11	4.8333
217	1	2	0	13	12	4.8333
257	1	2	0	6	8	5.8333
258	1	2	0	6	9	5.8333
259	1	2	0	6	10	5.8333
260	1	2	0	6	11	5.8333
261	1	2	0	6	12	5.8333
267	1	2	0	7	7	5.8333
268	1	3	0	7	8	5.8333
269	1	3	0	7	9	5.8333
270	1	3	0	7	10	5.8333
271	1	3	0	7	11	5.8333
272	1	3	0	7	12	5.8333
273	1	2	0	7	13	5.8333
277	1	2	0	8	6	5.8333
278	1	3	0	8	7	5.8333
279	1	3	0	8	8	5.8333
280	1	3	0	8	9	5.8333
281	1	3	0	8	10	5.8333
282	1	3	0	8	11	5.8333
283	1	3	0	8	12	5.8333
284	1	3	0	8	13	5.8333
285	1	2	0	8	14	5.8333
288	1	2	0	9	6	5.8333
289	1	3	0	9	7	5.8333
290	1	3	0	9	8	5.8333
291	1	3	0	9	9	5.8333
292	1	3	0	9	10	5.8333
293	1	3	0	9	11	5.8333
294	1	3	0	9	12	5.8333
295	1	3	0	9	13	5.8333
296	1	2	0	9	14	5.8333
299	1	2	0	10	6	5.8333
300	1	3	0	10	7	5.8333
301	1	3	0	10	8	5.8333
302	1	3	0	10	9	5.8333
303	1	3	0	10	10	5.8333
304	1	3	0	10	11	5.8333
305	1	3	0	10	12	5.8333
306	1	3	0	10	13	5.8333
307	1	2	0	10	14	5.8333
310	1	2	0	11	6	5.8333
311	1	3	0	11	7	5.8333
312	1	3	0	11	8	5.8333
313	1	3	0	11	9	5.8333
314	1	3	0	11	10	5.8333
315	1	3	0	11	11	5.8333
316	1	3	0	11	12	5.8333
317	1	3	0	11	13	5.8333
318	1	2	0	11	14	5.8333
321	1	2	0	12	6	5.8333
322	1	3	0	12	7	5.8333
323	1	3	0	12	8	5.8333
324	1	3	0	12	9	5.8333
325	1	3	0	12	10	5.8333
326	1	3	0	12	11	5.8333
327	1	3	0	12	12	5.8333
328	1	3	0	12	13	5.8333
329	1	2	0	12	14	5.8333
333	1	2	0	13	7	5.8333
334	1	3	0	13	8	5.8333
335	1	3	0	13	9	5.8333
336	1	3	0	13	10	5.8333
337	1	3	0	13	11	5.8333
338	1	3	0	13	12	5.8333
339	1	2	0	13	13	5.8333
345	1	2	0	14	8	5.8333
346	1	2	0	14	9	5.8333
347	1	2	0	14	10	5.8333
348	1	2	0	14	11	5.8333
349	1	2	0	14	12	5.8333
368	1	2	0	5	9	6.8333
369	1	2	0	5	10	6.8333
370	1	2	0	5	11	6.8333
377	1	2	0	6	7	6.8333
378	1	2	0	6	8	6.8333
379	1	3	0	6	9	6.8333
380	1	3	0	6	10	6.8333
381	1	3	0	6	11	6.8333
382	1	2	0	6	12	6.8333
383	1	2	0	6	13	6.8333
387	1	2	0	7	6	6.8333
388	1	3	0	7	7	6.8333
389	1	3	0	7	8	6.8333
390	1	3	0	7	9	6.8333
391	1	3	0	7	10	6.8333
392	1	3	0	7	11	6.8333
393	1	3	0	7	12	6.8333
394	1	3	0	7	13	6.8333
395	1	2	0	7	14	6.8333
398	1	2	0	8	6	6.8333
399	1	3	0	8	7	6.8333
400	1	3	0	8	8	6.8333
401	1	3	0	8	9	6.8333
402	1	3	0	8	10	6.8333
403	1	3	0	8	11	6.8333
404	1	3	0	8	12	6.8333
405	1	3	0	8	13	6.8333
406	1	2	0	8	14	6.8333
408	1	2	0	9	5	6.8333
409	1	3	0	9	6	6.8333
410	1	3	0	9	7	6.8333
411	1	3	0	9	8	6.8333
412	1	3	0	9	9	6.8333
413	1	3	0	9	10	6.8333
414	1	3	0	9	11	6.8333
415	1	3	0	9	12	6.8333
416	1	3	0	9	13	6.8333
417	1	3	0	9	14	6.8333
418	1	2	0	9	15	6.8333
419	1	2	0	10	5	6.8333
420	1	3	0	10	6	6.8333
421	1	3	0	10	7	6.8333
422	1	3	0	10	8	6.8333
423	1	3	0	10	9	6.8333
424	1	3	0	10	10	6.8333
425	1	3	0	10	11	6.8333
426	1	3	0	10	12	6.8333
427	1	3	0	10	13	6.8333
428	1	3	0	10	14	6.8333
429	1	2	0	10	15	6.8333
430	1	2	0	11	5	6.8333
431	1	3	0	11	6	6.8333
432	1	3	0	11	7	6.8333
433	1	3	0	11	8	6.8333
434	1	3	0	11	9	6.8333
435	1	3	0	11	10	6.8333
436	1	3	0	11	11	6.8333
437	1	3	0	11	12	6.8333
438	1	3	0	11	13	6.8333
439	1	3	0	11	14	6.8333
440	1	2	0	11	15	6.8333
442	1	2	0	12	6	6.8333
443	1	3	0	12	7	6.8333
444	1	3	0	12	8	6.8333
445	1	3	0	12	9	6.8333
446	1	3	0	12	10	6.8333
447	1	3	0	12	11	6.8333
448	1	3	0	12	12	6.8333
449	1	3	0	12	13	6.8333
450	1	2	0	12	14	6.8333
453	1	2	0	13	6	6.8333
454	1	3	0	13	7	6.8333
455	1	3	0	13	8	6.8333
456	1	3	0	13	9	6.8333
457	1	3	0	13	10	6.8333
458	1	3	0	13	11	6.8333
459	1	3	0	13	12	6.8333
460	1	3	0	13	13	6.8333
461	1	2	0	13	14	6.8333
465	1	2	0	14	7	6.8333
466	1	2	0	14	8	6.8333
467	1	3	0	14	9	6.8333
468	1	3	0	14	10	6.8333
469	1	3	0	14	11	6.8333
470	1	2	0	14	12	6.8333
471	1	2	0	14	13	6.8333
478	1	2	0	15	9	6.8333
479	1	2	0	15	10	6.8333
480	1	2	0	15	11	6.8333
488	1	2	0	5	8	7.8333
489	1	2	0	5	9	7.8333
490	1	2	0	5	10	7.8333
491	1	2	0	5	11	7.8333
492	1	2	0	5	12	7.8333
498	1	2	0	6	7	7.8333
499	1	3	0	6	8	7.8333
500	1	3	0	6	9	7.8333
501	1	3	0	6	10	7.8333
502	1	3	0	6	11	7.8333
503	1	3	0	6	12	7.8333
504	1	2	0	6	13	7.8333
508	1	2	0	7	6	7.8333
509	1	3	0	7	7	7.8333
510	1	3	0	7	8	7.8333
511	1	3	0	7	9	7.8333
512	1	3	0	7	10	7.8333
513	1	3	0	7	11	7.8333
514	1	3	0	7	12	7.8333
515	1	3	0	7	13	7.8333
516	1	2	0	7	14	7.8333
518	1	2	0	8	5	7.8333
519	1	3	0	8	6	7.8333
520	1	3	0	8	7	7.8333
521	1	3	0	8	8	7.8333
522	1	3	0	8	9	7.8333
523	1	3	0	8	10	7.8333
524	1	3	0	8	11	7.8333
525	1	3	0	8	12	7.8333
526	1	3	0	8	13	7.8333
527	1	3	0	8	14	7.8333
528	1	2	0	8	15	7.8333
529	1	2	0	9	5	7.8333
530	1	3	0	9	6	7.8333
531	1	3	0	9	7	7.8333
532	1	3	0	9	8	7.8333
533	1	3	0	9	9	7.8333
534	1	3	0	9	10	7.8333
535	1	3	0	9	11	7.8333
536	1	3	0	9	12	7.8333
537	1	3	0	9	13	7.8333
538	1	3	0	9	14	7.8333
539	1	2	0	9	15	7.8333
540	1	2	0	10	5	7.8333
541	1	3	0	10	6	7.8333
542	1	3	0	10	7	7.8333
543	1	3	0	10	8	7.8333
544	1	3	0	10	9	7.8333
545	1	3	0	10	10	7.8333
546	1	3	0	10	11	7.8333
547	1	3	0	10	12	7.8333
548	1	3	0	10	13	7.8333
549	1	3	0	10	14	7.8333
550	1	2	0	10	15	7.8333
551	1	2	0	11	5	7.8333
552	1	3	0	11	6	7.8333
553	1	3	0	11	7	7.8333
554	1	3	0	11	8	7.8333
555	1	3	0	11	9	7.8333
556	1	3	0	11	10	7.8333
557	1	3	0	11	11	7.8333
558	1	3	0	11	12	7.8333
559	1	3	0	11	13	7.8333
560	1	3	0	11	14	7.8333
561	1	2	0	11	15	7.8333
562	1	2	0	12	5	7.8333
563	1	3	0	12	6	7.8333
564	1	3	0	12	7	7.8333
565	1	3	0	12	8	7.8333
566	1	3	0	12	9	7.8333
567	1	3	0	12	10	7.8333
568	1	3	0	12	11	7.8333
569	1	3	0	12	12	7.8333
570	1	3	0	12	13	7.8333
571	1	3	0	12	14	7.8333
572	1	2	0	12	15	7.8333
574	1	2	0	13	6	7.8333
575	1	3	0	13	7	7.8333
576	1	3	0	13	8	7.8333
577	1	3	0	13	9	7.8333
578	1	3	0	13	10	7.8333
579	1	3	0	13	11	7.8333
580	1	3	0	13	12	7.8333
581	1	3	0	13	13	7.8333
582	1	2	0	13	14	7.8333
586	1	2	0	14	7	7.8333
587	1	3	0	14	8	7.8333
588	1	3	0	14	9	7.8333
589	1	3	0	14	10	7.8333
590	1	3	0	14	11	7.8333
591	1	3	0	14	12	7.8333
592	1	2	0	14	13	7.8333
598	1	2	0	15	8	7.8333
599	1	2	0	15	9	7.8333
600	1	2	0	15	10	7.8333
601	1	2	0	15	11	7.8333
602	1	2	0	15	12	7.8333
609	1	2	0	5	8	8.8333
610	1	2	0	5	9	8.8333
611	1	2	0	5	10	8.8333
612	1	2	0	5	11	8.8333
613	1	2	0	5	12	8.8333
619	1	2	0	6	7	8.8333
620	1	3	0	6	8	8.8333
621	1	3	0	6	9	8.8333
622	1	3	0	6	10	8.8333
623	1	3	0	6	11	8.8333
624	1	3	0	6	12	8.8333
625	1	2	0	6	13	8.8333
629	1	2	0	7	6	8.8333
630	1	3	0	7	7	8.8333
631	1	3	0	7	8	8.8333
632	1	3	0	7	9	8.8333
633	1	3	0	7	10	8.8333
634	1	3	0	7	11	8.8333
635	1	3	0	7	12	8.8333
636	1	3	0	7	13	8.8333
637	1	2	0	7	14	8.8333
639	1	2	0	8	5	8.8333
640	1	3	0	8	6	8.8333
641	1	3	0	8	7	8.8333
642	1	3	0	8	8	8.8333
643	1	3	0	8	9	8.8333
644	1	3	0	8	10	8.8333
645	1	3	0	8	11	8.8333
646	1	3	0	8	12	8.8333
647	1	3	0	8	13	8.8333
648	1	3	0	8	14	8.8333
649	1	2	0	8	15	8.8333
650	1	2	0	9	5	8.8333
651	1	3	0	9	6	8.8333
652	1	3	0	9	7	8.8333
653	1	3	0	9	8	8.8333
654	1	3	0	9	9	8.8333
655	1	3	0	9	10	8.8333
656	1	3	0	9	11	8.8333
657	1	3	0	9	12	8.8333
658	1	3	0	9	13	8.8333
659	1	3	0	9	14	8.8333
660	1	2	0	9	15	8.8333
661	1	2	0	10	5	8.8333
662	1	3	0	10	6	8.8333
663	1	3	0	10	7	8.8333
664	1	3	0	10	8	8.8333
665	1	3	0	10	9	8.8333
666	1	3	0	10	10	8.8333
667	1	3	0	10	11	8.8333
668	1	3	0	10	12	8.8333
669	1	3	0	10	13	8.8333
670	1	3	0	10	14	8.8333
671	1	2	0	10	15	8.8333
672	1	2	0	11	5	8.8333
673	1	3	0	11	6	8.8333
674	1	3	0	11	7	8.8333
675	1	3	0	11	8	8.8333
676	1	3	0	11	9	8.8333
677	1	3	0	11	10	8.8333
678	1	3	0	11	11	8.8333
679	1	3	0	11	12	8.8333
680	1	3	0	11	13	8.8333
681	1	3	0	11	14	8.8333
682	1	2	0	11	15	8.8333
683	1	2	0	12	5	8.8333
684	1	3	0	12	6	8.8333
685	1	3	0	12	7	8.8333
686	1	3	0	12	8	8.8333
687	1	3	0	12	9	8.8333
688	1	3	0	12	10	8.8333
689	1	3	0	12	11	8.8333
690	1	3	0	12	12	8.8333
691	1	3	0	12	13	8.8333
692	1	3	0	12	14	8.8333
693	1	2	0	12	15	8.8333
695	1	2	0	13	6	8.8333
696	1	3	0	13	7	8.8333
697	1	3	0	13	8	8.8333
698	1	3	0	13	9	8.8333
699	1	3	0	13	10	8.8333
700	1	3	0	13	11	8.8333
701	1	3	0	13	12	8.8333
702	1	3	0	13	13	8.8333
703	1	2	0	13	14	8.8333
707	1	2	0	14	7	8.8333
708	1	3	0	14	8	8.8333
709	1	3	0	14	9	8.8333
710	1	3	0	14	10	8.8333
711	1	3	0	14	11	8.8333
712	1	3	0	14	12	8.8333
713	1	2	0	14	13	8.8333
719	1	2	0	15	8	8.8333
720	1	2	0	15	9	8.8333
721	1	2	0	15	10	8.8333
722	1	2	0	15	11	8.8333
723	1	2	0	15	12	8.8333
730	1	2	0	5	8	9.8333
731	1	2	0	5	9	9.8333
732	1	2	0	5	10	9.8333
733	1	2	0	5	11	9.8333
734	1	2	0	5	12	9.8333
740	1	2	0	6	7	9.8333
741	1	3	0	6	8	9.8333
742	1	3	0	6	9	9.8333
743	1	3	0	6	10	9.8333
744	1	3	0	6	11	9.8333
745	1	3	0	6	12	9.8333
746	1	2	0	6	13	9.8333
750	1	2	0	7	6	9.8333
751	1	3	0	7	7	9.8333
752	1	3	0	7	8	9.8333
753	1	3	0	7	9	9.8333
754	1	3	0	7	10	9.8333
755	1	3	0	7	11	9.8333
756	1	3	0	7	12	9.8333
757	1	3	0	7	13	9.8333
758	1	2	0	7	14	9.8333
760	1	2	0	8	5	9.8333
761	1	3	0	8	6	9.8333
762	1	3	0	8	7	9.8333
763	1	3	0	8	8	9.8333
764	1	3	0	8	9	9.8333
765	1	3	0	8	10	9.8333
766	1	3	0	8	11	9.8333
767	1	3	0	8	12	9.8333
768	1	3	0	8	13	9.8333
769	1	3	0	8	14	9.8333
770	1	2	0	8	15	9.8333
771	1	2	0	9	5	9.8333
772	1	3	0	9	6	9.8333
773	1	3	0	9	7	9.8333
774	1	3	0	9	8	9.8333
775	1	3	0	9	9	9.8333
776	1	3	0	9	10	9.8333
777	1	3	0	9	11	9.8333
778	1	3	0	9	12	9.8333
779	1	3	0	9	13	9.8333
780	1	3	0	9	14	9.8333
781	1	2	0	9	15	9.8333
782	1	2	0	10	5	9.8333
783	1	3	0	10	6	9.8333
784	1	3	0	10	7	9.8333
785	1	3	0	10	8	9.8333
786	1	3	0	10	9	9.8333
787	1	3	0	10	10	9.8333
788	1	3	0	10	11	9.8333
789	1	3	0	10	12	9.8333
790	1	3	0	10	13	9.8333
791	1	3	0	10	14	9.8333
792	1	2	0	10	15	9.8333
793	1	2	0	11	5	9.8333
794	1	3	0	11	6	9.8333
795	1	3	0	11	7	9.8333
796	1	3	0	11	8	9.8333
797	1	3	0	11	9	9.8333
798	1	3	0	11	10	9.8333
799	1	3	0	11	11	9.8333
800	1	3	0	11	12	9.8333
801	1	3	0	11	13	9.8333
802	1	3	0	11	14	9.8333
803	1	2	0	11	15	9.8333
804	1	2	0	12	5	9.8333
805	1	3	0	12	6	9.8333
806	1	3	0	12	7	9.8333
807	1	3	0	12	8	9.8333
808	1	3	0	12	9	9.8333
809	1	3	0	12	10	9.8333
810	1	3	0	12	11	9.8333
811	1	3	0	12	12	9.8333
812	1	3	0	12	13	9.8333
813	1	3	0	12	14	9.8333
814	1	2	0	12	15	9.8333
816	1	2	0	13	6	9.8333
817	1	3	0	13	7	9.8333
818	1	3	0	13	8	9.8333
819	1	3	0	13	9	9.8333
820	1	3	0	13	10	9.8333
821	1	3	0	13	11	9.8333
822	1	3	0	13	12	9.8333
823	1	3	0	13	13	9.8333
824	1	2	0	13	14	9.8333
828	1	2	0	14	7	9.8333
829	1	3	0	14	8	9.8333
830	1	3	0	14	9	9.8333
831	1	3	0	14	10	9.8333
832	1	3	0	14	11	9.8333
833	1	3	0	14	12	9.8333
834	1	2	0	14	13	9.8333
840	1	2	0	15	8	9.8333
841	1	2	0	15	9	9.8333
842	1	2	0	15	10	9.8333
843	1	2	0	15	11	9.8333
844	1	2	0	15	12	9.8333
852	1	2	0	5	9	10.8333
853	1	2	0	5	10	10.8333
854	1	2	0	5	11	10.8333
861	1	2	0	6	7	10.8333
862	1	2	0	6	8	10.8333
863	1	3	0	6	9	10.8333
864	1	3	0	6	10	10.8333
865	1	3	0	6	11	10.8333
866	1	2	0	6	12	10.8333
867	1	2	0	6	13	10.8333
871	1	2	0	7	6	10.8333
872	1	3	0	7	7	10.8333
873	1	3	0	7	8	10.8333
874	1	3	0	7	9	10.8333
875	1	3	0	7	10	10.8333
876	1	3	0	7	11	10.8333
877	1	3	0	7	12	10.8333
878	1	3	0	7	13	10.8333
879	1	2	0	7	14	10.8333
882	1	2	0	8	6	10.8333
883	1	3	0	8	7	10.8333
884	1	3	0	8	8	10.8333
885	1	3	0	8	9	10.8333
886	1	3	0	8	10	10.8333
887	1	3	0	8	11	10.8333
888	1	3	0	8	12	10.8333
889	1	3	0	8	13	10.8333
890	1	2	0	8	14	10.8333
892	1	2	0	9	5	10.8333
893	1	3	0	9	6	10.8333
894	1	3	0	9	7	10.8333
895	1	3	0	9	8	10.8333
896	1	3	0	9	9	10.8333
897	1	3	0	9	10	10.8333
898	1	3	0	9	11	10.8333
899	1	3	0	9	12	10.8333
900	1	3	0	9	13	10.8333
901	1	3	0	9	14	10.8333
902	1	2	0	9	15	10.8333
903	1	2	0	10	5	10.8333
904	1	3	0	10	6	10.8333
905	1	3	0	10	7	10.8333
906	1	3	0	10	8	10.8333
907	1	3	0	10	9	10.8333
908	1	3	0	10	10	10.8333
909	1	3	0	10	11	10.8333
910	1	3	0	10	12	10.8333
911	1	3	0	10	13	10.8333
912	1	3	0	10	14	10.8333
913	1	2	0	10	15	10.8333
914	1	2	0	11	5	10.8333
915	1	3	0	11	6	10.8333
916	1	3	0	11	7	10.8333
917	1	3	0	11	8	10.8333
918	1	3	0	11	9	10.8333
919	1	3	0	11	10	10.8333
920	1	3	0	11	11	10.8333
921	1	3	0	11	12	10.8333
922	1	3	0	11	13	10.8333
923	1	3	0	11	14	10.8333
924	1	2	0	11	15	10.8333
926	1	2	0	12	6	10.8333
927	1	3	0	12	7	10.8333
928	1	3	0	12	8	10.8333
929	1	3	0	12	9	10.8333
930	1	3	0	12	10	10.8333
931	1	3	0	12	11	10.8333
932	1	3	0	12	12	10.8333
933	1	3	0	12	13	10.8333
934	1	2	0	12	14	10.8333
937	1	2	0	13	6	10.8333
938	1	3	0	13	7	10.8333
939	1	3	0	13	8	10.8333
940	1	3	0	13	9	10.8333
941	1	3	0	13	10	10.8333
942	1	3	0	13	11	10.8333
943	1	3	0	13	12	10.8333
944	1	3	0	13	13	10.8333
945	1	2	0	13	14	10.8333
949	1	2	0	14	7	10.8333
950	1	2	0	14	8	10.8333
951	1	3	0	14	9	10.8333
952	1	3	0	14	10	10.8333
953	1	3	0	14	11	10.8333
954	1	2	0	14	12	10.8333
955	1	2	0	14	13	10.8333
962	1	2	0	15	9	10.8333
963	1	2	0	15	10	10.8333
964	1	2	0	15	11	10.8333
983	1	2	0	6	8	11.8333
984	1	2	0	6	9	11.8333
985	1	2	0	6	10	11.8333
986	1	2	0	6	11	11.8333
987	1	2	0	6	12	11.8333
993	1	2	0	7	7	11.8333
994	1	3	0	7	8	11.8333
995	1	3	0	7	9	11.8333
996	1	3	0	7	10	11.8333
997	1	3	0	7	11	11.8333
998	1	3	0	7	12	11.8333
999	1	2	0	7	13	11.8333
1003	1	2	0	8	6	11.8333
1004	1	3	0	8	7	11.8333
1005	1	3	0	8	8	11.8333
1006	1	3	0	8	9	11.8333
1007	1	3	0	8	10	11.8333
1008	1	3	0	8	11	11.8333
1009	1	3	0	8	12	11.8333
1010	1	3	0	8	13	11.8333
1011	1	2	0	8	14	11.8333
1014	1	2	0	9	6	11.8333
1015	1	3	0	9	7	11.8333
1016	1	3	0	9	8	11.8333
1017	1	3	0	9	9	11.8333
1018	1	3	0	9	10	11.8333
1019	1	3	0	9	11	11.8333
1020	1	3	0	9	12	11.8333
1021	1	3	0	9	13	11.8333
1022	1	2	0	9	14	11.8333
1025	1	2	0	10	6	11.8333
1026	1	3	0	10	7	11.8333
1027	1	3	0	10	8	11.8333
1028	1	3	0	10	9	11.8333
1029	1	3	0	10	10	11.8333
1030	1	3	0	10	11	11.8333
1031	1	3	0	10	12	11.8333
1032	1	3	0	10	13	11.8333
1033	1	2	0	10	14	11.8333
1036	1	2	0	11	6	11.8333
1037	1	3	0	11	7	11.8333
1038	1	3	0	11	8	11.8333
1039	1	3	0	11	9	11.8333
1040	1	3	0	11	10	11.8333
1041	1	3	0	11	11	11.8333
1042	1	3	0	11	12	11.8333
1043	1	3	0	11	13	11.8333
1044	1	2	0	11	14	11.8333
1047	1	2	0	12	6	11.8333
1048	1	3	0	12	7	11.8333
1049	1	3	0	12	8	11.8333
1050	1	3	0	12	9	11.8333
1051	1	3	0	12	10	11.8333
1052	1	3	0	12	11	11.8333
1053	1	3	0	12	12	11.8333
1054	1	3	0	12	13	11.8333
1055	1	2	0	12	14	11.8333
1059	1	2	0	13	7	11.8333
1060	1	3	0	13	8	11.8333
1061	1	3	0	13	9	11.8333
1062	1	3	0	13	10	11.8333
1063	1	3	0	13	11	11.8333
1064	1	3	0	13	12	11.8333
1065	1	2	0	13	13	11.8333
1071	1	2	0	14	8	11.8333
1072	1	2	0	14	9	11.8333
1073	1	2	0	14	10	11.8333
1074	1	2	0	14	11	11.8333
1075	1	2	0	14	12	11.8333
1115	1	2	0	7	8	12.8333
1116	1	2	0	7	9	12.8333
1117	1	2	0	7	10	12.8333
1118	1	2	0	7	11	12.8333
1119	1	2	0	7	12	12.8333
1125	1	2	0	8	7	12.8333
1126	1	2	0	8	8	12.8333
1127	1	3	0	8	9	12.8333
1128	1	3	0	8	10	12.8333
1129	1	3	0	8	11	12.8333
1130	1	2	0	8	12	12.8333
1131	1	2	0	8	13	12.8333
1136	1	2	0	9	7	12.8333
1137	1	3	0	9	8	12.8333
1138	1	3	0	9	9	12.8333
1139	1	3	0	9	10	12.8333
1140	1	3	0	9	11	12.8333
1141	1	3	0	9	12	12.8333
1142	1	2	0	9	13	12.8333
1147	1	2	0	10	7	12.8333
1148	1	3	0	10	8	12.8333
1149	1	3	0	10	9	12.8333
1150	1	3	0	10	10	12.8333
1151	1	3	0	10	11	12.8333
1152	1	3	0	10	12	12.8333
1153	1	2	0	10	13	12.8333
1158	1	2	0	11	7	12.8333
1159	1	3	0	11	8	12.8333
1160	1	3	0	11	9	12.8333
1161	1	3	0	11	10	12.8333
1162	1	3	0	11	11	12.8333
1163	1	3	0	11	12	12.8333
1164	1	2	0	11	13	12.8333
1169	1	2	0	12	7	12.8333
1170	1	2	0	12	8	12.8333
1171	1	3	0	12	9	12.8333
1172	1	3	0	12	10	12.8333
1173	1	3	0	12	11	12.8333
1174	1	2	0	12	12	12.8333
1175	1	2	0	12	13	12.8333
1181	1	2	0	13	8	12.8333
1182	1	2	0	13	9	12.8333
1183	1	2	0	13	10	12.8333
1184	1	2	0	13	11	12.8333
1185	1	2	0	13	12	12.8333
1248	1	2	0	8	9	13.8333
1249	1	2	0	8	10	13.8333
1250	1	2	0	8	11	13.8333
1258	1	2	0	9	8	13.8333
1259	1	2	0	9	9	13.8333
1260	1	2	0	9	10	13.8333
1261	1	2	0	9	11	13.8333
1262	1	2	0	9	12	13.8333
1269	1	2	0	10	8	13.8333
1270	1	2	0	10	9	13.8333
1271	1	2	0	10	10	13.8333
1272	1	2	0	10	11	13.8333
1273	1	2	0	10	12	13.8333
1280	1	2	0	11	8	13.8333
1281	1	2	0	11	9	13.8333
1282	1	2	0	11	10	13.8333
1283	1	2	0	11	11	13.8333
1284	1	2	0	11	12	13.8333
1292	1	2	0	12	9	13.8333
1293	1	2	0	12	10	13.8333
1294	1	2	0	12	11	13.8333
