LAMMPS (24 Dec 2020)
OMP_NUM_THREADS environment is not set. Defaulting to 1 thread. (src/comm.cpp:94)
  using 1 OpenMP thread(s) per MPI task
#Read the equilibrated lj fluid and add nanocubes

units           lj
atom_style      full
atom_modify     map array first cubes
dimension       3
boundary        p p f
pair_style      lj/cut/opt 2.5

variable        sigma           equal 1.0
variable        epsilon         equal 1.0
read_restart	restart.dat.3000000
Reading restart file ...
  restart file = 24 Dec 2020, LAMMPS = 24 Dec 2020
WARNING: Restart file used different # of processors: 48 vs. 288 (src/read_restart.cpp:697)
  restoring atom style full from restart
  orthogonal box = (0.0000000 0.0000000 0.0000000) to (80.000000 80.000000 160.00000)
  6 by 4 by 12 MPI processor grid
  restoring pair style lj/cut/opt from restart
  518400 atoms
Finding 1-2 1-3 1-4 neighbors ...
  special bond factors lj:    0        0        0       
  special bond factors coul:  0        0        0       
     0 = max # of 1-2 neighbors
     0 = max # of 1-3 neighbors
     0 = max # of 1-4 neighbors
     1 = max # of special neighbors
  special bonds CPU = 2.426 seconds
  read_restart CPU = 2.755 seconds

group		solvent type 1
518400 atoms in group solvent

read_data	data_150.cubes group cubes add append
Reading data file ...
  orthogonal box = (0.0000000 0.0000000 0.0000000) to (80.000000 80.000000 160.00000)
  6 by 4 by 12 MPI processor grid
  reading atoms ...
  200025 atoms
  reading velocities ...
  200025 velocities
Finding 1-2 1-3 1-4 neighbors ...
  special bond factors lj:    0        0        0       
  special bond factors coul:  0        0        0       
     0 = max # of 1-2 neighbors
     0 = max # of 1-3 neighbors
     0 = max # of 1-4 neighbors
     1 = max # of special neighbors
  special bonds CPU = 0.062 seconds
  read_data CPU = 0.538 seconds

group 		hull  type 2
78050 atoms in group hull
group 		dummy type 3
121975 atoms in group dummy

neighbor      0.4 bin
neigh_modify  exclude molecule/intra cubes


pair_modify   shift yes

pair_coeff    1 1 1.0 1.0 #solvent
pair_coeff    2 2 1.0 1.0 1.12 #np
pair_coeff    3 3 0.0 0.0 0.0 #dummy
pair_coeff    2 3 0.0 0.0 0.0 #np dummy
pair_coeff    1 2 ${eps} ${sig} ${nscut} #np solvent
pair_coeff    1 2 2.0 ${sig} ${nscut} 
pair_coeff    1 2 2.0 2.0 ${nscut} 
pair_coeff    1 2 2.0 2.0 4.0 
pair_coeff    1 3 0.0 0.0 2.5 #dummy solvent

# delete solvent where the cubes are
delete_atoms  overlap 2.0 solvent cubes
System init for delete_atoms ...
Neighbor list info ...
  update every 1 steps, delay 10 steps, check yes
  max neighbors/atom: 2000, page size: 100000
  master list distance cutoff = 4.4
  ghost atom cutoff = 4.4
  binsize = 2.2, bins = 37 37 73
  2 neighbor lists, perpetual/occasional/extra = 1 1 0
  (1) command delete_atoms, occasional
      attributes: full, newton on
      pair build: full/bin
      stencil: full/bin/3d
      bin: standard
  (2) pair lj/cut/opt, perpetual
      attributes: half, newton on
      pair build: half/bin/newton
      stencil: half/bin/3d/newton
      bin: standard
WARNING: Delete_atoms cutoff > minimum neighbor cutoff (src/delete_atoms.cpp:307)
WARNING: Ignoring 'compress yes' for molecular system (src/delete_atoms.cpp:125)
Deleted 198079 atoms, new total = 520346



pair_coeff    1 1 1.0 1.0 #solvent
pair_coeff    2 2 1.0 1.0 1.12 #np
pair_coeff    3 3 0.0 0.0 0.0 #dummy
pair_coeff    2 3 0.0 0.0 0.0 #np dummy
pair_coeff    1 2 ${eps} ${sig} ${nscut} #np solvent
pair_coeff    1 2 2.0 ${sig} ${nscut} 
pair_coeff    1 2 2.0 2.0 ${nscut} 
pair_coeff    1 2 2.0 2.0 4.0 
pair_coeff    1 3 0.0 0.0 0.0 #dummy solvent


comm_modify   mode multi cutoff/multi 1 2.5 cutoff/multi 2 2.5 cutoff/multi 3 6.95

reset_timestep 	0

balance 	1.05 shift z 10 1.05
Balancing ...
Neighbor list info ...
  update every 1 steps, delay 10 steps, check yes
  max neighbors/atom: 2000, page size: 100000
  master list distance cutoff = 4.4
  ghost atom cutoff = 6.95
  binsize = 2.2, bins = 37 37 73
  1 neighbor lists, perpetual/occasional/extra = 1 0 0
  (1) pair lj/cut/opt, perpetual
      attributes: half, newton on
      pair build: half/bin/newton
      stencil: half/bin/3d/newton
      bin: standard
 rebalancing time: 0.005 seconds
  iteration count = 4
  initial/final maximal load/proc = 2181.0000 2317.0000
  initial/final imbalance factor  = 1.2071353 1.2824082
  x cuts: 0.0000000 0.16666667 0.33333333 0.50000000 0.66666667 0.83333333 1.0000000
  y cuts: 0.0000000 0.25000000 0.50000000 0.75000000 1.0000000
  z cuts: 0.0000000 0.078125000 0.16145833 0.25520833 0.33854167 0.41145833 0.49479167 0.56770833 0.64062500 0.71354167 0.78645833 0.85937500 1.0000000

####################### WALLS ###########################

variable       epsilonWall equal 2*${epsilon}
variable       epsilonWall equal 2*1
variable       repulsive   equal   0.7147*${sigma}
variable       repulsive   equal   0.7147*1
variable       full	   equal   3*${sigma}
variable       full	   equal   3*1
region         lowWall block EDGE EDGE EDGE EDGE EDGE 2

fix            topWall all wall/lj93 zhi EDGE 	       ${epsilonWall} ${sigma} ${repulsive} units box
fix            topWall all wall/lj93 zhi EDGE 	       2 ${sigma} ${repulsive} units box
fix            topWall all wall/lj93 zhi EDGE 	       2 1 ${repulsive} units box
fix            topWall all wall/lj93 zhi EDGE 	       2 1 0.7147 units box
fix            lowSol solvent wall/lj93 zlo EDGE                ${epsilonWall} ${sigma} ${full} units box
fix            lowSol solvent wall/lj93 zlo EDGE                2 ${sigma} ${full} units box
fix            lowSol solvent wall/lj93 zlo EDGE                2 1 ${full} units box
fix            lowSol solvent wall/lj93 zlo EDGE                2 1 3 units box
fix 	       lowCub cubes wall/lj93 zlo EDGE                ${epsilonWall} ${sigma} ${repulsive} units box
fix 	       lowCub cubes wall/lj93 zlo EDGE                2 ${sigma} ${repulsive} units box
fix 	       lowCub cubes wall/lj93 zlo EDGE                2 1 ${repulsive} units box
fix 	       lowCub cubes wall/lj93 zlo EDGE                2 1 0.7147 units box


###################### COMPUTES ##########################

compute        bin1 solvent chunk/atom bin/1d z lower 1.0 units box


######################  FIXES ############################


fix             peclet solvent ave/chunk 10 10 10000 bin1 density/number norm                  none ave one file density.profile

fix              temp solvent ave/chunk 10 10 10000 bin1 temp norm                  none ave one file temp.profile

fix             1 cubes rigid/nve/small molecule
  create bodies CPU = 0.001 seconds
  175 rigid bodies with 200025 atoms
  6.9282032 = max distance from body owner to body atom

fix             2 solvent nve# temp ${temp} ${temp} 10


## Thermostat
region          regthermo block EDGE EDGE EDGE EDGE 0 15
group           thermo dynamic solvent region regthermo every 1000
dynamic group thermo defined
fix             3 thermo langevin ${temp} ${temp} 10 156453
fix             3 thermo langevin 1.0 ${temp} 10 156453
fix             3 thermo langevin 1.0 1.0 10 156453


#### Load balancing

fix             bal all balance 1000 1.05 shift z 10 1.05

############### Diagnostics and computes ###################

compute        	com cubes          rigid/local   1 mol x y z
compute        	quat cubes         rigid/local   1 mol quatw quati quatj quatk

compute 	cc2 cubes 	   chunk/atom 	 molecule
compute 	msd cubes 	   msd/chunk 	 cc2

fix 		msd all ave/time  1 1 10000 c_msd[*] file dump.msd ave one mode vector

dump            1 all custom 500000 dump.lammpstrj id mol type x y z
dump		cubetrj hull custom 500000 cubes.lammpstrj id mol type x y z
dump            com cubes local 10000 dump.*.xyz c_com[*]
dump	        xyz hull xyz 100000 cubes.xyz
dump            quat cubes      local 10000 dump.*.quat c_quat[*]
#dump		mol cubes molfile 10000 mol.xyz xyz


dump            2 all image 10000 image.*.png type type
dump_modify     2 pad 8
dump		image cubes image 10000 image_cubes.*.png type type
dump_modify	image pad 8
dump            3 all movie 5000 movie.avi type type
dump		4 cubes movie 5000 movie_cubes.avi type type


thermo          1000
thermo_style    custom step temp epair evdwl etotal press pe ke atoms

restart         1000000 restart.dat
timestep        0.005
timer           full
New timer settings: style=full  mode=nosync  timeout=off

run 		4000000
Per MPI rank memory allocation (min/avg/max) = 15.95 | 21.54 | 24.07 Mbytes
Step Temp E_pair E_vdwl TotEng Press PotEng KinEng Atoms 
       0   0.99744477   -3.1756988   -3.1756988   -2.2536663   -2.8701941   -3.1756988   0.92203249   520346 
    1000    2.1555799   -4.3247983   -4.3247983    -2.332192   0.71824907   -4.3247983    1.9926062   520346 
    2000    2.2651422   -4.5036179   -4.5036179   -2.4097329   0.77913448   -4.5036179     2.093885   520346 
    3000    2.2560351   -4.5643347   -4.5643347   -2.4788682   0.68288973   -4.5643347    2.0854665   520346 
    4000    2.2318805   -4.6057245   -4.6057245   -2.5425864   0.63383594   -4.6057245    2.0631382   520346 
    5000    2.2086112   -4.6417068   -4.6417068   -2.6000786   0.61869485   -4.6417068    2.0416282   520346 
    6000    2.2217558   -4.7052339   -4.7052339   -2.6514549   0.66250025   -4.7052339    2.0537789   520346 
    7000    2.2287455   -4.7554643   -4.7554643   -2.6952241   0.73373076   -4.7554643    2.0602402   520346 
    8000    2.2141539   -4.7811543   -4.7811543   -2.7344025   0.72587174   -4.7811543    2.0467518   520346 
    9000    2.1985178   -4.8003983   -4.8003983   -2.7681004   0.73042493   -4.8003983    2.0322979   520346 
   10000    2.1829863   -4.8161814   -4.8161814   -2.7982408   0.69013658   -4.8161814    2.0179406   520346 
   11000    2.1710399   -4.8323783   -4.8323783   -2.8254809   0.70387092   -4.8323783    2.0068974   520346 
   12000    2.1602941   -4.8466464   -4.8466464   -2.8496823   0.68616068   -4.8466464    1.9969641   520346 
   13000    2.1595239   -4.8679849   -4.8679849   -2.8717328   0.73910359   -4.8679849    1.9962521   520346 
   14000    2.1495431   -4.8793863   -4.8793863   -2.8923604   0.69414231   -4.8793863    1.9870259   520346 
   15000    2.1410106   -4.8922334   -4.8922334   -2.9130949   0.67564407   -4.8922334    1.9791385   520346 
   16000    2.1295597   -4.9011545   -4.9011545   -2.9326011   0.69078647   -4.9011545    1.9685534   520346 
   17000    2.1172116    -4.910409    -4.910409   -2.9532702   0.72510155    -4.910409    1.9571388   520346 
   18000    2.1083686   -4.9241564   -4.9241564    -2.975192   0.68721683   -4.9241564    1.9489644   520346 
   19000    2.0941933   -4.9328962   -4.9328962   -2.9970353   0.70736494   -4.9328962    1.9358609   520346 
   20000    2.0855601   -4.9460172   -4.9460172   -3.0181369   0.67937116   -4.9460172    1.9278803   520346 
   21000    2.0709198   -4.9524776   -4.9524776   -3.0381306   0.66889761   -4.9524776     1.914347   520346 
   22000    2.0626861   -4.9650775   -4.9650775   -3.0583417   0.63930075   -4.9650775    1.9067358   520346 
   23000    2.0575755   -4.9783655   -4.9783655   -3.0763539   0.64290026   -4.9783655    1.9020116   520346 
   24000    2.0511162   -4.9886869   -4.9886869   -3.0926462   0.63123372   -4.9886869    1.8960407   520346 
   25000    2.0443298   -4.9995099   -4.9995099   -3.1097427   0.63200583   -4.9995099    1.8897673   520346 
   26000    2.0425893   -5.0135484   -5.0135484     -3.12539   0.64000133   -5.0135484    1.8881584   520346 
   27000    2.0401481   -5.0263663   -5.0263663   -3.1404645   0.60218985   -5.0263663    1.8859017   520346 
   28000    2.0339411   -5.0366705   -5.0366705   -3.1565065   0.62126308   -5.0366705     1.880164   520346 
   29000    2.0269799   -5.0445323   -5.0445323   -3.1708032   0.63985581   -5.0445323    1.8737292   520346 
   30000    2.0222769   -5.0547565   -5.0547565   -3.1853748   0.62484383   -5.0547565    1.8693817   520346 
   31000      2.01713    -5.063171    -5.063171    -3.198547   0.62866764    -5.063171     1.864624   520346 
   32000     2.006768   -5.0666574   -5.0666574    -3.211612   0.63154876   -5.0666574    1.8550454   520346 
   33000     1.999307   -5.0739204   -5.0739204   -3.2257719   0.63525417   -5.0739204    1.8481485   520346 
   34000    1.9931233    -5.081421    -5.081421   -3.2389887   0.60198436    -5.081421    1.8424323   520346 
   35000    1.9846457   -5.0864442   -5.0864442   -3.2518486   0.59296186   -5.0864442    1.8345956   520346 
   36000    1.9827989   -5.0969633   -5.0969633   -3.2640748   0.56256553   -5.0969633    1.8328885   520346 
   37000    1.9760407   -5.1033327   -5.1033327   -3.2766915    0.5412573   -5.1033327    1.8266412   520346 
   38000    1.9664917   -5.1078275   -5.1078275   -3.2900133   0.57315095   -5.1078275    1.8178142   520346 
   39000    1.9661975   -5.1195174   -5.1195174   -3.3019752     0.590958   -5.1195174    1.8175422   520346 
   40000    1.9595298    -5.124771    -5.124771   -3.3133923   0.58697568    -5.124771    1.8113787   520346 
   41000     1.956462   -5.1336278   -5.1336278    -3.325085   0.57789176   -5.1336278    1.8085428   520346 
   42000    1.9484416   -5.1373833   -5.1373833   -3.3362545    0.5632212   -5.1373833    1.8011288   520346 
   43000    1.9437202   -5.1444097   -5.1444097   -3.3476453   0.58307041   -5.1444097    1.7967643   520346 
   44000    1.9405629   -5.1531564   -5.1531564   -3.3593107   0.59041891   -5.1531564    1.7938457   520346 
   45000    1.9373219    -5.161374    -5.161374   -3.3705242   0.55325356    -5.161374    1.7908498   520346 
   46000     1.928748   -5.1639931   -5.1639931    -3.381069   0.55602931   -5.1639931    1.7829242   520346 
   47000    1.9253781   -5.1715089   -5.1715089   -3.3916999    0.5511633   -5.1715089     1.779809   520346 
   48000    1.9197147   -5.1769395   -5.1769395   -3.4023657   0.59388888   -5.1769395    1.7745738   520346 
   49000    1.9192446   -5.1875561   -5.1875561   -3.4134169   0.55321507   -5.1875561    1.7741392   520346 
   50000    1.9120446   -5.1905172   -5.1905172   -3.4230336   0.54352077   -5.1905172    1.7674836   520346 
   51000    1.9086966   -5.1966714   -5.1966714   -3.4322826   0.55823646   -5.1966714    1.7643887   520346 
   52000    1.9057893   -5.2033888   -5.2033888   -3.4416877   0.53754523   -5.2033888    1.7617012   520346 
   53000    1.9027374   -5.2104967   -5.2104967   -3.4516167   0.52899045   -5.2104967    1.7588801   520346 
   54000    1.8943274   -5.2126532   -5.2126532   -3.4615473   0.52418498   -5.2126532    1.7511059   520346 
   55000    1.8943427   -5.2218482   -5.2218482   -3.4707282   0.53085234   -5.2218482      1.75112   520346 
   56000    1.8859632   -5.2243591   -5.2243591    -3.480985   0.53978546   -5.2243591    1.7433741   520346 
   57000     1.881307   -5.2291737   -5.2291737   -3.4901039   0.57031718   -5.2291737    1.7390699   520346 
   58000    1.8766133   -5.2344473   -5.2344473   -3.4997162   0.55872921   -5.2344473    1.7347311   520346 
   59000    1.8747179    -5.242149    -5.242149     -3.50917   0.53219022    -5.242149     1.732979   520346 
   60000    1.8704867   -5.2469062   -5.2469062   -3.5178384   0.52200858   -5.2469062    1.7290677   520346 
   61000    1.8689654   -5.2539314   -5.2539314   -3.5262699   0.52762942   -5.2539314    1.7276614   520346 
   62000     1.862374   -5.2565383   -5.2565383   -3.5349699   0.53388023   -5.2565383    1.7215684   520346 
   63000    1.8592922    -5.262013    -5.262013   -3.5432935   0.52484922    -5.262013    1.7187195   520346 
   64000    1.8531974   -5.2658761   -5.2658761   -3.5527905    0.5427559   -5.2658761    1.7130856   520346 
   65000    1.8515105   -5.2725436   -5.2725436   -3.5610174   0.49822545   -5.2725436    1.7115262   520346 
   66000    1.8460529   -5.2752965   -5.2752965   -3.5688153   0.50502569   -5.2752965    1.7064812   520346 
   67000    1.8453823   -5.2831005   -5.2831005   -3.5772392   0.51078736   -5.2831005    1.7058613   520346 
   68000    1.8429941   -5.2902486   -5.2902486   -3.5865949   0.52218598   -5.2902486    1.7036537   520346 
   69000     1.836257   -5.2934512   -5.2934512   -3.5960252   0.47413192   -5.2934512     1.697426   520346 
   70000    1.8341399   -5.2996223   -5.2996223   -3.6041534    0.5134757   -5.2996223    1.6954689   520346 
   71000    1.8308995   -5.3051464   -5.3051464   -3.6126729   0.48880406   -5.3051464    1.6924735   520346 
   72000    1.8274793   -5.3087005   -5.3087005   -3.6193887     0.533482   -5.3087005    1.6893119   520346 
   73000     1.822252   -5.3115481   -5.3115481   -3.6270684   0.49563192   -5.3115481    1.6844798   520346 
   74000    1.8208289    -5.318195    -5.318195   -3.6350307    0.4986513    -5.318195    1.6831643   520346 
   75000    1.8160847   -5.3212148   -5.3212148    -3.642436   0.49157288   -5.3212148    1.6787788   520346 
   76000    1.8146547   -5.3285466   -5.3285466   -3.6510896   0.50594624   -5.3285466    1.6774569   520346 
   77000    1.8108161    -5.332341    -5.332341   -3.6584325   0.53567963    -5.332341    1.6739085   520346 
   78000    1.8116357   -5.3402009   -5.3402009   -3.6655347   0.47508812   -5.3402009    1.6746661   520346 
   79000     1.803974    -5.340459    -5.340459   -3.6728753   0.49717528    -5.340459    1.6675838   520346 
   80000    1.8060953    -5.349735    -5.349735   -3.6801903   0.49056703    -5.349735    1.6695446   520346 
   81000    1.8006417   -5.3516827   -5.3516827   -3.6871793   0.50511838   -5.3516827    1.6645033   520346 
   82000    1.8009337   -5.3590712   -5.3590712    -3.694298   0.50813967   -5.3590712    1.6647733   520346 
   83000    1.7963722   -5.3614434   -5.3614434   -3.7008868   0.49195112   -5.3614434    1.6605566   520346 
   84000     1.795922   -5.3683495   -5.3683495    -3.708209   0.50261643   -5.3683495    1.6601405   520346 
   85000    1.7901311   -5.3689208   -5.3689208   -3.7141334   0.51374216   -5.3689208    1.6547874   520346 
   86000    1.7872019   -5.3730835   -5.3730835   -3.7210038   0.49122578   -5.3730835    1.6520797   520346 
   87000    1.7871951   -5.3799211   -5.3799211   -3.7278478   0.50213088   -5.3799211    1.6520734   520346 
   88000    1.7813765   -5.3806933   -5.3806933   -3.7339985   0.50466139   -5.3806933    1.6466947   520346 
   89000    1.7799218   -5.3862962   -5.3862962   -3.7409462   0.53601238   -5.3862962      1.64535   520346 
   90000     1.776606   -5.3898707   -5.3898707   -3.7475859   0.50774217   -5.3898707    1.6422848   520346 
   91000     1.775491   -5.3954503   -5.3954503   -3.7541961   0.51322285   -5.3954503    1.6412542   520346 
   92000    1.7730269   -5.3994557   -5.3994557   -3.7604793   0.50747627   -5.3994557    1.6389764   520346 
   93000    1.7671349   -5.3998995   -5.3998995   -3.7663696   0.50502928   -5.3998995    1.6335298   520346 
   94000    1.7672094   -5.4061057   -5.4061057    -3.772507   0.47478471   -5.4061057    1.6335987   520346 
   95000    1.7634669   -5.4091717   -5.4091717   -3.7790325   0.48177752   -5.4091717    1.6301392   520346 
   96000    1.7648113   -5.4159756   -5.4159756   -3.7845937   0.47674106   -5.4159756    1.6313819   520346 
   97000    1.7602725   -5.4180836   -5.4180836   -3.7908973   0.47656891   -5.4180836    1.6271863   520346 
   98000    1.7590145   -5.4233038   -5.4233038   -3.7972804   0.48681553   -5.4233038    1.6260234   520346 
   99000    1.7558027   -5.4257418   -5.4257418   -3.8026873   0.47835552   -5.4257418    1.6230545   520346 
  100000    1.7551193   -5.4297384   -5.4297384   -3.8073157   0.48262685   -5.4297384    1.6224227   520346 
  101000    1.7473219   -5.4297773   -5.4297773   -3.8145625   0.45794386   -5.4297773    1.6152148   520346 
  102000    1.7470045   -5.4347523   -5.4347523   -3.8198309   0.50348354   -5.4347523    1.6149214   520346 
  103000     1.746798   -5.4402284   -5.4402284   -3.8254979    0.4886863   -5.4402284    1.6147305   520346 
  104000    1.7435862   -5.4439544   -5.4439544   -3.8321929   0.47112427   -5.4439544    1.6117616   520346 
  105000    1.7402935   -5.4456365   -5.4456365   -3.8369187   0.45822395   -5.4456365    1.6087178   520346 
  106000     1.736666   -5.4481534   -5.4481534   -3.8427888   0.46192176   -5.4481534    1.6053646   520346 
  107000    1.7396914   -5.4568917   -5.4568917   -3.8487304   0.46621475   -5.4568917    1.6081612   520346 
  108000    1.7338612   -5.4566753   -5.4566753   -3.8539034    0.4656685   -5.4566753    1.6027718   520346 
  109000    1.7311344   -5.4592828   -5.4592828   -3.8590316   0.45845195   -5.4592828    1.6002512   520346 
  110000    1.7299603   -5.4627469   -5.4627469    -3.863581   0.45232067   -5.4627469    1.5991659   520346 
  111000    1.7241336   -5.4622892   -5.4622892   -3.8685095   0.47923925   -5.4622892    1.5937797   520346 
  112000    1.7274406   -5.4703303   -5.4703303   -3.8734937   0.46610691   -5.4703303    1.5968366   520346 
  113000    1.7253658      -5.4733      -5.4733   -3.8783813   0.44778009      -5.4733    1.5949187   520346 
  114000    1.7213845   -5.4758192   -5.4758192   -3.8845807   0.45989986   -5.4758192    1.5912384   520346 
  115000     1.720027   -5.4792382   -5.4792382   -3.8892546   0.47942202   -5.4792382    1.5899836   520346 
  116000    1.7218062    -5.486306    -5.486306   -3.8946778   0.45345905    -5.486306    1.5916283   520346 
  117000    1.7155735   -5.4855072   -5.4855072   -3.8996404   0.47458591   -5.4855072    1.5858668   520346 
  118000    1.7130868   -5.4891907   -5.4891907   -3.9056226   0.46316871   -5.4891907    1.5835681   520346 
  119000    1.7081026   -5.4898994   -5.4898994   -3.9109387   0.45971096   -5.4898994    1.5789607   520346 
  120000    1.7085136   -5.4937034   -5.4937034   -3.9143628    0.4263335   -5.4937034    1.5793406   520346 
  121000    1.7057777   -5.4959732   -5.4959732   -3.9191616   0.43700673   -5.4959732    1.5768116   520346 
  122000    1.7038598   -5.4999129   -5.4999129   -3.9248742   0.44824315   -5.4999129    1.5750387   520346 
  123000    1.7047446   -5.5054838   -5.5054838   -3.9296272   0.45483572   -5.5054838    1.5758566   520346 
  124000    1.7020343   -5.5075454   -5.5075454   -3.9341942    0.4416837   -5.5075454    1.5733512   520346 
  125000    1.6994233   -5.5104989   -5.5104989   -3.9395612   0.46416763   -5.5104989    1.5709376   520346 
  126000    1.6975485   -5.5138469   -5.5138469   -3.9446424   0.45587606   -5.5138469    1.5692045   520346 
  127000    1.6940808   -5.5160887   -5.5160887   -3.9500897   0.45481927   -5.5160887    1.5659991   520346 
  128000    1.6958558   -5.5224804   -5.5224804   -3.9548405   0.46059236   -5.5224804    1.5676399   520346 
  129000    1.6912826   -5.5233808   -5.5233808   -3.9599684   0.46222087   -5.5233808    1.5634124   520346 
  130000     1.688796   -5.5262462   -5.5262462   -3.9651324   0.43178443   -5.5262462    1.5611138   520346 
  131000    1.6841044   -5.5267199   -5.5267199    -3.969943   0.43500819   -5.5267199    1.5567769   520346 
  132000    1.6845409   -5.5326498   -5.5326498   -3.9754694   0.45550269   -5.5326498    1.5571804   520346 
  133000    1.6801643    -5.532998    -5.532998   -3.9798633   0.44019688    -5.532998    1.5531347   520346 
  134000     1.680349   -5.5370581   -5.5370581   -3.9837527   0.42912842   -5.5370581    1.5533054   520346 
  135000    1.6767426   -5.5384375   -5.5384375   -3.9884658   0.44115271   -5.5384375    1.5499717   520346 
  136000    1.6750211   -5.5401526   -5.5401526   -3.9917722   0.43539416   -5.5401526    1.5483804   520346 
  137000    1.6741868   -5.5448788   -5.5448788   -3.9972696    0.4411177   -5.5448788    1.5476091   520346 
  138000    1.6716902   -5.5469572   -5.5469572   -4.0016559   0.42663023   -5.5469572    1.5453013   520346 
  139000    1.6707216   -5.5503625   -5.5503625   -4.0059566   0.44351602   -5.5503625    1.5444059   520346 
  140000    1.6669073   -5.5506233   -5.5506233   -4.0097433   0.41919146   -5.5506233      1.54088   520346 
  141000    1.6674402   -5.5552906   -5.5552906    -4.013918   0.42572014   -5.5552906    1.5413726   520346 
  142000    1.6636486   -5.5553015   -5.5553015   -4.0174339   0.42511182   -5.5553015    1.5378676   520346 
  143000    1.6641576    -5.560742    -5.560742   -4.0224039   0.43387606    -5.560742    1.5383382   520346 
  144000    1.6620131   -5.5623932   -5.5623932   -4.0260373   0.42122969   -5.5623932    1.5363559   520346 
  145000    1.6594991    -5.564717    -5.564717   -4.0306851   0.43437173    -5.564717    1.5340319   520346 
  146000      1.65932   -5.5695702   -5.5695702   -4.0357039   0.43241856   -5.5695702    1.5338663   520346 
  147000    1.6544256   -5.5695438   -5.5695438   -4.0402018   0.42067743   -5.5695438     1.529342   520346 
  148000    1.6534298   -5.5726188   -5.5726188   -4.0441974   0.41175754   -5.5726188    1.5284214   520346 
  149000    1.6513974   -5.5749233   -5.5749233   -4.0483806   0.42899791   -5.5749233    1.5265427   520346 
  150000     1.650968   -5.5783106   -5.5783106   -4.0521648   0.42900509   -5.5783106    1.5261458   520346 
  151000    1.6508208   -5.5820104   -5.5820104   -4.0560006   0.41430781   -5.5820104    1.5260098   520346 
  152000    1.6483172    -5.585121    -5.585121   -4.0614256   0.43797578    -5.585121    1.5236954   520346 
  153000    1.6468625   -5.5869166   -5.5869166   -4.0645659    0.4169488   -5.5869166    1.5223507   520346 
  154000    1.6447268   -5.5892431   -5.5892431   -4.0688666    0.3974556   -5.5892431    1.5203765   520346 
  155000    1.6432191   -5.5921933   -5.5921933   -4.0732105   0.42587893   -5.5921933    1.5189828   520346 
  156000    1.6428851   -5.5954412   -5.5954412   -4.0767672   0.42303121   -5.5954412     1.518674   520346 
  157000     1.639982   -5.5977882   -5.5977882   -4.0817978    0.4318496   -5.5977882    1.5159904   520346 
  158000    1.6433213   -5.6040058   -5.6040058   -4.0849286   0.42074393   -5.6040058    1.5190772   520346 
  159000    1.6373844   -5.6024158   -5.6024158   -4.0888266   0.44608803   -5.6024158    1.5135892   520346 
  160000    1.6333984   -5.6022712   -5.6022712   -4.0923666   0.41044284   -5.6022712    1.5099046   520346 
  161000    1.6385107   -5.6097071   -5.6097071   -4.0950767   0.40723709   -5.6097071    1.5146304   520346 
  162000    1.6379683   -5.6135905   -5.6135905   -4.0994616   0.42312253   -5.6135905    1.5141289   520346 
  163000     1.632402   -5.6126084   -5.6126084    -4.103625   0.41467262   -5.6126084    1.5089835   520346 
  164000    1.6313804   -5.6158954   -5.6158954   -4.1078563   0.44321508   -5.6158954    1.5080391   520346 
  165000    1.6297056   -5.6170293   -5.6170293   -4.1105384   0.43238312   -5.6170293    1.5064909   520346 
  166000    1.6264924   -5.6176725   -5.6176725   -4.1141518   0.41697733   -5.6176725    1.5035207   520346 
  167000    1.6256711   -5.6207842   -5.6207842   -4.1180227   0.42602375   -5.6207842    1.5027615   520346 
  168000    1.6246125   -5.6244345   -5.6244345   -4.1226516   0.42557747   -5.6244345    1.5017829   520346 
  169000    1.6210057   -5.6242029   -5.6242029    -4.125754   0.39631032   -5.6242029    1.4984489   520346 
  170000    1.6186021    -5.625635    -5.625635   -4.1294081   0.42430126    -5.625635     1.496227   520346 
  171000    1.6215837   -5.6322318   -5.6322318   -4.1332487   0.44497391   -5.6322318    1.4989831   520346 
  172000    1.6179259   -5.6320042   -5.6320042   -4.1364024   0.41875551   -5.6320042    1.4956018   520346 
  173000    1.6163274   -5.6336682   -5.6336682    -4.139544   0.39887588   -5.6336682    1.4941242   520346 
  174000    1.6153207   -5.6369923   -5.6369923   -4.1437987   0.38995402   -5.6369923    1.4931936   520346 
  175000    1.6150655   -5.6410362   -5.6410362   -4.1480785   0.43316397   -5.6410362    1.4929577   520346 
  176000    1.6150808   -5.6441559   -5.6441559    -4.151184   0.42306827   -5.6441559    1.4929719   520346 
  177000    1.6090056   -5.6436978   -5.6436978   -4.1563418   0.39795225   -5.6436978     1.487356   520346 
  178000    1.6079424   -5.6464373   -5.6464373   -4.1600641   0.40955362   -5.6464373    1.4863732   520346 
  179000       1.6054   -5.6473554   -5.6473554   -4.1633324   0.41061834   -5.6473554     1.484023   520346 
  180000    1.6053782   -5.6515132   -5.6515132   -4.1675103   0.42640177   -5.6515132    1.4840028   520346 
  181000    1.6000453   -5.6506525   -5.6506525   -4.1715793   0.40077831   -5.6506525    1.4790732   520346 
  182000    1.6029992   -5.6572677   -5.6572677    -4.175464     0.420635   -5.6572677    1.4818037   520346 
  183000    1.6036955   -5.6609363   -5.6609363    -4.178489   0.39835404   -5.6609363    1.4824473   520346 
  184000    1.5997774    -5.661517    -5.661517   -4.1826915    0.4022404    -5.661517    1.4788255   520346 
  185000    1.5988195     -5.66456     -5.66456     -4.18662   0.39538411     -5.66456      1.47794   520346 
  186000    1.5973221   -5.6664352   -5.6664352   -4.1898794   0.39417351   -5.6664352    1.4765558   520346 
  187000    1.5956007   -5.6690971   -5.6690971   -4.1941326   0.39267079   -5.6690971    1.4749645   520346 
  188000     1.596913   -5.6731965   -5.6731965   -4.1970188   0.43943656   -5.6731965    1.4761776   520346 
  189000    1.5931417   -5.6731031   -5.6731031   -4.2004117   0.38086967   -5.6731031    1.4726914   520346 
  190000    1.5914768   -5.6745009   -5.6745009   -4.2033484   0.41966578   -5.6745009    1.4711525   520346 
  191000    1.5903803   -5.6759068   -5.6759068    -4.205768   0.43566406   -5.6759068    1.4701388   520346 
  192000    1.5919668   -5.6811818   -5.6811818   -4.2095764   0.42270465   -5.6811818    1.4716054   520346 
  193000    1.5893764   -5.6821605   -5.6821605   -4.2129496   0.38513216   -5.6821605    1.4692109   520346 
  194000    1.5901524   -5.6851035   -5.6851035   -4.2151753   0.41004459   -5.6851035    1.4699282   520346 
  195000    1.5842398   -5.6835164   -5.6835164   -4.2190538   0.39735975   -5.6835164    1.4644626   520346 
  196000    1.5837782   -5.6869513   -5.6869513   -4.2229154   0.42380793   -5.6869513    1.4640359   520346 
  197000    1.5853672    -5.691633    -5.691633   -4.2261282   0.38843059    -5.691633    1.4655048   520346 
  198000    1.5840107    -5.693352    -5.693352   -4.2291011   0.41061179    -5.693352    1.4642509   520346 
  199000    1.5817796   -5.6944497   -5.6944497   -4.2322613    0.3727867   -5.6944497    1.4621884   520346 
  200000    1.5757484   -5.6921951   -5.6921951   -4.2355818   0.36148726   -5.6921951    1.4566133   520346 
  201000    1.5781206   -5.6978945   -5.6978945   -4.2390885   0.34878423   -5.6978945     1.458806   520346 
  202000    1.5787385   -5.7010438   -5.7010438   -4.2416665    0.4012619   -5.7010438    1.4593772   520346 
  203000    1.5741319   -5.7004324   -5.7004324   -4.2453135   0.38905758   -5.7004324    1.4551189   520346 
  204000    1.5738546    -5.703506    -5.703506   -4.2486433   0.38146666    -5.703506    1.4548626   520346 
  205000    1.5742046   -5.7066801   -5.7066801    -4.251494    0.3605863   -5.7066801    1.4551861   520346 
  206000    1.5718852   -5.7077367   -5.7077367   -4.2546947   0.38263674   -5.7077367    1.4530421   520346 
  207000    1.5708591   -5.7101903   -5.7101903   -4.2580968   0.38118582   -5.7101903    1.4520936   520346 
  208000    1.5707152   -5.7138867   -5.7138867   -4.2619262   0.39727169   -5.7138867    1.4519606   520346 
  209000    1.5686498   -5.7147787   -5.7147787   -4.2647273    0.3757121   -5.7147787    1.4500513   520346 
  210000    1.5678342    -5.716286    -5.716286   -4.2669886   0.37683843    -5.716286    1.4492974   520346 
  211000    1.5648204   -5.7175402   -5.7175402   -4.2710288   0.40620424   -5.7175402    1.4465114   520346 
  212000    1.5682467   -5.7234545   -5.7234545   -4.2737758    0.3945271   -5.7234545    1.4496787   520346 
  213000    1.5620501   -5.7205588   -5.7205588   -4.2766083   0.38280594   -5.7205588    1.4439506   520346 
  214000    1.5620538   -5.7229304   -5.7229304   -4.2789764    0.3762032   -5.7229304     1.443954   520346 
  215000    1.5612473   -5.7247479   -5.7247479   -4.2815395   0.39590273   -5.7247479    1.4432085   520346 
  216000    1.5597557   -5.7265832   -5.7265832   -4.2847536   0.39703232   -5.7265832    1.4418296   520346 
  217000    1.5611946   -5.7316054   -5.7316054   -4.2884457   0.39718279   -5.7316054    1.4431597   520346 
  218000    1.5585282   -5.7328577   -5.7328577   -4.2921628   0.39368224   -5.7328577     1.440695   520346 
  219000    1.5584868   -5.7355304   -5.7355304   -4.2948738   0.40365023   -5.7355304    1.4406566   520346 
  220000     1.554538   -5.7361306   -5.7361306   -4.2991242   0.39369855   -5.7361306    1.4370064   520346 
  221000    1.5566389   -5.7404735   -5.7404735   -4.3015249   0.39012628   -5.7404735    1.4389485   520346 
  222000    1.5544165   -5.7422416   -5.7422416   -4.3053475   0.36827883   -5.7422416    1.4368941   520346 
  223000    1.5508874   -5.7413207   -5.7413207   -4.3076889   0.35765439   -5.7413207    1.4336318   520346 
  224000    1.5515035   -5.7444765   -5.7444765   -4.3102751   0.38773486   -5.7444765    1.4342013   520346 
  225000    1.5513766    -5.747772    -5.747772    -4.313688   0.34762412    -5.747772     1.434084   520346 
  226000    1.5485181   -5.7479419   -5.7479419   -4.3165002   0.38937868   -5.7479419    1.4314417   520346 
  227000    1.5463963   -5.7495236   -5.7495236   -4.3200434   0.35825667   -5.7495236    1.4294803   520346 
  228000    1.5461481   -5.7525677   -5.7525677   -4.3233168   0.37966454   -5.7525677    1.4292509   520346 
  229000    1.5471544   -5.7563889   -5.7563889   -4.3262078    0.3690543   -5.7563889     1.430181   520346 
  230000      1.54587   -5.7574338   -5.7574338     -4.32844   0.37622887   -5.7574338    1.4289938   520346 
  231000    1.5436172   -5.7586165   -5.7586165   -4.3317052   0.35957021   -5.7586165    1.4269113   520346 
  232000    1.5426372   -5.7611709   -5.7611709   -4.3351655   0.35565636   -5.7611709    1.4260054   520346 
  233000    1.5428307   -5.7640098   -5.7640098   -4.3378255   0.36619176   -5.7640098    1.4261843   520346 
  234000    1.5414072   -5.7657494   -5.7657494    -4.340881   0.38033033   -5.7657494    1.4248684   520346 
  235000    1.5419504   -5.7702785   -5.7702785    -4.344908   0.39515014   -5.7702785    1.4253705   520346 
  236000    1.5384334   -5.7700362   -5.7700362   -4.3479168   0.36190222   -5.7700362    1.4221194   520346 
  237000    1.5368183   -5.7711969   -5.7711969   -4.3505705   0.36098298   -5.7711969    1.4206265   520346 
  238000    1.5347261   -5.7724818   -5.7724818   -4.3537894   0.39806717   -5.7724818    1.4186924   520346 
  239000    1.5359898   -5.7762366   -5.7762366   -4.3563761   0.37419669   -5.7762366    1.4198606   520346 
  240000    1.5336145   -5.7768825   -5.7768825   -4.3592176   0.37176051   -5.7768825    1.4176648   520346 
  241000    1.5350371   -5.7811678   -5.7811678   -4.3621879   0.36192084   -5.7811678    1.4189799   520346 
  242000    1.5327835   -5.7823738   -5.7823738   -4.3654772   0.36516414   -5.7823738    1.4168967   520346 
  243000    1.5299817   -5.7826871   -5.7826871   -4.3683804   0.37155153   -5.7826871    1.4143067   520346 
  244000    1.5322474   -5.7884806   -5.7884806   -4.3720795   0.35756501   -5.7884806    1.4164011   520346 
  245000    1.5268065    -5.786966    -5.786966   -4.3755944   0.37129465    -5.786966    1.4113716   520346 
  246000    1.5255639   -5.7885294   -5.7885294   -4.3783064   0.39926858   -5.7885294     1.410223   520346 
  247000    1.5273073    -5.791879    -5.791879   -4.3800445   0.37003007    -5.791879    1.4118345   520346 
  248000    1.5263893   -5.7932816   -5.7932816   -4.3822956   0.39142553   -5.7932816     1.410986   520346 
  249000    1.5243378   -5.7946614   -5.7946614   -4.3855718   0.36148112   -5.7946614    1.4090896   520346 
  250000    1.5251476   -5.7978923   -5.7978923   -4.3880542    0.3942223   -5.7978923    1.4098381   520346 
  251000    1.5212701   -5.7973472   -5.7973472   -4.3910935   0.35139147   -5.7973472    1.4062537   520346 
  252000    1.5208562   -5.7996973   -5.7996973   -4.3938261   0.36572995   -5.7996973    1.4058711   520346 
  253000    1.5218674   -5.8038971   -5.8038971   -4.3970912   0.36177567   -5.8038971    1.4068059   520346 
  254000     1.520258   -5.8050051   -5.8050051   -4.3996869   0.36214943   -5.8050051    1.4053182   520346 
  255000    1.5203578    -5.807245    -5.807245   -4.4018345   0.35085642    -5.807245    1.4054105   520346 
  256000    1.5176409   -5.8075562   -5.8075562   -4.4046573    0.3623816   -5.8075562    1.4028989   520346 
  257000    1.5170704   -5.8089645   -5.8089645   -4.4065928   0.37159034   -5.8089645    1.4023716   520346 
  258000    1.5136716   -5.8090795   -5.8090795   -4.4098497   0.37990765   -5.8090795    1.3992298   520346 
  259000    1.5138801   -5.8109728   -5.8109728   -4.4115504   0.39002055   -5.8109728    1.3994224   520346 
  260000    1.5124206   -5.8133238   -5.8133238   -4.4152504    0.3407006   -5.8133238    1.3980734   520346 
  261000    1.5108581   -5.8137612   -5.8137612   -4.4171322   0.34828156   -5.8137612     1.396629   520346 
  262000    1.5100753   -5.8164024   -5.8164024    -4.420497   0.36714339   -5.8164024    1.3959054   520346 
  263000    1.5105892   -5.8192775   -5.8192775   -4.4228971   0.37799903   -5.8192775    1.3963804   520346 
  264000     1.509971   -5.8218033   -5.8218033   -4.4259943   0.35166634   -5.8218033     1.395809   520346 
  265000    1.5102769   -5.8247067   -5.8247067    -4.428615   0.34339221   -5.8247067    1.3960917   520346 
  266000    1.5083595   -5.8250844   -5.8250844    -4.430765   0.36474712   -5.8250844    1.3943193   520346 
  267000    1.5061412   -5.8252177   -5.8252177    -4.432949   0.35521788   -5.8252177    1.3922687   520346 
  268000    1.5039352   -5.8261416   -5.8261416   -4.4359122   0.35357556   -5.8261416    1.3902295   520346 
  269000    1.5001022   -5.8249698   -5.8249698   -4.4382835    0.3241862   -5.8249698    1.3866863   520346 
  270000     1.504415    -5.831134    -5.831134    -4.440461   0.32111484    -5.831134     1.390673   520346 
  271000    1.5014643   -5.8313952   -5.8313952   -4.4434499   0.34169769   -5.8313952    1.3879454   520346 
  272000    1.5047952   -5.8368956   -5.8368956   -4.4458712   0.35776357   -5.8368956    1.3910244   520346 
  273000    1.5006467   -5.8358736   -5.8358736    -4.448684   0.33969977   -5.8358736    1.3871896   520346 
  274000    1.4963569   -5.8347686   -5.8347686   -4.4515445   0.34758874   -5.8347686    1.3832242   520346 
  275000    1.4976676   -5.8391908   -5.8391908    -4.454755   0.36350058   -5.8391908    1.3844357   520346 
  276000    1.4958078   -5.8402481   -5.8402481   -4.4575316   0.35241238   -5.8402481    1.3827165   520346 
  277000    1.4944923   -5.8415627   -5.8415627   -4.4600622    0.3357809   -5.8415627    1.3815005   520346 
  278000    1.4930908   -5.8424043   -5.8424043   -4.4621993   0.35254031   -5.8424043     1.380205   520346 
  279000    1.4922103   -5.8443904   -5.8443904   -4.4649993   0.32953496   -5.8443904    1.3793911   520346 
  280000    1.4924687   -5.8465774   -5.8465774   -4.4669475    0.3339479   -5.8465774    1.3796299   520346 
  281000    1.4917487   -5.8474865   -5.8474865   -4.4685222   0.32328801   -5.8474865    1.3789643   520346 
  282000    1.4888587   -5.8470537   -5.8470537   -4.4707608   0.31555454   -5.8470537    1.3762928   520346 
  283000    1.4880301   -5.8492799   -5.8492799    -4.473753   0.32420549   -5.8492799    1.3755269   520346 
  284000    1.4864212   -5.8500195   -5.8500195   -4.4759798   0.34237682   -5.8500195    1.3740396   520346 
  285000    1.4869545   -5.8533002   -5.8533002   -4.4787675   0.35491125   -5.8533002    1.3745326   520346 
  286000    1.4875807   -5.8569125   -5.8569125    -4.481801   0.34563305   -5.8569125    1.3751115   520346 
  287000    1.4863384   -5.8574459   -5.8574459   -4.4834828   0.35570247   -5.8574459    1.3739631   520346 
  288000    1.4865197   -5.8603991   -5.8603991   -4.4862684   0.33440237   -5.8603991    1.3741307   520346 
  289000    1.4828923   -5.8592589   -5.8592589   -4.4884813   0.33995633   -5.8592589    1.3707775   520346 
  290000    1.4830968   -5.8616438   -5.8616438   -4.4906772    0.3535221   -5.8616438    1.3709666   520346 
  291000    1.4812217   -5.8627206   -5.8627206   -4.4934873   0.34417873   -5.8627206    1.3692332   520346 
  292000    1.4830184   -5.8667114   -5.8667114   -4.4958173   0.30235735   -5.8667114    1.3708941   520346 
  293000    1.4809643   -5.8666949   -5.8666949   -4.4976995   0.32847575   -5.8666949    1.3689953   520346 
  294000    1.4799714   -5.8689817   -5.8689817   -4.5009042   0.32787237   -5.8689817    1.3680775   520346 
  295000    1.4783383     -5.87013     -5.87013   -4.5035622     0.331878     -5.87013    1.3665679   520346 
  296000    1.4798405   -5.8738666   -5.8738666   -4.5059101   0.37415808   -5.8738666    1.3679565   520346 
  297000    1.4761773   -5.8716933   -5.8716933   -4.5071231   0.33281256   -5.8716933    1.3645703   520346 
  298000    1.4776058    -5.876051    -5.876051   -4.5101603   0.33139444    -5.876051    1.3658908   520346 
  299000    1.4735065   -5.8758192   -5.8758192   -4.5137178   0.34421975   -5.8758192    1.3621013   520346 
  300000    1.4732487   -5.8783676   -5.8783676   -4.5165045   0.34575589   -5.8783676    1.3618631   520346 
  301000     1.476364   -5.8828536   -5.8828536   -4.5181108   0.32644959   -5.8828536    1.3647428   520346 
  302000    1.4751177   -5.8838407   -5.8838407   -4.5202499   0.32773514   -5.8838407    1.3635908   520346 
  303000    1.4732504   -5.8840552   -5.8840552   -4.5221905   0.33908705   -5.8840552    1.3618647   520346 
  304000    1.4740762   -5.8871669   -5.8871669   -4.5245389   0.32282317   -5.8871669     1.362628   520346 
  305000    1.4709774   -5.8859166   -5.8859166   -4.5261531    0.3379163   -5.8859166    1.3597635   520346 
  306000    1.4725501   -5.8893485   -5.8893485   -4.5281312   0.33616283   -5.8893485    1.3612173   520346 
  307000    1.4740934   -5.8931594   -5.8931594   -4.5305154   0.34988912   -5.8931594    1.3626439   520346 
  308000    1.4701919   -5.8919294   -5.8919294    -4.532892    0.3372735   -5.8919294    1.3590374   520346 
  309000    1.4666097   -5.8910892   -5.8910892   -4.5353632   0.31550738   -5.8910892     1.355726   520346 
  310000    1.4643421   -5.8905211   -5.8905211   -4.5368912   0.30485219   -5.8905211    1.3536299   520346 
  311000    1.4664155   -5.8943169   -5.8943169   -4.5387704   0.35080642   -5.8943169    1.3555465   520346 
  312000    1.4686367   -5.8992111   -5.8992111   -4.5416113   0.31971869   -5.8992111    1.3575998   520346 
  313000    1.4638962   -5.8973762   -5.8973762   -4.5441585   0.33031654   -5.8973762    1.3532177   520346 
  314000    1.4635826   -5.8996542   -5.8996542   -4.5467264   0.33156514   -5.8996542    1.3529278   520346 
  315000    1.4626843   -5.9013885   -5.9013885   -4.5492911   0.33166606   -5.9013885    1.3520974   520346 
  316000    1.4647819   -5.9047026   -5.9047026   -4.5506662   0.30211368   -5.9047026    1.3540364   520346 
  317000    1.4613879   -5.9050445   -5.9050445   -4.5541455   0.30022804   -5.9050445     1.350899   520346 
  318000    1.4604086   -5.9056058   -5.9056058   -4.5556121   0.34553464   -5.9056058    1.3499937   520346 
  319000    1.4608921   -5.9084284   -5.9084284   -4.5579877   0.32584674   -5.9084284    1.3504407   520346 
  320000    1.4591439   -5.9083648   -5.9083648   -4.5595402   0.33488781   -5.9083648    1.3488247   520346 
  321000    1.4575781   -5.9095056   -5.9095056   -4.5621283   0.29539215   -5.9095056    1.3473773   520346 
  322000    1.4585802   -5.9124507   -5.9124507   -4.5641471   0.29112816   -5.9124507    1.3483036   520346 
  323000    1.4579962   -5.9139144   -5.9139144   -4.5661506   0.31884829   -5.9139144    1.3477638   520346 
  324000    1.4570608   -5.9157397   -5.9157397   -4.5688407   0.32184159   -5.9157397     1.346899   520346 
  325000    1.4541227   -5.9140065   -5.9140065   -4.5698234   0.32203073   -5.9140065    1.3441831   520346 
  326000    1.4543848   -5.9167973   -5.9167973   -4.5723719   0.30732737   -5.9167973    1.3444253   520346 
  327000    1.4562758   -5.9204614   -5.9204614   -4.5742881   0.33801295   -5.9204614    1.3461734   520346 
  328000    1.4529993   -5.9187364   -5.9187364   -4.5755918   0.28751225   -5.9187364    1.3431446   520346 
  329000    1.4530673   -5.9220653   -5.9220653   -4.5788578   0.28413759   -5.9220653    1.3432075   520346 
  330000    1.4514355   -5.9221342   -5.9221342   -4.5804352   0.32213515   -5.9221342     1.341699   520346 
  331000    1.4520924   -5.9246656   -5.9246656   -4.5823594   0.31421837   -5.9246656    1.3423062   520346 
  332000    1.4522244   -5.9265667   -5.9265667   -4.5841384   0.32851868   -5.9265667    1.3424283   520346 
  333000    1.4514971   -5.9276064   -5.9276064   -4.5858503   0.32243302   -5.9276064     1.341756   520346 
  334000    1.4503151   -5.9291493   -5.9291493   -4.5884859   0.33033953   -5.9291493    1.3406634   520346 
  335000    1.4476991   -5.9283867   -5.9283867   -4.5901416   0.32085547   -5.9283867    1.3382451   520346 
  336000    1.4493656   -5.9312535   -5.9312535   -4.5914679   0.29299019   -5.9312535    1.3397856   520346 
  337000    1.4473708   -5.9316716   -5.9316716   -4.5937299    0.3092967   -5.9316716    1.3379417   520346 
  338000    1.4476059   -5.9332195   -5.9332195   -4.5950605   0.28699048   -5.9332195     1.338159   520346 
  339000    1.4449918   -5.9331955   -5.9331955    -4.597453   0.31528138   -5.9331955    1.3357425   520346 
  340000    1.4469712   -5.9366977   -5.9366977   -4.5991254   0.30788441   -5.9366977    1.3375722   520346 
  341000    1.4417595   -5.9340093   -5.9340093   -4.6012547   0.28860833   -5.9340093    1.3327546   520346 
  342000    1.4435951    -5.938255    -5.938255   -4.6038036   0.31128743    -5.938255    1.3344514   520346 
  343000    1.4454061   -5.9426362   -5.9426362   -4.6065107   0.30341005   -5.9426362    1.3361255   520346 
  344000    1.4435709   -5.9438771   -5.9438771    -4.609448   0.31289027   -5.9438771     1.334429   520346 
  345000    1.4408667   -5.9436204   -5.9436204   -4.6116911    0.3282322   -5.9436204    1.3319293   520346 
  346000      1.43962   -5.9442569   -5.9442569     -4.61348    0.3013532   -5.9442569    1.3307768   520346 
  347000    1.4385959   -5.9450213   -5.9450213   -4.6151911   0.30415501   -5.9450213    1.3298302   520346 
  348000    1.4377463   -5.9464143   -5.9464143   -4.6173694   0.30571271   -5.9464143    1.3290448   520346 
  349000    1.4384601   -5.9488556   -5.9488556   -4.6191509   0.30537619   -5.9488556    1.3297047   520346 
  350000    1.4373841    -5.950365    -5.950365    -4.621655   0.31149014    -5.950365      1.32871   520346 
  351000    1.4368662   -5.9521948   -5.9521948   -4.6239636    0.3156839   -5.9521948    1.3282312   520346 
  352000    1.4382943   -5.9552449   -5.9552449   -4.6256935   0.30311349   -5.9552449    1.3295514   520346 
  353000    1.4358377   -5.9552189   -5.9552189   -4.6279383   0.31139363   -5.9552189    1.3272805   520346 
  354000     1.435167   -5.9566455   -5.9566455    -4.629985   0.30452465   -5.9566455    1.3266605   520346 
  355000    1.4339356   -5.9573465   -5.9573465   -4.6318243   0.27315267   -5.9573465    1.3255222   520346 
  356000    1.4314353   -5.9574181   -5.9574181   -4.6342072    0.3076818   -5.9574181    1.3232109   520346 
  357000    1.4291548   -5.9574431   -5.9574431   -4.6363402   0.29532031   -5.9574431    1.3211029   520346 
  358000    1.4303709   -5.9612406   -5.9612406   -4.6390135   0.30195177   -5.9612406    1.3222271   520346 
  359000    1.4298718   -5.9624289   -5.9624289   -4.6406633   0.29354333   -5.9624289    1.3217657   520346 
  360000    1.4302125   -5.9642877   -5.9642877   -4.6422071   0.29986716   -5.9642877    1.3220806   520346 
  361000     1.430195   -5.9665154   -5.9665154    -4.644451    0.3171431   -5.9665154    1.3220645   520346 
  362000    1.4274659   -5.9659849   -5.9659849   -4.6464432   0.29338809   -5.9659849    1.3195417   520346 
  363000    1.4272849   -5.9673549   -5.9673549   -4.6479806   0.28949239   -5.9673549    1.3193743   520346 
  364000    1.4268097   -5.9702503   -5.9702503   -4.6513152   0.32179152   -5.9702503    1.3189351   520346 
  365000    1.4275865   -5.9718682   -5.9718682    -4.652215   0.30705236   -5.9718682    1.3196532   520346 
  366000    1.4272604   -5.9725839   -5.9725839   -4.6532322   0.32050503   -5.9725839    1.3193517   520346 
  367000    1.4227862   -5.9719513   -5.9719513   -4.6567356   0.31213988   -5.9719513    1.3152158   520346 
  368000    1.4223196   -5.9721903   -5.9721903   -4.6574058   0.31004711   -5.9721903    1.3147845   520346 
  369000    1.4241813   -5.9745615   -5.9745615   -4.6580561   0.29261242   -5.9745615    1.3165054   520346 
  370000    1.4236402   -5.9764419   -5.9764419   -4.6604368   0.30133472   -5.9764419    1.3160052   520346 
  371000     1.423062   -5.9784269   -5.9784269   -4.6629562   0.30832857   -5.9784269    1.3154707   520346 
  372000    1.4207229   -5.9779442   -5.9779442   -4.6646357   0.30199269   -5.9779442    1.3133085   520346 
  373000    1.4201445   -5.9800716   -5.9800716   -4.6672978   0.30386138   -5.9800716    1.3127738   520346 
  374000    1.4206668   -5.9820889   -5.9820889   -4.6688323   0.28504517   -5.9820889    1.3132566   520346 
  375000    1.4174441   -5.9816097   -5.9816097   -4.6713321   0.29652512   -5.9816097    1.3102776   520346 
  376000    1.4184477   -5.9845831   -5.9845831   -4.6733778   0.28241926   -5.9845831    1.3112053   520346 
  377000    1.4176653   -5.9859803   -5.9859803   -4.6754982   0.29396362   -5.9859803    1.3104821   520346 
  378000    1.4195692   -5.9898352   -5.9898352   -4.6775932   0.26957533   -5.9898352     1.312242   520346 
  379000    1.4164935   -5.9891477   -5.9891477   -4.6797489   0.28393935   -5.9891477    1.3093988   520346 
  380000    1.4169944   -5.9910924   -5.9910924   -4.6812306   0.28203014   -5.9910924    1.3098619   520346 
  381000    1.4157596   -5.9916802   -5.9916802   -4.6829598   0.27571361   -5.9916802    1.3087205   520346 
  382000    1.4151862   -5.9918716   -5.9918716   -4.6836812   0.30643579   -5.9918716    1.3081904   520346 
  383000    1.4138692   -5.9929416   -5.9929416   -4.6859686   0.29184826   -5.9929416     1.306973   520346 
  384000    1.4136767   -5.9943051   -5.9943051   -4.6875101   0.29156142   -5.9943051     1.306795   520346 
  385000    1.4118357   -5.9955493   -5.9955493   -4.6904561   0.27993042   -5.9955493    1.3050932   520346 
  386000    1.4131626   -5.9990359   -5.9990359   -4.6927161   0.29319041   -5.9990359    1.3063198   520346 
  387000    1.4112006   -5.9993312   -5.9993312    -4.694825   0.29628196   -5.9993312    1.3045062   520346 
  388000    1.4129618   -6.0028456   -6.0028456   -4.6967115   0.29165783   -6.0028456    1.3061341   520346 
  389000    1.4115308   -6.0024774   -6.0024774   -4.6976661   0.27878305   -6.0024774    1.3048113   520346 
  390000    1.4089653   -6.0026577   -6.0026577   -4.7002179    0.2993886   -6.0026577    1.3024398   520346 
  391000    1.4073613   -6.0040693   -6.0040693   -4.7031122   0.31208704   -6.0040693    1.3009571   520346 
  392000    1.4087451   -6.0068218   -6.0068218   -4.7045855   0.27503927   -6.0068218    1.3022363   520346 
  393000    1.4100413   -6.0096507   -6.0096507   -4.7062162   0.29635463   -6.0096507    1.3034345   520346 
  394000    1.4077829   -6.0091776   -6.0091776   -4.7078308   0.28338673   -6.0091776    1.3013468   520346 
  395000    1.4067525   -6.0104134   -6.0104134   -4.7100191   0.31710352   -6.0104134    1.3003943   520346 
  396000    1.4051572   -6.0102262   -6.0102262   -4.7113065   0.30109598   -6.0102262    1.2989196   520346 
  397000    1.4061535   -6.0124115   -6.0124115   -4.7125708   0.27589011   -6.0124115    1.2998407   520346 
  398000    1.4038833   -6.0124542   -6.0124542   -4.7147122   0.28164989   -6.0124542     1.297742   520346 
  399000    1.4038028   -6.0136869   -6.0136869   -4.7160193    0.2741366   -6.0136869    1.2976676   520346 
  400000    1.4026701   -6.0150358   -6.0150358   -4.7184153   0.26907726   -6.0150358    1.2966206   520346 
  401000    1.4038874   -6.0177524   -6.0177524   -4.7200066      0.30161   -6.0177524    1.2977458   520346 
  402000    1.4008064   -6.0176525   -6.0176525   -4.7227547   0.30091978   -6.0176525    1.2948978   520346 
  403000    1.4002886   -6.0190048   -6.0190048   -4.7245857   0.26855786   -6.0190048    1.2944191   520346 
  404000    1.4021498   -6.0229524   -6.0229524   -4.7268128   0.27246151   -6.0229524    1.2961396   520346 
  405000    1.3995883   -6.0216711   -6.0216711   -4.7278994   0.29729896   -6.0216711    1.2937718   520346 
  406000    1.3995804   -6.0237754   -6.0237754    -4.730011   0.27062555   -6.0237754    1.2937645   520346 
  407000    1.3999545   -6.0256645   -6.0256645   -4.7315542   0.28089082   -6.0256645    1.2941103   520346 
  408000    1.3953221   -6.0245031   -6.0245031    -4.734675   0.26607799   -6.0245031    1.2898281   520346 
  409000    1.3998642   -6.0305517   -6.0305517   -4.7365249   0.28160911   -6.0305517    1.2940269   520346 
  410000    1.3955453   -6.0274085   -6.0274085    -4.737374   0.30442588   -6.0274085    1.2900345   520346 
  411000    1.3950543   -6.0299303   -6.0299303   -4.7403497   0.30648108   -6.0299303    1.2895806   520346 
  412000    1.3924582   -6.0291836   -6.0291836   -4.7420028   0.29586844   -6.0291836    1.2871807   520346 
  413000    1.3915501   -6.0300516   -6.0300516   -4.7437102   0.28391815   -6.0300516    1.2863414   520346 
  414000    1.3903755    -6.030562    -6.030562   -4.7453065   0.29927304    -6.030562    1.2852555   520346 
  415000     1.392996   -6.0359369   -6.0359369   -4.7482591   0.28567136   -6.0359369    1.2876779   520346 
  416000    1.3903262   -6.0346439   -6.0346439   -4.7494339   0.27435666   -6.0346439      1.28521   520346 
  417000    1.3873317   -6.0341931   -6.0341931   -4.7517513   0.31543571   -6.0341931    1.2824419   520346 
  418000    1.3918423   -6.0391612   -6.0391612   -4.7525498   0.28757763   -6.0391612    1.2866114   520346 
  419000    1.3888926   -6.0390325   -6.0390325   -4.7551477   0.28035287   -6.0390325    1.2838848   520346 
  420000    1.3868681   -6.0390113   -6.0390113    -4.756998   0.25936533   -6.0390113    1.2820133   520346 
  421000    1.3880219   -6.0408949   -6.0408949   -4.7578151   0.26712295   -6.0408949    1.2830798   520346 
  422000    1.3861767   -6.0412917   -6.0412917   -4.7599175   0.26164273   -6.0412917    1.2813742   520346 
  423000    1.3847862   -6.0412976   -6.0412976   -4.7612088    0.2986576   -6.0412976    1.2800888   520346 
  424000     1.384322    -6.042054    -6.042054   -4.7623943   0.26671586    -6.042054    1.2796597   520346 
  425000     1.384149   -6.0437906   -6.0437906   -4.7642908   0.31450252   -6.0437906    1.2794998   520346 
  426000    1.3836928   -6.0464069   -6.0464069   -4.7673288   0.30526525   -6.0464069     1.279078   520346 
  427000    1.3820282    -6.047421    -6.047421   -4.7698817   0.28420391    -6.047421    1.2775393   520346 
  428000    1.3843981   -6.0506574   -6.0506574   -4.7709274   0.25764124   -6.0506574      1.27973   520346 
  429000    1.3859166   -6.0534349   -6.0534349   -4.7723012   0.28020758   -6.0534349    1.2811337   520346 
  430000    1.3809345   -6.0514828   -6.0514828   -4.7749545   0.29326073   -6.0514828    1.2765283   520346 
  431000     1.380185   -6.0519494   -6.0519494   -4.7761139    0.2688741   -6.0519494    1.2758355   520346 
  432000     1.382393   -6.0541951   -6.0541951   -4.7763185   0.27857609   -6.0541951    1.2778766   520346 
  433000    1.3807194   -6.0542865   -6.0542865    -4.777957   0.29474079   -6.0542865    1.2763295   520346 
  434000    1.3792998    -6.055199    -6.055199   -4.7801818   0.27407101    -6.055199    1.2750172   520346 
  435000    1.3771612   -6.0544242   -6.0544242   -4.7813839   0.26120242   -6.0544242    1.2730402   520346 
  436000    1.3774354   -6.0568956   -6.0568956   -4.7836018   0.27872798   -6.0568956    1.2732938   520346 
  437000    1.3746996   -6.0565034   -6.0565034   -4.7857386   0.28622872   -6.0565034    1.2707648   520346 
  438000    1.3740146   -6.0582604   -6.0582604   -4.7881289   0.30286765   -6.0582604    1.2701316   520346 
  439000    1.3742168     -6.05972     -6.05972   -4.7894016   0.28301336     -6.05972    1.2703185   520346 
  440000    1.3754231   -6.0627072   -6.0627072   -4.7912736   0.27899249   -6.0627072    1.2714336   520346 
  441000     1.373179   -6.0633595   -6.0633595   -4.7940003   0.27669844   -6.0633595    1.2693592   520346 
  442000    1.3743994   -6.0656733   -6.0656733    -4.795186   0.25105773   -6.0656733    1.2704873   520346 
  443000    1.3719371   -6.0653848   -6.0653848   -4.7971736   0.29100687   -6.0653848    1.2682112   520346 
  444000      1.37184   -6.0673788   -6.0673788   -4.7992573   0.24403047   -6.0673788    1.2681214   520346 
  445000    1.3691089   -6.0659545   -6.0659545   -4.8003577   0.28273361   -6.0659545    1.2655968   520346 
  446000    1.3677722   -6.0656068   -6.0656068   -4.8012456    0.2677505   -6.0656068    1.2643612   520346 
  447000    1.3705024   -6.0701105   -6.0701105   -4.8032256   0.26630386   -6.0701105    1.2668849   520346 
  448000     1.368663   -6.0700488   -6.0700488   -4.8048642   0.28581446   -6.0700488    1.2651846   520346 
  449000    1.3683537    -6.071712    -6.071712   -4.8068133   0.25113373    -6.071712    1.2648987   520346 
  450000    1.3687775   -6.0746005   -6.0746005     -4.80931   0.27708745   -6.0746005    1.2652904   520346 
  451000    1.3653575    -6.073192    -6.073192    -4.811063   0.28072023    -6.073192     1.262129   520346 
  452000    1.3662872   -6.0751681   -6.0751681   -4.8121796   0.25303938   -6.0751681    1.2629885   520346 
  453000    1.3658609   -6.0764208   -6.0764208   -4.8138264   0.28920159   -6.0764208    1.2625943   520346 
  454000    1.3664165   -6.0774868   -6.0774868   -4.8143789   0.24921879   -6.0774868    1.2631079   520346 
  455000     1.364117    -6.077463    -6.077463   -4.8164807   0.27236856    -6.077463    1.2609823   520346 
  456000    1.3629353   -6.0778837   -6.0778837   -4.8179937   0.28586266   -6.0778837      1.25989   520346 
  457000    1.3631013   -6.0794548   -6.0794548   -4.8194114   0.29226549   -6.0794548    1.2600434   520346 
  458000    1.3635616   -6.0810835   -6.0810835   -4.8206146   0.26775242   -6.0810835    1.2604689   520346 
  459000     1.361081   -6.0805005   -6.0805005   -4.8223246   0.25926489   -6.0805005    1.2581758   520346 
  460000    1.3606583   -6.0811944   -6.0811944   -4.8234093   0.29020941   -6.0811944    1.2577851   520346 
  461000    1.3600206   -6.0825896   -6.0825896    -4.825394   0.30304838   -6.0825896    1.2571956   520346 
  462000     1.360176   -6.0840221   -6.0840221   -4.8266829   0.28569043   -6.0840221    1.2573392   520346 
  463000    1.3592683   -6.0860012   -6.0860012    -4.829501   0.26977215   -6.0860012    1.2565002   520346 
  464000    1.3575265    -6.085586    -6.085586   -4.8306959   0.27014234    -6.085586      1.25489   520346 
  465000    1.3550116   -6.0847516   -6.0847516   -4.8321863   0.25286327   -6.0847516    1.2525653   520346 
  466000    1.3583664   -6.0902547   -6.0902547   -4.8345883   0.26481612   -6.0902547    1.2556665   520346 
  467000    1.3566084   -6.0891302   -6.0891302   -4.8350888   0.26178417   -6.0891302    1.2540414   520346 
  468000    1.3569634   -6.0903438   -6.0903438   -4.8359742   0.24905331   -6.0903438    1.2543695   520346 
  469000    1.3540958   -6.0896479   -6.0896479   -4.8379291   0.27627705   -6.0896479    1.2517188   520346 
  470000    1.3527025   -6.0909895   -6.0909895   -4.8405587   0.24492207   -6.0909895    1.2504308   520346 
  471000     1.354061   -6.0938556   -6.0938556    -4.842169   0.24956821   -6.0938556    1.2516866   520346 
  472000    1.3542822   -6.0952698   -6.0952698   -4.8433787    0.2864696   -6.0952698    1.2518911   520346 
  473000    1.3534745   -6.0960436   -6.0960436   -4.8448992   0.27541278   -6.0960436    1.2511444   520346 
  474000    1.3513412   -6.0957263   -6.0957263   -4.8465538   0.25592642   -6.0957263    1.2491724   520346 
  475000    1.3486327   -6.0958536   -6.0958536    -4.849185   0.26352489   -6.0958536    1.2466687   520346 
  476000    1.3492338   -6.0984266   -6.0984266   -4.8512023   0.27460522   -6.0984266    1.2472244   520346 
  477000    1.3483912   -6.0985393   -6.0985393   -4.8520939    0.2314211   -6.0985393    1.2464454   520346 
  478000    1.3496861   -6.1002789   -6.1002789   -4.8526365   0.24028363   -6.1002789    1.2476425   520346 
  479000    1.3489499   -6.1007486   -6.1007486   -4.8537867   0.25802181   -6.1007486    1.2469619   520346 
  480000    1.3472916   -6.1015067   -6.1015067   -4.8560777   0.25207848   -6.1015067     1.245429   520346 
  481000    1.3464609   -6.1023706   -6.1023706   -4.8577095    0.2557897   -6.1023706    1.2446611   520346 
  482000    1.3455063   -6.1032387   -6.1032387   -4.8594601   0.26815946   -6.1032387    1.2437787   520346 
  483000    1.3448323   -6.1040745   -6.1040745   -4.8609188   0.25458178   -6.1040745    1.2431556   520346 
  484000    1.3442124   -6.1046344   -6.1046344   -4.8620518   0.26222036   -6.1046344    1.2425826   520346 
  485000     1.343891   -6.1057052   -6.1057052   -4.8634197   0.24617952   -6.1057052    1.2422855   520346 
  486000    1.3446883    -6.107715    -6.107715   -4.8646925    0.2649398    -6.107715    1.2430225   520346 
  487000    1.3430989    -6.107502    -6.107502   -4.8659486   0.22940467    -6.107502    1.2415533   520346 
  488000    1.3434446   -6.1094255   -6.1094255   -4.8675527   0.26909739   -6.1094255    1.2418728   520346 
  489000    1.3424662   -6.1103983   -6.1103983   -4.8694299   0.25197089   -6.1103983    1.2409685   520346 
  490000     1.340509   -6.1104977   -6.1104977   -4.8713385   0.24651668   -6.1104977    1.2391592   520346 
  491000    1.3377407    -6.109846    -6.109846   -4.8732458   0.25229919    -6.109846    1.2366002   520346 
  492000    1.3409547    -6.113868    -6.113868   -4.8742968   0.26563505    -6.113868    1.2395712   520346 
  493000    1.3401651   -6.1149926   -6.1149926   -4.8761513   0.26344312   -6.1149926    1.2388413   520346 
  494000    1.3391312   -6.1151123   -6.1151123   -4.8772267   0.27413254   -6.1151123    1.2378856   520346 
  495000    1.3390553   -6.1154998   -6.1154998   -4.8776844   0.23472896   -6.1154998    1.2378154   520346 
  496000    1.3377602   -6.1153863   -6.1153863   -4.8787681   0.24260294   -6.1153863    1.2366183   520346 
  497000    1.3376981   -6.1168521   -6.1168521   -4.8802914   0.25230653   -6.1168521    1.2365608   520346 
  498000    1.3352339   -6.1171388   -6.1171388   -4.8828559   0.24452348   -6.1171388    1.2342829   520346 
  499000    1.3358411   -6.1189894   -6.1189894   -4.8841451   0.24193088   -6.1189894    1.2348442   520346 
  500000    1.3367297   -6.1206903   -6.1206903   -4.8850246   0.26039557   -6.1206903    1.2356657   520346 
  501000    1.3328887   -6.1184565   -6.1184565   -4.8863415   0.26599995   -6.1184565     1.232115   520346 
  502000    1.3332414   -6.1194327   -6.1194327   -4.8869916   0.26011489   -6.1194327    1.2324411   520346 
  503000    1.3348109   -6.1221837   -6.1221837   -4.8882919   0.24549076   -6.1221837    1.2338919   520346 
  504000    1.3331911   -6.1226823   -6.1226823   -4.8902878    0.2427525   -6.1226823    1.2323945   520346 
  505000    1.3351742   -6.1265282   -6.1265282   -4.8923004   0.25316226   -6.1265282    1.2342277   520346 
  506000     1.333292    -6.126166    -6.126166   -4.8936781   0.24865521    -6.126166    1.2324878   520346 
  507000    1.3312073   -6.1260473   -6.1260473   -4.8954866   0.23918972   -6.1260473    1.2305607   520346 
  508000    1.3315062   -6.1273053   -6.1273053   -4.8964682    0.2372324   -6.1273053    1.2308371   520346 
  509000    1.3276728   -6.1256849   -6.1256849   -4.8983914   0.26794675   -6.1256849    1.2272934   520346 
  510000    1.3309985   -6.1305455   -6.1305455   -4.9001778   0.23577939   -6.1305455    1.2303677   520346 
  511000    1.3290143   -6.1305544   -6.1305544   -4.9020208   0.26549878   -6.1305544    1.2285336   520346 
  512000    1.3278425   -6.1313438   -6.1313438   -4.9038935   0.25005123   -6.1313438    1.2274503   520346 
  513000    1.3270423   -6.1326198   -6.1326198   -4.9059092   0.23757544   -6.1326198    1.2267107   520346 
  514000    1.3267286   -6.1332078   -6.1332078   -4.9067871    0.2365112   -6.1332078    1.2264207   520346 
  515000    1.3243295   -6.1319257   -6.1319257   -4.9077228   0.23349132   -6.1319257    1.2242029   520346 
  516000    1.3264697   -6.1348133   -6.1348133   -4.9086319   0.23460711   -6.1348133    1.2261814   520346 
  517000    1.3279153   -6.1371222   -6.1371222   -4.9096045   0.23626395   -6.1371222    1.2275177   520346 
  518000    1.3253044   -6.1356098   -6.1356098   -4.9105056   0.21423801   -6.1356098    1.2251042   520346 
  519000    1.3287052   -6.1392913   -6.1392913   -4.9110435   0.24140745   -6.1392913    1.2282478   520346 
  520000    1.3253014   -6.1381951   -6.1381951   -4.9130937     0.237463   -6.1381951    1.2251014   520346 
  521000     1.323441   -6.1390147   -6.1390147    -4.915633   0.24921846   -6.1390147    1.2233817   520346 
  522000    1.3251554   -6.1426248   -6.1426248   -4.9176584   0.25001723   -6.1426248    1.2249664   520346 
  523000    1.3236723   -6.1420778   -6.1420778   -4.9184824   0.23399661   -6.1420778    1.2235954   520346 
  524000    1.3214297   -6.1415083   -6.1415083   -4.9199859   0.23737309   -6.1415083    1.2215224   520346 
  525000     1.321063   -6.1436849   -6.1436849   -4.9225015   0.22519151   -6.1436849    1.2211834   520346 
  526000    1.3216802   -6.1457517   -6.1457517   -4.9239978   0.20105766   -6.1457517     1.221754   520346 
  527000    1.3209892   -6.1467978   -6.1467978   -4.9256826   0.22768266   -6.1467978    1.2211152   520346 
  528000    1.3212257   -6.1479627   -6.1479627   -4.9266288   0.23607498   -6.1479627    1.2213338   520346 
  529000    1.3191569   -6.1472538   -6.1472538   -4.9278323   0.23906572   -6.1472538    1.2194215   520346 
  530000    1.3182447   -6.1481091   -6.1481091   -4.9295308   0.24605834   -6.1481091    1.2185782   520346 
  531000     1.318297   -6.1482915   -6.1482915   -4.9296649   0.25868561   -6.1482915    1.2186266   520346 
  532000    1.3179501    -6.149817    -6.149817   -4.9315112   0.25513197    -6.149817    1.2183058   520346 
  533000    1.3181343   -6.1518595   -6.1518595   -4.9333834    0.2415095   -6.1518595    1.2184762   520346 
  534000    1.3149562   -6.1503342   -6.1503342   -4.9347958   0.22885381   -6.1503342    1.2155384   520346 
  535000     1.317787   -6.1538226   -6.1538226   -4.9356674   0.22952611   -6.1538226    1.2181551   520346 
  536000    1.3147796   -6.1536835   -6.1536835   -4.9383084   0.24480041   -6.1536835    1.2153751   520346 
  537000    1.3147309    -6.154577    -6.154577   -4.9392469   0.22997141    -6.154577      1.21533   520346 
  538000    1.3171333   -6.1579085   -6.1579085   -4.9403577   0.24694126   -6.1579085    1.2175508   520346 
  539000    1.3165692   -6.1594438   -6.1594438   -4.9424144    0.2543172   -6.1594438    1.2170294   520346 
  540000    1.3112874   -6.1554918   -6.1554918    -4.943345   0.23411935   -6.1554918    1.2121469   520346 
  541000    1.3127319   -6.1578248   -6.1578248   -4.9443426   0.25761678   -6.1578248    1.2134822   520346 
  542000    1.3156788   -6.1620801   -6.1620801   -4.9458739   0.25469432   -6.1620801    1.2162063   520346 
  543000    1.3129483   -6.1602395   -6.1602395   -4.9465573   0.25250952   -6.1602395    1.2136822   520346 
  544000    1.3102559    -6.159488    -6.159488   -4.9482947   0.22962753    -6.159488    1.2111934   520346 
  545000    1.3127343   -6.1637143   -6.1637143   -4.9502299   0.22160735   -6.1637143    1.2134845   520346 
  546000     1.311099   -6.1633437   -6.1633437    -4.951371   0.20137103   -6.1633437    1.2119728   520346 
  547000    1.3112115    -6.165952    -6.165952   -4.9538752   0.21586078    -6.165952    1.2120768   520346 
  548000    1.3085004   -6.1640629   -6.1640629   -4.9544923   0.25653436   -6.1640629    1.2095706   520346 
  549000    1.3108161   -6.1686468   -6.1686468   -4.9569356   0.23882281   -6.1686468    1.2117112   520346 
  550000    1.3082828   -6.1682542   -6.1682542   -4.9588848   0.23895542   -6.1682542    1.2093694   520346 
  551000    1.3069336   -6.1684354   -6.1684354   -4.9603131   0.25119319   -6.1684354    1.2081223   520346 
  552000     1.308257   -6.1706728   -6.1706728   -4.9613271   0.21391929   -6.1706728    1.2093457   520346 
  553000     1.305724   -6.1691464   -6.1691464   -4.9621423   0.23115445   -6.1691464    1.2070041   520346 
  554000    1.3043021   -6.1688181   -6.1688181   -4.9631284   0.20981934   -6.1688181    1.2056897   520346 
  555000    1.3059848   -6.1724208   -6.1724208   -4.9651755   0.23158036   -6.1724208    1.2072452   520346 
  556000    1.3041004   -6.1723623   -6.1723623   -4.9668591   0.25027862   -6.1723623    1.2055033   520346 
  557000    1.3021019   -6.1721245   -6.1721245   -4.9684687   0.22732555   -6.1721245    1.2036559   520346 
  558000    1.3043585    -6.175618    -6.175618   -4.9698761   0.25038323    -6.175618    1.2057419   520346 
  559000    1.3012184   -6.1736345   -6.1736345   -4.9707953   0.24564131   -6.1736345    1.2028392   520346 
  560000    1.3044037   -6.1776207   -6.1776207   -4.9718371   0.25934213   -6.1776207    1.2057836   520346 
  561000    1.3021444   -6.1772753   -6.1772753   -4.9735801   0.21175983   -6.1772753    1.2036952   520346 
  562000    1.3009145   -6.1770608   -6.1770608   -4.9745026   0.23276679   -6.1770608    1.2025582   520346 
  563000    1.2990913   -6.1766086   -6.1766086   -4.9757357   0.24247764   -6.1766086    1.2008729   520346 
  564000    1.3017225   -6.1806239   -6.1806239   -4.9773187   0.24223997   -6.1806239    1.2033052   520346 
  565000    1.3004362   -6.1810879   -6.1810879   -4.9789718   0.21821205   -6.1810879    1.2021161   520346 
  566000    1.2992492   -6.1811937   -6.1811937   -4.9801749   0.22986755   -6.1811937    1.2010188   520346 
  567000    1.3012505   -6.1840964   -6.1840964   -4.9812276   0.24545482   -6.1840964    1.2028688   520346 
  568000    1.3013105   -6.1842325   -6.1842325   -4.9813081   0.23232188   -6.1842325    1.2029244   520346 
  569000    1.2985603   -6.1832906   -6.1832906   -4.9829086   0.23903873   -6.1832906     1.200382   520346 
  570000    1.2988763   -6.1853049   -6.1853049   -4.9846307   0.25650008   -6.1853049    1.2006742   520346 
  571000    1.2991441   -6.1865731   -6.1865731   -4.9856514   0.24139431   -6.1865731    1.2009217   520346 
  572000    1.2980158   -6.1873659   -6.1873659   -4.9874872   0.20393755   -6.1873659    1.1998787   520346 
  573000    1.2982036   -6.1882823   -6.1882823   -4.9882301   0.21455636   -6.1882823    1.2000523   520346 
  574000    1.2962939   -6.1875223   -6.1875223   -4.9892353   0.22820596   -6.1875223     1.198287   520346 
  575000    1.2972835   -6.1897643   -6.1897643   -4.9905625   0.21108877   -6.1897643    1.1992018   520346 
  576000    1.2952636   -6.1893919   -6.1893919   -4.9920573    0.2158773   -6.1893919    1.1973346   520346 
  577000     1.295081    -6.190484    -6.190484   -4.9933182   0.21983447    -6.190484    1.1971658   520346 
  578000    1.2939168   -6.1908652   -6.1908652   -4.9947755   0.21721172   -6.1908652    1.1960896   520346 
  579000    1.2897653   -6.1894077   -6.1894077   -4.9971556   0.21998189   -6.1894077     1.192252   520346 
  580000    1.2959244   -6.1958338   -6.1958338   -4.9978883   0.21221707   -6.1958338    1.1979454   520346 
  581000     1.293556   -6.1940013   -6.1940013   -4.9982452   0.22498105   -6.1940013    1.1957561   520346 
  582000     1.291039   -6.1938695   -6.1938695   -5.0004401   0.22995165   -6.1938695    1.1934294   520346 
  583000    1.2920758   -6.1972279   -6.1972279   -5.0028401   0.20737777   -6.1972279    1.1943878   520346 
  584000    1.2897015   -6.1951536   -6.1951536   -5.0029606    0.2341785   -6.1951536    1.1921931   520346 
  585000    1.2918578   -6.1985767   -6.1985767   -5.0043904   0.24176962   -6.1985767    1.1941863   520346 
  586000    1.2896467   -6.1976479   -6.1976479   -5.0055055   0.22176784   -6.1976479    1.1921424   520346 
  587000    1.2894029   -6.1983841   -6.1983841   -5.0064671   0.25194981   -6.1983841     1.191917   520346 
  588000    1.2897847    -6.200758    -6.200758   -5.0084881   0.25296234    -6.200758    1.1922699   520346 
  589000    1.2861857   -6.1987263   -6.1987263   -5.0097832   0.24938467   -6.1987263     1.188943   520346 
  590000    1.2888906   -6.2028737   -6.2028737   -5.0114303   0.22477109   -6.2028737    1.1914434   520346 
  591000    1.2863099   -6.2018837   -6.2018837   -5.0128259   0.22200857   -6.2018837    1.1890578   520346 
  592000    1.2890468   -6.2059667   -6.2059667   -5.0143788   0.24508878   -6.2059667    1.1915878   520346 
  593000    1.2871459   -6.2047202   -6.2047202   -5.0148895   0.20699238   -6.2047202    1.1898307   520346 
  594000    1.2848265   -6.2036039   -6.2036039   -5.0159173   0.21326206   -6.2036039    1.1876866   520346 
  595000     1.285239   -6.2046249   -6.2046249    -5.016557   0.19756435   -6.2046249    1.1880679   520346 
  596000    1.2883046   -6.2074137   -6.2074137    -5.016512    0.2255357   -6.2074137    1.1909017   520346 
  597000    1.2831306   -6.2047576   -6.2047576   -5.0186387   0.21341369   -6.2047576    1.1861189   520346 
  598000    1.2862741   -6.2082684   -6.2082684   -5.0192436   0.19153707   -6.2082684    1.1890248   520346 
  599000    1.2852939   -6.2091028   -6.2091028   -5.0209842   0.21554167   -6.2091028    1.1881186   520346 
  600000    1.2847531   -6.2099422   -6.2099422   -5.0223235   0.22839795   -6.2099422    1.1876187   520346 
  601000    1.2843997   -6.2100817   -6.2100817   -5.0227897    0.2375189   -6.2100817     1.187292   520346 
  602000    1.2853993   -6.2125597   -6.2125597   -5.0243436   0.22129227   -6.2125597    1.1882161   520346 
  603000    1.2876541   -6.2166977   -6.2166977   -5.0263973   0.19975914   -6.2166977    1.1903004   520346 
  604000    1.2831481   -6.2127121   -6.2127121    -5.026577   0.21552891   -6.2127121    1.1861351   520346 
  605000    1.2813879   -6.2128798   -6.2128798   -5.0283718   0.23194851   -6.2128798    1.1845079   520346 
  606000    1.2826235   -6.2151298   -6.2151298   -5.0294796   0.22182665   -6.2151298    1.1856501   520346 
  607000    1.2799375   -6.2144597   -6.2144597   -5.0312925   0.25145873   -6.2144597    1.1831672   520346 
  608000    1.2792139   -6.2132763   -6.2132763    -5.030778   0.20228451   -6.2132763    1.1824984   520346 
  609000    1.2795534   -6.2143725   -6.2143725   -5.0315603   0.18572907   -6.2143725    1.1828122   520346 
  610000    1.2753331   -6.2122146   -6.2122146   -5.0333036   0.21247452   -6.2122146     1.178911   520346 
  611000    1.2765318   -6.2155487   -6.2155487   -5.0355297   0.18792768   -6.2155487     1.180019   520346 
  612000    1.2760672   -6.2158696   -6.2158696   -5.0362801   0.17613061   -6.2158696    1.1795895   520346 
  613000    1.2804984   -6.2213561   -6.2213561   -5.0376704   0.21908593   -6.2213561    1.1836857   520346 
  614000    1.2781914   -6.2180964   -6.2180964   -5.0365433   0.22392205   -6.2180964    1.1815532   520346 
  615000     1.276922   -6.2196005   -6.2196005   -5.0392208   0.20968593   -6.2196005    1.1803797   520346 
  616000     1.275163   -6.2194561   -6.2194561   -5.0407024   0.21380393   -6.2194561    1.1787537   520346 
  617000    1.2763726   -6.2210826   -6.2210826   -5.0412108   0.21301953   -6.2210826    1.1798719   520346 
  618000     1.275323   -6.2212159   -6.2212159   -5.0423143   0.20413302   -6.2212159    1.1789016   520346 
  619000    1.2759691    -6.222136    -6.222136   -5.0426371   0.22804493    -6.222136    1.1794989   520346 
  620000    1.2751682   -6.2238755   -6.2238755    -5.045117   0.20450676   -6.2238755    1.1787585   520346 
  621000    1.2751201   -6.2241896   -6.2241896   -5.0454756   0.19614297   -6.2241896     1.178714   520346 
  622000    1.2741567   -6.2248209   -6.2248209   -5.0469975   0.21761586   -6.2248209    1.1778235   520346 
  623000    1.2740624   -6.2256876   -6.2256876   -5.0479513    0.2137299   -6.2256876    1.1777363   520346 
  624000    1.2745375   -6.2269478   -6.2269478   -5.0487723    0.1875985   -6.2269478    1.1781755   520346 
  625000    1.2721741   -6.2264088   -6.2264088   -5.0504181   0.20759675   -6.2264088    1.1759908   520346 
  626000    1.2725963   -6.2286446   -6.2286446   -5.0522635   0.21608464   -6.2286446    1.1763811   520346 
  627000    1.2704539   -6.2275357   -6.2275357   -5.0531351   0.20072359   -6.2275357    1.1744007   520346 
  628000    1.2705454   -6.2284444   -6.2284444   -5.0539592   0.21066773   -6.2284444    1.1744852   520346 
  629000    1.2691459   -6.2298805   -6.2298805    -5.056689   0.18963705   -6.2298805    1.1731915   520346 
  630000    1.2716277   -6.2323691   -6.2323691   -5.0568835   0.22697732   -6.2323691    1.1754857   520346 
  631000    1.2701606   -6.2326348   -6.2326348   -5.0585053   0.21968009   -6.2326348    1.1741295   520346 
  632000    1.2689274   -6.2321339   -6.2321339   -5.0591443   0.21827123   -6.2321339    1.1729896   520346 
  633000    1.2686545    -6.233556    -6.233556   -5.0608187   0.19789992    -6.233556    1.1727373   520346 
  634000    1.2664254   -6.2328495   -6.2328495   -5.0621728   0.20497406   -6.2328495    1.1706767   520346 
  635000    1.2682062   -6.2355216   -6.2355216   -5.0631987   0.21390444   -6.2355216    1.1723229   520346 
  636000    1.2650847   -6.2332827   -6.2332827   -5.0638453   0.23074389   -6.2332827    1.1694374   520346 
  637000    1.2647349   -6.2341151   -6.2341151    -5.065001   0.22737408   -6.2341151    1.1691141   520346 
  638000     1.265171   -6.2359006   -6.2359006   -5.0663834   0.18743762   -6.2359006    1.1695172   520346 
  639000     1.264412   -6.2366594   -6.2366594   -5.0678438    0.2018875   -6.2366594    1.1688156   520346 
  640000    1.2636896   -6.2370318   -6.2370318    -5.068884   0.22023838   -6.2370318    1.1681477   520346 
  641000    1.2651044   -6.2395989   -6.2395989   -5.0701433    0.1884959   -6.2395989    1.1694556   520346 
  642000    1.2663035   -6.2405195   -6.2405195   -5.0699554   0.19197081   -6.2405195    1.1705641   520346 
  643000    1.2665252   -6.2419542   -6.2419542   -5.0711852   0.20199522   -6.2419542     1.170769   520346 
  644000    1.2639357   -6.2406969   -6.2406969   -5.0723217   0.22851673   -6.2406969    1.1683752   520346 
  645000    1.2643225   -6.2435061   -6.2435061   -5.0747733   0.20529257   -6.2435061    1.1687328   520346 
  646000    1.2633412   -6.2437099   -6.2437099   -5.0758842   0.18447408   -6.2437099    1.1678257   520346 
  647000    1.2599143   -6.2413652   -6.2413652   -5.0767072   0.20567982   -6.2413652    1.1646579   520346 
  648000    1.2607354    -6.243492    -6.243492    -5.078075   0.19833095    -6.243492    1.1654169   520346 
[...]
 3832000    1.0133072   -6.8704445   -6.8704445   -5.9337488  0.073643164   -6.8704445   0.93669563   520346 
 3833000    1.0146428   -6.8723686   -6.8723686   -5.9344384  0.056612578   -6.8723686   0.93793023   520346 
 3834000    1.0157191    -6.874236    -6.874236   -5.9353108  0.060196906    -6.874236    0.9389252   520346 
 3835000    1.0157428   -6.8751078   -6.8751078   -5.9361607  0.027369344   -6.8751078   0.93894706   520346 
 3836000    1.0148377    -6.873871    -6.873871   -5.9357606  0.052255248    -6.873871   0.93811044   520346 
 3837000    1.0141144   -6.8724599   -6.8724599   -5.9350181   0.04917903   -6.8724599   0.93744183   520346 
 3838000    1.0141883   -6.8726663   -6.8726663   -5.9351561  0.078894936   -6.8726663   0.93751017   520346 
 3839000    1.0150088   -6.8732812   -6.8732812   -5.9350126  0.056064488   -6.8732812   0.93826858   520346 
 3840000     1.014884   -6.8742522   -6.8742522   -5.9360989  0.037720154   -6.8742522   0.93815326   520346 
 3841000    1.0144662   -6.8728919   -6.8728919   -5.9351248  0.069763922   -6.8728919   0.93776704   520346 
 3842000    1.0151396   -6.8733897   -6.8733897   -5.9350002  0.064594268   -6.8733897   0.93838953   520346 
 3843000       1.0141   -6.8720307   -6.8720307   -5.9346022  0.069622949   -6.8720307   0.93742852   520346 
 3844000    1.0153242   -6.8734547   -6.8734547   -5.9348945  0.060887953   -6.8734547   0.93856015   520346 
 3845000    1.0144585   -6.8733597   -6.8733597   -5.9355998   0.04786756   -6.8733597   0.93775993   520346 
 3846000    1.0136593   -6.8737481   -6.8737481    -5.936727  0.038147772   -6.8737481   0.93702116   520346 
 3847000    1.0134529   -6.8732358   -6.8732358   -5.9364055  0.063371343   -6.8732358   0.93683033   520346 
 3848000    1.0149983     -6.87485     -6.87485   -5.9365911  0.055923695     -6.87485    0.9382589   520346 
 3849000     1.015322   -6.8747404   -6.8747404   -5.9361824  0.061861855   -6.8747404   0.93855809   520346 
 3850000    1.0137139   -6.8734197   -6.8734197   -5.9363481  0.066940605   -6.8734197   0.93707156   520346 
 3851000    1.0142539    -6.874498    -6.874498   -5.9369272  0.057006744    -6.874498    0.9375708   520346 
 3852000    1.0170533   -6.8769118   -6.8769118   -5.9367533  0.064501005   -6.8769118   0.94015849   520346 
 3853000     1.014736   -6.8751539   -6.8751539   -5.9371375  0.048495121   -6.8751539    0.9380164   520346 
 3854000      1.01378   -6.8738047   -6.8738047   -5.9366719  0.070695219   -6.8738047   0.93713271   520346 
 3855000    1.0135099   -6.8735576   -6.8735576   -5.9366746  0.061439142   -6.8735576   0.93688299   520346 
 3856000    1.0137233   -6.8737898   -6.8737898   -5.9367095  0.068776398   -6.8737898    0.9370803   520346 
 3857000    1.0127303   -6.8725202   -6.8725202   -5.9363579  0.058356264   -6.8725202   0.93616234   520346 
 3858000    1.0157157   -6.8742688   -6.8742688   -5.9353468  0.043994756   -6.8742688   0.93892204   520346 
 3859000    1.0122878    -6.871803    -6.871803   -5.9360497  0.098306194    -6.871803    0.9357533   520346 
 3860000    1.0138623   -6.8732869   -6.8732869   -5.9360781  0.077490383   -6.8732869   0.93720881   520346 
 3861000    1.0158419   -6.8746443   -6.8746443   -5.9356056  0.075452858   -6.8746443   0.93903871   520346 
 3862000    1.0158794   -6.8746813   -6.8746813   -5.9356079  0.074742247   -6.8746813    0.9390734   520346 
 3863000    1.0128574   -6.8718889   -6.8718889   -5.9356091  0.018672728   -6.8718889   0.93627981   520346 
 3864000    1.0132462    -6.871367    -6.871367   -5.9347278  0.047749766    -6.871367   0.93663925   520346 
 3865000     1.013481   -6.8711631   -6.8711631   -5.9343068  0.044594268   -6.8711631   0.93685633   520346 
 3866000    1.0161098   -6.8735832   -6.8735832   -5.9342968  0.046892888   -6.8735832   0.93928634   520346 
 3867000    1.0159841   -6.8741241   -6.8741241   -5.9349539  0.045429876   -6.8741241   0.93917016   520346 
 3868000    1.0179408   -6.8764119   -6.8764119    -5.935433  0.063546593   -6.8764119   0.94097895   520346 
 3869000    1.0149012   -6.8743556   -6.8743556   -5.9361864  0.047684523   -6.8743556   0.93816916   520346 
 3870000    1.0157167   -6.8757335   -6.8757335   -5.9368105  0.066870944   -6.8757335   0.93892299   520346 
 3871000    1.0162906   -6.8757939   -6.8757939   -5.9363404  0.063777436   -6.8757939   0.93945344   520346 
 3872000    1.0145399   -6.8746855   -6.8746855   -5.9368503   0.03820684   -6.8746855   0.93783517   520346 
 3873000    1.0136434   -6.8730117   -6.8730117   -5.9360053  0.060734167   -6.8730117   0.93700642   520346 
 3874000    1.0142357   -6.8734477   -6.8734477   -5.9358937  0.056055455   -6.8734477   0.93755397   520346 
 3875000    1.0150101    -6.874052    -6.874052   -5.9357821  0.067307863    -6.874052   0.93826983   520346 
 3876000    1.0161368   -6.8752692   -6.8752692   -5.9359579  0.052474265   -6.8752692    0.9393113   520346 
 3877000    1.0168521   -6.8761261   -6.8761261   -5.9361535  0.059561711   -6.8761261   0.93997256   520346 
 3878000    1.0156454   -6.8743159   -6.8743159   -5.9354588  0.063766034   -6.8743159   0.93885709   520346 
 3879000    1.0143768   -6.8733892   -6.8733892   -5.9357049   0.07714957   -6.8733892   0.93768435   520346 
 3880000    1.0127535   -6.8711717   -6.8711717   -5.9349879  0.047186182   -6.8711717   0.93618379   520346 
 3881000     1.014869   -6.8729271   -6.8729271   -5.9347878  0.025425319   -6.8729271   0.93813938   520346 
 3882000    1.0160811   -6.8735837   -6.8735837   -5.9343239  0.065517629   -6.8735837   0.93925982   520346 
 3883000    1.0155209   -6.8733595   -6.8733595   -5.9346175  0.033911106   -6.8733595   0.93874193   520346 
 3884000    1.0168323   -6.8745059   -6.8745059   -5.9345517  0.063734896   -6.8745059   0.93995419   520346 
 3885000    1.0139521   -6.8728669   -6.8728669   -5.9355751  0.047968926   -6.8728669   0.93729176   520346 
 3886000    1.0145664    -6.873722    -6.873722   -5.9358624  0.061584809    -6.873722   0.93785962   520346 
 3887000    1.0133564   -6.8732286   -6.8732286   -5.9364875  0.045582461   -6.8732286   0.93674112   520346 
 3888000    1.0157709   -6.8751886   -6.8751886   -5.9362155  0.041241996   -6.8751886    0.9389731   520346 
 3889000    1.0148849   -6.8744934   -6.8744934   -5.9363393  0.041949685   -6.8744934   0.93815407   520346 
 3890000    1.0141938   -6.8736661   -6.8736661   -5.9361509  0.061928799   -6.8736661   0.93751525   520346 
 3891000    1.0146659   -6.8731658   -6.8731658   -5.9352142   0.08356986   -6.8731658    0.9379516   520346 
 3892000    1.0137819   -6.8729425   -6.8729425   -5.9358081  0.063800818   -6.8729425   0.93713443   520346 
 3893000    1.0149538   -6.8747619   -6.8747619   -5.9365442  0.055822195   -6.8747619   0.93821771   520346 
 3894000    1.0143736   -6.8750159   -6.8750159   -5.9373345  0.058782693   -6.8750159   0.93768142   520346 
 3895000    1.0129941    -6.874821    -6.874821   -5.9384148  0.087542949    -6.874821   0.93640619   520346 
 3896000    1.0141945   -6.8757992   -6.8757992   -5.9382833  0.051964524   -6.8757992   0.93751587   520346 
 3897000    1.0172455    -6.878071    -6.878071   -5.9377348  0.047982668    -6.878071   0.94033622   520346 
 3898000    1.0149777   -6.8757907   -6.8757907   -5.9375509   0.07559046   -6.8757907   0.93823983   520346 
 3899000    1.0150686   -6.8756076   -6.8756076   -5.9372837  0.047253045   -6.8756076   0.93832384   520346 
 3900000     1.013917   -6.8740043   -6.8740043    -5.936745  0.045299454   -6.8740043   0.93725933   520346 
 3901000    1.0142374   -6.8742098   -6.8742098   -5.9366543  0.092689903   -6.8742098   0.93755553   520346 
 3902000    1.0154896   -6.8750651   -6.8750651    -5.936352  0.068286283   -6.8750651   0.93871307   520346 
 3903000    1.0138345   -6.8739732   -6.8739732   -5.9367901  0.034882787   -6.8739732   0.93718312   520346 
 3904000    1.0145318   -6.8745022   -6.8745022   -5.9366745   0.03667362   -6.8745022   0.93782764   520346 
 3905000    1.0140431   -6.8738429   -6.8738429    -5.936467  0.048291272   -6.8738429   0.93737589   520346 
 3906000    1.0133866   -6.8729182   -6.8729182   -5.9361492  0.072896779   -6.8729182   0.93676902   520346 
 3907000    1.0134455   -6.8728211   -6.8728211   -5.9359976  0.079745801   -6.8728211   0.93682348   520346 
 3908000    1.0155562   -6.8748696   -6.8748696    -5.936095  0.063241585   -6.8748696   0.93877462   520346 
 3909000    1.0160539   -6.8759533   -6.8759533   -5.9367186  0.068026493   -6.8759533   0.93923471   520346 
 3910000     1.012579   -6.8731529   -6.8731529   -5.9371304  0.049571082   -6.8731529   0.93602247   520346 
 3911000    1.0146272   -6.8753105   -6.8753105   -5.9373947  0.042192317   -6.8753105   0.93791583   520346 
 3912000    1.0175443   -6.8774113   -6.8774113   -5.9367989  0.062856426   -6.8774113   0.94061235   520346 
 3913000    1.0159088    -6.876652    -6.876652   -5.9375515  0.053760592    -6.876652   0.93910052   520346 
 3914000     1.014551   -6.8761568   -6.8761568   -5.9383114  0.087242771   -6.8761568    0.9378454   520346 
 3915000    1.0135316   -6.8761058   -6.8761058   -5.9392027  0.070271642   -6.8761058   0.93690309   520346 
 3916000    1.0132163   -6.8757884   -6.8757884   -5.9391767  0.040890765   -6.8757884   0.93661162   520346 
 3917000    1.0132983   -6.8752124   -6.8752124    -5.938525  0.050487367   -6.8752124   0.93668738   520346 
 3918000     1.013192   -6.8747678   -6.8747678   -5.9381786  0.062030348   -6.8747678   0.93658916   520346 
 3919000    1.0126235   -6.8742957   -6.8742957   -5.9382321  0.066601908   -6.8742957    0.9360636   520346 
 3920000    1.0157779   -6.8771933   -6.8771933   -5.9382138  0.041211613   -6.8771933    0.9389795   520346 
 3921000    1.0146224   -6.8758504   -6.8758504    -5.937939  0.074537611   -6.8758504   0.93791139   520346 
 3922000    1.0126478   -6.8741287   -6.8741287   -5.9380427  0.037045316   -6.8741287   0.93608606   520346 
 3923000    1.0136928   -6.8745542   -6.8745542   -5.9375022  0.042789288   -6.8745542   0.93705208   520346 
 3924000    1.0154484   -6.8758929   -6.8758929   -5.9372179  0.057974925   -6.8758929   0.93867499   520346 
 3925000    1.0144284   -6.8747576   -6.8747576   -5.9370256  0.037911875   -6.8747576   0.93773205   520346 
 3926000    1.0143586   -6.8748912   -6.8748912   -5.9372236  0.064755486   -6.8748912   0.93766756   520346 
 3927000    1.0129212   -6.8739559   -6.8739559    -5.937617  0.061078437   -6.8739559   0.93633886   520346 
 3928000     1.013843   -6.8747964   -6.8747964   -5.9376054  0.054729189   -6.8747964   0.93719094   520346 
 3929000    1.0170004   -6.8777071   -6.8777071   -5.9375975  0.062366381   -6.8777071   0.94010962   520346 
 3930000    1.0147775   -6.8756564   -6.8756564   -5.9376016  0.066562212   -6.8756564   0.93805479   520346 
 3931000    1.0147748   -6.8754582   -6.8754582   -5.9374059  0.049640458   -6.8754582   0.93805226   520346 
 3932000     1.014347   -6.8747484   -6.8747484   -5.9370916  0.068433154   -6.8747484   0.93765679   520346 
 3933000    1.0150607   -6.8761279   -6.8761279   -5.9378114  0.049141757   -6.8761279   0.93831653   520346 
 3934000    1.0162372   -6.8765151   -6.8765151    -5.937111  0.037241248   -6.8765151   0.93940415   520346 
 3935000    1.0131634   -6.8744368   -6.8744368    -5.937874  0.056231334   -6.8744368   0.93656273   520346 
 3936000    1.0136095    -6.874355    -6.874355   -5.9373799  0.054523177    -6.874355   0.93697508   520346 
 3937000    1.0147925   -6.8759522   -6.8759522   -5.9378836  0.066886092   -6.8759522   0.93806864   520346 
 3938000     1.013885   -6.8754047   -6.8754047   -5.9381749  0.065538486   -6.8754047    0.9372298   520346 
 3939000    1.0137213   -6.8755108   -6.8755108   -5.9384323  0.052759972   -6.8755108   0.93707844   520346 
 3940000    1.0146742   -6.8769769   -6.8769769   -5.9390176  0.056145671   -6.8769769   0.93795933   520346 
 3941000     1.014412   -6.8762906   -6.8762906   -5.9385737   0.06620889   -6.8762906   0.93771692   520346 
 3942000    1.0154974   -6.8775497   -6.8775497   -5.9388294  0.063752081   -6.8775497   0.93872029   520346 
 3943000    1.0137632   -6.8762026   -6.8762026   -5.9390854   0.07091907   -6.8762026   0.93711719   520346 
 3944000    1.0141898   -6.8764802   -6.8764802   -5.9389687  0.073171784   -6.8764802   0.93751152   520346 
 3945000    1.0139008   -6.8767805   -6.8767805   -5.9395361  0.077432732   -6.8767805   0.93724439   520346 
 3946000    1.0139814   -6.8766379   -6.8766379    -5.939319   0.02935294   -6.8766379    0.9373189   520346 
 3947000    1.0130171   -6.8766416   -6.8766416   -5.9402141  0.046340689   -6.8766416   0.93642749   520346 
 3948000    1.0162091   -6.8781234   -6.8781234   -5.9387452  0.050009333   -6.8781234   0.93937816   520346 
 3949000    1.0146814   -6.8764641   -6.8764641   -5.9384982  0.046686079   -6.8764641   0.93796594   520346 
 3950000    1.0147575   -6.8770321   -6.8770321   -5.9389957  0.054452945   -6.8770321   0.93803633   520346 
 3951000    1.0145321   -6.8766181   -6.8766181   -5.9387902  0.057528452   -6.8766181   0.93782791   520346 
 3952000    1.0129358   -6.8759871   -6.8759871   -5.9396349  0.071168699   -6.8759871   0.93635228   520346 
 3953000    1.0151688   -6.8781542   -6.8781542   -5.9397377  0.089602704   -6.8781542   0.93841653   520346 
 3954000    1.0163912    -6.878771    -6.878771   -5.9392245  0.061295084    -6.878771   0.93954644   520346 
 3955000    1.0164341   -6.8795264   -6.8795264   -5.9399402  0.043692898   -6.8795264   0.93958617   520346 
 3956000    1.0149397   -6.8786813   -6.8786813   -5.9404766  0.046749007   -6.8786813    0.9382047   520346 
 3957000    1.0155553   -6.8791868   -6.8791868   -5.9404131  0.034841622   -6.8791868   0.93877375   520346 
 3958000    1.0156166   -6.8789695   -6.8789695   -5.9401391  0.041897519   -6.8789695    0.9388304   520346 
 3959000    1.0150342   -6.8777767   -6.8777767   -5.9394847  0.068813524   -6.8777767   0.93829204   520346 
 3960000    1.0153091   -6.8780125   -6.8780125   -5.9394663  0.050186185   -6.8780125   0.93854617   520346 
 3961000    1.0151978   -6.8768574   -6.8768574   -5.9384141  0.062247386   -6.8768574   0.93844329   520346 
 3962000    1.0147953   -6.8761152   -6.8761152   -5.9380439  0.075544862   -6.8761152   0.93807127   520346 
 3963000    1.0171161    -6.878233    -6.878233   -5.9380164  0.063461456    -6.878233   0.94021653   520346 
 3964000    1.0149336   -6.8758597   -6.8758597   -5.9376606   0.05522047   -6.8758597   0.93819905   520346 
 3965000    1.0170924   -6.8782879   -6.8782879   -5.9380933  0.087611908   -6.8782879   0.94019462   520346 
 3966000    1.0155024   -6.8761867   -6.8761867   -5.9374619  0.052133844   -6.8761867   0.93872486   520346 
 3967000    1.0154662   -6.8760089   -6.8760089   -5.9373175  0.036677033   -6.8760089    0.9386914   520346 
 3968000    1.0151794     -6.87683     -6.87683   -5.9384037  0.030418428     -6.87683   0.93842626   520346 
 3969000      1.01558   -6.8770956   -6.8770956    -5.938299  0.043969303   -6.8770956   0.93879656   520346 
 3970000    1.0153808   -6.8760694   -6.8760694    -5.937457  0.065664715   -6.8760694   0.93861244   520346 
 3971000    1.0160442   -6.8769231   -6.8769231   -5.9376974  0.047748938   -6.8769231   0.93922575   520346 
 3972000    1.0144356   -6.8755843   -6.8755843   -5.9378456  0.037408248   -6.8755843   0.93773872   520346 
 3973000    1.0119543    -6.874037    -6.874037   -5.9385919   0.07554647    -6.874037   0.93544506   520346 
 3974000    1.0163333   -6.8782129   -6.8782129     -5.93872  0.038224755   -6.8782129   0.93949293   520346 
 3975000    1.0153096   -6.8777065   -6.8777065   -5.9391598  0.076029803   -6.8777065   0.93854669   520346 
 3976000    1.0136986   -6.8761741   -6.8761741   -5.9391167  0.067234753   -6.8761741   0.93705741   520346 
 3977000     1.014868   -6.8776855   -6.8776855   -5.9395471   0.05137048   -6.8776855   0.93813841   520346 
 3978000    1.0151881   -6.8765732   -6.8765732   -5.9381389  0.037946385   -6.8765732   0.93843433   520346 
 3979000    1.0156037   -6.8775504   -6.8775504   -5.9387318  0.039934161   -6.8775504   0.93881855   520346 
 3980000    1.0137709   -6.8763021   -6.8763021   -5.9391779    0.0482726   -6.8763021   0.93712427   520346 
 3981000     1.016876   -6.8788329   -6.8788329   -5.9388383  0.053134197   -6.8788329   0.93999464   520346 
 3982000    1.0161322   -6.8785208   -6.8785208   -5.9392137  0.044641247   -6.8785208   0.93930704   520346 
 3983000    1.0135826   -6.8765709   -6.8765709   -5.9396207  0.060560155   -6.8765709   0.93695021   520346 
 3984000    1.0149212     -6.87718     -6.87718   -5.9389924   0.06065968     -6.87718    0.9381876   520346 
 3985000    1.0148932   -6.8773248   -6.8773248   -5.9391631   0.04175327   -6.8773248   0.93816172   520346 
 3986000     1.015208   -6.8781495   -6.8781495   -5.9396967  0.064497796   -6.8781495   0.93845272   520346 
 3987000    1.0124073     -6.87509     -6.87509   -5.9392262  0.026983044     -6.87509   0.93586382   520346 
 3988000    1.0142795   -6.8766879   -6.8766879   -5.9390935  0.055617105   -6.8766879    0.9375944   520346 
 3989000    1.0159659   -6.8787604   -6.8787604   -5.9396071  0.070274626   -6.8787604   0.93915333   520346 
 3990000    1.0155413   -6.8793865   -6.8793865   -5.9406256  0.051246136   -6.8793865   0.93876087   520346 
 3991000    1.0141006   -6.8782035   -6.8782035   -5.9407744   0.08050721   -6.8782035    0.9374291   520346 
 3992000    1.0151724   -6.8793161   -6.8793161   -5.9408963  0.045689537   -6.8793161   0.93841979   520346 
 3993000    1.0151794   -6.8798693   -6.8798693   -5.9414431  0.059083634   -6.8798693   0.93842627   520346 
 3994000    1.0132961   -6.8773984   -6.8773984    -5.940713   0.04355169   -6.8773984   0.93668539   520346 
 3995000    1.0152212   -6.8786759   -6.8786759   -5.9402109  0.057560705   -6.8786759   0.93846493   520346 
 3996000    1.0125712   -6.8760359   -6.8760359   -5.9400206   0.08561175   -6.8760359   0.93601527   520346 
 3997000    1.0147895   -6.8795137   -6.8795137   -5.9414478   0.06319098   -6.8795137   0.93806589   520346 
 3998000    1.0145062   -6.8798043   -6.8798043   -5.9420003   0.05162067   -6.8798043   0.93780398   520346 
 3999000    1.0147354   -6.8800423   -6.8800423   -5.9420264  0.062681339   -6.8800423    0.9380159   520346 
 4000000    1.0128689   -6.8778798   -6.8778798   -5.9415893  0.060809211   -6.8778798   0.93629045   520346 
Loop time of 12374.7 on 288 procs for 4000000 steps with 520346 atoms

Performance: 139639.441 tau/day, 323.239 timesteps/s
98.6% CPU use with 288 MPI tasks x 1 OpenMP threads

MPI task timing breakdown:
Section |  min time  |  avg time  |  max time  |%varavg|  %CPU | %total
-----------------------------------------------------------------------
Pair    | 411.22     | 2248.5     | 3361.1     |1263.3 |  98.7 | 18.17
Bond    | 2.6539     | 2.8082     | 2.9862     |   4.0 | 100.0 |  0.02
Neigh   | 705.88     | 3431.7     | 5202.3     |1586.9 |  99.6 | 27.73
Comm    | 2238.1     | 4494.6     | 9367.6     |2262.9 |  98.3 | 36.32
Output  | 190.67     | 199.22     | 210.34     |  44.4 |  97.1 |  1.61
Modify  | 924.94     | 1891.8     | 3500.2     |1090.7 |  98.5 | 15.29
Other   |            | 106.2      |            |       |       |  0.86

Nlocal:        1806.76 ave        3419 max         387 min
Histogram: 3 5 11 28 176 34 27 1 0 3
Nghost:        7408.85 ave       10216 max        1892 min
Histogram: 3 2 8 18 33 24 34 102 58 6
Neighs:        60180.6 ave       91597 max        4399 min
Histogram: 10 10 5 7 15 28 85 93 26 9

Total # of neighbors = 17332019
Ave neighs/atom = 33.308643
Ave special neighs/atom = 0.0000000
Neighbor list builds = 400000
Dangerous builds = 396000

Total wall time: 3:26:19
