LAMMPS (24 Dec 2020)
OMP_NUM_THREADS environment is not set. Defaulting to 1 thread. (src/comm.cpp:94)
  using 1 OpenMP thread(s) per MPI task
# Simple rigid body system
# needed variables:

#variable	startTemp equal 0.5
#variable 	temp 	  equal 0.8

units		lj
atom_style	full
dimension 	3
boundary	p p f
pair_style	lj/smooth/linear 1.5

variable 	sigma		equal 1.0
variable 	epsilon 	equal 1.0

region		box block 0 80 0 80 0 160
create_box 	3 box
Created orthogonal box = (0.0000000 0.0000000 0.0000000) to (80.000000 80.000000 160.00000)
  6 by 4 by 8 MPI processor grid

lattice 	sc 0.66
Lattice spacing in x,y,z = 1.1485556 1.1485556 1.1485556
region		fluid block EDGE EDGE EDGE EDGE 2 100 units box
create_atoms 	1 region fluid
Created 421400 atoms
  create_atoms CPU = 0.177 seconds

#lattice 	sc 0.045
#region		gas block EDGE EDGE EDGE EDGE 101 158 units box
#create_atoms    1 region gas

group		solvent type 1
421400 atoms in group solvent

mass		1 1.0
mass		2 1.0
mass		3 1.0



neighbor 	0.4 bin

pair_coeff	1 1 1.0 1.0
pair_coeff	2 2 0.0 0.0
pair_coeff	3 3 0.0 0.0
pair_coeff	2 3 0.0 0.0
pair_coeff	1 2*3 0.0 0.0

pair_modify 	shift yes

#delete_atoms	overlap 0.5 solvent solvent

velocity 	solvent create ${startTemp} 563435 loop geom
velocity 	solvent create 1.0 563435 loop geom

balance 	1.05 shift z 10 1.05
Balancing ...
Neighbor list info ...
  update every 1 steps, delay 10 steps, check yes
  max neighbors/atom: 2000, page size: 100000
  master list distance cutoff = 1.9
  ghost atom cutoff = 1.9
  binsize = 0.95, bins = 85 85 169
  1 neighbor lists, perpetual/occasional/extra = 1 0 0
  (1) pair lj/smooth/linear, perpetual
      attributes: half, newton on
      pair build: half/bin/newton
      stencil: half/bin/3d/newton
      bin: standard
 rebalancing time: 0.045 seconds
  iteration count = 5
  initial/final maximal load/proc = 3888.0000 2376.0000
  initial/final imbalance factor  = 1.7714665 1.0825629
  x cuts: 0.0000000 0.16666667 0.33333333 0.50000000 0.66666667 0.83333333 1.0000000
  y cuts: 0.0000000 0.25000000 0.50000000 0.75000000 1.0000000
  z cuts: 0.0000000 0.089843750 0.16796875 0.24218750 0.32031250 0.39843750 0.48046875 0.55859375 1.0000000


####################### WALLS ###########################


variable       epsilonWall equal 2*${epsilon}
variable       epsilonWall equal 2*1

variable       cutoffTop   equal   0.7147*${sigma}
variable       cutoffTop   equal   0.7147*1

variable       cutoffLow   equal   3*${sigma}
variable       cutoffLow   equal   3*1


fix            topWall all wall/lj93 zhi EDGE                ${epsilonWall} ${sigma} ${cutoffTop} units box
fix            topWall all wall/lj93 zhi EDGE                2 ${sigma} ${cutoffTop} units box
fix            topWall all wall/lj93 zhi EDGE                2 1 ${cutoffTop} units box
fix            topWall all wall/lj93 zhi EDGE                2 1 0.7147 units box

fix            lowWall all wall/lj93 zlo EDGE                ${epsilonWall} ${sigma} ${cutoffLow} units box
fix            lowWall all wall/lj93 zlo EDGE                2 ${sigma} ${cutoffLow} units box
fix            lowWall all wall/lj93 zlo EDGE                2 1 ${cutoffLow} units box
fix            lowWall all wall/lj93 zlo EDGE                2 1 3 units box


###################### COMPUTES ##########################

compute        bin1 solvent chunk/atom bin/1d z upper 1.0


######################	FIXES ############################


fix 		peclet solvent ave/chunk 10 10 1000 bin1 density/number norm 		 none ave one file density.profile

fix 		 temp solvent ave/chunk 10 10 1000 bin1 temp norm 		 none ave one file temp.profile

fix 		2 solvent nve


## Thermostat


region		regthermo block EDGE EDGE EDGE EDGE EDGE EDGE units box

group 		thermo dynamic solvent region regthermo every 1000
dynamic group thermo defined

fix 		3 thermo langevin ${startTemp} ${temp} 10 156453
fix 		3 thermo langevin 1.0 ${temp} 10 156453
fix 		3 thermo langevin 1.0 0.1 10 156453



#### Load balancing


fix 		bal all balance 1000 1.05 shift z 10 1.05


############### Diagnostics and computes ###################
#compute 	com cube	  rigid/local	1 mol x y z
#compute 	quat cube	  rigid/local	1 mol quatw quati quatj quatk

thermo 		1000
thermo_style 	custom step temp epair evdwl etotal press pe ke atoms

dump		1 all custom 100000 dump.lammpstrj id mol type x y z
dump 		2 all image 10000 image.*.png type type
dump 		3 all movie 1000 movie.avi type type

#dump 		com cube local 1000 dump.*.xyz c_com[*]
#dump		quat cube      local 1000 dump.*.quat c_quat[*]


restart 	1000000 restart.dat
timestep 	0.005
timer 		full
New timer settings: style=full  mode=nosync  timeout=off

run		4000000
Per MPI rank memory allocation (min/avg/max) = 9.959 | 9.999 | 10.10 Mbytes
Step Temp E_pair E_vdwl TotEng Press PotEng KinEng Atoms 
       0            1    2.2548251    2.2548251    3.7548216     5.835313    2.2548251    1.4999964   421400 
    1000    1.5199587   0.02784391   0.02784391    2.3077766    2.5649643   0.02784391    2.2799327   421400 
    2000     1.260992  -0.15093271  -0.15093271    1.7405508    1.7726597  -0.15093271    1.8914835   421400 
    3000    1.1112858  -0.18694739  -0.18694739    1.4799774    1.4769988  -0.18694739    1.6669248   421400 
    4000    1.0467259   -0.2018057   -0.2018057    1.3682794    1.3162197   -0.2018057    1.5700851   421400 
    5000    1.0175954  -0.20522919  -0.20522919    1.3211603    1.2146895  -0.20522919    1.5263895   421400 
    6000    1.0028873  -0.20397529  -0.20397529    1.3003521    1.1439704  -0.20397529    1.5043274   421400 
    7000   0.99758895  -0.19915328  -0.19915328    1.2972266    1.1027355  -0.19915328    1.4963799   421400 
    8000    0.9953048   -0.1933171   -0.1933171    1.2996366    1.0730036   -0.1933171    1.4929537   421400 
    9000   0.99395957  -0.18901637  -0.18901637    1.3019195     1.048358  -0.18901637    1.4909358   421400 
   10000   0.99520099  -0.18296391  -0.18296391     1.309834    1.0380253  -0.18296391    1.4927979   421400 
   11000   0.99700488  -0.18368867  -0.18368867    1.3118151    1.0119916  -0.18368867    1.4955038   421400 
   12000    0.9940794  -0.17896359  -0.17896359     1.312152    1.0051014  -0.17896359    1.4911156   421400 
   13000   0.99653532  -0.17686007  -0.17686007    1.3179394   0.99303411  -0.17686007    1.4947994   421400 
   14000   0.99723521  -0.17561956  -0.17561956    1.3202297   0.98234766  -0.17561956    1.4958493   421400 
   15000   0.99808226  -0.17498625  -0.17498625    1.3221336   0.97393957  -0.17498625    1.4971198   421400 
   16000   0.99691083  -0.17351356  -0.17351356    1.3218491   0.97036569  -0.17351356    1.4953627   421400 
   17000   0.99675151  -0.17336756  -0.17336756    1.3217561   0.96273046  -0.17336756    1.4951237   421400 
   18000   0.99492085  -0.17177843  -0.17177843    1.3205993   0.96129409  -0.17177843    1.4923777   421400 
   19000   0.99433887  -0.17179334  -0.17179334    1.3197114   0.95484176  -0.17179334    1.4915048   421400 
   20000   0.99671011  -0.17128967  -0.17128967    1.3237719    0.9540704  -0.17128967    1.4950616   421400 
   21000   0.99550396  -0.17054669  -0.17054669    1.3227057   0.95166245  -0.17054669    1.4932524   421400 
   22000   0.99402779  -0.17062952  -0.17062952    1.3204086   0.94870284  -0.17062952    1.4910381   421400 
   23000   0.99535778  -0.17083073  -0.17083073    1.3222024   0.94633958  -0.17083073    1.4930331   421400 
   24000   0.99591288  -0.16923248  -0.16923248    1.3246333   0.94825589  -0.16923248    1.4938658   421400 
   25000   0.99623653  -0.17041335  -0.17041335    1.3239379   0.94446541  -0.17041335    1.4943512   421400 
   26000   0.99633538  -0.17105765  -0.17105765    1.3234419   0.94105464  -0.17105765    1.4944995   421400 
   27000   0.99440361  -0.16939071  -0.16939071    1.3222112   0.94125866  -0.16939071    1.4916019   421400 
   28000   0.99389379  -0.17045535  -0.17045535    1.3203818   0.94044669  -0.17045535    1.4908371   421400 
   29000   0.99289019  -0.16940217  -0.16940217    1.3199296   0.93991526  -0.16940217    1.4893318   421400 
   30000   0.99517452  -0.16806006  -0.16806006    1.3246982   0.94486553  -0.16806006    1.4927582   421400 
   31000   0.99463048  -0.16858848  -0.16858848    1.3233537   0.94419714  -0.16858848    1.4919422   421400 
   32000   0.99483136  -0.16752401  -0.16752401    1.3247195    0.9456588  -0.16752401    1.4922435   421400 
   33000   0.99204568  -0.16861291  -0.16861291    1.3194521   0.94128422  -0.16861291     1.488065   421400 
   34000   0.99391682  -0.17006829  -0.17006829    1.3208034   0.93799298  -0.17006829    1.4908717   421400 
   35000   0.99229867  -0.16935699  -0.16935699    1.3190875   0.93873564  -0.16935699    1.4884445   421400 
   36000   0.99191402  -0.17046579  -0.17046579    1.3174017   0.93602657  -0.17046579    1.4878675   421400 
   37000   0.98995988  -0.17002947  -0.17002947    1.3149068   0.93799357  -0.17002947    1.4849363   421400 
   38000   0.99298109  -0.16964528  -0.16964528    1.3198228   0.93858042  -0.16964528    1.4894681   421400 
   39000   0.99070581   -0.1694646   -0.1694646    1.3165906   0.93847028   -0.1694646    1.4860552   421400 
   40000   0.99106349  -0.16953121  -0.16953121    1.3170605   0.93742525  -0.16953121    1.4865917   421400 
   41000   0.99256899  -0.16910717  -0.16910717    1.3197428   0.94059406  -0.16910717    1.4888499   421400 
   42000   0.98974296  -0.16997058  -0.16997058    1.3146403   0.93706546  -0.16997058    1.4846109   421400 
   43000   0.98974861  -0.17017684  -0.17017684    1.3144426   0.93509133  -0.17017684    1.4846194   421400 
   44000   0.98795253  -0.16879372  -0.16879372    1.3131316   0.93670006  -0.16879372    1.4819253   421400 
   45000   0.99178801  -0.16948445  -0.16948445     1.318194   0.93632325  -0.16948445    1.4876785   421400 
   46000   0.99034714  -0.16867791  -0.16867791    1.3168393   0.93972049  -0.16867791    1.4855172   421400 
   47000   0.99252805  -0.17023618  -0.17023618    1.3185524   0.93594498  -0.17023618    1.4887885   421400 
   48000   0.98971105  -0.16931868  -0.16931868    1.3152444   0.93877123  -0.16931868    1.4845631   421400 
   49000   0.98893298  -0.17116971  -0.17116971    1.3122262   0.93205229  -0.17116971    1.4833959   421400 
   50000   0.99078244  -0.17082363  -0.17082363    1.3153465   0.93500894  -0.17082363    1.4861701   421400 
   51000   0.99082527  -0.16960668  -0.16960668    1.3166277   0.93718039  -0.16960668    1.4862344   421400 
   52000   0.98946823  -0.16899373  -0.16899373    1.3152051   0.93896622  -0.16899373    1.4841988   421400 
   53000   0.98969134   -0.1697044   -0.1697044    1.3148291   0.93737498   -0.1697044    1.4845335   421400 
   54000   0.98971029  -0.17117567  -0.17117567    1.3133862   0.93057404  -0.17117567    1.4845619   421400 
   55000   0.98675087  -0.17043199  -0.17043199    1.3096908     0.933297  -0.17043199    1.4801228   421400 
   56000   0.98493077  -0.17000388  -0.17000388    1.3073888   0.93462837  -0.17000388    1.4773926   421400 
   57000   0.98593563  -0.16901632  -0.16901632    1.3098836   0.93659005  -0.16901632    1.4788999   421400 
   58000   0.98615873  -0.17186639  -0.17186639    1.3073682   0.92895508  -0.17186639    1.4792346   421400 
   59000   0.98663683  -0.17082652  -0.17082652    1.3091252   0.93251907  -0.17082652    1.4799517   421400 
   60000   0.98575101  -0.17062684  -0.17062684    1.3079962   0.93145305  -0.17062684     1.478623   421400 
   61000   0.98609082  -0.17125764  -0.17125764    1.3078751   0.93103921  -0.17125764    1.4791327   421400 
   62000    0.9848266  -0.17148108  -0.17148108    1.3057553   0.93094055  -0.17148108    1.4772364   421400 
   63000   0.98351769  -0.17075045  -0.17075045    1.3045226   0.92977419  -0.17075045     1.475273   421400 
   64000     0.985658  -0.16950458  -0.16950458    1.3089789   0.93613254  -0.16950458    1.4784835   421400 
   65000    0.9854297  -0.16991651  -0.16991651    1.3082245   0.93321642  -0.16991651     1.478141   421400 
   66000    0.9855734  -0.17066612  -0.17066612    1.3076905   0.93031745  -0.17066612    1.4783566   421400 
   67000   0.98565866   -0.1717262   -0.1717262    1.3067583    0.9292797   -0.1717262    1.4784845   421400 
   68000   0.98408691  -0.17205009  -0.17205009    1.3040768     0.929581  -0.17205009    1.4761269   421400 
   69000   0.98231756  -0.17177601  -0.17177601    1.3016968   0.92748841  -0.17177601    1.4734728   421400 
   70000   0.98311803  -0.17001679  -0.17001679    1.3046568   0.93476717  -0.17001679    1.4746735   421400 
   71000   0.98295836  -0.17207028  -0.17207028    1.3023638   0.92800835  -0.17207028     1.474434   421400 
   72000   0.98455911  -0.17085381  -0.17085381    1.3059814   0.93231564  -0.17085381    1.4768352   421400 
   73000   0.98269312  -0.17039404  -0.17039404    1.3036421   0.93232208  -0.17039404    1.4740362   421400 
   74000   0.98229354  -0.17063094  -0.17063094    1.3028059   0.92959287  -0.17063094    1.4734368   421400 
   75000   0.98311585  -0.17115589  -0.17115589    1.3035144   0.93045299  -0.17115589    1.4746703   421400 
   76000    0.9846579  -0.17157033  -0.17157033     1.305413    0.9308534  -0.17157033    1.4769833   421400 
   77000   0.98541939  -0.17262847  -0.17262847    1.3054971   0.92575872  -0.17262847    1.4781256   421400 
   78000   0.98310438  -0.17116415  -0.17116415    1.3034889   0.92923588  -0.17116415    1.4746531   421400 
   79000    0.9825536  -0.17164284  -0.17164284    1.3021841   0.92877995  -0.17164284    1.4738269   421400 
   80000   0.98286707  -0.17241398  -0.17241398    1.3018831   0.92811131  -0.17241398    1.4742971   421400 
   81000   0.98325758  -0.17236097  -0.17236097    1.3025219   0.92783039  -0.17236097    1.4748829   421400 
   82000   0.98340975  -0.17122746  -0.17122746    1.3038837   0.93019527  -0.17122746    1.4751111   421400 
   83000   0.98285584  -0.17249576  -0.17249576    1.3017845    0.9263411  -0.17249576    1.4742803   421400 
   84000   0.98036215  -0.17140343  -0.17140343    1.2991363   0.92818078  -0.17140343    1.4705397   421400 
   85000   0.98334329  -0.17206946  -0.17206946     1.302942   0.92658855  -0.17206946    1.4750114   421400 
   86000   0.98210427  -0.17073064  -0.17073064    1.3024223   0.93076245  -0.17073064    1.4731529   421400 
   87000   0.97990989  -0.17165678  -0.17165678    1.2982046   0.92807316  -0.17165678    1.4698614   421400 
   88000   0.97936307  -0.17285723  -0.17285723    1.2961839   0.92314107  -0.17285723    1.4690411   421400 
   89000   0.97813716  -0.17282573  -0.17282573    1.2943765   0.92228398  -0.17282573    1.4672023   421400 
   90000   0.98014881  -0.17289457  -0.17289457    1.2973252   0.92509224  -0.17289457    1.4702197   421400 
   91000   0.98062086  -0.17222903  -0.17222903    1.2986988   0.92646783  -0.17222903    1.4709278   421400 
   92000   0.97857209  -0.17247337  -0.17247337    1.2953813   0.92395649  -0.17247337    1.4678547   421400 
   93000   0.97899873  -0.17231645  -0.17231645    1.2961782    0.9261021  -0.17231645    1.4684946   421400 
   94000   0.97860071  -0.17173235  -0.17173235    1.2961652   0.92665534  -0.17173235    1.4678976   421400 
   95000   0.97893158  -0.17076387  -0.17076387      1.29763   0.92964239  -0.17076387    1.4683939   421400 
   96000   0.97780421  -0.17110259  -0.17110259    1.2956002   0.92798802  -0.17110259    1.4667028   421400 
   97000   0.97793637  -0.17221308  -0.17221308     1.294688   0.92457779  -0.17221308    1.4669011   421400 
   98000    0.9787265  -0.17299371  -0.17299371    1.2950926   0.92268017  -0.17299371    1.4680863   421400 
   99000   0.97969027  -0.17326603  -0.17326603    1.2962659   0.92237777  -0.17326603    1.4695319   421400 
  100000   0.97775481  -0.17248089  -0.17248089    1.2941479   0.92499817  -0.17248089    1.4666287   421400 
  101000   0.97619984  -0.17206616  -0.17206616    1.2922301   0.92526709  -0.17206616    1.4642963   421400 
  102000   0.97664842  -0.17293309  -0.17293309    1.2920361   0.92272904  -0.17293309    1.4649692   421400 
  103000   0.97668122  -0.17384909  -0.17384909    1.2911693   0.91978052  -0.17384909    1.4650184   421400 
  104000   0.97504668  -0.17408412  -0.17408412    1.2884824   0.91781458  -0.17408412    1.4625665   421400 
  105000    0.9761711  -0.17365947  -0.17365947    1.2905937   0.91991321  -0.17365947    1.4642532   421400 
  106000   0.97769753  -0.17310172  -0.17310172    1.2934411   0.92111086  -0.17310172    1.4665428   421400 
  107000   0.97492871  -0.17364358  -0.17364358     1.288746   0.92077151  -0.17364358    1.4623896   421400 
  108000   0.97454842  -0.17350805  -0.17350805    1.2883111   0.92035305  -0.17350805    1.4618192   421400 
  109000   0.97460215   -0.1720717   -0.1720717     1.289828   0.92315175   -0.1720717    1.4618997   421400 
  110000   0.97592475   -0.1732366   -0.1732366     1.290647   0.92249876   -0.1732366    1.4638836   421400 
  111000   0.97655429  -0.17342255  -0.17342255    1.2914054   0.91993393  -0.17342255     1.464828   421400 
  112000   0.97613137   -0.1725508   -0.1725508    1.2916428   0.92363416   -0.1725508    1.4641936   421400 
  113000   0.97422478  -0.17392226  -0.17392226    1.2874114   0.91860675  -0.17392226    1.4613337   421400 
  114000   0.97604085  -0.17286235  -0.17286235    1.2911955   0.92147696  -0.17286235    1.4640578   421400 
  115000   0.97475801  -0.17346816  -0.17346816    1.2886654   0.92012067  -0.17346816    1.4621335   421400 
  116000    0.9744876  -0.17423572  -0.17423572    1.2874922   0.91882147  -0.17423572    1.4617279   421400 
  117000   0.97279949  -0.17332237  -0.17332237    1.2858734   0.91978021  -0.17332237    1.4591958   421400 
  118000   0.97624309  -0.17386794  -0.17386794    1.2904932   0.92020229  -0.17386794    1.4643612   421400 
  119000     0.975304  -0.17338764  -0.17338764    1.2895649   0.92053729  -0.17338764    1.4629525   421400 
  120000   0.97433299  -0.17306681  -0.17306681    1.2884292   0.91978531  -0.17306681     1.461496   421400 
  121000   0.97454519  -0.17447196  -0.17447196    1.2873424   0.91767679  -0.17447196    1.4618143   421400 
  122000   0.97342488  -0.17406257  -0.17406257    1.2860713   0.91897288  -0.17406257    1.4601338   421400 
  123000    0.9712586  -0.17346754  -0.17346754    1.2834169   0.91748041  -0.17346754    1.4568844   421400 
  124000   0.97329229   -0.1747828   -0.1747828    1.2851522   0.91611435   -0.1747828     1.459935   421400 
  125000   0.97277582  -0.17511789  -0.17511789    1.2840424   0.91365346  -0.17511789    1.4591603   421400 
  126000   0.97266824  -0.17427793  -0.17427793     1.284721   0.91682843  -0.17427793    1.4589989   421400 
  127000   0.97242568  -0.17453119  -0.17453119    1.2841039   0.91790117  -0.17453119    1.4586351   421400 
  128000   0.97060412   -0.1741092   -0.1741092    1.2817935   0.91658807   -0.1741092    1.4559027   421400 
  129000   0.97248616  -0.17361582  -0.17361582      1.28511   0.91737417  -0.17361582    1.4587258   421400 
  130000    0.9715083  -0.17302086  -0.17302086    1.2842381   0.92119553  -0.17302086     1.457259   421400 
  131000   0.97153517  -0.17353716  -0.17353716    1.2837621   0.91868619  -0.17353716    1.4572993   421400 
  132000   0.97142531  -0.17427032  -0.17427032    1.2828642   0.91638337  -0.17427032    1.4571345   421400 
  133000   0.97006727  -0.17388361  -0.17388361    1.2812138   0.91809146  -0.17388361    1.4550975   421400 
  134000   0.97046587  -0.17410577  -0.17410577    1.2815896   0.91883445  -0.17410577    1.4556954   421400 
  135000   0.97060171  -0.17347415  -0.17347415     1.282425    0.9188834  -0.17347415    1.4558991   421400 
  136000   0.96907629  -0.17439914  -0.17439914    1.2792119   0.91426459  -0.17439914     1.453611   421400 
  137000   0.96867204  -0.17435239  -0.17435239    1.2786522   0.91364018  -0.17435239    1.4530046   421400 
  138000   0.96960133  -0.17675748  -0.17675748    1.2776411   0.91004607  -0.17675748    1.4543985   421400 
  139000   0.96957634  -0.17450354  -0.17450354    1.2798575   0.91643865  -0.17450354    1.4543611   421400 
  140000   0.96967614  -0.17432167  -0.17432167    1.2801891   0.91638182  -0.17432167    1.4545108   421400 
  141000   0.96838079  -0.17478584  -0.17478584    1.2777819   0.91427712  -0.17478584    1.4525677   421400 
  142000   0.96699638   -0.1754917   -0.1754917    1.2749994   0.91223901   -0.1754917    1.4504911   421400 
  143000   0.96617297  -0.17492804  -0.17492804     1.274328   0.91270534  -0.17492804     1.449256   421400 
  144000   0.96623532  -0.17509406  -0.17509406    1.2742555   0.91320984  -0.17509406    1.4493495   421400 
  145000   0.96871522  -0.17537261  -0.17537261    1.2776968   0.91373997  -0.17537261    1.4530694   421400 
  146000   0.97024577  -0.17402798  -0.17402798    1.2813372    0.9165253  -0.17402798    1.4553652   421400 
  147000   0.96826821  -0.17541441  -0.17541441    1.2769845   0.91364231  -0.17541441    1.4523989   421400 
  148000   0.96670732  -0.17452463  -0.17452463    1.2755329    0.9140219  -0.17452463    1.4500575   421400 
  149000   0.96566779  -0.17419727  -0.17419727     1.274301   0.91321994  -0.17419727    1.4484983   421400 
  150000   0.96504363   -0.1759145   -0.1759145    1.2716475   0.90994225   -0.1759145     1.447562   421400 
  151000   0.96564414  -0.17480811  -0.17480811    1.2736547   0.91314098  -0.17480811    1.4484628   421400 
  152000   0.96414759  -0.17424995  -0.17424995     1.271968   0.91344562  -0.17424995     1.446218   421400 
  153000    0.9669551  -0.17528313  -0.17528313    1.2751461   0.91389353  -0.17528313    1.4504292   421400 
  154000   0.96657049  -0.17492288  -0.17492288    1.2749294   0.91274196  -0.17492288    1.4498523   421400 
  155000   0.96634714  -0.17513259  -0.17513259    1.2743847   0.91215145  -0.17513259    1.4495173   421400 
  156000   0.96686387  -0.17547274  -0.17547274    1.2748196   0.91111726  -0.17547274    1.4502924   421400 
  157000   0.96611141  -0.17452236  -0.17452236    1.2746413   0.91374051  -0.17452236    1.4491637   421400 
  158000   0.96598241  -0.17610596  -0.17610596    1.2728642   0.91070373  -0.17610596    1.4489702   421400 
  159000   0.96488372  -0.17589876  -0.17589876    1.2714234   0.90926148  -0.17589876    1.4473221   421400 
  160000   0.96232959  -0.17426029  -0.17426029    1.2692307   0.91337911  -0.17426029     1.443491   421400 
  161000   0.96480592  -0.17593119  -0.17593119    1.2712743   0.91029083  -0.17593119    1.4472054   421400 
  162000   0.96499262  -0.17639526  -0.17639526    1.2710902   0.90876233  -0.17639526    1.4474855   421400 
  163000   0.96430284  -0.17717224  -0.17717224    1.2692786   0.90633841  -0.17717224    1.4464508   421400 
  164000   0.96467501   -0.1767718   -0.1767718    1.2702373   0.90560923   -0.1767718    1.4470091   421400 
  165000   0.96357751  -0.17553394  -0.17553394    1.2698289   0.91080211  -0.17553394    1.4453628   421400 
  166000    0.9636903  -0.17570962  -0.17570962    1.2698224   0.91074064  -0.17570962     1.445532   421400 
  167000   0.96296836  -0.17751222  -0.17751222    1.2669369   0.90424087  -0.17751222    1.4444491   421400 
  168000   0.96105968  -0.17564927  -0.17564927    1.2659368   0.90905232  -0.17564927    1.4415861   421400 
  169000   0.96320589  -0.17521462  -0.17521462    1.2695908   0.91158088  -0.17521462    1.4448054   421400 
  170000   0.96091009  -0.17618721  -0.17618721    1.2651745   0.90648338  -0.17618721    1.4413617   421400 
  171000   0.96046791  -0.17522359  -0.17522359    1.2654749   0.91133338  -0.17522359    1.4406984   421400 
  172000    0.9618168  -0.17638583  -0.17638583    1.2663359   0.90604209  -0.17638583    1.4427218   421400 
  173000   0.96176446  -0.17628493  -0.17628493    1.2663583   0.90647833  -0.17628493    1.4426433   421400 
  174000   0.96256019   -0.1771815   -0.1771815    1.2666554    0.9036634   -0.1771815    1.4438369   421400 
  175000   0.96149659  -0.17687638  -0.17687638    1.2653651   0.90461019  -0.17687638    1.4422415   421400 
  176000    0.9626106  -0.17538695  -0.17538695    1.2685255   0.91064934  -0.17538695    1.4439125   421400 
  177000   0.96187231  -0.17512941  -0.17512941    1.2676756   0.91035038  -0.17512941     1.442805   421400 
  178000   0.96273576  -0.17662911  -0.17662911    1.2674711   0.90675123  -0.17662911    1.4441002   421400 
  179000   0.96046002  -0.17574675  -0.17574675    1.2649399   0.90840707  -0.17574675    1.4406866   421400 
  180000   0.95929938  -0.17552631  -0.17552631    1.2634193   0.90618603  -0.17552631    1.4389457   421400 
  181000    0.9600028  -0.17716808  -0.17716808    1.2628327   0.90494364  -0.17716808    1.4400008   421400 
  182000   0.95879674  -0.17662974  -0.17662974     1.261562   0.90444155  -0.17662974    1.4381917   421400 
  183000   0.95892976  -0.17647173  -0.17647173    1.2619195   0.90390284  -0.17647173    1.4383912   421400 
  184000    0.9608281  -0.17584983  -0.17584983    1.2653889   0.90754805  -0.17584983    1.4412387   421400 
  185000   0.95854329  -0.17764597  -0.17764597    1.2601656    0.9017415  -0.17764597    1.4378115   421400 
  186000   0.95772859  -0.17683045  -0.17683045     1.259759   0.90483277  -0.17683045    1.4365895   421400 
  187000   0.95561813   -0.1765383   -0.1765383    1.2568855   0.90319631   -0.1765383    1.4334238   421400 
  188000   0.95705184  -0.17786591  -0.17786591    1.2577084   0.90060504  -0.17786591    1.4355743   421400 
  189000    0.9576509  -0.17679749  -0.17679749    1.2596755   0.90552594  -0.17679749    1.4364729   421400 
  190000   0.95776095   -0.1776921   -0.1776921    1.2589459   0.90230408   -0.1776921     1.436638   421400 
  191000   0.96096011  -0.17748908  -0.17748908    1.2639477   0.90437605  -0.17748908    1.4414367   421400 
  192000   0.95690251  -0.17796681  -0.17796681    1.2573835   0.90033085  -0.17796681    1.4353504   421400 
  193000   0.95770469  -0.17654221  -0.17654221    1.2600114   0.90473358  -0.17654221    1.4365536   421400 
  194000   0.95679315  -0.17698316  -0.17698316    1.2582032   0.90276098  -0.17698316    1.4351863   421400 
  195000   0.95612726  -0.17725313  -0.17725313    1.2569344   0.90334244  -0.17725313    1.4341875   421400 
  196000    0.9577839  -0.17730795  -0.17730795    1.2593645   0.90263601  -0.17730795    1.4366724   421400 
  197000   0.95806621  -0.17743405  -0.17743405    1.2596619   0.90175443  -0.17743405    1.4370959   421400 
  198000   0.95732082   -0.1785692   -0.1785692    1.2574086   0.89971276   -0.1785692    1.4359778   421400 
  199000   0.95599289  -0.17858549  -0.17858549    1.2554004   0.89798695  -0.17858549    1.4339859   421400 
  200000    0.9558581  -0.17834579  -0.17834579     1.255438   0.89967828  -0.17834579    1.4337837   421400 
  201000   0.95430784  -0.17729538  -0.17729538     1.254163    0.9011153  -0.17729538    1.4314584   421400 
  202000   0.95293035  -0.17727364  -0.17727364    1.2521185   0.90173185  -0.17727364    1.4293921   421400 
  203000   0.95270507  -0.17810673  -0.17810673    1.2509475   0.89912013  -0.17810673    1.4290542   421400 
  204000   0.95169568  -0.17666271  -0.17666271    1.2508774   0.90184229  -0.17666271    1.4275401   421400 
  205000    0.9547265  -0.17808555  -0.17808555    1.2540008   0.90015632  -0.17808555    1.4320864   421400 
  206000   0.95218158  -0.17742828  -0.17742828    1.2508407    0.9009291  -0.17742828     1.428269   421400 
  207000   0.95382364  -0.17852773  -0.17852773    1.2522043   0.89883195  -0.17852773    1.4307321   421400 
  208000   0.95124758  -0.17794305  -0.17794305    1.2489249   0.89757788  -0.17794305     1.426868   421400 
  209000    0.9540098  -0.18011229  -0.18011229     1.250899   0.89415188  -0.18011229    1.4310113   421400 
  210000   0.95289686  -0.17885298  -0.17885298    1.2504889   0.89679637  -0.17885298    1.4293419   421400 
  211000   0.95390116  -0.17631508  -0.17631508    1.2545333   0.90434938  -0.17631508    1.4308483   421400 
  212000   0.95159562  -0.17803105  -0.17803105     1.249359   0.89681478  -0.17803105      1.42739   421400 
  213000   0.95146373  -0.17796569  -0.17796569    1.2492265   0.89748406  -0.17796569    1.4271922   421400 
  214000   0.95331402  -0.17729325  -0.17729325    1.2526744    0.9027321  -0.17729325    1.4299676   421400 
  215000   0.95309362  -0.17888396  -0.17888396    1.2507531   0.89738019  -0.17888396     1.429637   421400 
  216000   0.95217644  -0.17875527  -0.17875527     1.249506   0.89610256  -0.17875527    1.4282613   421400 
  217000   0.95273971  -0.17954405  -0.17954405    1.2495621   0.89587235  -0.17954405    1.4291062   421400 
  218000   0.95016368  -0.17907979  -0.17907979    1.2461623   0.89437905  -0.17907979    1.4252421   421400 
  219000   0.95157726  -0.18011611  -0.18011611    1.2472464   0.89346952  -0.18011611    1.4273625   421400 
  220000   0.94834023  -0.17867286  -0.17867286    1.2438341   0.89332362  -0.17867286     1.422507   421400 
  221000   0.95001409  -0.18044325  -0.18044325    1.2445745   0.89243587  -0.18044325    1.4250178   421400 
  222000   0.94911162  -0.17805513  -0.17805513    1.2456089   0.89807242  -0.17805513     1.423664   421400 
  223000    0.9501064  -0.17830909  -0.17830909    1.2468471   0.89698859  -0.17830909    1.4251562   421400 
  224000    0.9503633  -0.17888283  -0.17888283    1.2466587   0.89642356  -0.17888283    1.4255416   421400 
  225000    0.9506793  -0.17820858  -0.17820858     1.247807   0.89860098  -0.17820858    1.4260156   421400 
  226000   0.94848969  -0.17812637  -0.17812637    1.2446048   0.89674727  -0.17812637    1.4227312   421400 
  227000   0.94795039   -0.1794377   -0.1794377    1.2424845   0.89316771   -0.1794377    1.4219222   421400 
  228000   0.94700783  -0.17913777  -0.17913777    1.2413706    0.8954759  -0.17913777    1.4205084   421400 
  229000   0.94668218  -0.17889188  -0.17889188     1.241128     0.895535  -0.17889188    1.4200199   421400 
  230000    0.9476995  -0.17977956  -0.17977956    1.2417663   0.89185689  -0.17977956    1.4215459   421400 
  231000   0.94601478  -0.17949549  -0.17949549    1.2395233   0.89218425  -0.17949549    1.4190188   421400 
  232000   0.94686498  -0.17793515  -0.17793515    1.2423589   0.89895876  -0.17793515    1.4202941   421400 
  233000   0.94986126  -0.17969125  -0.17969125    1.2450973   0.89434298  -0.17969125    1.4247885   421400 
  234000   0.94769034  -0.17953711  -0.17953711     1.241995   0.89329748  -0.17953711    1.4215321   421400 
  235000   0.94726231  -0.17935037  -0.17935037    1.2415397   0.89351173  -0.17935037    1.4208901   421400 
  236000    0.9476403  -0.17849749  -0.17849749    1.2429596   0.89388662  -0.17849749    1.4214571   421400 
  237000   0.94681517  -0.17990137  -0.17990137     1.240318   0.89314926  -0.17990137    1.4202194   421400 
  238000    0.9477142  -0.17948713  -0.17948713    1.2420808   0.89316501  -0.17948713    1.4215679   421400 
  239000   0.94709367  -0.17851418  -0.17851418    1.2421229   0.89617711  -0.17851418    1.4206371   421400 
  240000   0.94711631  -0.17937446  -0.17937446    1.2412966   0.89451232  -0.17937446    1.4206711   421400 
  241000   0.94633659  -0.17882257  -0.17882257     1.240679   0.89551216  -0.17882257    1.4195015   421400 
  242000   0.94776428  -0.17896175  -0.17896175    1.2426813   0.89259336  -0.17896175     1.421643   421400 
  243000    0.9502345  -0.17987525  -0.17987525    1.2454731   0.89434087  -0.17987525    1.4253484   421400 
  244000   0.94683305  -0.17931045  -0.17931045    1.2409358   0.89186623  -0.17931045    1.4202462   421400 
  245000   0.94522876  -0.18040435  -0.18040435    1.2374354   0.89100335  -0.18040435    1.4178398   421400 
  246000   0.94464764  -0.18098049  -0.18098049    1.2359876   0.88794294  -0.18098049    1.4169681   421400 
  247000   0.94513148  -0.17904469  -0.17904469    1.2386492   0.89327051  -0.17904469    1.4176939   421400 
  248000    0.9424699  -0.17954309  -0.17954309    1.2341584   0.89118015  -0.17954309    1.4137015   421400 
  249000   0.94596838  -0.18111753  -0.18111753    1.2378317    0.8880334  -0.18111753    1.4189492   421400 
  250000   0.94490669  -0.17965837  -0.17965837    1.2376983   0.89094991  -0.17965837    1.4173567   421400 
  251000   0.94482819   -0.1806458   -0.1806458    1.2365931   0.88963209   -0.1806458    1.4172389   421400 
  252000    0.9438059  -0.18081059  -0.18081059    1.2348949   0.88720491  -0.18081059    1.4157055   421400 
  253000   0.94315943  -0.18105073  -0.18105073    1.2336851   0.88712046  -0.18105073    1.4147358   421400 
  254000   0.94313658  -0.18041687  -0.18041687    1.2342846   0.88882633  -0.18041687    1.4147015   421400 
  255000   0.94101453  -0.17944755  -0.17944755    1.2320709   0.89129665  -0.17944755    1.4115184   421400 
  256000   0.94204411  -0.18016628  -0.18016628    1.2328965   0.88859494  -0.18016628    1.4130628   421400 
  257000   0.94339295  -0.17894354  -0.17894354    1.2361425   0.89144982  -0.17894354    1.4150861   421400 
  258000   0.94131227  -0.18068835  -0.18068835    1.2312767   0.88683249  -0.18068835    1.4119651   421400 
  259000   0.93872612  -0.18042726  -0.18042726    1.2276586   0.88708457  -0.18042726    1.4080858   421400 
  260000   0.94051213  -0.18122134  -0.18122134    1.2295435   0.88366337  -0.18122134    1.4107648   421400 
  261000   0.93955604  -0.18032337  -0.18032337    1.2290073   0.88652587  -0.18032337    1.4093307   421400 
  262000   0.93984087  -0.18028166  -0.18028166    1.2294763   0.88729716  -0.18028166     1.409758   421400 
  263000   0.94091169  -0.18158626  -0.18158626    1.2297779   0.88462685  -0.18158626    1.4113642   421400 
  264000   0.94083698  -0.18108675  -0.18108675    1.2301654   0.88492799  -0.18108675    1.4112521   421400 
  265000   0.94154248  -0.18079201  -0.18079201    1.2315184   0.88710769  -0.18079201    1.4123104   421400 
  266000   0.94147629  -0.18105002  -0.18105002    1.2311611   0.88474215  -0.18105002    1.4122111   421400 
  267000   0.93939904  -0.18137975  -0.18137975    1.2277155   0.88447804  -0.18137975    1.4090952   421400 
  268000   0.94038999  -0.18181106  -0.18181106    1.2287706   0.88350562  -0.18181106    1.4105816   421400 
  269000   0.93921134  -0.18176608  -0.18176608    1.2270476   0.88388667  -0.18176608    1.4088137   421400 
  270000   0.93907781  -0.18193282  -0.18193282    1.2266806   0.88286327  -0.18193282    1.4086134   421400 
  271000   0.93873364  -0.18021697  -0.18021697    1.2278801   0.88831368  -0.18021697    1.4080971   421400 
  272000   0.93813218  -0.18170174  -0.18170174    1.2254932   0.88447796  -0.18170174    1.4071949   421400 
  273000   0.93755014  -0.18083412  -0.18083412    1.2254877   0.88443951  -0.18083412    1.4063219   421400 
  274000   0.93740912  -0.18204521  -0.18204521    1.2240651   0.88196598  -0.18204521    1.4061103   421400 
  275000   0.93744419  -0.18049931  -0.18049931    1.2256636   0.88509902  -0.18049931     1.406163   421400 
  276000   0.93843447    -0.181699    -0.181699    1.2259494   0.88307095    -0.181699    1.4076484   421400 
  277000   0.93878392   -0.1818371   -0.1818371    1.2263354   0.88245411   -0.1818371    1.4081725   421400 
  278000   0.93986525   -0.1817176   -0.1817176    1.2280769   0.88198663   -0.1817176    1.4097945   421400 
  279000   0.93796724  -0.18146492  -0.18146492    1.2254826   0.88409487  -0.18146492    1.4069475   421400 
  280000   0.93733409  -0.18119144  -0.18119144    1.2248064   0.88409516  -0.18119144    1.4059978   421400 
  281000   0.93584476  -0.18097872  -0.18097872    1.2227851   0.88371047  -0.18097872    1.4037638   421400 
  282000   0.93774271   -0.1822608   -0.1822608    1.2243499   0.88141753   -0.1822608    1.4066107   421400 
  283000   0.93764474  -0.18242901  -0.18242901    1.2240348   0.88171051  -0.18242901    1.4064638   421400 
  284000   0.93482662  -0.18185498  -0.18185498    1.2203816   0.88183712  -0.18185498    1.4022366   421400 
  285000    0.9363009  -0.18235115  -0.18235115    1.2220969   0.88166869  -0.18235115     1.404448   421400 
  286000   0.93505291  -0.18187935  -0.18187935    1.2206967   0.88097533  -0.18187935     1.402576   421400 
  287000   0.93366614  -0.18227763  -0.18227763    1.2182183   0.87998072  -0.18227763    1.4004959   421400 
  288000   0.93522605  -0.18267643  -0.18267643    1.2201593   0.87987391  -0.18267643    1.4028358   421400 
  289000   0.93702641   -0.1824476   -0.1824476    1.2230887   0.87928238   -0.1824476    1.4055363   421400 
  290000   0.93538576  -0.18218151  -0.18218151    1.2208938   0.88046512  -0.18218151    1.4030753   421400 
  291000   0.93629604  -0.18151066  -0.18151066    1.2229301   0.88335701  -0.18151066    1.4044407   421400 
  292000   0.93421648  -0.18122997  -0.18122997    1.2200914   0.88352881  -0.18122997    1.4013214   421400 
  293000    0.9349644  -0.18174863  -0.18174863    1.2206946   0.88192216  -0.18174863    1.4024433   421400 
  294000   0.93488727  -0.18261679  -0.18261679    1.2197108   0.87985281  -0.18261679    1.4023276   421400 
  295000   0.93378835  -0.18124951  -0.18124951    1.2194297   0.88214998  -0.18124951    1.4006792   421400 
  296000   0.93452802   -0.1834154   -0.1834154    1.2183733   0.87652759   -0.1834154    1.4017887   421400 
  297000   0.93432906  -0.18348032  -0.18348032    1.2180099   0.87690205  -0.18348032    1.4014903   421400 
  298000   0.93219023  -0.18205692  -0.18205692    1.2162251   0.88043154  -0.18205692     1.398282   421400 
  299000   0.93339842  -0.18315351  -0.18315351    1.2169408   0.87642995  -0.18315351    1.4000943   421400 
  300000   0.93156342  -0.18275574  -0.18275574    1.2145861   0.87814599  -0.18275574    1.3973418   421400 
  301000   0.93185755  -0.18414247  -0.18414247    1.2136405   0.87631016  -0.18414247     1.397783   421400 
  302000   0.93256119  -0.18305569  -0.18305569    1.2157828   0.87609123  -0.18305569    1.3988385   421400 
  303000   0.93408505  -0.18176518  -0.18176518    1.2193591   0.88226795  -0.18176518    1.4011243   421400 
  304000   0.93246653  -0.18180071  -0.18180071    1.2168958   0.87910538  -0.18180071    1.3986965   421400 
  305000   0.93069344  -0.18112979  -0.18112979     1.214907   0.88143703  -0.18112979    1.3960368   421400 
  306000   0.93221876  -0.18269177  -0.18269177    1.2156331    0.8773806  -0.18269177    1.3983248   421400 
  307000    0.9315562   -0.1826467   -0.1826467    1.2146843   0.87680355   -0.1826467     1.397331   421400 
  308000   0.93058716  -0.18375097  -0.18375097    1.2121265   0.87682092  -0.18375097    1.3958774   421400 
  309000   0.93267206  -0.18341397  -0.18341397    1.2155908   0.87670946  -0.18341397    1.3990048   421400 
  310000   0.93298285  -0.18243595  -0.18243595     1.217035   0.88016372  -0.18243595     1.399471   421400 
  311000    0.9306133  -0.18263528  -0.18263528    1.2132814   0.87581793  -0.18263528    1.3959166   421400 
  312000   0.93003532  -0.18270339  -0.18270339    1.2123463   0.87663952  -0.18270339    1.3950497   421400 
  313000   0.93052692  -0.18326371  -0.18326371    1.2125233   0.87504249  -0.18326371    1.3957871   421400 
  314000   0.92936571  -0.18261529  -0.18261529      1.21143   0.87719516  -0.18261529    1.3940453   421400 
  315000   0.92947484   -0.1837187   -0.1837187    1.2104902   0.87449632   -0.1837187    1.3942089   421400 
  316000   0.93012993  -0.18407394  -0.18407394    1.2111176   0.87394913  -0.18407394    1.3951916   421400 
  317000   0.92986806  -0.18417485  -0.18417485    1.2106239    0.8737719  -0.18417485    1.3947988   421400 
  318000   0.92921154  -0.18339579  -0.18339579    1.2104182   0.87513347  -0.18339579     1.393814   421400 
  319000   0.92865279  -0.18395305  -0.18395305    1.2090228   0.87434235  -0.18395305    1.3929759   421400 
  320000   0.93024824  -0.18422283  -0.18422283    1.2111462   0.87396497  -0.18422283    1.3953691   421400 
  321000   0.92811104  -0.18320965  -0.18320965    1.2089536   0.87509198  -0.18320965    1.3921633   421400 
  322000   0.92716788  -0.18356099  -0.18356099    1.2071875   0.87467406  -0.18356099    1.3907485   421400 
  323000   0.92798276  -0.18417918  -0.18417918    1.2077917   0.87109912  -0.18417918    1.3919708   421400 
  324000   0.92822092  -0.18457603  -0.18457603     1.207752   0.87098554  -0.18457603    1.3923281   421400 
  325000   0.92701892  -0.18257979  -0.18257979    1.2079453   0.87708257  -0.18257979    1.3905251   421400 
  326000   0.92787425  -0.18319706  -0.18319706     1.208611   0.87503208  -0.18319706    1.3918081   421400 
  327000   0.92789306  -0.18402467  -0.18402467    1.2078116   0.87256686  -0.18402467    1.3918363   421400 
  328000   0.92800929  -0.18382173  -0.18382173    1.2081889   0.87369586  -0.18382173    1.3920106   421400 
  329000   0.92629357  -0.18367311  -0.18367311     1.205764   0.87384331  -0.18367311    1.3894371   421400 
  330000   0.92752629  -0.18442467  -0.18442467    1.2068615    0.8728649  -0.18442467    1.3912861   421400 
  331000      0.92811  -0.18348025  -0.18348025    1.2086814   0.87600552  -0.18348025    1.3921617   421400 
  332000   0.92594617  -0.18328113  -0.18328113    1.2056348   0.87429021  -0.18328113     1.388916   421400 
  333000   0.92723491  -0.18338065  -0.18338065    1.2074684   0.87358029  -0.18338065    1.3908491   421400 
  334000   0.92446421  -0.18391636  -0.18391636    1.2027767   0.87208401  -0.18391636     1.386693   421400 
  335000   0.92548964  -0.18454029  -0.18454029    1.2036909   0.87027511  -0.18454029    1.3882312   421400 
  336000   0.92419859  -0.18441153  -0.18441153    1.2018831   0.87030777  -0.18441153    1.3862946   421400 
  337000   0.92354351  -0.18456352  -0.18456352    1.2007485   0.86998987  -0.18456352     1.385312   421400 
  338000   0.92454374  -0.18458874  -0.18458874    1.2022236   0.87012455  -0.18458874    1.3868123   421400 
  339000   0.92231671  -0.18420172  -0.18420172    1.1992701   0.86946436  -0.18420172    1.3834718   421400 
  340000   0.92452281  -0.18499404  -0.18499404    1.2017869   0.86996279  -0.18499404    1.3867809   421400 
  341000   0.92376069   -0.1853007   -0.1853007    1.2003371   0.86726294   -0.1853007    1.3856378   421400 
  342000   0.92148878  -0.18417039  -0.18417039    1.1980595   0.87018912  -0.18417039    1.3822299   421400 
  343000    0.9231488  -0.18453048  -0.18453048    1.2001894   0.86997593  -0.18453048    1.3847199   421400 
  344000    0.9228849  -0.18554777  -0.18554777    1.1987763   0.86693345  -0.18554777    1.3843241   421400 
  345000   0.92254149  -0.18522494  -0.18522494     1.198584    0.8673631  -0.18522494     1.383809   421400 
  346000   0.92254111  -0.18526962  -0.18526962    1.1985388   0.86751742  -0.18526962    1.3838084   421400 
  347000    0.9223466  -0.18622454  -0.18622454    1.1972921   0.86506781  -0.18622454    1.3835166   421400 
  348000   0.92124541  -0.18478856  -0.18478856    1.1970763   0.86670044  -0.18478856    1.3818648   421400 
  349000   0.92139621  -0.18477092  -0.18477092    1.1973201   0.86699689  -0.18477092     1.382091   421400 
  350000   0.92064789  -0.18525903  -0.18525903    1.1957095   0.86650007  -0.18525903    1.3809686   421400 
  351000   0.92017354  -0.18541654  -0.18541654    1.1948405   0.86647219  -0.18541654     1.380257   421400 
  352000   0.92118833  -0.18505681  -0.18505681    1.1967224   0.86766005  -0.18505681    1.3817792   421400 
  353000   0.92308491  -0.18448915  -0.18448915    1.2001349   0.86903904  -0.18448915    1.3846241   421400 
  354000   0.92134896  -0.18533756  -0.18533756    1.1966826   0.86599652  -0.18533756    1.3820202   421400 
  355000   0.92230787  -0.18481404  -0.18481404    1.1986445   0.86959839  -0.18481404    1.3834585   421400 
  356000   0.92072478  -0.18373758  -0.18373758    1.1973463   0.87287895  -0.18373758    1.3810839   421400 
  357000   0.92108928  -0.18529582  -0.18529582    1.1963348    0.8664112  -0.18529582    1.3816306   421400 
  358000   0.92067394  -0.18491628  -0.18491628    1.1960914   0.86655901  -0.18491628    1.3810076   421400 
  359000   0.91943104  -0.18459952  -0.18459952    1.1945438   0.86886487  -0.18459952    1.3791433   421400 
  360000   0.91910961  -0.18542471  -0.18542471    1.1932364   0.86479455  -0.18542471    1.3786611   421400 
  361000   0.91954314  -0.18537842  -0.18537842     1.193933   0.86606132  -0.18537842    1.3793114   421400 
  362000   0.91773207  -0.18670028  -0.18670028    1.1898946   0.86059813  -0.18670028    1.3765948   421400 
  363000   0.91774216  -0.18671405  -0.18671405    1.1898959   0.86099089  -0.18671405      1.37661   421400 
  364000   0.91854244  -0.18687871  -0.18687871    1.1909317   0.86062898  -0.18687871    1.3778104   421400 
  365000   0.91846387  -0.18679777  -0.18679777    1.1908948   0.86064899  -0.18679777    1.3776925   421400 
  366000   0.91635579  -0.18523747  -0.18523747     1.189293   0.86408387  -0.18523747    1.3745304   421400 
  367000   0.91719901   -0.1852653   -0.1852653      1.19053   0.86518849   -0.1852653    1.3757953   421400 
  368000   0.91707426   -0.1871164   -0.1871164    1.1884917    0.8593247   -0.1871164    1.3756081   421400 
  369000   0.91696552  -0.18687569  -0.18687569    1.1885693   0.86169172  -0.18687569     1.375445   421400 
  370000   0.91623275  -0.18748937  -0.18748937    1.1868565   0.85787578  -0.18748937    1.3743459   421400 
  371000   0.91519103  -0.18707431  -0.18707431     1.185709   0.85976882  -0.18707431    1.3727833   421400 
  372000    0.9137192  -0.18734198  -0.18734198    1.1832336   0.85828606  -0.18734198    1.3705755   421400 
  373000   0.91512424  -0.18584315  -0.18584315      1.18684   0.86204824  -0.18584315    1.3726831   421400 
  374000    0.9167611  -0.18682492  -0.18682492    1.1883135   0.86228982  -0.18682492    1.3751384   421400 
  375000   0.91793528  -0.18578204  -0.18578204    1.1911176    0.8652928  -0.18578204    1.3768997   421400 
  376000    0.9147313  -0.18685251  -0.18685251    1.1852412   0.85986476  -0.18685251    1.3720937   421400 
  377000   0.91546135  -0.18604243  -0.18604243    1.1871463   0.86346772  -0.18604243    1.3731888   421400 
  378000   0.91510252  -0.18750481  -0.18750481    1.1851457   0.85757766  -0.18750481    1.3726505   421400 
  379000   0.91465644  -0.18561088  -0.18561088    1.1863705   0.86343939  -0.18561088    1.3719814   421400 
  380000    0.9152936  -0.18711835  -0.18711835    1.1858188   0.85851229  -0.18711835    1.3729371   421400 
  381000   0.91422384  -0.18712743  -0.18712743    1.1842051   0.85846596  -0.18712743    1.3713325   421400 
  382000    0.9154843   -0.1873734   -0.1873734    1.1858498   0.85926167   -0.1873734    1.3732232   421400 
  383000   0.91389315  -0.18651591  -0.18651591    1.1843206   0.85933121  -0.18651591    1.3708365   421400 
  384000   0.91323933  -0.18683703  -0.18683703    1.1830187   0.85934553  -0.18683703    1.3698557   421400 
  385000   0.91339006  -0.18726356  -0.18726356    1.1828183   0.85710663  -0.18726356    1.3700818   421400 
  386000   0.91352105  -0.18834344  -0.18834344    1.1819349   0.85507687  -0.18834344    1.3702783   421400 
  387000   0.91398128  -0.18755016  -0.18755016    1.1834185   0.85757324  -0.18755016    1.3709687   421400 
  388000   0.91263224  -0.18643351  -0.18643351    1.1825116   0.85931935  -0.18643351    1.3689451   421400 
  389000   0.91192043  -0.18770814  -0.18770814    1.1801693   0.85731984  -0.18770814    1.3678774   421400 
  390000   0.91305292  -0.18767608  -0.18767608       1.1819   0.85571283  -0.18767608    1.3695761   421400 
  391000   0.91259087  -0.18745204  -0.18745204     1.181431   0.85618672  -0.18745204    1.3688831   421400 
  392000   0.91315765  -0.18676084  -0.18676084    1.1829724   0.85810496  -0.18676084    1.3697332   421400 
  393000   0.91302535  -0.18728504  -0.18728504    1.1822497   0.85852211  -0.18728504    1.3695348   421400 
  394000   0.90955695  -0.18681457  -0.18681457    1.1775176   0.85737002  -0.18681457    1.3643322   421400 
  395000   0.91290599   -0.1871915   -0.1871915    1.1821642   0.85808386   -0.1871915    1.3693557   421400 
  396000   0.91289353  -0.18831161  -0.18831161    1.1810254   0.85361866  -0.18831161     1.369337   421400 
  397000   0.91196665  -0.18728696  -0.18728696    1.1806598   0.85765751  -0.18728696    1.3679467   421400 
  398000   0.91028026  -0.18761366  -0.18761366    1.1778035   0.85619743  -0.18761366    1.3654171   421400 
  399000   0.91208552  -0.18827764  -0.18827764    1.1798474   0.85370929  -0.18827764     1.368125   421400 
  400000   0.90938516  -0.18751783  -0.18751783    1.1765567   0.85396391  -0.18751783    1.3640745   421400 
  401000   0.91197483  -0.18724051  -0.18724051    1.1807185   0.85690387  -0.18724051     1.367959   421400 
  402000   0.91096751  -0.18851825  -0.18851825    1.1779298   0.85341133  -0.18851825     1.366448   421400 
  403000   0.91065803    -0.187767    -0.187767    1.1782168   0.85645166    -0.187767    1.3659838   421400 
  404000   0.91069531  -0.18722488  -0.18722488    1.1788148   0.85769373  -0.18722488    1.3660397   421400 
  405000   0.91153873  -0.18799601  -0.18799601    1.1793088   0.85609976  -0.18799601    1.3673048   421400 
  406000   0.91068256  -0.18730226  -0.18730226    1.1787183   0.85696484  -0.18730226    1.3660206   421400 
  407000   0.91067386  -0.18866021  -0.18866021    1.1773473   0.85362582  -0.18866021    1.3660075   421400 
  408000    0.9079438  -0.18810207  -0.18810207    1.1738104   0.85375697  -0.18810207    1.3619125   421400 
  409000   0.90817854  -0.18905254  -0.18905254     1.173212   0.85168054  -0.18905254    1.3622646   421400 
  410000   0.90693237  -0.18866759  -0.18866759    1.1717277   0.85116208  -0.18866759    1.3603953   421400 
  411000   0.90670231  -0.18771009  -0.18771009    1.1723402    0.8543046  -0.18771009    1.3600502   421400 
  412000   0.90766311  -0.18838245  -0.18838245     1.173109   0.85393447  -0.18838245    1.3614914   421400 
  413000   0.90786975  -0.18814962  -0.18814962    1.1736518   0.85223132  -0.18814962    1.3618014   421400 
  414000   0.90940662  -0.18810514  -0.18810514    1.1760016   0.85520827  -0.18810514    1.3641067   421400 
  415000   0.90772316  -0.18861718  -0.18861718    1.1729643   0.85265015  -0.18861718    1.3615815   421400 
  416000   0.90633582  -0.18701209  -0.18701209    1.1724884   0.85475915  -0.18701209    1.3595005   421400 
  417000   0.90738323  -0.18840346  -0.18840346    1.1726681   0.85311466  -0.18840346    1.3610716   421400 
  418000   0.90619814  -0.18925777  -0.18925777    1.1700362   0.84952999  -0.18925777     1.359294   421400 
  419000   0.90567733  -0.18805809  -0.18805809    1.1704547   0.85353719  -0.18805809    1.3585128   421400 
  420000   0.90619619   -0.1893734   -0.1893734    1.1699177    0.8482308   -0.1893734    1.3592911   421400 
  421000   0.90523805  -0.18798005  -0.18798005    1.1698738   0.85320854  -0.18798005    1.3578539   421400 
  422000   0.90440732  -0.18777215  -0.18777215    1.1688356   0.85195465  -0.18777215    1.3566078   421400 
  423000   0.90564845   -0.1878668   -0.1878668    1.1706026   0.85202927   -0.1878668    1.3584694   421400 
  424000   0.90303643  -0.18779991  -0.18779991    1.1667515   0.85230495  -0.18779991    1.3545514   421400 
  425000   0.90709688  -0.18969965  -0.18969965    1.1709424   0.84985075  -0.18969965    1.3606421   421400 
  426000    0.9042062  -0.18801438  -0.18801438    1.1682917    0.8546883  -0.18801438    1.3563061   421400 
  427000   0.90493225  -0.18987447  -0.18987447    1.1675207   0.84871306  -0.18987447    1.3573952   421400 
  428000   0.90629497  -0.19024934  -0.19024934    1.1691899   0.84771982  -0.19024934    1.3594392   421400 
  429000   0.90396022  -0.18880678  -0.18880678    1.1671303   0.84910288  -0.18880678    1.3559371   421400 
  430000   0.90456018  -0.18895353  -0.18895353    1.1678835   0.84819145  -0.18895353    1.3568371   421400 
  431000   0.90271472  -0.19004432  -0.19004432    1.1640245   0.84607168  -0.19004432    1.3540689   421400 
  432000   0.90182134  -0.18925256  -0.18925256    1.1634762   0.84745151  -0.18925256    1.3527288   421400 
  433000   0.90310178  -0.18888352  -0.18888352    1.1657659   0.85042021  -0.18888352    1.3546495   421400 
  434000   0.90321078  -0.18999405  -0.18999405    1.1648189    0.8473234  -0.18999405     1.354813   421400 
  435000   0.90300036  -0.18882214  -0.18882214    1.1656752   0.84989866  -0.18882214    1.3544973   421400 
  436000   0.90065263  -0.19026664  -0.19026664    1.1607091   0.84567564  -0.19026664    1.3509757   421400 
  437000   0.90097135  -0.19088576  -0.19088576    1.1605681   0.84533537  -0.19088576    1.3514538   421400 
  438000   0.90209471  -0.19015793  -0.19015793    1.1629809   0.84732997  -0.19015793    1.3531388   421400 
  439000    0.9033825   -0.1906215   -0.1906215     1.164449   0.84491498   -0.1906215    1.3550705   421400 
  440000   0.90233312  -0.19028513  -0.19028513    1.1632113   0.84654438  -0.19028513    1.3534965   421400 
  441000   0.90126085  -0.19048924  -0.19048924    1.1613988   0.84537277  -0.19048924    1.3518881   421400 
  442000   0.90054632  -0.18969455  -0.18969455    1.1611217   0.84716286  -0.18969455    1.3508163   421400 
  443000   0.90154906  -0.19077422  -0.19077422    1.1615462   0.84439302  -0.19077422    1.3523204   421400 
  444000   0.90016013  -0.19025596  -0.19025596     1.159981   0.84595418  -0.19025596     1.350237   421400 
  445000   0.90085289  -0.18967486  -0.18967486    1.1616013   0.84713669  -0.18967486    1.3512761   421400 
  446000   0.90106261  -0.18949244  -0.18949244    1.1620983   0.84707445  -0.18949244    1.3515907   421400 
  447000    0.9004259   -0.1901013   -0.1901013    1.1605343   0.84659471   -0.1901013    1.3506356   421400 
  448000   0.89932874  -0.18927393  -0.18927393     1.159716   0.84763403  -0.18927393    1.3489899   421400 
  449000   0.90048722  -0.18966606  -0.18966606    1.1610616   0.84668443  -0.18966606    1.3507276   421400 
  450000   0.90128479  -0.18997999  -0.18997999     1.161944      0.84596  -0.18997999     1.351924   421400 
  451000   0.89961548  -0.19034543  -0.19034543    1.1590746   0.84446859  -0.19034543      1.34942   421400 
  452000   0.90178506  -0.19154634  -0.19154634     1.161128   0.84241586  -0.19154634    1.3526744   421400 
  453000   0.89895722  -0.19008154  -0.19008154    1.1583511   0.84517088  -0.19008154    1.3484326   421400 
  454000   0.89864239  -0.19116859  -0.19116859    1.1567918   0.84223457  -0.19116859    1.3479604   421400 
  455000   0.89611306  -0.19078179  -0.19078179    1.1533846   0.84195825  -0.19078179    1.3441664   421400 
  456000   0.89744564  -0.19020718  -0.19020718    1.1559581   0.84445366  -0.19020718    1.3461653   421400 
  457000    0.8978455   -0.1918193   -0.1918193    1.1549458   0.83949177   -0.1918193    1.3467651   421400 
  458000    0.8968869  -0.19140296  -0.19140296    1.1539242   0.84174038  -0.19140296    1.3453272   421400 
  459000   0.89782085  -0.19076082  -0.19076082    1.1559673   0.84349284  -0.19076082    1.3467281   421400 
  460000   0.89668618  -0.19161698  -0.19161698    1.1534091   0.84194108  -0.19161698    1.3450261   421400 
  461000   0.89762593  -0.19091579  -0.19091579    1.1555199   0.83969626  -0.19091579    1.3464357   421400 
  462000   0.89610916  -0.19173436  -0.19173436    1.1524262   0.83880736  -0.19173436    1.3441605   421400 
  463000   0.89519315  -0.19194063  -0.19194063    1.1508459    0.8391177  -0.19194063    1.3427865   421400 
  464000   0.89611714  -0.19156056  -0.19156056     1.152612     0.841894  -0.19156056    1.3441725   421400 
  465000   0.89398105  -0.19114174  -0.19114174    1.1498266   0.83885902  -0.19114174    1.3409684   421400 
  466000   0.89416263  -0.19086601  -0.19086601    1.1503747   0.83811561  -0.19086601    1.3412408   421400 
  467000   0.89559846  -0.19124017  -0.19124017    1.1521543   0.84139707  -0.19124017    1.3433945   421400 
  468000   0.89760937  -0.19189822  -0.19189822    1.1545126   0.83841029  -0.19189822    1.3464109   421400 
  469000   0.89689303  -0.18989501  -0.18989501    1.1554413   0.84368108  -0.18989501    1.3453363   421400 
  470000   0.89616392  -0.19108724  -0.19108724    1.1531555   0.84069003  -0.19108724    1.3442427   421400 
  471000   0.89605435  -0.19237144  -0.19237144    1.1517069   0.83695041  -0.19237144    1.3440783   421400 
  472000   0.89341613  -0.19094092  -0.19094092    1.1491801   0.84125527  -0.19094092     1.340121   421400 
  473000   0.89309235  -0.19258733  -0.19258733     1.147048   0.83487412  -0.19258733    1.3396353   421400 
  474000   0.89286642    -0.191077    -0.191077    1.1482194   0.83898036    -0.191077    1.3392964   421400 
  475000   0.89204041  -0.19240025  -0.19240025    1.1456572   0.83536577  -0.19240025    1.3380574   421400 
  476000   0.89299865   -0.1916606   -0.1916606    1.1478342   0.83746016   -0.1916606    1.3394948   421400 
  477000   0.89292695  -0.19231398  -0.19231398    1.1470733   0.83660342  -0.19231398    1.3393873   421400 
  478000   0.89274272  -0.19210707  -0.19210707    1.1470038   0.83524646  -0.19210707    1.3391109   421400 
  479000   0.89437587  -0.19126696  -0.19126696    1.1502937   0.84115219  -0.19126696    1.3415606   421400 
  480000   0.89349306  -0.19073126  -0.19073126    1.1495051   0.83861208  -0.19073126    1.3402364   421400 
  481000   0.89347125  -0.19211774  -0.19211774     1.148086   0.83726506  -0.19211774    1.3402037   421400 
  482000   0.89346954  -0.19252194  -0.19252194    1.1476792   0.83598851  -0.19252194    1.3402011   421400 
  483000   0.89254262  -0.19313807  -0.19313807    1.1456727   0.83402765  -0.19313807    1.3388107   421400 
  484000    0.8917605  -0.19165261  -0.19165261     1.145985   0.83881616  -0.19165261    1.3376376   421400 
  485000   0.89188657  -0.19255286  -0.19255286    1.1452738   0.83385985  -0.19255286    1.3378267   421400 
  486000   0.89062416  -0.19212167  -0.19212167    1.1438114   0.83506417  -0.19212167    1.3359331   421400 
  487000   0.88905168  -0.19270485  -0.19270485    1.1408695   0.83317533  -0.19270485    1.3335744   421400 
  488000   0.88917533  -0.19401605  -0.19401605    1.1397438   0.82954007  -0.19401605    1.3337598   421400 
  489000   0.88868775  -0.19304309  -0.19304309    1.1399854   0.83165381  -0.19304309    1.3330285   421400 
  490000   0.89037765  -0.19338088  -0.19338088    1.1421824   0.83248827  -0.19338088    1.3355633   421400 
  491000   0.88749225  -0.19219078  -0.19219078    1.1390444   0.83320847  -0.19219078    1.3312352   421400 
  492000   0.89114949  -0.19262052  -0.19262052    1.1441005   0.83533299  -0.19262052    1.3367211   421400 
  493000   0.89035417  -0.19282007  -0.19282007     1.142708   0.83266616  -0.19282007    1.3355281   421400 
  494000   0.88903879  -0.19266565  -0.19266565    1.1408894   0.83190625  -0.19266565     1.333555   421400 
  495000   0.88989826  -0.19198797  -0.19198797    1.1428563   0.83599019  -0.19198797    1.3348442   421400 
  496000   0.89009449  -0.19322919  -0.19322919    1.1419094   0.83354515  -0.19322919    1.3351386   421400 
  497000    0.8902567   -0.1923885   -0.1923885    1.1429934   0.83478464   -0.1923885    1.3353819   421400 
  498000   0.88779172  -0.19183893  -0.19183893    1.1398455   0.83839651  -0.19183893    1.3316844   421400 
  499000   0.88828379  -0.19410829  -0.19410829    1.1383142   0.83103022  -0.19410829    1.3324225   421400 
  500000   0.88845805  -0.19358239  -0.19358239    1.1391015   0.83075163  -0.19358239    1.3326839   421400 
  501000   0.88873883  -0.19363268  -0.19363268    1.1394724   0.83056366  -0.19363268    1.3331051   421400 
  502000   0.88782873  -0.19202993  -0.19202993      1.13971   0.83269985  -0.19202993    1.3317399   421400 
  503000   0.88670094  -0.19214798  -0.19214798    1.1379003   0.83472485  -0.19214798    1.3300482   421400 
  504000   0.88770652  -0.19280008  -0.19280008    1.1387565   0.83315354  -0.19280008    1.3315566   421400 
  505000   0.88706079  -0.19291323  -0.19291323    1.1376748   0.83359688  -0.19291323     1.330588   421400 
  506000   0.88676554  -0.19337933  -0.19337933    1.1367658   0.83215982  -0.19337933    1.3301452   421400 
  507000   0.88792129  -0.19329311  -0.19329311    1.1385857   0.83012279  -0.19329311    1.3318788   421400 
  508000   0.88706856  -0.19389418  -0.19389418    1.1367055   0.82871785  -0.19389418    1.3305997   421400 
  509000   0.88598798   -0.1937595   -0.1937595    1.1352193   0.82860907   -0.1937595    1.3289788   421400 
  510000   0.88565909  -0.19386936  -0.19386936    1.1346161   0.82919695  -0.19386936    1.3284855   421400 
  511000   0.88702578  -0.19478753  -0.19478753     1.135748   0.82754418  -0.19478753    1.3305355   421400 
  512000   0.88480753  -0.19347239  -0.19347239    1.1337358   0.82939463  -0.19347239    1.3272082   421400 
  513000   0.88734297  -0.19541423  -0.19541423    1.1355971   0.82661108  -0.19541423    1.3310113   421400 
  514000   0.88506326  -0.19368108  -0.19368108    1.1339107   0.83050188  -0.19368108    1.3275917   421400 
  515000    0.8844095  -0.19417476  -0.19417476    1.1324363   0.82741877  -0.19417476    1.3266111   421400 
  516000   0.88340844  -0.19338712  -0.19338712    1.1317224   0.82757555  -0.19338712    1.3251095   421400 
  517000     0.882711  -0.19309558  -0.19309558    1.1309678    0.8300417  -0.19309558    1.3240634   421400 
  518000   0.88184051  -0.19298988  -0.19298988    1.1297677   0.83099778  -0.19298988    1.3227576   421400 
  519000   0.88315212    -0.194343    -0.194343     1.130382   0.82781036    -0.194343     1.324725   421400 
  520000   0.88252746   -0.1937156   -0.1937156    1.1300724   0.82783745   -0.1937156     1.323788   421400 
  521000   0.88379257  -0.19476642  -0.19476642    1.1309193   0.82626293  -0.19476642    1.3256857   421400 
  522000   0.88309733  -0.19463554  -0.19463554    1.1300073   0.82705221  -0.19463554    1.3246428   421400 
  523000   0.88403713  -0.19400191  -0.19400191    1.1320506   0.82796406  -0.19400191    1.3260525   421400 
  524000   0.88223737  -0.19432582  -0.19432582    1.1290271   0.82416449  -0.19432582    1.3233529   421400 
  525000   0.88232367  -0.19408886  -0.19408886    1.1293935   0.82609761  -0.19408886    1.3234824   421400 
  526000   0.88242761  -0.19441361  -0.19441361    1.1292247   0.82713087  -0.19441361    1.3236383   421400 
  527000   0.88234749  -0.19446115  -0.19446115     1.129057   0.82530335  -0.19446115    1.3235181   421400 
  528000   0.88139062  -0.19378401  -0.19378401    1.1282988   0.82715835  -0.19378401    1.3220828   421400 
  529000   0.88247844   -0.1950103   -0.1950103    1.1287042   0.82574518   -0.1950103    1.3237145   421400 
  530000   0.88354141  -0.19430734  -0.19430734    1.1310016   0.82689632  -0.19430734     1.325309   421400 
  531000   0.88328166  -0.19470298  -0.19470298    1.1302164   0.82712185  -0.19470298    1.3249193   421400 
  532000   0.88192003  -0.19412825  -0.19412825    1.1287487   0.82522366  -0.19412825    1.3228769   421400 
  533000   0.88207907   -0.1952968   -0.1952968    1.1278187   0.82322087   -0.1952968    1.3231155   421400 
  534000   0.88108195  -0.19548127  -0.19548127    1.1261385   0.82436802  -0.19548127    1.3216198   421400 
  535000   0.88147166  -0.19459363  -0.19459363    1.1276107   0.82556084  -0.19459363    1.3222044   421400 
  536000   0.88083421  -0.19479013  -0.19479013     1.126458   0.82407572  -0.19479013    1.3212482   421400 
  537000   0.87806176  -0.19534783  -0.19534783    1.1217417   0.82342694  -0.19534783    1.3170895   421400 
  538000   0.87607071  -0.19514708  -0.19514708    1.1189559   0.82125737  -0.19514708    1.3141029   421400 
  539000   0.87921192  -0.19491403  -0.19491403    1.1239007   0.82364852  -0.19491403    1.3188148   421400 
  540000   0.88021759  -0.19494866  -0.19494866    1.1253746   0.82491066  -0.19494866    1.3203232   421400 
  541000   0.87835623    -0.195242    -0.195242    1.1222892   0.82310797    -0.195242    1.3175312   421400 
  542000   0.87968192  -0.19511458  -0.19511458    1.1244052   0.82365236  -0.19511458    1.3195197   421400 
  543000   0.88043964  -0.19596321  -0.19596321    1.1246931   0.82311248  -0.19596321    1.3206563   421400 
  544000   0.87917797  -0.19483371  -0.19483371    1.1239301   0.82490343  -0.19483371    1.3187638   421400 
  545000     0.877909   -0.1945306   -0.1945306    1.1223298   0.82495851   -0.1945306    1.3168604   421400 
  546000   0.87737884  -0.19528147  -0.19528147    1.1207837   0.82112838  -0.19528147    1.3160651   421400 
  547000   0.87641836  -0.19487087  -0.19487087    1.1197535   0.82254382  -0.19487087    1.3146244   421400 
  548000   0.87742465  -0.19516969  -0.19516969    1.1209642   0.82078312  -0.19516969    1.3161338   421400 
  549000   0.87681442  -0.19590154  -0.19590154     1.119317   0.81906095  -0.19590154    1.3152185   421400 
  550000    0.8769753  -0.19540372  -0.19540372    1.1200561   0.82162526  -0.19540372    1.3154598   421400 
  551000   0.87407812  -0.19582721  -0.19582721    1.1152869   0.82092711  -0.19582721    1.3111141   421400 
  552000   0.87520822  -0.19577106  -0.19577106    1.1170382   0.82053041  -0.19577106    1.3128092   421400 
  553000   0.87679604  -0.19718907  -0.19718907    1.1180019   0.81623711  -0.19718907    1.3151909   421400 
  554000    0.8765726  -0.19626182  -0.19626182     1.118594   0.82036914  -0.19626182    1.3148558   421400 
  555000   0.87701903   -0.1964511   -0.1964511    1.1190743   0.81813932   -0.1964511    1.3155254   421400 
  556000   0.87609798  -0.19612463  -0.19612463    1.1180192    0.8181583  -0.19612463    1.3141438   421400 
  557000   0.87368662  -0.19588772  -0.19588772    1.1146391   0.81850558  -0.19588772    1.3105268   421400 
  558000    0.8750055  -0.19602222  -0.19602222    1.1164829   0.81937044  -0.19602222    1.3125051   421400 
  559000   0.87640764  -0.19620768  -0.19620768    1.1184007   0.81769491  -0.19620768    1.3146083   421400 
  560000     0.873253  -0.19480327  -0.19480327    1.1150731   0.82206497  -0.19480327    1.3098764   421400 
  561000    0.8734481  -0.19732417  -0.19732417    1.1128449   0.81433183  -0.19732417     1.310169   421400 
  562000   0.87173272  -0.19620986  -0.19620986    1.1113861   0.81770934  -0.19620986     1.307596   421400 
  563000   0.87263567  -0.19556163  -0.19556163    1.1133888    0.8193141  -0.19556163    1.3089504   421400 
  564000   0.87363467  -0.19487691  -0.19487691     1.115572   0.82109942  -0.19487691    1.3104489   421400 
  565000   0.87493104  -0.19572864  -0.19572864    1.1166648    0.8196342  -0.19572864    1.3123934   421400 
  566000   0.87567204  -0.19543791  -0.19543791     1.118067   0.82071208  -0.19543791    1.3135049   421400 
  567000   0.87476478  -0.19569805  -0.19569805     1.116446   0.81858289  -0.19569805    1.3121441   421400 
  568000   0.87211281  -0.19640905  -0.19640905    1.1117571   0.81831581  -0.19640905    1.3081661   421400 
  569000   0.87286652  -0.19706123  -0.19706123    1.1122354   0.81487123  -0.19706123    1.3092967   421400 
  570000   0.87381827  -0.19712409  -0.19712409    1.1136002   0.81577944  -0.19712409    1.3107243   421400 
  571000   0.87142548  -0.19599523  -0.19599523    1.1111399   0.81711341  -0.19599523    1.3071351   421400 
  572000   0.87339531  -0.19720032  -0.19720032    1.1128895   0.81578134  -0.19720032    1.3100898   421400 
  573000   0.87161799  -0.19797158  -0.19797158    1.1094523   0.81253032  -0.19797158    1.3074239   421400 
  574000   0.87148129  -0.19689044  -0.19689044    1.1103284   0.81510651  -0.19689044    1.3072188   421400 
  575000   0.87070191  -0.19727002  -0.19727002    1.1087798   0.81475685  -0.19727002    1.3060498   421400 
  576000   0.87201792  -0.19741645  -0.19741645    1.1106073   0.81280895  -0.19741645    1.3080238   421400 
  577000   0.87042178  -0.19666126  -0.19666126    1.1089683   0.81535986  -0.19666126    1.3056296   421400 
  578000   0.87056664  -0.19673915  -0.19673915    1.1091077   0.81537815  -0.19673915    1.3058469   421400 
  579000    0.8706922  -0.19794677  -0.19794677    1.1080884   0.81269472  -0.19794677    1.3060352   421400 
  580000   0.86972079  -0.19697799  -0.19697799    1.1076001   0.81534838  -0.19697799    1.3045781   421400 
  581000   0.86824747  -0.19685207  -0.19685207     1.105516   0.81343206  -0.19685207    1.3023681   421400 
  582000   0.86902822  -0.19733586  -0.19733586    1.1062034   0.81351924  -0.19733586    1.3035392   421400 
  583000   0.86919252  -0.19681895  -0.19681895    1.1069667   0.81645125  -0.19681895    1.3037857   421400 
  584000    0.8696404  -0.19657568  -0.19657568    1.1078818   0.81561759  -0.19657568    1.3044575   421400 
  585000   0.86896443  -0.19708461  -0.19708461    1.1063589    0.8144023  -0.19708461    1.3034435   421400 
  586000   0.86800552   -0.1975566   -0.1975566    1.1044486   0.81402955   -0.1975566    1.3020052   421400 
  587000   0.86707348  -0.19744338  -0.19744338    1.1031638   0.81316737  -0.19744338    1.3006071   421400 
  588000   0.86806013  -0.19746811  -0.19746811     1.104619   0.81293783  -0.19746811    1.3020871   421400 
  589000   0.86773632  -0.19805644  -0.19805644     1.103545   0.81206965  -0.19805644    1.3016014   421400 
  590000   0.86809436  -0.19803446  -0.19803446     1.104104   0.81082216  -0.19803446    1.3021385   421400 
  591000   0.86683576  -0.19825225  -0.19825225    1.1019983   0.80961849  -0.19825225    1.3002506   421400 
  592000   0.86569948   -0.1979538   -0.1979538    1.1005923   0.81095475   -0.1979538    1.2985461   421400 
  593000   0.86534296  -0.19711234  -0.19711234     1.100899   0.81224578  -0.19711234    1.2980114   421400 
  594000   0.86607405  -0.19900632  -0.19900632    1.1001017   0.80632502  -0.19900632     1.299108   421400 
  595000   0.86617573   -0.1968379   -0.1968379    1.1024226   0.81415503   -0.1968379    1.2992605   421400 
  596000   0.86673012  -0.19934393  -0.19934393    1.1007482   0.80653934  -0.19934393    1.3000921   421400 
  597000    0.8658521  -0.19848848  -0.19848848    1.1002866   0.80833444  -0.19848848    1.2987751   421400 
  598000   0.86639268  -0.19778591  -0.19778591       1.1018   0.81035195  -0.19778591    1.2995859   421400 
  599000   0.86566804  -0.19889788  -0.19889788    1.0996011   0.80711673  -0.19889788     1.298499   421400 
  600000   0.86454272   -0.1970267   -0.1970267    1.0997843   0.81147889   -0.1970267     1.296811   421400 
  601000   0.86409739  -0.19798309  -0.19798309    1.0981599   0.80934584  -0.19798309     1.296143   421400 
  602000   0.86593439  -0.19891894  -0.19891894    1.0999796   0.80689998  -0.19891894    1.2988985   421400 
  603000   0.86678823  -0.19882257  -0.19882257    1.1013567   0.80908878  -0.19882257    1.3001793   421400 
  604000   0.86684826   -0.1987389   -0.1987389    1.1015304   0.80872474   -0.1987389    1.3002693   421400 
  605000   0.86400436  -0.19891902  -0.19891902    1.0970844   0.80836443  -0.19891902    1.2960035   421400 
  606000    0.8637682  -0.19847684  -0.19847684    1.0971724   0.80765581  -0.19847684    1.2956492   421400 
  607000   0.86290739  -0.19953842  -0.19953842    1.0948196    0.8039525  -0.19953842     1.294358   421400 
  608000   0.86365162  -0.19847617  -0.19847617    1.0969982   0.80666065  -0.19847617    1.2954744   421400 
  609000   0.86184938  -0.19823315  -0.19823315    1.0945379   0.80878549  -0.19823315     1.292771   421400 
  610000   0.86307409  -0.19888454  -0.19888454    1.0957235   0.80552236  -0.19888454    1.2946081   421400 
  611000   0.86057842  -0.19829398  -0.19829398    1.0925706   0.80658652  -0.19829398    1.2908646   421400 
  612000   0.86158808  -0.19842209  -0.19842209     1.093957   0.80650364  -0.19842209    1.2923791   421400 
  613000   0.86216698  -0.19918514  -0.19918514    1.0940623   0.80512808  -0.19918514    1.2932474   421400 
  614000   0.86288337  -0.19817612  -0.19817612    1.0961459   0.80711682  -0.19817612     1.294322   421400 
  615000   0.86225718  -0.20034174  -0.20034174     1.093041   0.80030562  -0.20034174    1.2933827   421400 
  616000   0.86368817  -0.19875478  -0.19875478    1.0967744   0.80787024  -0.19875478    1.2955292   421400 
  617000   0.86142662  -0.19913027  -0.19913027    1.0930066     0.804153  -0.19913027    1.2921369   421400 
  618000    0.8603333  -0.19935013  -0.19935013    1.0911468   0.80353569  -0.19935013    1.2904969   421400 
  619000   0.86094514  -0.19977762  -0.19977762     1.091637   0.80502598  -0.19977762    1.2914146   421400 
  620000   0.86144675  -0.19959261  -0.19959261    1.0925745   0.80379842  -0.19959261    1.2921671   421400 
  621000   0.85867207  -0.19969895  -0.19969895    1.0883061   0.80154896  -0.19969895     1.288005   421400 
  622000   0.85964445  -0.19930175  -0.19930175    1.0901619   0.80383862  -0.19930175    1.2894636   421400 
  623000   0.85970426  -0.19933195  -0.19933195    1.0902214   0.80446211  -0.19933195    1.2895533   421400 
  624000   0.85826743  -0.19888391  -0.19888391    1.0885142   0.80394778  -0.19888391    1.2873981   421400 
  625000   0.85790934  -0.20034017  -0.20034017    1.0865208   0.80068572  -0.20034017     1.286861   421400 
  626000   0.85800194   -0.2016331   -0.2016331    1.0853667   0.79590507   -0.2016331    1.2869998   421400 
  627000   0.85736711   -0.2001274   -0.2001274    1.0859202   0.80054339   -0.2001274    1.2860476   421400 
  628000   0.85784494   -0.1998013   -0.1998013    1.0869631   0.80119333   -0.1998013    1.2867644   421400 
  629000   0.85976765  -0.20016033  -0.20016033    1.0894881   0.80229594  -0.20016033    1.2896484   421400 
  630000   0.85843979  -0.20014723  -0.20014723    1.0875094   0.79998204  -0.20014723    1.2876566   421400 
  631000   0.85837052  -0.20032368  -0.20032368     1.087229   0.80186804  -0.20032368    1.2875527   421400 
  632000    0.8585184  -0.19894315  -0.19894315    1.0888314   0.80461585  -0.19894315    1.2877745   421400 
  633000   0.85735889  -0.19960104  -0.19960104    1.0864342   0.80399053  -0.19960104    1.2860353   421400 
  634000    0.8581171  -0.19881334  -0.19881334    1.0883593   0.80334522  -0.19881334    1.2871726   421400 
  635000    0.8597123  -0.20168554  -0.20168554    1.0878799   0.79562777  -0.20168554    1.2895654   421400 
  636000   0.85644593  -0.19940051  -0.19940051    1.0852653   0.80238967  -0.19940051    1.2846658   421400 
  637000   0.85725794  -0.20018631  -0.20018631    1.0856975   0.80082068  -0.20018631    1.2858839   421400 
  638000   0.85889492  -0.19984803  -0.19984803    1.0884913   0.80149319  -0.19984803    1.2883393   421400 
  639000   0.85762379   -0.2003396   -0.2003396     1.086093   0.79992754   -0.2003396    1.2864326   421400 
  640000   0.85808449   -0.1999829   -0.1999829    1.0871408   0.80313559   -0.1999829    1.2871237   421400 
  641000   0.85705155  -0.20120928  -0.20120928     1.084365   0.79781533  -0.20120928    1.2855743   421400 
  642000   0.85635936  -0.19900696  -0.19900696     1.085529   0.80424928  -0.19900696     1.284536   421400 
  643000   0.85538256  -0.20061392  -0.20061392    1.0824569   0.79841091  -0.20061392    1.2830708   421400 
  644000   0.85655122  -0.20081331  -0.20081331    1.0840105   0.79881043  -0.20081331    1.2848238   421400 
  645000   0.85664752  -0.20060937  -0.20060937    1.0843589   0.79961087  -0.20060937    1.2849682   421400 
  646000   0.85745724  -0.20123318  -0.20123318    1.0849496   0.79863567  -0.20123318    1.2861828   421400 
  647000   0.85461791  -0.20030066  -0.20030066    1.0816232   0.80051033  -0.20030066    1.2819238   421400 
  648000   0.85527937  -0.20061056  -0.20061056    1.0823054   0.79782298  -0.20061056     1.282916   421400 
  649000   0.85403116  -0.20133813  -0.20133813    1.0797056   0.79713317  -0.20133813    1.2810437   421400 
  650000   0.85322179  -0.20090465  -0.20090465     1.078925    0.7985348  -0.20090465    1.2798296   421400 
  651000    0.8543045  -0.20055892  -0.20055892    1.0808948   0.80044062  -0.20055892    1.2814537   421400 
  652000   0.85635317  -0.20043856  -0.20043856    1.0840881   0.79972794  -0.20043856    1.2845267   421400 
  653000   0.85214351  -0.20097748  -0.20097748    1.0772347   0.79555229  -0.20097748    1.2782122   421400 
  654000   0.85110066  -0.20034438  -0.20034438    1.0763036   0.79816408  -0.20034438     1.276648   421400 
  655000   0.85192113  -0.20207507  -0.20207507    1.0758036   0.79230687  -0.20207507    1.2778787   421400 
  656000   0.85098361  -0.20038923  -0.20038923    1.0760832   0.79638932  -0.20038923    1.2764724   421400 
  657000    0.8531641  -0.20091267  -0.20091267    1.0788304    0.7984961  -0.20091267    1.2797431   421400 
  658000   0.85154962  -0.20078672  -0.20078672    1.0765347   0.79573589  -0.20078672    1.2773214   421400 
  659000   0.85244041  -0.20215578  -0.20215578    1.0765018   0.79305525  -0.20215578    1.2786576   421400 
  660000    0.8521247  -0.20178821  -0.20178821    1.0763958   0.79374792  -0.20178821     1.278184   421400 
  661000   0.85193408  -0.20129771  -0.20129771    1.0766004   0.79409273  -0.20129771    1.2778981   421400 
  662000   0.85322169  -0.20102422  -0.20102422    1.0788053   0.79612727  -0.20102422    1.2798295   421400 
  663000   0.85164117  -0.20073433  -0.20073433    1.0767244   0.79662571  -0.20073433    1.2774587   421400 
  664000   0.85100008  -0.20109258  -0.20109258    1.0754045    0.7959265  -0.20109258    1.2764971   421400 
  665000   0.85288295  -0.20191345  -0.20191345    1.0774079   0.79599554  -0.20191345    1.2793214   421400 
  666000   0.85060094  -0.20161928  -0.20161928    1.0742791   0.79178255  -0.20161928    1.2758984   421400 
  667000    0.8505225   -0.2025506   -0.2025506    1.0732301   0.79167376   -0.2025506    1.2757807   421400 
  668000   0.85180413  -0.20251001  -0.20251001    1.0751932   0.79192031  -0.20251001    1.2777032   421400 
  669000    0.8493508  -0.20177346  -0.20177346    1.0722497   0.79286865  -0.20177346    1.2740232   421400 
  670000   0.84874123  -0.20211308  -0.20211308    1.0709957   0.79221324  -0.20211308    1.2731088   421400 
  671000   0.84871597  -0.20100202  -0.20100202    1.0720689   0.79617237  -0.20100202    1.2730709   421400 
  672000   0.85044028  -0.20107491  -0.20107491    1.0745825   0.79473192  -0.20107491    1.2756574   421400 
  673000   0.85036635  -0.20201377  -0.20201377    1.0735327   0.79345626  -0.20201377    1.2755465   421400 
  674000   0.84808605  -0.20194944  -0.20194944    1.0701766   0.79302722  -0.20194944    1.2721261   421400 
  675000   0.84788975  -0.20241469  -0.20241469    1.0694169   0.79127477  -0.20241469    1.2718316   421400 
  676000   0.84707942  -0.20282403  -0.20282403    1.0677921   0.79015672  -0.20282403    1.2706161   421400 
  677000   0.84571066  -0.20173514  -0.20173514    1.0668278   0.79159641  -0.20173514     1.268563   421400 
  678000    0.8467356  -0.20288336  -0.20288336     1.067217   0.78973485  -0.20288336    1.2701004   421400 
  679000   0.84771756  -0.20271292  -0.20271292    1.0688604   0.79047059  -0.20271292    1.2715733   421400 
  680000   0.84787648  -0.20194305  -0.20194305    1.0698686   0.79314934  -0.20194305    1.2718117   421400 
  681000    0.8450853  -0.20149536  -0.20149536    1.0661296   0.79012775  -0.20149536    1.2676249   421400 
  682000    0.8475304  -0.20243811  -0.20243811    1.0688545   0.78935318  -0.20243811    1.2712926   421400 
[...]
23833000 0.0011950508  -0.55257712  -0.55257712   -0.3925708 0.00034572858  -0.55257712   0.16000632     4721 
23834000 0.0011963058  -0.55564993  -0.55564993  -0.39547559 0.00027076404  -0.55564993   0.16017435     4721 
23835000 0.0011937599  -0.55489098  -0.55489098  -0.39505751 0.0002937443  -0.55489098   0.15983347     4721 
23836000 0.0011958378  -0.55562099  -0.55562099   -0.3955093 0.00023731098  -0.55562099   0.16011169     4721 
23837000 0.0011959843  -0.55478614  -0.55478614  -0.39465483 0.00020662118  -0.55478614   0.16013131     4721 
23838000 0.0012198197   -0.5567158   -0.5567158  -0.39339316 0.00046719243   -0.5567158   0.16332264     4721 
23839000 0.0011957843   -0.5593239   -0.5593239  -0.39921938 0.00026513677   -0.5593239   0.16010452     4721 
23840000 0.0011697722  -0.55910995  -0.55910995   -0.4024882 0.00020258618  -0.55910995   0.15662175     4721 
23841000 0.0011983033  -0.55871203  -0.55871203  -0.39827023 0.00030794768  -0.55871203    0.1604418     4721 
23842000 0.0011730897  -0.55702335  -0.55702335  -0.39995743 0.00028860916  -0.55702335   0.15706593     4721 
23843000 0.0011889417  -0.55674705  -0.55674705  -0.39755869 0.00025254157  -0.55674705   0.15918836     4721 
23844000 0.0011954314  -0.55881591  -0.55881591  -0.39875863 0.00029245448  -0.55881591   0.16005728     4721 
23845000 0.0011976054  -0.55716859  -0.55716859  -0.39682024 0.00013377705  -0.55716859   0.16034835     4721 
23846000 0.0011954825  -0.55827461  -0.55827461  -0.39821049 0.00026567027  -0.55827461   0.16006412     4721 
23847000 0.0011830444  -0.55920541  -0.55920541  -0.40080664 0.00016348322  -0.55920541   0.15839877     4721 
23848000 0.0011643102  -0.55897941  -0.55897941  -0.40308897 0.00040581691  -0.55897941   0.15589043     4721 
23849000 0.0011954369  -0.55839956  -0.55839956  -0.39834155 0.00029363132  -0.55839956   0.16005801     4721 
23850000 0.0012065286  -0.55878884  -0.55878884  -0.39724575 0.00027744063  -0.55878884   0.16154309     4721 
23851000  0.001193863  -0.55746239  -0.55746239  -0.39761511 0.00024234621  -0.55746239   0.15984728     4721 
23852000 0.0011820981   -0.5602748   -0.5602748  -0.40200274 0.00029576676   -0.5602748   0.15827207     4721 
23853000 0.0011709075  -0.55953757  -0.55953757  -0.40276382 0.00016477656  -0.55953757   0.15677375     4721 
23854000 0.0011662513  -0.55836512  -0.55836512  -0.40221479 0.00024277845  -0.55836512   0.15615033     4721 
23855000 0.0011942176  -0.56136757  -0.56136757  -0.40147281 0.00023050347  -0.56136757   0.15989476     4721 
23856000 0.0012136798  -0.56257658  -0.56257658  -0.40007601 0.00025637249  -0.56257658   0.16250057     4721 
23857000 0.0011947814  -0.56378108  -0.56378108  -0.40381083 0.00013037832  -0.56378108   0.15997024     4721 
23858000 0.0011779401  -0.56138568  -0.56138568  -0.40367033 0.00028443196  -0.56138568   0.15771535     4721 
23859000 0.0011829686  -0.56175337  -0.56175337  -0.40336475 0.00030934627  -0.56175337   0.15838861     4721 
23860000 0.0011978411  -0.56481612  -0.56481612  -0.40443621 0.00023817757  -0.56481612   0.16037991     4721 
23861000 0.0011806821  -0.56472294  -0.56472294  -0.40664046 0.00021530163  -0.56472294   0.15808248     4721 
23862000 0.0011878911  -0.56197191  -0.56197191   -0.4029242 0.00021143005  -0.56197191    0.1590477     4721 
23863000 0.0011877737  -0.56219571  -0.56219571  -0.40316373 0.00027572718  -0.56219571   0.15903198     4721 
23864000 0.0011750957  -0.56550278  -0.56550278  -0.40816828 0.0003125507  -0.56550278   0.15733451     4721 
23865000 0.0011847033  -0.56702209  -0.56702209  -0.40840122 0.00027677915  -0.56702209   0.15862088     4721 
23866000 0.0011769604  -0.56376151  -0.56376151  -0.40617733 0.00026326054  -0.56376151   0.15758417     4721 
23867000 0.0011814279  -0.56492677  -0.56492677  -0.40674444 0.00022163131  -0.56492677   0.15818233     4721 
23868000 0.0011587712  -0.56625185  -0.56625185  -0.41110303 0.00020185377  -0.56625185   0.15514881     4721 
23869000 0.0011821943   -0.5673658   -0.5673658  -0.40908085 0.00026658075   -0.5673658   0.15828495     4721 
23870000 0.0011681071   -0.5632731   -0.5632731   -0.4068743 0.00034030557   -0.5632731    0.1563988     4721 
23871000 0.0011904179  -0.56579901  -0.56579901    -0.406413 0.00027877365  -0.56579901   0.15938601     4721 
23872000 0.0011835594  -0.56550651  -0.56550651  -0.40703879 0.00019355708  -0.56550651   0.15846772     4721 
23873000 0.0011695223  -0.56453931  -0.56453931  -0.40795102 0.00028769059  -0.56453931   0.15658829     4721 
23874000 0.0011715614  -0.56365798  -0.56365798  -0.40679667 0.00018966334  -0.56365798   0.15686131     4721 
23875000 0.0011863268  -0.56464492  -0.56464492  -0.40580667 0.00029941954  -0.56464492   0.15883826     4721 
23876000 0.0012092436  -0.56669873  -0.56669873  -0.40479212 0.00026045363  -0.56669873    0.1619066     4721 
23877000 0.0011854658  -0.56220686  -0.56220686  -0.40348389 0.00028498895  -0.56220686   0.15872297     4721 
23878000 0.0011834073  -0.56277883  -0.56277883  -0.40433147 0.00032988394  -0.56277883   0.15844736     4721 
23879000 0.0011849958  -0.56410332  -0.56410332  -0.40544328 0.00026626601  -0.56410332   0.15866004     4721 
23880000 0.0011703073   -0.5643283   -0.5643283  -0.40763491 0.00040502495   -0.5643283   0.15669339     4721 
23881000 0.0012006023   -0.5681769   -0.5681769  -0.40742729 0.00033468363   -0.5681769    0.1607496     4721 
23882000 0.0011993663  -0.56995303  -0.56995303  -0.40936891 0.00037558852  -0.56995303   0.16058412     4721 
23883000 0.0011721966  -0.56788857  -0.56788857  -0.41094222 0.00049695954  -0.56788857   0.15694635     4721 
23884000  0.001164351  -0.56675959  -0.56675959  -0.41086369 0.00031238611  -0.56675959   0.15589589     4721 
23885000 0.0011730896  -0.56266133  -0.56266133  -0.40559541 0.00027142651  -0.56266133   0.15706592     4721 
23886000 0.0011694497  -0.56267609  -0.56267609  -0.40609752 0.00037077981  -0.56267609   0.15657857     4721 
23887000 0.0011677755  -0.56389696  -0.56389696  -0.40754255 0.00015518695  -0.56389696    0.1563544     4721 
23888000 0.0011702529  -0.56370158  -0.56370158  -0.40701547 0.00021756944  -0.56370158   0.15668611     4721 
23889000 0.0011557896  -0.56471068  -0.56471068  -0.40996108 0.00012942925  -0.56471068   0.15474961     4721 
23890000 0.0011884876  -0.57086131  -0.57086131  -0.41173374 0.00013022788  -0.57086131   0.15912757     4721 
23891000 0.0011562826  -0.56724069  -0.56724069  -0.41242509 7.9109984e-05  -0.56724069   0.15481561     4721 
23892000 0.0011716506  -0.56607209  -0.56607209  -0.40919884 0.00029768101  -0.56607209   0.15687325     4721 
23893000  0.001167942  -0.56669692  -0.56669692  -0.41032023 0.00021228724  -0.56669692    0.1563767     4721 
23894000 0.0011765686  -0.56916619  -0.56916619  -0.41163447 9.3624443e-05  -0.56916619   0.15753172     4721 
23895000 0.0011614093  -0.56782858  -0.56782858  -0.41232655 0.00020285451  -0.56782858   0.15550203     4721 
23896000 0.0011802288  -0.56674246  -0.56674246  -0.40872067 0.00029645847  -0.56674246   0.15802179     4721 
23897000 0.0012004313  -0.56474768  -0.56474768  -0.40402097 0.00033252769  -0.56474768   0.16072672     4721 
23898000 0.0011893229  -0.56471407  -0.56471407  -0.40547466 0.00020761329  -0.56471407    0.1592394     4721 
23899000 0.0011851443  -0.56515794  -0.56515794  -0.40647802 0.00014525731  -0.56515794   0.15867992     4721 
23900000  0.001168247  -0.56473114  -0.56473114  -0.40831361 0.00038227361  -0.56473114   0.15641753     4721 
23901000 0.0011901661  -0.56576528  -0.56576528  -0.40641298 0.00029239475  -0.56576528   0.15935229     4721 
23902000 0.0011904518  -0.56459572  -0.56459572  -0.40520516 0.0004253898  -0.56459572   0.15939055     4721 
23903000 0.0011620525  -0.56351395  -0.56351395   -0.4079258 0.00030392531  -0.56351395   0.15558815     4721 
23904000 0.0011391287  -0.56529515  -0.56529515  -0.41277629 0.00023194484  -0.56529515   0.15251886     4721 
23905000 0.0011442923  -0.56465366  -0.56465366  -0.41144344 0.00016709366  -0.56465366   0.15321023     4721 
23906000 0.0011733625  -0.56660477  -0.56660477  -0.40950233 0.00030377637  -0.56660477   0.15710245     4721 
23907000 0.0011635203  -0.56454404  -0.56454404  -0.40875938 0.0002753358  -0.56454404   0.15578467     4721 
23908000 0.0011679397  -0.56537532  -0.56537532  -0.40899893 0.00029375607  -0.56537532   0.15637639     4721 
23909000 0.0011752171  -0.56740813  -0.56740813  -0.41005736 0.00029328385  -0.56740813   0.15735077     4721 
23910000 0.0011504192   -0.5696386   -0.5696386  -0.41560805 0.00032497016   -0.5696386   0.15403056     4721 
23911000 0.0011360034  -0.56929169  -0.56929169  -0.41719128 0.00016704571  -0.56929169   0.15210042     4721 
23912000 0.0011503125  -0.57180529  -0.57180529  -0.41778902 9.9994355e-05  -0.57180529   0.15401627     4721 
23913000 0.0011651231  -0.57247986  -0.57247986  -0.41648059 0.00019288139  -0.57247986   0.15599927     4721 
23914000 0.0011575917   -0.5678637   -0.5678637  -0.41287281 0.00024565724   -0.5678637   0.15499089     4721 
23915000 0.0011400225   -0.5674693   -0.5674693  -0.41483077 0.00015012725   -0.5674693   0.15263853     4721 
23916000 0.0011473876  -0.57292823  -0.57292823  -0.41930358 0.00024487814  -0.57292823   0.15362465     4721 
23917000 0.0011667575  -0.57286105  -0.57286105  -0.41664294 0.00031988179  -0.57286105   0.15621811     4721 
23918000 0.0011545424  -0.57113387  -0.57113387  -0.41655125 0.00035862467  -0.57113387   0.15458262     4721 
23919000 0.0011692621  -0.57045249  -0.57045249  -0.41389905 0.00032600009  -0.57045249   0.15655344     4721 
23920000  0.001148538  -0.56843632  -0.56843632  -0.41465764 5.7819749e-05  -0.56843632   0.15377867     4721 
23921000 0.0011628307  -0.56877015  -0.56877015  -0.41307782 0.00012814913  -0.56877015   0.15569234     4721 
23922000 0.0011622885   -0.5688987   -0.5688987  -0.41327895 0.00018431678   -0.5688987   0.15561975     4721 
23923000 0.0011489757  -0.56728966  -0.56728966  -0.41345238 4.2319151e-05  -0.56728966   0.15383729     4721 
23924000 0.0011602169  -0.56881701  -0.56881701  -0.41347464 0.0001658774  -0.56881701   0.15534237     4721 
23925000 0.0011650719  -0.56765694  -0.56765694  -0.41166453 0.00019756934  -0.56765694   0.15599241     4721 
23926000 0.0011689248  -0.56665415  -0.56665415  -0.41014587 0.00017030805  -0.56665415   0.15650828     4721 
23927000 0.0011928011  -0.56942752  -0.56942752  -0.40972241 9.4902202e-05  -0.56942752   0.15970511     4721 
23928000 0.0011601204  -0.56893129  -0.56893129  -0.41360184 0.00020561217  -0.56893129   0.15532945     4721 
23929000 0.0011474577  -0.56759633  -0.56759633   -0.4139623 0.00015956922  -0.56759633   0.15363403     4721 
23930000 0.0011529405  -0.57044002  -0.57044002  -0.41607189 0.00027656664  -0.57044002   0.15436813     4721 
23931000 0.0011723781  -0.57126434  -0.57126434  -0.41429369 0.00020027131  -0.57126434   0.15697064     4721 
23932000 0.0011403867  -0.56697011  -0.56697011  -0.41428281 0.00022876891  -0.56697011    0.1526873     4721 
23933000 0.0011636129  -0.56937365  -0.56937365  -0.41357658 0.00036506171  -0.56937365   0.15579708     4721 
23934000 0.0011586579  -0.56717007  -0.56717007  -0.41203642 0.00016782712  -0.56717007   0.15513365     4721 
23935000 0.0011507886  -0.56673034  -0.56673034  -0.41265032 0.00040801154  -0.56673034   0.15408002     4721 
23936000 0.0011340706  -0.57057329  -0.57057329  -0.41873166 0.00030563955  -0.57057329   0.15184162     4721 
23937000 0.0011461847  -0.57237243  -0.57237243  -0.41890883 0.00020624885  -0.57237243    0.1534636     4721 
23938000 0.0011283272    -0.570003    -0.570003  -0.41893036 0.00025744285    -0.570003   0.15107264     4721 
23939000 0.0011233517  -0.56730594  -0.56730594  -0.41689948 0.00027135658  -0.56730594   0.15040646     4721 
23940000 0.0011601751  -0.57292072  -0.57292072  -0.41758394 0.00022602419  -0.57292072   0.15533678     4721 
23941000 0.0011409023  -0.57160844  -0.57160844  -0.41885211 0.00036149568  -0.57160844   0.15275633     4721 
23942000 0.0011295586  -0.57206386  -0.57206386  -0.42082634 0.00027185109  -0.57206386   0.15123752     4721 
23943000 0.0011433977  -0.57274307  -0.57274307  -0.41965263 0.00027434569  -0.57274307   0.15309044     4721 
23944000 0.0011352691  -0.57349342  -0.57349342  -0.42149132 0.00027517237  -0.57349342    0.1520021     4721 
23945000  0.001145967  -0.57088772  -0.57088772  -0.41745327 0.00031398442  -0.57088772   0.15343445     4721 
23946000 0.0011540712   -0.5711196   -0.5711196  -0.41660007 0.00042114558   -0.5711196   0.15451953     4721 
23947000 0.0011740002  -0.57125629  -0.57125629  -0.41406846 0.00016760392  -0.57125629   0.15718783     4721 
23948000 0.0011222516  -0.56711009  -0.56711009  -0.41685092 0.00015448015  -0.56711009   0.15025917     4721 
23949000 0.0011526428  -0.57071478  -0.57071478  -0.41638651 7.8997808e-05  -0.57071478   0.15432827     4721 
23950000 0.0011538917  -0.57350791  -0.57350791  -0.41901243 0.00017454867  -0.57350791   0.15449548     4721 
23951000 0.0011675209   -0.5741927   -0.5741927  -0.41787239 9.0136585e-05   -0.5741927   0.15632031     4721 
23952000 0.0011550143  -0.57383256  -0.57383256  -0.41918677 0.00027078005  -0.57383256   0.15464579     4721 
23953000 0.0011514016  -0.57101188  -0.57101188  -0.41684978 0.00024703656  -0.57101188    0.1541621     4721 
23954000 0.0011161544  -0.57068984  -0.57068984  -0.42124703 0.00022213625  -0.57068984   0.14944281     4721 
23955000 0.0011641133  -0.57255784  -0.57255784  -0.41669377 0.00015798195  -0.57255784   0.15586406     4721 
23956000 0.0011434207   -0.5712595   -0.5712595  -0.41816597 0.00032030453   -0.5712595   0.15309353     4721 
23957000 0.0011431722   -0.5728492   -0.5728492  -0.41978895 0.00024371528   -0.5728492   0.15306024     4721 
23958000 0.0011503122   -0.5745162   -0.5745162  -0.42049997 7.6595282e-05   -0.5745162   0.15401624     4721 
23959000 0.0011307181  -0.57072826  -0.57072826  -0.41933551 0.00032933507  -0.57072826   0.15139275     4721 
23960000 0.0011613418   -0.5744508   -0.5744508   -0.4189578 0.00020344423   -0.5744508   0.15549299     4721 
23961000 0.0011417625  -0.57279472  -0.57279472  -0.41992321 0.0002640099  -0.57279472   0.15287151     4721 
23962000 0.0011375211  -0.57380284  -0.57380284  -0.42149922 0.00014159696  -0.57380284   0.15230361     4721 
23963000 0.0011581478  -0.57382733  -0.57382733  -0.41876199 0.00018012924  -0.57382733   0.15506534     4721 
23964000 0.0011603072  -0.57330495  -0.57330495  -0.41795049 0.00010324811  -0.57330495   0.15535446     4721 
23965000 0.0011670223   -0.5732525   -0.5732525  -0.41699893 0.00018041565   -0.5732525   0.15625356     4721 
23966000  0.001157591  -0.57225784  -0.57225784  -0.41726704 0.00024425041  -0.57225784    0.1549908     4721 
23967000 0.0011678119  -0.57792515  -0.57792515  -0.42156587 0.00023439159  -0.57792515   0.15635928     4721 
23968000 0.0011416808  -0.57564272  -0.57564272  -0.42278215 0.00016939212  -0.57564272   0.15286057     4721 
23969000 0.0011504625   -0.5747466   -0.5747466  -0.42071025 0.00017512605   -0.5747466   0.15403635     4721 
23970000 0.0011448848  -0.57588709  -0.57588709  -0.42259754 0.00025519465  -0.57588709   0.15328955     4721 
23971000 0.0011211487  -0.57665373  -0.57665373  -0.42654223 0.00011563521  -0.57665373   0.15011151     4721 
23972000 0.0011063187  -0.57704408  -0.57704408  -0.42891818 0.00016189966  -0.57704408    0.1481259     4721 
23973000  0.001118955  -0.57759417  -0.57759417  -0.42777638 0.00023116982  -0.57759417   0.14981778     4721 
23974000 0.0011070889  -0.57727301  -0.57727301  -0.42904398 0.00010988856  -0.57727301   0.14822903     4721 
23975000  0.001122755  -0.57696681  -0.57696681  -0.42664024 0.00022404731  -0.57696681   0.15032657     4721 
23976000 0.0011303414  -0.57952655  -0.57952655  -0.42818423 0.0002087628  -0.57952655   0.15134232     4721 
23977000 0.0011374371   -0.5777081   -0.5777081  -0.42541573 0.00016202708   -0.5777081   0.15229237     4721 
23978000 0.0011434821  -0.57873537  -0.57873537  -0.42563363 0.00016483895  -0.57873537   0.15310174     4721 
23979000 0.0011350185  -0.57654095  -0.57654095  -0.42457241 0.00017080893  -0.57654095   0.15196854     4721 
23980000 0.0011307334  -0.57616877  -0.57616877  -0.42477396 0.0002455737  -0.57616877   0.15139481     4721 
23981000 0.0011457158  -0.57994653  -0.57994653  -0.42654571 0.00013899454  -0.57994653   0.15340081     4721 
23982000 0.0011286518  -0.58092299  -0.58092299  -0.42980689 0.00016727469  -0.58092299    0.1511161     4721 
23983000 0.0011283274  -0.58142092  -0.58142092  -0.43034825 0.00021470442  -0.58142092   0.15107266     4721 
23984000 0.0011064658  -0.57981934  -0.57981934  -0.43167375 0.00011621682  -0.57981934   0.14814559     4721 
23985000 0.0011443225  -0.58174004  -0.58174004  -0.42852577 0.00011382357  -0.58174004   0.15321426     4721 
23986000 0.0011304678   -0.5845454   -0.5845454  -0.43318616 0.00022239164   -0.5845454   0.15135924     4721 
23987000 0.0011177599  -0.58299678  -0.58299678  -0.43333901 0.00013334435  -0.58299678   0.14965777     4721 
23988000 0.0011289399  -0.58304387  -0.58304387  -0.43188919 0.00027800923  -0.58304387   0.15115468     4721 
23989000 0.0011313717  -0.58784489  -0.58784489  -0.43636462 0.00018288912  -0.58784489   0.15148026     4721 
23990000 0.0011420919   -0.5861524   -0.5861524  -0.43323678 0.00015913433   -0.5861524   0.15291561     4721 
23991000 0.0011227144  -0.58707527  -0.58707527  -0.43675413 0.00010358627  -0.58707527   0.15032113     4721 
23992000 0.0010969132  -0.58522484  -0.58522484  -0.43835824 0.00016024542  -0.58522484    0.1468666     4721 
23993000 0.0011101471  -0.58447892  -0.58447892  -0.43584043 0.00026944289  -0.58447892   0.14863849     4721 
23994000 0.0011015813  -0.58155773  -0.58155773  -0.43406612 0.00021749969  -0.58155773   0.14749161     4721 
23995000 0.0011290065  -0.58412493  -0.58412493  -0.43296135 0.00020037257  -0.58412493   0.15116359     4721 
23996000 0.0011356829  -0.58418725  -0.58418725  -0.43212976 0.00014784151  -0.58418725   0.15205749     4721 
23997000 0.0011384855  -0.58551734  -0.58551734   -0.4330846 0.00017872639  -0.58551734   0.15243275     4721 
23998000 0.0011085272  -0.58574907  -0.58574907  -0.43732747 0.0002304606  -0.58574907    0.1484216     4721 
23999000 0.0010949043  -0.58419122  -0.58419122   -0.4375936 0.00012709379  -0.58419122   0.14659762     4721 
24000000 0.0011047826   -0.5847831   -0.5847831  -0.43686287 0.00027470274   -0.5847831   0.14792023     4721 
Loop time of 6718.56 on 192 procs for 20000000 steps with 4721 atoms

Performance: 1285990.010 tau/day, 2976.829 timesteps/s
84.6% CPU use with 192 MPI tasks x 1 OpenMP threads

MPI task timing breakdown:
Section |  min time  |  avg time  |  max time  |%varavg|  %CPU | %total
-----------------------------------------------------------------------
Pair    | 994.07     | 1057.9     | 1132.3     |  81.7 |  90.4 | 15.75
Bond    | 12.418     | 12.872     | 13.527     |   5.1 |  92.0 |  0.19
Neigh   | 805.88     | 861.31     | 895.79     |  61.6 |  92.4 | 12.82
Comm    | 1930.4     | 2147.5     | 2294.5     | 149.7 |  85.4 | 31.96
Output  | 1122.5     | 1126.3     | 1126.4     |   0.8 |  67.5 | 16.76
Modify  | 1159.1     | 1226.7     | 1337.1     | 105.7 |  88.7 | 18.26
Other   |            | 285.9      |            |       |       |  4.26

Nlocal:        24.5885 ave         223 max           0 min
Histogram: 168 0 0 0 0 0 2 6 5 11
Nghost:        248.141 ave         341 max          46 min
Histogram: 24 4 20 0 0 0 6 26 47 65
Neighs:        72.0833 ave         673 max           0 min
Histogram: 168 0 0 0 0 1 3 6 4 10

Total # of neighbors = 13840
Ave neighs/atom = 2.9315823
Ave special neighs/atom = 0.0000000
Neighbor list builds = 1786038
Dangerous builds = 715251
Total wall time: 2:38:12
