LAMMPS (24 Dec 2020)
OMP_NUM_THREADS environment is not set. Defaulting to 1 thread. (src/comm.cpp:94)
  using 1 OpenMP thread(s) per MPI task
#Read the equilibrated lj fluid and add nanocubes

units           lj
atom_style      full
#atom_modify     map array first cubes
dimension       3
boundary        p p f
pair_style      lj/cut/opt 2.5

variable        sigma           equal 1.0
variable        epsilon         equal 1.0

read_restart	${restart}
read_restart	restart.dat.4000000
Reading restart file ...
  restart file = 24 Dec 2020, LAMMPS = 24 Dec 2020
  restoring atom style full from restart
  orthogonal box = (0.0000000 0.0000000 0.0000000) to (160.00000 160.00000 320.00000)
  5 by 4 by 12 MPI processor grid
  restoring pair style lj/cut/opt from restart
  4180080 atoms
Finding 1-2 1-3 1-4 neighbors ...
  special bond factors lj:    0        0        0       
  special bond factors coul:  0        0        0       
     0 = max # of 1-2 neighbors
     0 = max # of 1-3 neighbors
     0 = max # of 1-4 neighbors
     1 = max # of special neighbors
  special bonds CPU = 1.939 seconds
  read_restart CPU = 3.600 seconds

neighbor      0.4 bin
neigh_modify  exclude molecule/intra cubes


pair_modify   shift yes

pair_coeff    1 1 1.0 1.0 #solvent
pair_coeff    2 2 0.6 1.0 #np
pair_coeff    3 3 0.0 0.0 0.0 #dummy
pair_coeff    2 3 0.0 0.0 0.0 #np dummy
pair_coeff    1 2 0.8 1.0 #np solvent
pair_coeff    1 3 0.0 0.0 0.0 #dummy solvent


comm_modify   mode multi cutoff/multi 1 2.5 cutoff/multi 2 2.5 cutoff/multi 3 6.95

reset_timestep 	0

balance 	1.05 shift z 10 1.05
Balancing ...
Unused restart file global fix info:
  fix style: STORE, fix ID: msd_COMPUTE_STORE
Neighbor list info ...
  update every 1 steps, delay 10 steps, check yes
  max neighbors/atom: 2000, page size: 100000
  master list distance cutoff = 2.9
  ghost atom cutoff = 6.95
  binsize = 1.45, bins = 111 111 221
  1 neighbor lists, perpetual/occasional/extra = 1 0 0
  (1) pair lj/cut/opt, perpetual
      attributes: half, newton on
      pair build: half/bin/newton
      stencil: half/bin/3d/newton
      bin: standard
 rebalancing time: 0.047 seconds
  iteration count = 5
  initial/final maximal load/proc = 30882.000 24882.000
  initial/final imbalance factor  = 1.7730953 1.4286042
  x cuts: 0.0000000 0.20000000 0.40000000 0.60000000 0.80000000 1.0000000
  y cuts: 0.0000000 0.25000000 0.50000000 0.75000000 1.0000000
  z cuts: 0.0000000 0.054687500 0.10677083 0.16145833 0.21354167 0.26562500 0.30468750 0.35677083 0.42447917 0.46875000 0.53125000 0.59375000 1.0000000

####################### WALLS ###########################

variable       epsilonWall equal 2*${epsilon}
variable       epsilonWall equal 2*1

variable       cutoffTop   equal   0.7147*${sigma}
variable       cutoffTop   equal   0.7147*1

variable       cutoffLow   equal   3*${sigma}
variable       cutoffLow   equal   3*1

region         lowWall block EDGE EDGE EDGE EDGE EDGE 2


fix            topWall all wall/lj93 zhi EDGE 	       ${epsilonWall} ${sigma} ${cutoffTop} units box
fix            topWall all wall/lj93 zhi EDGE 	       2 ${sigma} ${cutoffTop} units box
fix            topWall all wall/lj93 zhi EDGE 	       2 1 ${cutoffTop} units box
fix            topWall all wall/lj93 zhi EDGE 	       2 1 0.7147 units box

fix            lowWall all wall/lj93 zlo EDGE                ${epsilonWall} ${sigma} ${cutoffLow} units box
fix            lowWall all wall/lj93 zlo EDGE                2 ${sigma} ${cutoffLow} units box
fix            lowWall all wall/lj93 zlo EDGE                2 1 ${cutoffLow} units box
fix            lowWall all wall/lj93 zlo EDGE                2 1 3 units box


######################  FIXES ############################


fix             1 cubes rigid/nve/small molecule #temp 1.0 1.0 0.25
  create bodies CPU = 0.004 seconds
  512 rigid bodies with 585216 atoms
  6.9282032 = max distance from body owner to body atom

fix             2 solvent nve


## Thermostat

region          regthermo block EDGE EDGE EDGE EDGE 0 20
group           thermo dynamic solvent region regthermo every 1000
dynamic group thermo defined
fix             3 thermo langevin ${startTemp} ${temp} 0.1 156453
fix             3 thermo langevin 0.8 ${temp} 0.1 156453
fix             3 thermo langevin 0.8 0.8 0.1 156453


## Evaporation

region		regevap block EDGE EDGE EDGE EDGE 140 EDGE
fix 		evap solvent evaporate ${Nevap} 1 regevap 156455
fix 		evap solvent evaporate 75 1 regevap 156455


## Load balancing

fix             bal all balance 1000 1.05 shift z 10 1.05


############### Diagnostics and computes ###################

compute        com cubes          rigid/local   1 mol x y z
compute        quat cubes         rigid/local   1 mol quatw quati quatj quatk
compute 	cc2 cubes chunk/atom molecule

compute 	msd cubes msd/chunk cc2


thermo          1000
thermo_style    custom step temp epair evdwl etotal press pe ke vol


dump            1 all custom 100000 dump.lammpstrj id mol type x y z
dump            2 all image 10000 image.*.png type type
dump_modify     2 pad 8


dump		image cubes image 10000 image_cubes.*.png type type
dump_modify	image pad 8


dump            3 all movie 5000 movie.avi type type
dump           com cubes local 1000 dump.*.xyz c_com[*]
dump           quat cubes      local 1000 dump.*.quat c_quat[*]


restart         1000000 restart.dat
timestep        0.005
timer           full
New timer settings: style=full  mode=nosync  timeout=off

run            10000000
Per MPI rank memory allocation (min/avg/max) = 42.80 | 54.47 | 60.08 Mbytes
Step Temp E_pair E_vdwl TotEng Press PotEng KinEng Volume 
       0   0.80803818   -3.8156683   -3.8156683   -2.7730038  0.031542799   -3.8156683    1.0426645      8192000 
    1000   0.80812844   -3.8159416   -3.8159416   -2.7731574   0.03245785   -3.8159416    1.0427842      8192000 
    2000   0.80803631   -3.8159098   -3.8159098   -2.7732412  0.029384791   -3.8159098    1.0426686      8192000 
    3000   0.80799615   -3.8158212   -3.8158212    -2.773201  0.032355332   -3.8158212    1.0426202      8192000 
    4000   0.80839093   -3.8161974   -3.8161974   -2.7730645  0.028187498   -3.8161974    1.0431329      8192000 
    5000   0.80761237   -3.8154597   -3.8154597   -2.7733282  0.030951612   -3.8154597    1.0421315      8192000 
    6000   0.80769597   -3.8157291   -3.8157291   -2.7734863  0.029837874   -3.8157291    1.0422429      8192000 
    7000   0.80844501   -3.8163077   -3.8163077    -2.773095  0.026828929   -3.8163077    1.0432127      8192000 
    8000   0.80799805   -3.8157791   -3.8157791     -2.77314  0.027419055   -3.8157791    1.0426391      8192000 
    9000   0.80743079   -3.8156881   -3.8156881   -2.7737774  0.030247223   -3.8156881    1.0419106      8192000 
   10000   0.80775055   -3.8156793   -3.8156793   -2.7733528   0.02932643   -3.8156793    1.0423265      8192000 
   11000   0.80775039    -3.815404    -3.815404   -2.7730744  0.032263828    -3.815404    1.0423295      8192000 
   12000   0.80773863   -3.8155713   -3.8155713   -2.7732534  0.031404906   -3.8155713    1.0423179      8192000 
   13000    0.8078069   -3.8156195   -3.8156195   -2.7732103  0.028604069   -3.8156195    1.0424092      8192000 
   14000   0.80773757   -3.8150458   -3.8150458   -2.7727228  0.031579619   -3.8150458     1.042323      8192000 
   15000   0.80739671   -3.8148922   -3.8148922   -2.7730056  0.030085027   -3.8148922    1.0418866      8192000 
   16000   0.80771535   -3.8155287   -3.8155287   -2.7732277  0.031522616   -3.8155287     1.042301      8192000 
   17000   0.80763713   -3.8154192   -3.8154192   -2.7732158  0.028448477   -3.8154192    1.0422033      8192000 
   18000   0.80793229   -3.8155122   -3.8155122   -2.7729245  0.032787836   -3.8155122    1.0425877      8192000 
   19000   0.80803296   -3.8156974   -3.8156974   -2.7729766  0.030158195   -3.8156974    1.0427209      8192000 
   20000   0.80793745   -3.8154504   -3.8154504   -2.7728495  0.031455805   -3.8154504    1.0426009      8192000 
   21000   0.80788048   -3.8152201   -3.8152201   -2.7726893  0.031121444   -3.8152201    1.0425308      8192000 
   22000   0.80787858   -3.8156823   -3.8156823   -2.7731506  0.029972664   -3.8156823    1.0425316      8192000 
   23000   0.80749351   -3.8149633   -3.8149633   -2.7729253  0.029714319   -3.8149633    1.0420379      8192000 
   24000   0.80810472   -3.8157563   -3.8157563   -2.7729261  0.030090101   -3.8157563    1.0428302      8192000 
   25000   0.80801629   -3.8156173   -3.8156173    -2.772898  0.031147872   -3.8156173    1.0427193      8192000 
   26000    0.8075475   -3.8150957   -3.8150957   -2.7729781  0.030774025   -3.8150957    1.0421176      8192000 
   27000   0.80758026   -3.8153541   -3.8153541   -2.7731907  0.032736527   -3.8153541    1.0421634      8192000 
   28000   0.80773389   -3.8158509   -3.8158509   -2.7734861  0.028996076   -3.8158509    1.0423649      8192000 
   29000   0.80789692   -3.8153558   -3.8153558   -2.7727773  0.027579894   -3.8153558    1.0425785      8192000 
   30000   0.80739264    -3.814982    -3.814982   -2.7730508  0.030293485    -3.814982    1.0419312      8192000 
   31000   0.80796543   -3.8158003   -3.8158003   -2.7731266  0.028732304   -3.8158003    1.0426736      8192000 
   32000   0.80761767   -3.8154168   -3.8154168   -2.7731888   0.02852725   -3.8154168    1.0422281      8192000 
   33000   0.80752203   -3.8150456   -3.8150456   -2.7729374  0.029741622   -3.8150456    1.0421082      8192000 
   34000   0.80762959   -3.8151597   -3.8151597   -2.7729095  0.029937733   -3.8151597    1.0422502      8192000 
   35000   0.80771528   -3.8152843   -3.8152843   -2.7729203  0.030300415   -3.8152843     1.042364      8192000 
   36000   0.80745109   -3.8152713   -3.8152713   -2.7732447  0.029053024   -3.8152713    1.0420266      8192000 
   37000   0.80765519   -3.8147568   -3.8147568   -2.7724636   0.03044268   -3.8147568    1.0422932      8192000 
   38000    0.8077598   -3.8150496   -3.8150496   -2.7726182  0.030646308   -3.8150496    1.0424315      8192000 
   39000   0.80728721   -3.8146344   -3.8146344   -2.7728093    0.0330042   -3.8146344    1.0418251      8192000 
   40000   0.80803014   -3.8156809   -3.8156809   -2.7728939  0.027421629   -3.8156809    1.0427871      8192000 
   41000   0.80731512   -3.8148583   -3.8148583   -2.7729907   0.03308029   -3.8148583    1.0418676      8192000 
   42000   0.80808217   -3.8161023   -3.8161023   -2.7732413  0.028697653   -3.8161023     1.042861      8192000 
   43000   0.80772267    -3.815831    -3.815831   -2.7734308    0.0285853    -3.815831    1.0424003      8192000 
   44000   0.80771955   -3.8154901   -3.8154901   -2.7730906  0.029595376   -3.8154901    1.0423995      8192000 
   45000   0.80746346   -3.8155886   -3.8155886   -2.7735161  0.029161528   -3.8155886    1.0420725      8192000 
   46000   0.80756206    -3.815133    -3.815133     -2.77293  0.031537878    -3.815133     1.042203      8192000 
   47000   0.80786539   -3.8153246   -3.8153246   -2.7727269   0.02949357   -3.8153246    1.0425977      8192000 
   48000   0.80820652   -3.8155737   -3.8155737   -2.7725323  0.029669761   -3.8155737    1.0430414      8192000 
   49000   0.80808389   -3.8154906   -3.8154906   -2.7726042  0.029961134   -3.8154906    1.0428864      8192000 
   50000    0.8079551   -3.8153457   -3.8153457   -2.7726223  0.030950119   -3.8153457    1.0427234      8192000 
   51000   0.80745282   -3.8147533   -3.8147533   -2.7726746  0.032237555   -3.8147533    1.0420787      8192000 
   52000   0.80780728   -3.8154785   -3.8154785   -2.7729391  0.032177385   -3.8154785    1.0425394      8192000 
   53000   0.80807226   -3.8158153   -3.8158153   -2.7729307  0.031806224   -3.8158153    1.0428846      8192000 
   54000   0.80796659   -3.8155439   -3.8155439   -2.7727922  0.032391761   -3.8155439    1.0427517      8192000 
   55000   0.80806456    -3.815544    -3.815544   -2.7726626  0.030650156    -3.815544    1.0428814      8192000 
   56000   0.80797546   -3.8157106   -3.8157106   -2.7729409  0.027972971   -3.8157106    1.0427697      8192000 
   57000   0.80796288   -3.8156068   -3.8156068   -2.7728499  0.030893357   -3.8156068    1.0427569      8192000 
   58000   0.80757068   -3.8153315   -3.8153315   -2.7730776  0.030655892   -3.8153315     1.042254      8192000 
   59000   0.80754367   -3.8156335   -3.8156335   -2.7734111  0.028222771   -3.8156335    1.0422224      8192000 
   60000   0.80767518   -3.8154118   -3.8154118   -2.7730162  0.030031132   -3.8154118    1.0423956      8192000 
   61000   0.80724825   -3.8152843   -3.8152843   -2.7734365  0.030819294   -3.8152843    1.0418478      8192000 
   62000   0.80781338   -3.8154764   -3.8154764    -2.772896  0.028802409   -3.8154764    1.0425804      8192000 
   63000   0.80716699   -3.8150398   -3.8150398   -2.7732902  0.030353229   -3.8150398    1.0417497      8192000 
   64000   0.80795586   -3.8156721   -3.8156721    -2.772901  0.031079844   -3.8156721    1.0427711      8192000 
   65000   0.80745225   -3.8154157   -3.8154157   -2.7732914  0.032146383   -3.8154157    1.0421243      8192000 
   66000   0.80762543   -3.8153147   -3.8153147   -2.7729634  0.030893907   -3.8153147    1.0423513      8192000 
   67000   0.80764401   -3.8149243   -3.8149243   -2.7725457  0.032325268   -3.8149243    1.0423785      8192000 
   68000   0.80735709   -3.8151883   -3.8151883   -2.7731768  0.029373511   -3.8151883    1.0420115      8192000 
   69000   0.80786044   -3.8157481   -3.8157481   -2.7730835  0.030168245   -3.8157481    1.0426646      8192000 
   70000   0.80760491   -3.8154145   -3.8154145   -2.7730764  0.029656526   -3.8154145    1.0423381      8192000 
   71000   0.80759252   -3.8151695   -3.8151695   -2.7728442  0.033382176   -3.8151695    1.0423253      8192000 
   72000   0.80804261   -3.8156963   -3.8156963   -2.7727866   0.03101981   -3.8156963    1.0429097      8192000 
   73000   0.80804347   -3.8154916   -3.8154916   -2.7725775  0.031906143   -3.8154916    1.0429141      8192000 
   74000   0.80794473   -3.8153398   -3.8153398   -2.7725499  0.031978633   -3.8153398    1.0427899      8192000 
   75000    0.8076435   -3.8150653   -3.8150653   -2.7726607  0.030889668   -3.8150653    1.0424046      8192000 
   76000   0.80770963    -3.815262    -3.815262   -2.7727688  0.034097851    -3.815262    1.0424932      8192000 
   77000   0.80817265   -3.8158063   -3.8158063   -2.7727122  0.032289589   -3.8158063     1.043094      8192000 
   78000   0.80821476   -3.8154638   -3.8154638   -2.7723119  0.030247879   -3.8154638    1.0431519      8192000 
   79000   0.80790794   -3.8154885   -3.8154885   -2.7727294  0.035325777   -3.8154885    1.0427591      8192000 
   80000   0.80755337   -3.8152785   -3.8152785   -2.7729738  0.031388449   -3.8152785    1.0423047      8192000 
   81000   0.80786948   -3.8154027   -3.8154027   -2.7726865   0.02966842   -3.8154027    1.0427162      8192000 
   82000   0.80750639   -3.8152484   -3.8152484   -2.7729976   0.03088812   -3.8152484    1.0422508      8192000 
   83000   0.80749589   -3.8152406   -3.8152406   -2.7730001   0.02940353   -3.8152406    1.0422405      8192000 
   84000   0.80735495   -3.8150934   -3.8150934   -2.7730314  0.030275835   -3.8150934    1.0420621      8192000 
   85000   0.80761573    -3.815299    -3.815299    -2.772897   0.02977217    -3.815299    1.0424019      8192000 
   86000   0.80775623   -3.8153914   -3.8153914   -2.7728049  0.027151805   -3.8153914    1.0425865      8192000 
   87000   0.80744076   -3.8150844   -3.8150844   -2.7729016  0.030631598   -3.8150844    1.0421828      8192000 
   88000   0.80754794   -3.8153841   -3.8153841   -2.7730597  0.027026278   -3.8153841    1.0423244      8192000 
   89000   0.80710357    -3.814738    -3.814738    -2.772984  0.030517217    -3.814738    1.0417541      8192000 
   90000   0.80719933   -3.8145967   -3.8145967   -2.7727155  0.031747994   -3.8145967    1.0418812      8192000 
   91000   0.80749591   -3.8149891   -3.8149891   -2.7727219  0.029838444   -3.8149891    1.0422672      8192000 
   92000   0.80793119   -3.8150165   -3.8150165   -2.7721842  0.030274911   -3.8150165    1.0428323      8192000 
   93000   0.80782502   -3.8151328   -3.8151328   -2.7724341   0.03379952   -3.8151328    1.0426988      8192000 
   94000   0.80740231   -3.8141425   -3.8141425   -2.7719862  0.033823707   -3.8141425    1.0421564      8192000 
   95000   0.80815252   -3.8158061   -3.8158061   -2.7726782  0.027539072   -3.8158061     1.043128      8192000 
   96000   0.80783494   -3.8154539   -3.8154539   -2.7727323  0.028984306   -3.8154539    1.0427215      8192000 
   97000   0.80816439   -3.8155161   -3.8155161   -2.7723661  0.028500341   -3.8155161      1.04315      8192000 
   98000   0.80811926   -3.8154632   -3.8154632   -2.7723682  0.029917138   -3.8154632     1.043095      8192000 
   99000   0.80780249   -3.8149788   -3.8149788   -2.7722891  0.030083492   -3.8149788    1.0426896      8192000 
  100000   0.80800374   -3.8151091   -3.8151091   -2.7721564  0.030297548   -3.8151091    1.0429526      8192000 
  101000   0.80783622   -3.8149374   -3.8149374   -2.7721977  0.032453233   -3.8149374    1.0427397      8192000 
  102000   0.80759011   -3.8146782   -3.8146782   -2.7722527  0.032002133   -3.8146782    1.0424255      8192000 
  103000   0.80813503   -3.8153259   -3.8153259   -2.7721938   0.02960526   -3.8153259    1.0431321      8192000 
  104000   0.80738432   -3.8142172   -3.8142172   -2.7720509  0.029828957   -3.8142172    1.0421663      8192000 
  105000   0.80756536    -3.814681    -3.814681   -2.7722775  0.031257189    -3.814681    1.0424035      8192000 
  106000    0.8081756   -3.8154128   -3.8154128   -2.7722184  0.028197892   -3.8154128    1.0431944      8192000 
  107000   0.80764618   -3.8148041   -3.8148041   -2.7722898  0.029642416   -3.8148041    1.0425143      8192000 
  108000   0.80759762   -3.8147539   -3.8147539   -2.7722988  0.031708924   -3.8147539    1.0424551      8192000 
  109000   0.80758721   -3.8149071   -3.8149071   -2.7724622  0.030792956   -3.8149071    1.0424449      8192000 
  110000   0.80732341   -3.8145782   -3.8145782   -2.7724705  0.027580792   -3.8145782    1.0421077      8192000 
  111000   0.80730569   -3.8147642   -3.8147642   -2.7726759  0.030852397   -3.8147642    1.0420883      8192000 
  112000   0.80715925   -3.8147118   -3.8147118   -2.7728093  0.028937135   -3.8147118    1.0419025      8192000 
  113000   0.80706806   -3.8143214   -3.8143214   -2.7725334  0.030275735   -3.8143214     1.041788      8192000 
  114000   0.80709671   -3.8144296   -3.8144296   -2.7726011  0.028559819   -3.8144296    1.0418285      8192000 
  115000    0.8076087   -3.8148734   -3.8148734   -2.7723808  0.029241018   -3.8148734    1.0424926      8192000 
  116000     0.807566   -3.8147404   -3.8147404   -2.7722996  0.028694348   -3.8147404    1.0424408      8192000 
  117000   0.80703978   -3.8144527   -3.8144527   -2.7726877  0.029527712   -3.8144527     1.041765      8192000 
  118000    0.8073457   -3.8143143   -3.8143143   -2.7721512  0.029432372   -3.8143143    1.0421631      8192000 
  119000   0.80766099   -3.8149047   -3.8149047   -2.7723314  0.030334512   -3.8149047    1.0425733      8192000 
  120000   0.80765872   -3.8145128   -3.8145128   -2.7719389  0.030086201   -3.8145128    1.0425739      8192000 
  121000   0.80741935   -3.8141627   -3.8141627   -2.7718946  0.031235061   -3.8141627    1.0422682      8192000 
  122000   0.80766862   -3.8148836   -3.8148836   -2.7722904  0.031527722   -3.8148836    1.0425932      8192000 
  123000   0.80785815   -3.8149191   -3.8149191   -2.7720778  0.031668954   -3.8149191    1.0428413      8192000 
  124000   0.80805921   -3.8152417   -3.8152417   -2.7721375  0.030734909   -3.8152417    1.0431041      8192000 
  125000   0.80785892   -3.8149215   -3.8149215   -2.7720726  0.030522892   -3.8149215    1.0428488      8192000 
  126000    0.8073623   -3.8147147   -3.8147147   -2.7725035  0.032210905   -3.8147147    1.0422112      8192000 
  127000   0.80755363   -3.8147702   -3.8147702   -2.7723087   0.02968073   -3.8147702    1.0424615      8192000 
  128000   0.80757411   -3.8151017   -3.8151017   -2.7726106  0.028682223   -3.8151017    1.0424911      8192000 
  129000   0.80731331   -3.8144313   -3.8144313   -2.7722733   0.03398009   -3.8144313     1.042158      8192000 
  130000    0.8075235   -3.8147649   -3.8147649   -2.7723323  0.032270529   -3.8147649    1.0424325      8192000 
  131000   0.80778309   -3.8147322   -3.8147322   -2.7719613  0.027739069   -3.8147322    1.0427709      8192000 
  132000   0.80725476   -3.8144172   -3.8144172   -2.7723249  0.028055108   -3.8144172    1.0420924      8192000 
  133000   0.80759555   -3.8145804   -3.8145804   -2.7720449  0.031568658   -3.8145804    1.0425355      8192000 
  134000   0.80736019   -3.8144367   -3.8144367   -2.7722018  0.031760008   -3.8144367    1.0422349      8192000 
  135000   0.80766135   -3.8145443   -3.8145443   -2.7719171  0.031195733   -3.8145443    1.0426272      8192000 
  136000   0.80718763   -3.8140033   -3.8140033   -2.7719844  0.030401014   -3.8140033    1.0420189      8192000 
  137000    0.8078126   -3.8147987   -3.8147987   -2.7719698  0.029613748   -3.8147987    1.0428289      8192000 
  138000   0.80765442   -3.8143406   -3.8143406   -2.7717123  0.031303645   -3.8143406    1.0426282      8192000 
  139000   0.80735985   -3.8142891   -3.8142891   -2.7720379  0.030174639   -3.8142891    1.0422512      8192000 
  140000   0.80726765   -3.8142619   -3.8142619   -2.7721265  0.030265667   -3.8142619    1.0421354      8192000 
  141000    0.8078467    -3.814271    -3.814271   -2.7713845  0.027834741    -3.814271    1.0428864      8192000 
  142000   0.80769291   -3.8145848   -3.8145848   -2.7718936  0.029058136   -3.8145848    1.0426912      8192000 
  143000   0.80738683   -3.8141832   -3.8141832   -2.7718839  0.030158319   -3.8141832    1.0422993      8192000 
  144000   0.80671737   -3.8139405   -3.8139405    -2.772502  0.030640869   -3.8139405    1.0414385      8192000 
  145000   0.80726787   -3.8142961   -3.8142961   -2.7721437  0.028948581   -3.8142961    1.0421524      8192000 
  146000   0.80752241   -3.8146218   -3.8146218   -2.7721375  0.026874521   -3.8146218    1.0424843      8192000 
  147000   0.80754512   -3.8143569   -3.8143569   -2.7718398  0.028866735   -3.8143569    1.0425171      8192000 
  148000   0.80737872    -3.814183    -3.814183   -2.7718775  0.029434164    -3.814183    1.0423055      8192000 
  149000    0.8071526    -3.813923    -3.813923   -2.7719061  0.032420659    -3.813923    1.0420168      8192000 
  150000   0.80752967   -3.8145804   -3.8145804   -2.7720733  0.029606465   -3.8145804    1.0425071      8192000 
  151000   0.80747736   -3.8144002   -3.8144002   -2.7719574   0.02962435   -3.8144002    1.0424428      8192000 
  152000   0.80719782   -3.8144445   -3.8144445   -2.7723593  0.029649598   -3.8144445    1.0420852      8192000 
  153000    0.8073532   -3.8142372   -3.8142372   -2.7719479  0.032859605   -3.8142372    1.0422893      8192000 
  154000   0.80719037   -3.8139024   -3.8139024   -2.7718201  0.032444666   -3.8139024    1.0420823      8192000 
  155000   0.80722632   -3.8142532   -3.8142532   -2.7721213  0.033785908   -3.8142532     1.042132      8192000 
  156000   0.80733641   -3.8141059   -3.8141059   -2.7718284   0.03329727   -3.8141059    1.0422776      8192000 
  157000   0.80731117   -3.8138633   -3.8138633   -2.7716151  0.032881898   -3.8138633    1.0422482      8192000 
  158000   0.80751151   -3.8143085   -3.8143085   -2.7717984  0.032244358   -3.8143085    1.0425101      8192000 
  159000   0.80777701   -3.8145952   -3.8145952   -2.7717388  0.032927736   -3.8145952    1.0428564      8192000 
  160000   0.80785692   -3.8146331   -3.8146331   -2.7716703    0.0310503   -3.8146331    1.0429628      8192000 
  161000   0.80761773    -3.814417    -3.814417   -2.7717597  0.031243946    -3.814417    1.0426572      8192000 
  162000   0.80745828   -3.8142576   -3.8142576   -2.7718027  0.028727248   -3.8142576    1.0424549      8192000 
  163000   0.80764162   -3.8144965   -3.8144965   -2.7718017    0.0293391   -3.8144965    1.0426948      8192000 
  164000   0.80789714   -3.8144841   -3.8144841   -2.7714562  0.030221824   -3.8144841     1.043028      8192000 
  165000   0.80716901   -3.8138276   -3.8138276   -2.7717361  0.032706504   -3.8138276    1.0420914      8192000 
  166000   0.80733021   -3.8138866   -3.8138866   -2.7715839  0.027859856   -3.8138866    1.0423028      8192000 
  167000   0.80746377   -3.8141259   -3.8141259   -2.7716475  0.030238645   -3.8141259    1.0424784      8192000 
  168000   0.80739368   -3.8138552   -3.8138552   -2.7714637   0.03176903   -3.8138552    1.0423914      8192000 
  169000   0.80728097   -3.8138236   -3.8138236   -2.7715744  0.027490514   -3.8138236    1.0422492      8192000 
  170000   0.80723719   -3.8140494   -3.8140494   -2.7718535  0.029267536   -3.8140494    1.0421959      8192000 
  171000   0.80718609    -3.813909    -3.813909   -2.7717756  0.029317476    -3.813909    1.0421334      8192000 
  172000   0.80770946    -3.814549    -3.814549   -2.7717367  0.029277067    -3.814549    1.0428124      8192000 
  173000   0.80690972   -3.8138208   -3.8138208   -2.7720378  0.032993528   -3.8138208    1.0417831      8192000 
  174000   0.80676522   -3.8137276   -3.8137276   -2.7721276  0.031912041   -3.8137276       1.0416      8192000 
  175000   0.80700458   -3.8142173   -3.8142173    -2.772305  0.031255804   -3.8142173    1.0419123      8192000 
  176000   0.80707626   -3.8140697   -3.8140697   -2.7720616  0.028941589   -3.8140697    1.0420081      8192000 
  177000    0.8070914   -3.8139603   -3.8139603   -2.7719291  0.033072656   -3.8139603    1.0420311      8192000 
  178000   0.80686748   -3.8133541   -3.8133541   -2.7716089  0.033146739   -3.8133541    1.0417452      8192000 
  179000   0.80693642   -3.8134927   -3.8134927   -2.7716552  0.030800929   -3.8134927    1.0418375      8192000 
  180000   0.80696231   -3.8137468   -3.8137468   -2.7718724  0.028173823   -3.8137468    1.0418744      8192000 
  181000   0.80686651   -3.8137917   -3.8137917   -2.7720377  0.031118699   -3.8137917     1.041754      8192000 
  182000   0.80709139   -3.8141462   -3.8141462   -2.7720986  0.030619634   -3.8141462    1.0420476      8192000 
  183000   0.80759034   -3.8145101   -3.8145101   -2.7718148    0.0313537   -3.8145101    1.0426953      8192000 
  184000   0.80780386   -3.8147194   -3.8147194   -2.7717452  0.033755358   -3.8147194    1.0429742      8192000 
  185000    0.8076084   -3.8147877   -3.8147877   -2.7720626  0.031258663   -3.8147877    1.0427251      8192000 
  186000   0.80769468   -3.8151827   -3.8151827   -2.7723427  0.029995372   -3.8151827      1.04284      8192000 
  187000    0.8076543   -3.8148744   -3.8148744   -2.7720833  0.030145848   -3.8148744    1.0427911      8192000 
  188000   0.80783729   -3.8149864   -3.8149864   -2.7719558  0.031007647   -3.8149864    1.0430306      8192000 
  189000   0.80731692   -3.8139188   -3.8139188   -2.7715566   0.03375191   -3.8139188    1.0423622      8192000 
  190000   0.80730018   -3.8144864   -3.8144864   -2.7721426  0.032279922   -3.8144864    1.0423438      8192000 
  191000   0.80733719   -3.8144205   -3.8144205   -2.7720256  0.033246624   -3.8144205    1.0423949      8192000 
  192000   0.80747977   -3.8150139   -3.8150139   -2.7724315  0.029227587   -3.8150139    1.0425824      8192000 
  193000   0.80743751    -3.814583    -3.814583   -2.7720518  0.031924883    -3.814583    1.0425311      8192000 
  194000   0.80780095   -3.8150348   -3.8150348   -2.7720312  0.031016484   -3.8150348    1.0430036      8192000 
  195000   0.80746566   -3.8149228   -3.8149228   -2.7723486   0.03200083   -3.8149228    1.0425742      8192000 
  196000   0.80770387   -3.8146071   -3.8146071   -2.7717221  0.031287467   -3.8146071     1.042885      8192000 
  197000   0.80726346   -3.8145884   -3.8145884   -2.7722688  0.030619552   -3.8145884    1.0423196      8192000 
  198000    0.8073088   -3.8142072   -3.8142072   -2.7718255  0.032071971   -3.8142072    1.0423817      8192000 
  199000   0.80757757   -3.8144659   -3.8144659   -2.7717339    0.0301745   -3.8144659    1.0427319      8192000 
  200000   0.80718533   -3.8137494   -3.8137494   -2.7715207  0.031634307   -3.8137494    1.0422287      8192000 
  201000   0.80705167    -3.813642    -3.813642   -2.7715824  0.030852358    -3.813642    1.0420596      8192000 
  202000   0.80726331    -3.814111    -3.814111   -2.7717749  0.029826185    -3.814111    1.0423361      8192000 
  203000   0.80717476   -3.8139906   -3.8139906   -2.7717655  0.029361473   -3.8139906    1.0422251      8192000 
  204000   0.80712429   -3.8139833   -3.8139833   -2.7718199   0.03020324   -3.8139833    1.0421634      8192000 
  205000   0.80673367   -3.8136409   -3.8136409   -2.7719787  0.029252301   -3.8136409    1.0416623      8192000 
  206000   0.80647472   -3.8134312   -3.8134312      -2.7721  0.030446542   -3.8134312    1.0413311      8192000 
  207000   0.80696175   -3.8135803   -3.8135803   -2.7716168  0.032125831   -3.8135803    1.0419635      8192000 
  208000   0.80677047   -3.8134318   -3.8134318   -2.7717121  0.031400304   -3.8134318    1.0417197      8192000 
  209000   0.80703966   -3.8140692   -3.8140692   -2.7719987  0.030877046   -3.8140692    1.0420706      8192000 
  210000   0.80729239   -3.8142358   -3.8142358   -2.7718354  0.030527283   -3.8142358    1.0424004      8192000 
  211000   0.80732863   -3.8145044   -3.8145044    -2.772054  0.030016555   -3.8145044    1.0424504      8192000 
  212000   0.80692468   -3.8138409   -3.8138409   -2.7719088  0.032910096   -3.8138409    1.0419321      8192000 
  213000   0.80770587   -3.8145093   -3.8145093   -2.7715651  0.030148434   -3.8145093    1.0429443      8192000 
  214000   0.80756236   -3.8142557   -3.8142557   -2.7714935  0.030884479   -3.8142557    1.0427622      8192000 
  215000   0.80770054   -3.8142762   -3.8142762   -2.7713323  0.031892202   -3.8142762    1.0429439      8192000 
  216000    0.8078326    -3.814453    -3.814453   -2.7713351  0.032600395    -3.814453    1.0431179      8192000 
  217000   0.80770778   -3.8143738   -3.8143738   -2.7714138  0.032118217   -3.8143738      1.04296      8192000 
  218000     0.807898   -3.8145923   -3.8145923   -2.7713834  0.031420712   -3.8145923    1.0432088      8192000 
  219000   0.80782342   -3.8145553   -3.8145553   -2.7714392  0.030244873   -3.8145553     1.043116      8192000 
  220000   0.80748696   -3.8137629   -3.8137629   -2.7710781   0.03318892   -3.8137629    1.0426848      8192000 
  221000   0.80809226   -3.8149199   -3.8149199   -2.7714502  0.032049423   -3.8149199    1.0434697      8192000 
  222000   0.80782773   -3.8143862   -3.8143862   -2.7712546  0.032955496   -3.8143862    1.0431316      8192000 
  223000   0.80795603   -3.8148989   -3.8148989   -2.7715984  0.031891348   -3.8148989    1.0433005      8192000 
  224000   0.80791336   -3.8147717   -3.8147717    -2.771523  0.030167243   -3.8147717    1.0432487      8192000 
  225000   0.80741753   -3.8140784   -3.8140784   -2.7714665  0.032613225   -3.8140784    1.0426119      8192000 
  226000    0.8075217   -3.8144304   -3.8144304   -2.7716807  0.028736981   -3.8144304    1.0427497      8192000 
  227000   0.80803087   -3.8146429   -3.8146429   -2.7712325   0.02865938   -3.8146429    1.0434104      8192000 
  228000   0.80703843   -3.8134656   -3.8134656   -2.7713333   0.03337107   -3.8134656    1.0421323      8192000 
  229000   0.80724687   -3.8135016   -3.8135016   -2.7710968  0.030010957   -3.8135016    1.0424047      8192000 
  230000   0.80721102   -3.8137906   -3.8137906   -2.7714289  0.030976275   -3.8137906    1.0423617      8192000 
  231000   0.80745621   -3.8142467   -3.8142467   -2.7715649  0.028196008   -3.8142467    1.0426818      8192000 
  232000   0.80710962   -3.8135808   -3.8135808   -2.7713433  0.030443227   -3.8135808    1.0422375      8192000 
  233000   0.80695396   -3.8140289   -3.8140289   -2.7719892  0.030245143   -3.8140289    1.0420397      8192000 
  234000   0.80690968    -3.813476    -3.813476   -2.7714899  0.030084807    -3.813476     1.041986      8192000 
  235000   0.80681732   -3.8134035   -3.8134035   -2.7715335  0.029261697   -3.8134035      1.04187      8192000 
  236000   0.80648534   -3.8129401   -3.8129401   -2.7714955  0.028786589   -3.8129401    1.0414446      8192000 
  237000   0.80703259    -3.813447    -3.813447   -2.7712923  0.028786664    -3.813447    1.0421547      8192000 
  238000   0.80688714   -3.8132058   -3.8132058   -2.7712356  0.030882475   -3.8132058    1.0419702      8192000 
  239000   0.80743155   -3.8134277   -3.8134277   -2.7707513  0.030041487   -3.8134277    1.0426764      8192000 
  240000   0.80724975    -3.813682    -3.813682   -2.7712369  0.030263582    -3.813682    1.0424452      8192000 
  241000   0.80698892   -3.8135548   -3.8135548   -2.7714433  0.031310092   -3.8135548    1.0421116      8192000 
  242000   0.80725873   -3.8136988   -3.8136988   -2.7712356  0.029848331   -3.8136988    1.0424632      8192000 
  243000   0.80770644   -3.8144281   -3.8144281   -2.7713833  0.032649998   -3.8144281    1.0430449      8192000 
  244000   0.80755953   -3.8140335   -3.8140335   -2.7711751  0.032464788   -3.8140335    1.0428584      8192000 
  245000   0.80732691   -3.8140455   -3.8140455   -2.7714842   0.03018692   -3.8140455    1.0425613      8192000 
  246000   0.80740126   -3.8141847   -3.8141847   -2.7715239   0.03105645   -3.8141847    1.0426608      8192000 
  247000   0.80710882   -3.8138904   -3.8138904   -2.7716041  0.032093935   -3.8138904    1.0422864      8192000 
  248000   0.80741068   -3.8141827   -3.8141827   -2.7715033  0.031324471   -3.8141827    1.0426794      8192000 
  249000   0.80752391   -3.8144579   -3.8144579   -2.7716288  0.029785362   -3.8144579    1.0428292      8192000 
  250000   0.80749626   -3.8141189   -3.8141189   -2.7713223  0.030006892   -3.8141189    1.0427967      8192000 
  251000   0.80729004   -3.8138101   -3.8138101   -2.7712764  0.032956298   -3.8138101    1.0425336      8192000 
  252000   0.80764666   -3.8142271   -3.8142271   -2.7712295  0.029885149   -3.8142271    1.0429977      8192000 
  253000   0.80712208   -3.8141411   -3.8141411   -2.7718177  0.029915385   -3.8141411    1.0423235      8192000 
  254000   0.80809561   -3.8147638   -3.8147638   -2.7711798  0.032503075   -3.8147638    1.0435839      8192000 
  255000   0.80794816   -3.8144025   -3.8144025   -2.7710054  0.032397128   -3.8144025     1.043397      8192000 
  256000   0.80777255    -3.814081    -3.814081   -2.7709075  0.034636328    -3.814081    1.0431735      8192000 
  257000   0.80772917   -3.8142568   -3.8142568   -2.7711361  0.033020349   -3.8142568    1.0431207      8192000 
  258000   0.80763643   -3.8140958   -3.8140958   -2.7710914  0.032369869   -3.8140958    1.0430044      8192000 
  259000   0.80707465   -3.8137354   -3.8137354   -2.7714532  0.033605276   -3.8137354    1.0422822      8192000 
  260000   0.80754347    -3.814008    -3.814008   -2.7711171  0.029492095    -3.814008    1.0428909      8192000 
  261000   0.80672984    -3.813182    -3.813182   -2.7713384  0.031481843    -3.813182    1.0418436      8192000 
  262000   0.80729324    -3.813931    -3.813931   -2.7713565  0.031283996    -3.813931    1.0425745      8192000 
  263000   0.80719003   -3.8134541   -3.8134541   -2.7710097   0.03081455   -3.8134541    1.0424444      8192000 
  264000   0.80719439   -3.8137704   -3.8137704   -2.7713168  0.029460316   -3.8137704    1.0424535      8192000 
  265000   0.80730932    -3.813752    -3.813752   -2.7711468  0.030006996    -3.813752    1.0426052      8192000 
  266000   0.80704309   -3.8134357   -3.8134357    -2.771171  0.029000139   -3.8134357    1.0422646      8192000 
  267000   0.80751094   -3.8136826   -3.8136826   -2.7708103  0.032454955   -3.8136826    1.0428723      8192000 
  268000   0.80756864   -3.8134649   -3.8134649   -2.7705148  0.032429249   -3.8134649    1.0429501      8192000 
  269000    0.8072212   -3.8131371   -3.8131371   -2.7706325  0.032261732   -3.8131371    1.0425046      8192000 
  270000   0.80688853   -3.8132179   -3.8132179   -2.7711395  0.031063703   -3.8132179    1.0420785      8192000 
  271000   0.80695292   -3.8130869   -3.8130869    -2.770922  0.029632634   -3.8130869    1.0421649      8192000 
  272000   0.80664118   -3.8128589   -3.8128589   -2.7710934  0.029545511   -3.8128589    1.0417655      8192000 
  273000   0.80698754   -3.8132226   -3.8132226   -2.7710062  0.028874732   -3.8132226    1.0422163      8192000 
  274000   0.80675842   -3.8130837   -3.8130837   -2.7711601  0.030153884   -3.8130837    1.0419237      8192000 
  275000   0.80682226   -3.8128405   -3.8128405   -2.7708312  0.027954893   -3.8128405    1.0420094      8192000 
  276000   0.80658992   -3.8128295   -3.8128295   -2.7711167  0.028973086   -3.8128295    1.0417128      8192000 
  277000   0.80689931   -3.8130655   -3.8130655   -2.7709499  0.031918362   -3.8130655    1.0421156      8192000 
  278000   0.80726451   -3.8134523   -3.8134523   -2.7708618  0.029972316   -3.8134523    1.0425905      8192000 
  279000   0.80699268   -3.8131177   -3.8131177   -2.7708748  0.030671993   -3.8131177    1.0422429      8192000 
  280000    0.8069215   -3.8133815   -3.8133815   -2.7712272  0.029648389   -3.8133815    1.0421543      8192000 
  281000   0.80715476   -3.8136099   -3.8136099   -2.7711512  0.030431315   -3.8136099    1.0424588      8192000 
  282000   0.80712604   -3.8138402   -3.8138402    -2.771415  0.029448191   -3.8138402    1.0424252      8192000 
  283000   0.80748616   -3.8138548   -3.8138548   -2.7709613  0.029992199   -3.8138548    1.0428935      8192000 
  284000    0.8073299   -3.8137221   -3.8137221   -2.7710271  0.032767631   -3.8137221    1.0426949      8192000 
  285000   0.80755385   -3.8142658   -3.8142658   -2.7712781  0.030666723   -3.8142658    1.0429877      8192000 
  286000   0.80749637   -3.8144791   -3.8144791   -2.7715624  0.030128952   -3.8144791    1.0429167      8192000 
  287000   0.80697195   -3.8139133   -3.8139133   -2.7716706  0.032690637   -3.8139133    1.0422426      8192000 
  288000   0.80739164   -3.8144571   -3.8144571    -2.771669  0.030828182   -3.8144571    1.0427882      8192000 
  289000   0.80668246   -3.8138024   -3.8138024   -2.7719269   0.03087266   -3.8138024    1.0418755      8192000 
  290000   0.80764812    -3.814727    -3.814727   -2.7716011  0.032613168    -3.814727    1.0431259      8192000 
  291000   0.80789937   -3.8147841   -3.8147841   -2.7713302  0.029830136   -3.8147841    1.0434539      8192000 
  292000   0.80773734   -3.8148695   -3.8148695   -2.7716216  0.029967074   -3.8148695    1.0432479      8192000 
  293000   0.80764765   -3.8146727   -3.8146727   -2.7715374   0.03333117   -3.8146727    1.0431353      8192000 
  294000   0.80765773   -3.8145831   -3.8145831   -2.7714312  0.035746102   -3.8145831    1.0431518      8192000 
  295000   0.80701188   -3.8141866   -3.8141866   -2.7718657  0.032215367   -3.8141866    1.0423209      8192000 
  296000   0.80788207   -3.8148008   -3.8148008   -2.7713527  0.031935644   -3.8148008    1.0434481      8192000 
  297000   0.80751059   -3.8142082   -3.8142082   -2.7712364  0.033386733   -3.8142082    1.0429718      8192000 
  298000   0.80726323   -3.8143976   -3.8143976   -2.7717421  0.031837355   -3.8143976    1.0426555      8192000 
  299000   0.80733347   -3.8138384   -3.8138384   -2.7710889   0.03161874   -3.8138384    1.0427495      8192000 
  300000   0.80753546   -3.8141445   -3.8141445   -2.7711306  0.031647787   -3.8141445    1.0430139      8192000 
  301000   0.80742434   -3.8139978   -3.8139978   -2.7711242  0.029731791   -3.8139978    1.0428736      8192000 
  302000   0.80736696   -3.8137308   -3.8137308   -2.7709281  0.033121619   -3.8137308    1.0428027      8192000 
  303000   0.80705429   -3.8130003   -3.8130003    -2.770598  0.033137188   -3.8130003    1.0424024      8192000 
  304000   0.80704563   -3.8130737   -3.8130737   -2.7706793  0.029350417   -3.8130737    1.0423944      8192000 
  305000   0.80697657   -3.8128065   -3.8128065    -2.770498  0.029329625   -3.8128065    1.0423085      8192000 
  306000   0.80677327    -3.812879    -3.812879   -2.7708296  0.030976841    -3.812879    1.0420494      8192000 
  307000    0.8070661   -3.8129158   -3.8129158   -2.7704849   0.02784165   -3.8129158    1.0424309      8192000 
  308000   0.80673038   -3.8127223   -3.8127223   -2.7707218  0.031056045   -3.8127223    1.0420005      8192000 
  309000   0.80686177   -3.8126126   -3.8126126   -2.7704389  0.032122785   -3.8126126    1.0421737      8192000 
  310000   0.80707725   -3.8128431   -3.8128431   -2.7703878  0.026479505   -3.8128431    1.0424553      8192000 
  311000   0.80623354   -3.8118704   -3.8118704   -2.7705017   0.02981211   -3.8118704    1.0413687      8192000 
  312000     0.806525   -3.8121093   -3.8121093   -2.7703607  0.027966046   -3.8121093    1.0417487      8192000 
  313000   0.80658832   -3.8120894   -3.8120894   -2.7702557  0.026762518   -3.8120894    1.0418337      8192000 
  314000   0.80671119    -3.812283    -3.812283   -2.7702873  0.027375909    -3.812283    1.0419957      8192000 
  315000   0.80678813   -3.8122217   -3.8122217   -2.7701232  0.028305125   -3.8122217    1.0420985      8192000 
  316000   0.80691404   -3.8124934   -3.8124934    -2.770229  0.025883652   -3.8124934    1.0422644      8192000 
  317000   0.80753105   -3.8129234   -3.8129234   -2.7698588  0.028667766   -3.8129234    1.0430646      8192000 
  318000   0.80693308   -3.8127781   -3.8127781   -2.7704824  0.029094817   -3.8127781    1.0422957      8192000 
  319000   0.80720919   -3.8133448   -3.8133448   -2.7706891  0.027032883   -3.8133448    1.0426556      8192000 
  320000   0.80704626   -3.8130994   -3.8130994    -2.770651  0.025835005   -3.8130994    1.0424484      8192000 
  321000   0.80692058   -3.8128152   -3.8128152   -2.7705256  0.028416448   -3.8128152    1.0422896      8192000 
  322000   0.80705756   -3.8126675   -3.8126675   -2.7701977   0.03470556   -3.8126675    1.0424698      8192000 
  323000   0.80706972   -3.8133256   -3.8133256   -2.7708369  0.031453021   -3.8133256    1.0424887      8192000 
  324000   0.80748915   -3.8136175   -3.8136175   -2.7705835  0.032562369   -3.8136175     1.043034      8192000 
  325000    0.8073936   -3.8130459   -3.8130459   -2.7701321  0.035080932   -3.8130459    1.0429138      8192000 
  326000   0.80767306   -3.8134786   -3.8134786   -2.7702006  0.030810503   -3.8134786     1.043278      8192000 
  327000   0.80737216   -3.8131551   -3.8131551   -2.7702623  0.032701333   -3.8131551    1.0428929      8192000 
  328000   0.80804248   -3.8140847   -3.8140847   -2.7703227  0.032570407   -3.8140847     1.043762      8192000 
  329000   0.80772548   -3.8139388   -3.8139388    -2.770583  0.032312676   -3.8139388    1.0433558      8192000 
  330000   0.80757111   -3.8139897   -3.8139897   -2.7708298  0.031097124   -3.8139897    1.0431598      8192000 
  331000   0.80766398   -3.8135622   -3.8135622   -2.7702791  0.034411329   -3.8135622     1.043283      8192000 
  332000   0.80782679   -3.8136547   -3.8136547   -2.7701581  0.034440287   -3.8136547    1.0434966      8192000 
  333000   0.80710963   -3.8129179   -3.8129179   -2.7703441  0.034239844   -3.8129179    1.0425737      8192000 
  334000   0.80757326   -3.8137677   -3.8137677   -2.7705918  0.032040922   -3.8137677    1.0431759      8192000 
  335000    0.8072977    -3.813585    -3.813585   -2.7707618  0.031076762    -3.813585    1.0428231      8192000 
  336000   0.80735841   -3.8138334   -3.8138334   -2.7709283  0.030646579   -3.8138334    1.0429051      8192000 
  337000   0.80743354   -3.8137514   -3.8137514    -2.770746  0.029882599   -3.8137514    1.0430054      8192000 
  338000    0.8074696   -3.8137445   -3.8137445   -2.7706893  0.029545329   -3.8137445    1.0430552      8192000 
  339000   0.80718894   -3.8132332   -3.8132332    -2.770537  0.030382433   -3.8132332    1.0426961      8192000 
  340000   0.80700593   -3.8132456   -3.8132456   -2.7707826  0.029727441   -3.8132456     1.042463      8192000 
  341000   0.80700491   -3.8130644   -3.8130644   -2.7705995   0.02974548   -3.8130644    1.0424649      8192000 
  342000   0.80712578   -3.8128823   -3.8128823   -2.7702577  0.029651094   -3.8128823    1.0426245      8192000 
  343000    0.8068049   -3.8126098   -3.8126098   -2.7703965  0.029891505   -3.8126098    1.0422133      8192000 
  344000    0.8072711   -3.8131182   -3.8131182   -2.7702995  0.028672586   -3.8131182    1.0428188      8192000 
  345000   0.80714864   -3.8125552   -3.8125552   -2.7698911  0.030182183   -3.8125552    1.0426641      8192000 
  346000   0.80720158   -3.8124221   -3.8124221   -2.7696864  0.030939079   -3.8124221    1.0427357      8192000 
  347000   0.80684565   -3.8122535   -3.8122535   -2.7699744  0.030612801   -3.8122535    1.0422792      8192000 
  348000   0.80672571   -3.8122426   -3.8122426   -2.7701149  0.029207662   -3.8122426    1.0421277      8192000 
  349000   0.80659724   -3.8118645   -3.8118645   -2.7698995    0.0307636   -3.8118645     1.041965      8192000 
  350000   0.80674023   -3.8119488   -3.8119488   -2.7697959  0.029302009   -3.8119488     1.042153      8192000 
  351000   0.80727964   -3.8122803   -3.8122803    -2.769427  0.027324264   -3.8122803    1.0428533      8192000 
  352000   0.80682812   -3.8119931   -3.8119931   -2.7697198  0.031198789   -3.8119931    1.0422732      8192000 
  353000   0.80697584   -3.8124051   -3.8124051   -2.7699378  0.031294417   -3.8124051    1.0424673      8192000 
  354000   0.80709235   -3.8123185   -3.8123185   -2.7696972  0.029581563   -3.8123185    1.0426213      8192000 
  355000   0.80687387   -3.8122939   -3.8122939   -2.7699516  0.030706399   -3.8122939    1.0423423      8192000 
  356000   0.80709641   -3.8123402   -3.8123402   -2.7697072  0.031739451   -3.8123402     1.042633      8192000 
  357000   0.80707194   -3.8121572   -3.8121572   -2.7695523  0.030965101   -3.8121572    1.0426049      8192000 
  358000   0.80701805   -3.8125624   -3.8125624   -2.7700238  0.030611663   -3.8125624    1.0425386      8192000 
  359000    0.8074276   -3.8127808   -3.8127808   -2.7697099  0.032106121   -3.8127808    1.0430709      8192000 
  360000   0.80669922   -3.8121883   -3.8121883   -2.7700549  0.029919682   -3.8121883    1.0421334      8192000 
  361000   0.80681304   -3.8125536   -3.8125536   -2.7702699  0.032590873   -3.8125536    1.0422837      8192000 
  362000   0.80672695   -3.8122184   -3.8122184   -2.7700426  0.032675345   -3.8122184    1.0421757      8192000 
  363000   0.80719915   -3.8127475   -3.8127475   -2.7699582  0.030951792   -3.8127475    1.0427893      8192000 
  364000   0.80735394   -3.8126807   -3.8126807   -2.7696883  0.032657522   -3.8126807    1.0429925      8192000 
  365000   0.80757378   -3.8130574   -3.8130574   -2.7697777  0.029022067   -3.8130574    1.0432797      8192000 
  366000   0.80744756   -3.8131184   -3.8131184   -2.7699982  0.031497578   -3.8131184    1.0431202      8192000 
  367000   0.80736478    -3.812962    -3.812962   -2.7699455  0.032524306    -3.812962    1.0430165      8192000 
  368000   0.80734343   -3.8128325   -3.8128325   -2.7698403    0.0311554   -3.8128325    1.0429921      8192000 
  369000   0.80707183   -3.8124269   -3.8124269   -2.7697822  0.032962561   -3.8124269    1.0426448      8192000 
  370000   0.80726232    -3.812772    -3.812772   -2.7698779  0.029902938    -3.812772    1.0428941      8192000 
  371000   0.80716291   -3.8126777   -3.8126777   -2.7699088  0.031393823   -3.8126777    1.0427689      8192000 
  372000     0.807262   -3.8128142   -3.8128142   -2.7699137  0.032119981   -3.8128142    1.0429004      8192000 
  373000   0.80745972   -3.8129642   -3.8129642   -2.7698051  0.029984211   -3.8129642    1.0431591      8192000 
  374000   0.80703256   -3.8124324   -3.8124324   -2.7698219   0.03226857   -3.8124324    1.0426105      8192000 
  375000   0.80732308     -3.81243     -3.81243   -2.7694407  0.030083204     -3.81243    1.0429893      8192000 
  376000   0.80680142   -3.8124199   -3.8124199   -2.7701013  0.031417086   -3.8124199    1.0423186      8192000 
  377000   0.80698356    -3.812169    -3.812169   -2.7696118  0.028716183    -3.812169    1.0425572      8192000 
  378000   0.80686441   -3.8123381   -3.8123381   -2.7699313   0.02870716   -3.8123381    1.0424068      8192000 
  379000   0.80680164    -3.812237    -3.812237   -2.7699081  0.029350121    -3.812237    1.0423289      8192000 
  380000   0.80700882   -3.8124361   -3.8124361   -2.7698363  0.029185135   -3.8124361    1.0425998      8192000 
  381000   0.80716891   -3.8125303   -3.8125303   -2.7697202  0.028252841   -3.8125303    1.0428101      8192000 
  382000   0.80599465   -3.8110458   -3.8110458   -2.7697495  0.032772503   -3.8110458    1.0412963      8192000 
  383000   0.80699241   -3.8124507   -3.8124507   -2.7698621  0.031626812   -3.8124507    1.0425886      8192000 
  384000   0.80623491   -3.8114029   -3.8114029   -2.7697894  0.030480589   -3.8114029    1.0416134      8192000 
  385000   0.80670644   -3.8118331   -3.8118331   -2.7696073  0.030830949   -3.8118331    1.0422259      8192000 
  386000   0.80677894   -3.8119225   -3.8119225   -2.7695997  0.028865744   -3.8119225    1.0423228      8192000 
  387000   0.80677101   -3.8116063   -3.8116063   -2.7692903  0.032091861   -3.8116063     1.042316      8192000 
  388000   0.80672963   -3.8117076   -3.8117076   -2.7694418   0.02900783   -3.8117076    1.0422658      8192000 
  389000   0.80653076   -3.8118609   -3.8118609   -2.7698487  0.031503753   -3.8118609    1.0420121      8192000 
  390000   0.80697566   -3.8120538   -3.8120538   -2.7694633  0.031467738   -3.8120538    1.0425904      8192000 
  391000   0.80738288   -3.8123243   -3.8123243   -2.7692045  0.028792394   -3.8123243    1.0431198      8192000 
  392000   0.80712848   -3.8124443   -3.8124443   -2.7696499  0.031914431   -3.8124443    1.0427944      8192000 
  393000   0.80745905   -3.8125683   -3.8125683   -2.7693434   0.02946126   -3.8125683     1.043225      8192000 
  394000   0.80709762   -3.8125015   -3.8125015   -2.7697402  0.031623898   -3.8125015    1.0427612      8192000 
  395000    0.8076743   -3.8129203   -3.8129203   -2.7694108  0.030781813   -3.8129203    1.0435096      8192000 
  396000   0.80714187   -3.8121776   -3.8121776   -2.7693525  0.035489795   -3.8121776    1.0428252      8192000 
  397000   0.80718534   -3.8121177   -3.8121177   -2.7692331  0.032084321   -3.8121177    1.0428846      8192000 
  398000   0.80702426   -3.8118676   -3.8118676   -2.7691879  0.033378052   -3.8118676    1.0426797      8192000 
  399000   0.80740145   -3.8122958   -3.8122958   -2.7691253  0.033416442   -3.8122958    1.0431705      8192000 
  400000   0.80718521    -3.812635    -3.812635   -2.7697406  0.030726141    -3.812635    1.0428944      8192000 
  401000   0.80694186   -3.8122146   -3.8122146   -2.7696314  0.030120396   -3.8122146    1.0425832      8192000 
  402000   0.80733896   -3.8126184   -3.8126184   -2.7695186  0.029650093   -3.8126184    1.0430998      8192000 
  403000   0.80730735   -3.8124624   -3.8124624   -2.7694002  0.032962025   -3.8124624    1.0430622      8192000 
  404000    0.8069372   -3.8120348   -3.8120348   -2.7694476  0.033500122   -3.8120348    1.0425872      8192000 
  405000   0.80743241   -3.8126057   -3.8126057   -2.7693751  0.031093691   -3.8126057    1.0432305      8192000 
  406000   0.80743483   -3.8123187   -3.8123187   -2.7690818   0.03249188   -3.8123187    1.0432369      8192000 
  407000   0.80749951   -3.8128337   -3.8128337     -2.76951   0.02795329   -3.8128337    1.0433237      8192000 
  408000   0.80708436   -3.8120616   -3.8120616   -2.7692708  0.030995662   -3.8120616    1.0427908      8192000 
  409000   0.80697483   -3.8120552   -3.8120552   -2.7694026  0.026868757   -3.8120552    1.0426525      8192000 
  410000   0.80632206   -3.8114387   -3.8114387   -2.7696264  0.029696153   -3.8114387    1.0418124      8192000 
  411000   0.80701267   -3.8119318   -3.8119318   -2.7692237  0.029851426   -3.8119318    1.0427082      8192000 
  412000   0.80675149   -3.8117918   -3.8117918   -2.7694178  0.030190609   -3.8117918     1.042374      8192000 
  413000   0.80676862   -3.8120558   -3.8120558   -2.7696564   0.02786249   -3.8120558    1.0423993      8192000 
  414000   0.80648376   -3.8111877   -3.8111877   -2.7691529  0.029367631   -3.8111877    1.0420348      8192000 
  415000   0.80648561   -3.8115151   -3.8115151   -2.7694747  0.027749319   -3.8115151    1.0420404      8192000 
  416000   0.80663898   -3.8116646   -3.8116646   -2.7694227  0.031213756   -3.8116646    1.0422418      8192000 
  417000   0.80720063    -3.812204    -3.812204    -2.769233  0.028037484    -3.812204     1.042971      8192000 
  418000    0.8069584   -3.8118017   -3.8118017   -2.7691404  0.027953659   -3.8118017    1.0426613      8192000 
  419000   0.80708122   -3.8124355   -3.8124355   -2.7696123   0.03152225   -3.8124355    1.0428232      8192000 
  420000   0.80699937   -3.8123321   -3.8123321   -2.7696111  0.029362557   -3.8123321     1.042721      8192000 
  421000   0.80713812   -3.8122787   -3.8122787   -2.7693752  0.030553386   -3.8122787    1.0429035      8192000 
  422000    0.8072821   -3.8120389   -3.8120389   -2.7689461  0.031021455   -3.8120389    1.0430928      8192000 
  423000   0.80707929   -3.8124596   -3.8124596   -2.7696253  0.030063852   -3.8124596    1.0428342      8192000 
  424000   0.80707506   -3.8122917   -3.8122917   -2.7694597  0.031289642   -3.8122917     1.042832      8192000 
  425000   0.80702796   -3.8120626   -3.8120626   -2.7692882  0.032920675   -3.8120626    1.0427744      8192000 
  426000   0.80726606   -3.8122053   -3.8122053   -2.7691198  0.031052523   -3.8122053    1.0430855      8192000 
  427000   0.80751743   -3.8127869   -3.8127869   -2.7693733  0.031339197   -3.8127869    1.0434136      8192000 
  428000   0.80735468   -3.8125743   -3.8125743   -2.7693677  0.034950033   -3.8125743    1.0432066      8192000 
  429000   0.80773447   -3.8128819   -3.8128819   -2.7691811  0.035468037   -3.8128819    1.0437008      8192000 
  430000   0.80710833   -3.8123761   -3.8123761   -2.7694811  0.036816229   -3.8123761     1.042895      8192000 
  431000   0.80724913    -3.812799    -3.812799   -2.7697188   0.03325977    -3.812799    1.0430802      8192000 
  432000   0.80757069    -3.812934    -3.812934   -2.7694348   0.03273175    -3.812934    1.0434992      8192000 
  433000   0.80771429   -3.8128851   -3.8128851   -2.7691971  0.032774325   -3.8128851     1.043688      8192000 
  434000   0.80720015   -3.8127318   -3.8127318   -2.7697049  0.033540928   -3.8127318    1.0430269      8192000 
  435000   0.80678891   -3.8120811   -3.8120811   -2.7695821  0.034191815   -3.8120811     1.042499      8192000 
  436000   0.80702232   -3.8123608   -3.8123608    -2.769557  0.028937958   -3.8123608    1.0428038      8192000 
  437000   0.80686333   -3.8122225   -3.8122225   -2.7696208  0.031711798   -3.8122225    1.0426016      8192000 
  438000   0.80729336   -3.8124242   -3.8124242   -2.7692634   0.02874627   -3.8124242    1.0431608      8192000 
  439000   0.80663446   -3.8119372   -3.8119372   -2.7696245   0.02898011   -3.8119372    1.0423126      8192000 
  440000   0.80671322   -3.8122387   -3.8122387   -2.7698211  0.028996236   -3.8122387    1.0424177      8192000 
  441000   0.80682809   -3.8123472   -3.8123472   -2.7697776   0.02916671   -3.8123472    1.0425696      8192000 
  442000   0.80688109   -3.8121222   -3.8121222   -2.7694809  0.029354553   -3.8121222    1.0426413      8192000 
  443000   0.80715682    -3.812746    -3.812746   -2.7697451  0.029544801    -3.812746    1.0430009      8192000 
  444000   0.80700526   -3.8124007   -3.8124007   -2.7695922  0.029372948   -3.8124007    1.0428085      8192000 
  445000   0.80683041   -3.8116509   -3.8116509    -2.769065  0.033494569   -3.8116509    1.0425858      8192000 
  446000   0.80689175    -3.811849    -3.811849   -2.7691807  0.030632319    -3.811849    1.0426683      8192000 
  447000   0.80639313   -3.8114694   -3.8114694   -2.7694419  0.029930493   -3.8114694    1.0420275      8192000 
  448000   0.80667614   -3.8117919   -3.8117919   -2.7693954  0.031106653   -3.8117919    1.0423965      8192000 
  449000   0.80677302    -3.811672    -3.811672   -2.7691471  0.031463267    -3.811672    1.0425249      8192000 
  450000     0.806995    -3.811822    -3.811822   -2.7690068   0.03127009    -3.811822    1.0428152      8192000 
  451000   0.80714024   -3.8125446   -3.8125446   -2.7695384  0.029534125   -3.8125446    1.0430062      8192000 
  452000    0.8070388   -3.8125567   -3.8125567   -2.7696784   0.03066107   -3.8125567    1.0428783      8192000 
  453000   0.80726162   -3.8123982   -3.8123982   -2.7692285  0.026824259   -3.8123982    1.0431698      8192000 
  454000   0.80684179   -3.8117578   -3.8117578   -2.7691273  0.031593436   -3.8117578    1.0426305      8192000 
  455000   0.80677524   -3.8121329   -3.8121329   -2.7695852  0.033583289   -3.8121329    1.0425477      8192000 
  456000    0.8069477   -3.8122774   -3.8122774   -2.7695033  0.032135352   -3.8122774    1.0427741      8192000 
  457000   0.80714093   -3.8126958   -3.8126958   -2.7696687  0.031159327   -3.8126958    1.0430271      8192000 
  458000   0.80709627   -3.8123574   -3.8123574   -2.7693848  0.032859667   -3.8123574    1.0429726      8192000 
  459000    0.8071538   -3.8125683   -3.8125683   -2.7695179  0.030921936   -3.8125683    1.0430504      8192000 
  460000    0.8072133   -3.8122617   -3.8122617   -2.7691311  0.031417067   -3.8122617    1.0431306      8192000 
  461000   0.80712604   -3.8127062   -3.8127062   -2.7696852  0.031783207   -3.8127062    1.0430211      8192000 
  462000   0.80706291   -3.8124767   -3.8124767   -2.7695337  0.030887245   -3.8124767     1.042943      8192000 
  463000   0.80697405   -3.8125056   -3.8125056   -2.7696742  0.033950042   -3.8125056    1.0428314      8192000 
  464000   0.80752092    -3.812827    -3.812827   -2.7692857  0.029055405    -3.812827    1.0435413      8192000 
  465000   0.80722052   -3.8122962   -3.8122962   -2.7691396  0.034075685   -3.8122962    1.0431566      8192000 
  466000   0.80700503    -3.812451    -3.812451   -2.7695696  0.032890776    -3.812451    1.0428814      8192000 
  467000   0.80734816   -3.8125478   -3.8125478   -2.7692197  0.032427033   -3.8125478    1.0433281      8192000 
  468000   0.80759461   -3.8126181   -3.8126181    -2.768968  0.031368907   -3.8126181    1.0436501      8192000 
  469000   0.80751525   -3.8122149   -3.8122149   -2.7686641  0.034203818   -3.8122149    1.0435508      8192000 
  470000   0.80749833   -3.8124286   -3.8124286   -2.7688965  0.031162685   -3.8124286    1.0435322      8192000 
  471000   0.80772504   -3.8124411   -3.8124411   -2.7686125  0.030536587   -3.8124411    1.0438286      8192000 
  472000   0.80704434   -3.8116243   -3.8116243   -2.7686721  0.030947571   -3.8116243    1.0429522      8192000 
  473000   0.80725825   -3.8120518   -3.8120518   -2.7688199  0.030573285   -3.8120518    1.0432319      8192000 
  474000   0.80647599   -3.8116594   -3.8116594   -2.7694349  0.031652346   -3.8116594    1.0422245      8192000 
  475000   0.80705533   -3.8116488   -3.8116488   -2.7686724  0.031641648   -3.8116488    1.0429764      8192000 
  476000   0.80691987    -3.811235    -3.811235   -2.7684304   0.02897453    -3.811235    1.0428046      8192000 
  477000   0.80657806   -3.8108763   -3.8108763     -2.76851  0.030322862   -3.8108763    1.0423664      8192000 
  478000    0.8066284   -3.8111143   -3.8111143   -2.7686796  0.029586927   -3.8111143    1.0424347      8192000 
  479000   0.80655449   -3.8111389   -3.8111389   -2.7687965  0.028780909   -3.8111389    1.0423424      8192000 
  480000   0.80649368   -3.8108064   -3.8108064   -2.7685391  0.028236159   -3.8108064    1.0422673      8192000 
  481000   0.80654909   -3.8112629   -3.8112629   -2.7689207  0.027683572   -3.8112629    1.0423422      8192000 
  482000   0.80657329   -3.8108668   -3.8108668   -2.7684901  0.030393881   -3.8108668    1.0423767      8192000 
  483000    0.8066748   -3.8108549   -3.8108549   -2.7683435  0.028256995   -3.8108549    1.0425114      8192000 
  484000   0.80658056   -3.8111368   -3.8111368    -2.768744  0.028189077   -3.8111368    1.0423928      8192000 
  485000   0.80662027   -3.8106742   -3.8106742   -2.7682269   0.02764826   -3.8106742    1.0424474      8192000 
  486000   0.80662806    -3.811089    -3.811089    -2.768628  0.026011927    -3.811089     1.042461      8192000 
  487000   0.80665396    -3.810865    -3.810865   -2.7683673  0.028306587    -3.810865    1.0424977      8192000 
  488000   0.80671834   -3.8112132   -3.8112132    -2.768629  0.028289316   -3.8112132    1.0425841      8192000 
  489000   0.80636458   -3.8112444   -3.8112444    -2.769114  0.027220478   -3.8112444    1.0421304      8192000 
  490000   0.80680068   -3.8113449   -3.8113449   -2.7686476  0.029579458   -3.8113449    1.0426973      8192000 
  491000   0.80732564   -3.8121501   -3.8121501   -2.7687711  0.029860158   -3.8121501     1.043379      8192000 
  492000   0.80702569   -3.8120326   -3.8120326   -2.7690378  0.030220991   -3.8120326    1.0429948      8192000 
  493000   0.80685635   -3.8119942   -3.8119942   -2.7692149   0.03151264   -3.8119942    1.0427792      8192000 
  494000   0.80676339   -3.8118836   -3.8118836   -2.7692212  0.030495816   -3.8118836    1.0426623      8192000 
  495000   0.80707006   -3.8118227   -3.8118227   -2.7687606  0.031188663   -3.8118227    1.0430622      8192000 
  496000   0.80688783    -3.811772    -3.811772   -2.7689421  0.033103097    -3.811772    1.0428299      8192000 
  497000    0.8071285   -3.8121471   -3.8121471   -2.7690029  0.031156986   -3.8121471    1.0431442      8192000 
  498000   0.80700575   -3.8122277   -3.8122277   -2.7692386  0.032458574   -3.8122277    1.0429891      8192000 
  499000   0.80749982   -3.8127567   -3.8127567   -2.7691259  0.034645334   -3.8127567    1.0436308      8192000 
  500000   0.80725173    -3.812322    -3.812322   -2.7690085  0.034001519    -3.812322    1.0433135      8192000 
  501000   0.80717321   -3.8123963   -3.8123963   -2.7691808  0.033811093   -3.8123963    1.0432155      8192000 
  502000   0.80735821   -3.8129281   -3.8129281   -2.7694702  0.033694712   -3.8129281    1.0434578      8192000 
  503000   0.80714935   -3.8123729   -3.8123729   -2.7691818  0.032596577   -3.8123729    1.0431911      8192000 
  504000   0.80696325    -3.812524    -3.812524   -2.7695699  0.031606463    -3.812524    1.0429541      8192000 
  505000    0.8072212   -3.8128306   -3.8128306   -2.7695399  0.030958313   -3.8128306    1.0432908      8192000 
  506000   0.80714974   -3.8127381   -3.8127381   -2.7695364  0.032840175   -3.8127381    1.0432016      8192000 
  507000    0.8067028   -3.8123135   -3.8123135    -2.769686  0.032808144   -3.8123135    1.0426275      8192000 
  508000   0.80691381   -3.8122567   -3.8122567   -2.7693532  0.032631222   -3.8122567    1.0429035      8192000 
  509000    0.8067277    -3.812026    -3.812026   -2.7693598  0.030311673    -3.812026    1.0426662      8192000 
  510000   0.80701333   -3.8128221   -3.8128221   -2.7697832   0.02971982   -3.8128221    1.0430388      8192000 
  511000    0.8062697   -3.8115191   -3.8115191   -2.7694382  0.031014796   -3.8115191     1.042081      8192000 
  512000    0.8067616   -3.8117697   -3.8117697   -2.7690497  0.032240257   -3.8117697      1.04272      8192000 
  513000   0.80664794   -3.8118178   -3.8118178   -2.7692412  0.032079477   -3.8118178    1.0425766      8192000 
  514000   0.80688308   -3.8118725   -3.8118725   -2.7689888  0.032611194   -3.8118725    1.0428837      8192000 
  515000   0.80680726   -3.8117406   -3.8117406   -2.7689516   0.03223111   -3.8117406     1.042789      8192000 
  516000   0.80633408   -3.8115619   -3.8115619    -2.769381  0.030311338   -3.8115619    1.0421809      8192000 
  517000   0.80709794   -3.8122128   -3.8122128   -2.7690414   0.02939383   -3.8122128    1.0431714      8192000 
  518000    0.8064776   -3.8111792   -3.8111792   -2.7688063  0.028169179   -3.8111792    1.0423729      8192000 
  519000   0.80625286   -3.8112725   -3.8112725   -2.7691866   0.02842696   -3.8112725    1.0420859      8192000 
  520000    0.8065273   -3.8112809   -3.8112809    -2.768837  0.028326563   -3.8112809    1.0424439      8192000 
  521000   0.80586599   -3.8106022   -3.8106022   -2.7690098   0.03114585   -3.8106022    1.0415924      8192000 
  522000   0.80679393   -3.8116043   -3.8116043    -2.768809  0.026840095   -3.8116043    1.0427953      8192000 
  523000   0.80742583   -3.8120724   -3.8120724   -2.7684572     0.029899   -3.8120724    1.0436152      8192000 
  524000   0.80693543   -3.8116353   -3.8116353   -2.7686506  0.031172362   -3.8116353    1.0429846      8192000 
  525000   0.80683872   -3.8111501   -3.8111501    -2.768287  0.030243453   -3.8111501    1.0428631      8192000 
  526000   0.80683901   -3.8115521   -3.8115521   -2.7686853  0.030633359   -3.8115521    1.0428668      8192000 
  527000    0.8067301   -3.8112864   -3.8112864   -2.7685572  0.028597152   -3.8112864    1.0427292      8192000 
  528000   0.80696965   -3.8113663   -3.8113663    -2.768324  0.029534924   -3.8113663    1.0430424      8192000 
  529000   0.80651582    -3.811137    -3.811137    -2.768678  0.028971697    -3.811137     1.042459      8192000 
  530000   0.80696059   -3.8117553   -3.8117553   -2.7687181  0.029102812   -3.8117553    1.0430372      8192000 
  531000   0.80726897   -3.8118482   -3.8118482   -2.7684089  0.030854375   -3.8118482    1.0434393      8192000 
  532000   0.80627469   -3.8108947   -3.8108947   -2.7687373   0.03107635   -3.8108947    1.0421573      8192000 
  533000   0.80683885   -3.8114627   -3.8114627   -2.7685729  0.028853886   -3.8114627    1.0428898      8192000 
  534000    0.8065661   -3.8113779   -3.8113779   -2.7688372  0.029344588   -3.8113779    1.0425408      8192000 
  535000   0.80685388   -3.8111816   -3.8111816   -2.7682656  0.033272964   -3.8111816     1.042916      8192000 
  536000   0.80723098   -3.8117547   -3.8117547    -2.768348  0.033399478   -3.8117547    1.0434067      8192000 
  537000   0.80673683    -3.810982    -3.810982   -2.7682105  0.030330092    -3.810982    1.0427714      8192000 
  538000   0.80677367   -3.8111438   -3.8111438   -2.7683215  0.032824884   -3.8111438    1.0428223      8192000 
  539000   0.80690546   -3.8115148   -3.8115148   -2.7685189  0.031212948   -3.8115148    1.0429959      8192000 
  540000   0.80679502   -3.8113401   -3.8113401   -2.7684834  0.029026988   -3.8113401    1.0428566      8192000 
  541000   0.80679535   -3.8110635   -3.8110635   -2.7682032  0.030808919   -3.8110635    1.0428603      8192000 
  542000   0.80682063    -3.811274    -3.811274   -2.7683777  0.031604127    -3.811274    1.0428962      8192000 
  543000   0.80701397   -3.8116855   -3.8116855   -2.7685359  0.029734828   -3.8116855    1.0431496      8192000 
  544000   0.80684422   -3.8113808   -3.8113808   -2.7684473  0.027120211   -3.8113808    1.0429335      8192000 
  545000   0.80677039   -3.8112531   -3.8112531   -2.7684118  0.030621793   -3.8112531    1.0428413      8192000 
  546000   0.80659324   -3.8110592   -3.8110592   -2.7684434  0.029766466   -3.8110592    1.0426158      8192000 
  547000   0.80631814   -3.8105402   -3.8105402   -2.7682768  0.032451005   -3.8105402    1.0422634      8192000 
  548000   0.80716974   -3.8114098   -3.8114098   -2.7680423  0.031030525   -3.8114098    1.0433675      8192000 
  549000   0.80671069   -3.8110371   -3.8110371   -2.7682595  0.033360012   -3.8110371    1.0427776      8192000 
  550000   0.80677568   -3.8110333   -3.8110333   -2.7681685   0.03197661   -3.8110333    1.0428649      8192000 
  551000   0.80673749    -3.810413    -3.810413   -2.7675943  0.032023953    -3.810413    1.0428188      8192000 
  552000   0.80673945   -3.8109888   -3.8109888    -2.768164  0.030400729   -3.8109888    1.0428248      8192000 
  553000   0.80667012   -3.8109767   -3.8109767   -2.7682383  0.033456951   -3.8109767    1.0427384      8192000 
  554000    0.8071168    -3.810801    -3.810801   -2.7674819  0.033242721    -3.810801    1.0433191      8192000 
  555000   0.80673496   -3.8102674   -3.8102674   -2.7674384   0.03214274   -3.8102674     1.042829      8192000 
  556000   0.80674354    -3.810589    -3.810589   -2.7677457  0.031647024    -3.810589    1.0428433      8192000 
  557000   0.80686313   -3.8110033   -3.8110033   -2.7680022  0.029076826   -3.8110033    1.0430012      8192000 
  558000   0.80664723   -3.8105789   -3.8105789   -2.7678534  0.028633425   -3.8105789    1.0427256      8192000 
  559000   0.80632662    -3.810589    -3.810589   -2.7682746   0.03044919    -3.810589    1.0423144      8192000 
  560000   0.80646799   -3.8104785   -3.8104785   -2.7679781  0.032527474   -3.8104785    1.0425004      8192000 
  561000   0.80670558   -3.8105858   -3.8105858   -2.7677748  0.030660008   -3.8105858     1.042811      8192000 
  562000   0.80678618   -3.8109794   -3.8109794    -2.768061  0.029390984   -3.8109794    1.0429184      8192000 
  563000    0.8067294   -3.8104845   -3.8104845   -2.7676362  0.031866629   -3.8104845    1.0428483      8192000 
  564000   0.80693761   -3.8106844   -3.8106844   -2.7675635  0.029175994   -3.8106844    1.0431209      8192000 
  565000   0.80691848   -3.8105138   -3.8105138   -2.7674144  0.031979791   -3.8105138    1.0430995      8192000 
  566000   0.80721845   -3.8106901   -3.8106901   -2.7671996  0.030745031   -3.8106901    1.0434905      8192000 
  567000   0.80707834   -3.8102313   -3.8102313   -2.7669184  0.029980044   -3.8102313    1.0433129      8192000 
  568000   0.80696034   -3.8103257   -3.8103257   -2.7671621   0.03228694   -3.8103257    1.0431636      8192000 
  569000   0.80735376   -3.8109956   -3.8109956   -2.7673202  0.030385578   -3.8109956    1.0436754      8192000 
  570000   0.80713173   -3.8104369   -3.8104369    -2.767045  0.028256568   -3.8104369    1.0433919      8192000 
  571000   0.80696173   -3.8107437   -3.8107437   -2.7675683  0.026245326   -3.8107437    1.0431754      8192000 
  572000   0.80667046   -3.8101863   -3.8101863   -2.7673842  0.029941884   -3.8101863    1.0428021      8192000 
  573000   0.80655984   -3.8099554   -3.8099554   -2.7672928  0.030108336   -3.8099554    1.0426626      8192000 
  574000   0.80652617   -3.8096272   -3.8096272   -2.7670049  0.030613183   -3.8096272    1.0426223      8192000 
  575000   0.80687617   -3.8103135   -3.8103135   -2.7672355    0.0287651   -3.8103135     1.043078      8192000 
  576000   0.80650778   -3.8102323   -3.8102323   -2.7676271  0.029462157   -3.8102323    1.0426053      8192000 
  577000   0.80670253    -3.809866    -3.809866   -2.7670057  0.030091799    -3.809866    1.0428603      8192000 
  578000   0.80676206   -3.8099219   -3.8099219   -2.7669814  0.031264143   -3.8099219    1.0429405      8192000 
  579000   0.80673166   -3.8101178   -3.8101178   -2.7672131  0.029198887   -3.8101178    1.0429047      8192000 
  580000   0.80670897   -3.8101883   -3.8101883   -2.7673097  0.030649104   -3.8101883    1.0428786      8192000 
  581000   0.80671621   -3.8100925   -3.8100925   -2.7672013  0.031252985   -3.8100925    1.0428912      8192000 
  582000   0.80706759   -3.8106049   -3.8106049   -2.7672559  0.027377238   -3.8106049     1.043349      8192000 
  583000   0.80693248   -3.8103575   -3.8103575   -2.7671799  0.028382273   -3.8103575    1.0431776      8192000 
  584000   0.80678721   -3.8101158   -3.8101158   -2.7671228  0.030288557   -3.8101158     1.042993      8192000 
  585000   0.80682732   -3.8101049   -3.8101049   -2.7670565  0.029588411   -3.8101049    1.0430484      8192000 
  586000     0.806259   -3.8095404   -3.8095404   -2.7672235  0.032325736   -3.8095404    1.0423169      8192000 
  587000   0.80652272   -3.8097116   -3.8097116   -2.7670506  0.028791348   -3.8097116    1.0426611      8192000 
  588000   0.80667389   -3.8103202   -3.8103202   -2.7674602  0.028216344   -3.8103202      1.04286      8192000 
  589000   0.80690799   -3.8102302   -3.8102302   -2.7670643  0.031535516   -3.8102302    1.0431659      8192000 
  590000   0.80610379   -3.8097209   -3.8097209   -2.7675915  0.031946942   -3.8097209    1.0421295      8192000 
  591000   0.80646347   -3.8095845   -3.8095845   -2.7669866  0.032343719   -3.8095845     1.042598      8192000 
  592000   0.80675351   -3.8104781   -3.8104781   -2.7675019  0.029149965   -3.8104781    1.0429762      8192000 
  593000   0.80731937   -3.8108174   -3.8108174   -2.7671064  0.030265453   -3.8108174     1.043711      8192000 
  594000    0.8072865   -3.8107389   -3.8107389   -2.7670669  0.029324791   -3.8107389     1.043672      8192000 
  595000    0.8071681    -3.810838    -3.810838   -2.7673158  0.026490476    -3.810838    1.0435222      8192000 
  596000   0.80720226   -3.8105307   -3.8105307   -2.7669612  0.031680267   -3.8105307    1.0435696      8192000 
  597000   0.80665861   -3.8101344   -3.8101344   -2.7672641  0.034180566   -3.8101344    1.0428702      8192000 
  598000   0.80643394    -3.810269    -3.810269   -2.7676859  0.032156895    -3.810269     1.042583      8192000 
  599000   0.80724776   -3.8107106   -3.8107106   -2.7670721  0.031725763   -3.8107106    1.0436384      8192000 
  600000   0.80677912   -3.8103022   -3.8103022   -2.7672662  0.031285422   -3.8103022     1.043036      8192000 
  601000   0.80647601   -3.8100389   -3.8100389   -2.7673915  0.029792713   -3.8100389    1.0426474      8192000 
  602000   0.80654135   -3.8101827   -3.8101827   -2.7674475  0.030780422   -3.8101827    1.0427351      8192000 
  603000   0.80649574   -3.8101566   -3.8101566   -2.7674769  0.031768612   -3.8101566    1.0426797      8192000 
  604000   0.80673136   -3.8103639   -3.8103639   -2.7673764  0.029134656   -3.8103639    1.0429875      8192000 
  605000   0.80722829   -3.8109385   -3.8109385   -2.7673053  0.029218914   -3.8109385    1.0436333      8192000 
  606000   0.80711009   -3.8109689   -3.8109689    -2.767485  0.029414717   -3.8109689    1.0434839      8192000 
  607000     0.806193   -3.8098597   -3.8098597   -2.7675582  0.032943882   -3.8098597    1.0423015      8192000 
  608000    0.8073466   -3.8108985   -3.8108985   -2.7671023  0.031807857   -3.8108985    1.0437962      8192000 
  609000   0.80654557   -3.8102411   -3.8102411    -2.767477  0.030143902   -3.8102411    1.0427641      8192000 
  610000   0.80687398   -3.8102077   -3.8102077   -2.7670157   0.03203232   -3.8102077    1.0431919      8192000 
  611000   0.80621212   -3.8100635   -3.8100635    -2.767724   0.03006393   -3.8100635    1.0423395      8192000 
  612000   0.80674972   -3.8105755   -3.8105755   -2.7675375   0.03226585   -3.8105755     1.043038      8192000 
  613000   0.80666954   -3.8104708   -3.8104708   -2.7675332  0.031231333   -3.8104708    1.0429376      8192000 
  614000   0.80707278    -3.810816    -3.810816   -2.7673538  0.031192706    -3.810816    1.0434622      8192000 
  615000   0.80657199   -3.8105225   -3.8105225   -2.7677043   0.02970136   -3.8105225    1.0428183      8192000 
  616000   0.80716401    -3.810845    -3.810845   -2.7672581  0.030297409    -3.810845    1.0435869      8192000 
  617000   0.80677605   -3.8100265   -3.8100265   -2.7669379  0.028423872   -3.8100265    1.0430886      8192000 
  618000   0.80655643   -3.8099446   -3.8099446   -2.7671365  0.032627823   -3.8099446    1.0428081      8192000 
  619000   0.80645339   -3.8095628   -3.8095628   -2.7668846   0.03356166   -3.8095628    1.0426782      8192000 
  620000   0.80707413   -3.8104234   -3.8104234   -2.7669395  0.030809065   -3.8104234     1.043484      8192000 
  621000   0.80687403   -3.8104838   -3.8104838    -2.767255  0.030906138   -3.8104838    1.0432288      8192000 
  622000   0.80642214   -3.8102718   -3.8102718    -2.767624  0.030850822   -3.8102718    1.0426478      8192000 
  623000    0.8065014   -3.8099511   -3.8099511   -2.7671976  0.031555069   -3.8099511    1.0427535      8192000 
  624000    0.8064131   -3.8100532   -3.8100532   -2.7674104  0.030232455   -3.8100532    1.0426428      8192000 
  625000   0.80639543   -3.8101423   -3.8101423    -2.767519  0.029561102   -3.8101423    1.0426232      8192000 
  626000   0.80699605   -3.8108555   -3.8108555   -2.7674525   0.03036701   -3.8108555     1.043403      8192000 
  627000   0.80641289   -3.8101863   -3.8101863   -2.7675337  0.031904322   -3.8101863    1.0426525      8192000 
  628000   0.80629867   -3.8101127   -3.8101127   -2.7676046  0.031746855   -3.8101127    1.0425081      8192000 
  629000   0.80647041    -3.810339    -3.810339   -2.7676056  0.031047807    -3.810339    1.0427334      8192000 
  630000   0.80669906   -3.8109175   -3.8109175    -2.767885  0.030367441   -3.8109175    1.0430325      8192000 
  631000   0.80686114   -3.8107229   -3.8107229   -2.7674775  0.031573937   -3.8107229    1.0432454      8192000 
  632000   0.80688123   -3.8108745   -3.8108745   -2.7675999  0.031198837   -3.8108745    1.0432746      8192000 
  633000   0.80633705   -3.8105294   -3.8105294   -2.7679549    0.0296375   -3.8105294    1.0425745      8192000 
  634000   0.80667233   -3.8104274   -3.8104274   -2.7674161  0.031923573   -3.8104274    1.0430112      8192000 
  635000   0.80683977   -3.8107145   -3.8107145   -2.7674835  0.031972213   -3.8107145     1.043231      8192000 
  636000   0.80666993   -3.8110097   -3.8110097   -2.7679948  0.033127019   -3.8110097    1.0430149      8192000 
  637000    0.8067295   -3.8107661   -3.8107661   -2.7676709   0.03241543   -3.8107661    1.0430952      8192000 
  638000   0.80629723   -3.8099631   -3.8099631   -2.7674236   0.03389257   -3.8099631    1.0425395      8192000 
  639000   0.80661512   -3.8100716   -3.8100716   -2.7671176   0.03019657   -3.8100716     1.042954      8192000 
  640000   0.80629757   -3.8104231   -3.8104231   -2.7678764  0.029568245   -3.8104231    1.0425467      8192000 
  641000   0.80655697    -3.810579    -3.810579   -2.7676936  0.032365306    -3.810579    1.0428853      8192000 
  642000   0.80684584    -3.811372    -3.811372   -2.7681097  0.028463828    -3.811372    1.0432623      8192000 
  643000   0.80640274   -3.8106044   -3.8106044   -2.7679117  0.032844532   -3.8106044    1.0426927      8192000 
  644000   0.80709883   -3.8109933   -3.8109933   -2.7673974  0.032666561   -3.8109933     1.043596      8192000 
  645000   0.80651673   -3.8109842   -3.8109842   -2.7681374  0.029624891   -3.8109842    1.0428468      8192000 
  646000    0.8070075   -3.8112362   -3.8112362   -2.7677516   0.03044537   -3.8112362    1.0434846      8192000 
  647000   0.80628805   -3.8103128   -3.8103128   -2.7677552  0.031032331   -3.8103128    1.0425576      8192000 
  648000     0.806888   -3.8107447   -3.8107447   -2.7674079  0.031776669   -3.8107447    1.0433369      8192000 
  649000   0.80597107   -3.8100297   -3.8100297   -2.7678753  0.029725806   -3.8100297    1.0421545      8192000 
  650000   0.80624111   -3.8103639   -3.8103639    -2.767857  0.031079669   -3.8103639    1.0425069      8192000 
  651000   0.80641384     -3.81071     -3.81071   -2.7679762  0.029496482     -3.81071    1.0427338      8192000 
[...]
 3728000    0.7996196   -3.7928308   -3.7928308   -2.7486124  0.033837429   -3.7928308    1.0442184      8192000 
 3729000   0.79989844   -3.7926599   -3.7926599   -2.7480738  0.031912006   -3.7926599    1.0445861      8192000 
 3730000   0.80010003   -3.7930907   -3.7930907   -2.7482381  0.033225664   -3.7930907    1.0448526      8192000 
 3731000   0.79976535   -3.7927557   -3.7927557   -2.7483368  0.029834244   -3.7927557    1.0444189      8192000 
 3732000   0.80003798   -3.7931752   -3.7931752   -2.7483968  0.029537077   -3.7931752    1.0447784      8192000 
 3733000   0.79964697   -3.7929482   -3.7929482   -2.7486771  0.031139992   -3.7929482    1.0442711      8192000 
 3734000   0.79974667   -3.7929003   -3.7929003   -2.7484957  0.033889516   -3.7929003    1.0444046      8192000 
 3735000   0.79988523   -3.7929855   -3.7929855   -2.7483965   0.03032203   -3.7929855    1.0445891      8192000 
 3736000   0.79948517   -3.7926046   -3.7926046   -2.7485347  0.033394617   -3.7926046    1.0440699      8192000 
 3737000   0.79939825   -3.7925336   -3.7925336   -2.7485739  0.032725259   -3.7925336    1.0439597      8192000 
 3738000   0.79996428   -3.7929543   -3.7929543   -2.7482519  0.032918954   -3.7929543    1.0447024      8192000 
 3739000   0.79939994   -3.7924463   -3.7924463   -2.7484776  0.033839608   -3.7924463    1.0439687      8192000 
 3740000    0.7992222   -3.7926271   -3.7926271   -2.7488872  0.034250569   -3.7926271    1.0437399      8192000 
 3741000   0.80017672   -3.7929608   -3.7929608   -2.7479708  0.032119416   -3.7929608      1.04499      8192000 
 3742000   0.79983703   -3.7925535   -3.7925535   -2.7480038  0.029967073   -3.7925535    1.0445496      8192000 
 3743000    0.7998113   -3.7925289   -3.7925289   -2.7480096  0.030043398   -3.7925289    1.0445193      8192000 
 3744000   0.80024822   -3.7933213   -3.7933213   -2.7482278  0.029513509   -3.7933213    1.0450935      8192000 
 3745000   0.79928349   -3.7921868   -3.7921868   -2.7483499  0.030902808   -3.7921868    1.0438369      8192000 
 3746000   0.79956098   -3.7924414   -3.7924414   -2.7482389  0.031211769   -3.7924414    1.0442025      8192000 
 3747000   0.79961403   -3.7926454   -3.7926454     -2.74837  0.031582822   -3.7926454    1.0442754      8192000 
 3748000   0.79957738    -3.792761    -3.792761   -2.7485303  0.030241885    -3.792761    1.0442308      8192000 
 3749000   0.79973416   -3.7925529   -3.7925529   -2.7481141  0.033662402   -3.7925529    1.0444388      8192000 
 3750000   0.79995543   -3.7926757   -3.7926757   -2.7479443  0.029248904   -3.7926757    1.0447313      8192000 
 3751000   0.79950626   -3.7924516   -3.7924516   -2.7483036  0.029713509   -3.7924516     1.044148      8192000 
 3752000   0.79932486   -3.7917618   -3.7917618   -2.7478475  0.032806878   -3.7917618    1.0439144      8192000 
 3753000   0.79991521   -3.7924715   -3.7924715   -2.7477826  0.031144127   -3.7924715    1.0446889      8192000 
 3754000   0.79991291   -3.7924227   -3.7924227   -2.7477335  0.033403638   -3.7924227    1.0446892      8192000 
 3755000   0.79990869   -3.7925031   -3.7925031   -2.7478161  0.031912347   -3.7925031     1.044687      8192000 
 3756000   0.80026552   -3.7930483   -3.7930483   -2.7478918  0.033003466   -3.7930483    1.0451566      8192000 
 3757000   0.79961795   -3.7920744   -3.7920744   -2.7477603  0.033725405   -3.7920744    1.0443141      8192000 
 3758000   0.79971122   -3.7924233   -3.7924233   -2.7479841  0.030884705   -3.7924233    1.0444392      8192000 
 3759000   0.79984084   -3.7925227   -3.7925227   -2.7479107  0.027762112   -3.7925227     1.044612      8192000 
 3760000   0.79991537   -3.7925123   -3.7925123   -2.7477996  0.031325782   -3.7925123    1.0447127      8192000 
 3761000   0.79938869   -3.7923084   -3.7923084   -2.7482804  0.032625786   -3.7923084    1.0440281      8192000 
 3762000   0.79978722    -3.792569    -3.792569   -2.7480168   0.03155881    -3.792569    1.0445521      8192000 
 3763000   0.79953983   -3.7925518   -3.7925518   -2.7483194  0.028925932   -3.7925518    1.0442323      8192000 
 3764000   0.79982119   -3.7929137   -3.7929137   -2.7483106   0.03134501   -3.7929137    1.0446031      8192000 
 3765000   0.79959765   -3.7923582   -3.7923582   -2.7480435  0.029448731   -3.7923582    1.0443147      8192000 
 3766000   0.79915219   -3.7918616   -3.7918616   -2.7481254  0.032959233   -3.7918616    1.0437361      8192000 
 3767000   0.79939818   -3.7920519   -3.7920519   -2.7479912  0.029973926   -3.7920519    1.0440607      8192000 
 3768000   0.79989128   -3.7922107   -3.7922107   -2.7475025  0.035924596   -3.7922107    1.0447083      8192000 
 3769000    0.7999626   -3.7924047   -3.7924047      -2.7476  0.032286121   -3.7924047    1.0448047      8192000 
 3770000   0.79982684   -3.7926181   -3.7926181   -2.7479874  0.032068198   -3.7926181    1.0446307      8192000 
 3771000   0.80009193   -3.7928684   -3.7928684   -2.7478879  0.030798025   -3.7928684    1.0449805      8192000 
 3772000   0.79981957   -3.7922163   -3.7922163   -2.7475883  0.035033512   -3.7922163     1.044628      8192000 
 3773000   0.79985991   -3.7923147   -3.7923147   -2.7476307  0.029744443   -3.7923147     1.044684      8192000 
 3774000   0.80002327   -3.7925227   -3.7925227   -2.7476218  0.032994649   -3.7925227    1.0449009      8192000 
 3775000   0.80003648   -3.7929592   -3.7929592   -2.7480377   0.03207443   -3.7929592    1.0449214      8192000 
 3776000   0.79940401   -3.7921375   -3.7921375   -2.7480388  0.032215286   -3.7921375    1.0440987      8192000 
 3777000   0.79929675     -3.79204     -3.79204   -2.7480779  0.028649459     -3.79204    1.0439621      8192000 
 3778000   0.79927379   -3.7922833   -3.7922833   -2.7483479  0.029756079   -3.7922833    1.0439354      8192000 
 3779000   0.79906508   -3.7920139   -3.7920139   -2.7483478  0.030509856   -3.7920139    1.0436661      8192000 
 3780000   0.79934957   -3.7918258   -3.7918258   -2.7477846   0.03183536   -3.7918258    1.0440412      8192000 
 3781000   0.79943377   -3.7921534   -3.7921534   -2.7479989  0.030493688   -3.7921534    1.0441545      8192000 
 3782000   0.79944026   -3.7924414   -3.7924414   -2.7482751  0.029978842   -3.7924414    1.0441662      8192000 
 3783000   0.79946589   -3.7920411   -3.7920411   -2.7478378  0.031935228   -3.7920411    1.0442032      8192000 
 3784000   0.79982889   -3.7924191   -3.7924191   -2.7477384  0.030916302   -3.7924191    1.0446807      8192000 
 3785000   0.80004508    -3.792321    -3.792321   -2.7473547   0.03431775    -3.792321    1.0449663      8192000 
 3786000   0.79959109   -3.7923745   -3.7923745   -2.7479976  0.033313016   -3.7923745    1.0443769      8192000 
 3787000   0.79972741   -3.7920122   -3.7920122   -2.7474539  0.032541454   -3.7920122    1.0445582      8192000 
 3788000   0.80009166   -3.7924149   -3.7924149   -2.7473776   0.03252506   -3.7924149    1.0450373      8192000 
 3789000   0.80000873   -3.7928887   -3.7928887   -2.7479562  0.032401935   -3.7928887    1.0449325      8192000 
 3790000   0.79915438   -3.7917564   -3.7917564   -2.7479365  0.031557424   -3.7917564    1.0438199      8192000 
 3791000   0.79987437   -3.7926099   -3.7926099   -2.7478463  0.030273391   -3.7926099    1.0447636      8192000 
 3792000    0.7999507   -3.7928744   -3.7928744   -2.7480076  0.030430795   -3.7928744    1.0448668      8192000 
 3793000   0.79979334    -3.792275    -3.792275   -2.7476104  0.032276484    -3.792275    1.0446646      8192000 
 3794000    0.7994098   -3.7922723   -3.7922723   -2.7481054  0.033228274   -3.7922723    1.0441669      8192000 
 3795000   0.79922585   -3.7923873   -3.7923873   -2.7484572  0.029039306   -3.7923873    1.0439302      8192000 
 3796000    0.7997468   -3.7925734   -3.7925734   -2.7479595  0.030385017   -3.7925734    1.0446139      8192000 
 3797000   0.79954641   -3.7923189   -3.7923189   -2.7479635  0.032608138   -3.7923189    1.0443555      8192000 
 3798000   0.79981697   -3.7922554   -3.7922554    -2.747543  0.032936438   -3.7922554    1.0447124      8192000 
 3799000   0.80023241   -3.7930176   -3.7930176   -2.7477592  0.033511551   -3.7930176    1.0452583      8192000 
 3800000   0.79992345   -3.7923033   -3.7923033   -2.7474453  0.031610708   -3.7923033    1.0448581      8192000 
 3801000   0.79992232   -3.7923156   -3.7923156   -2.7474554   0.02934816   -3.7923156    1.0448601      8192000 
 3802000    0.7998748   -3.7921771   -3.7921771   -2.7473757  0.030583539   -3.7921771    1.0448014      8192000 
 3803000   0.79946145   -3.7916992   -3.7916992   -2.7474345  0.031664974   -3.7916992    1.0442647      8192000 
 3804000   0.79932521   -3.7916043   -3.7916043   -2.7475141  0.031584769   -3.7916043    1.0440903      8192000 
 3805000   0.79907777   -3.7914815   -3.7914815   -2.7477111  0.032424232   -3.7914815    1.0437704      8192000 
 3806000   0.79941082   -3.7916478   -3.7916478   -2.7474391  0.029663924   -3.7916478    1.0442087      8192000 
 3807000   0.79962172   -3.7920396   -3.7920396   -2.7475519  0.030918427   -3.7920396    1.0444877      8192000 
 3808000   0.79948622   -3.7915737   -3.7915737   -2.7472596  0.028843705   -3.7915737     1.044314      8192000 
 3809000   0.79958151   -3.7918733   -3.7918733   -2.7474315  0.028386125   -3.7918733    1.0444418      8192000 
 3810000   0.79903947   -3.7912597   -3.7912597   -2.7475225  0.032119294   -3.7912597    1.0437373      8192000 
 3811000    0.7998333   -3.7924087   -3.7924087   -2.7476312  0.028487121   -3.7924087    1.0447775      8192000 
 3812000   0.79949151   -3.7919579   -3.7919579   -2.7476235   0.02848905   -3.7919579    1.0443343      8192000 
 3813000   0.79919098   -3.7913556   -3.7913556   -2.7474103   0.02960228   -3.7913556    1.0439453      8192000 
 3814000   0.79938984   -3.7915406   -3.7915406   -2.7473322   0.03164734   -3.7915406    1.0442083      8192000 
 3815000   0.79944494   -3.7916608   -3.7916608   -2.7473772  0.031787709   -3.7916608    1.0442836      8192000 
 3816000   0.79934777   -3.7915574   -3.7915574   -2.7473972  0.028697619   -3.7915574    1.0441602      8192000 
 3817000   0.79921142   -3.7911211   -3.7911211   -2.7471358  0.031021582   -3.7911211    1.0439854      8192000 
 3818000   0.79926826   -3.7915461   -3.7915461   -2.7474831  0.029439093   -3.7915461    1.0440629      8192000 
 3819000    0.7997304   -3.7918223   -3.7918223   -2.7471521  0.032224722   -3.7918223    1.0446702      8192000 
 3820000   0.79978272   -3.7920714   -3.7920714   -2.7473296  0.029540156   -3.7920714    1.0447418      8192000 
 3821000    0.7994977   -3.7917184   -3.7917184   -2.7473457   0.03003588   -3.7917184    1.0443728      8192000 
 3822000    0.7998044   -3.7921521   -3.7921521   -2.7473752  0.032253793   -3.7921521    1.0447769      8192000 
 3823000   0.80008139   -3.7923487   -3.7923487   -2.7472066  0.031208635   -3.7923487    1.0451421      8192000 
 3824000   0.79960362    -3.791948    -3.791948   -2.7474268  0.033032395    -3.791948    1.0445212      8192000 
 3825000   0.80012361   -3.7923933   -3.7923933   -2.7471892  0.030801479   -3.7923933     1.045204      8192000 
 3826000   0.79968952   -3.7921299   -3.7921299   -2.7474896  0.030631693   -3.7921299    1.0446403      8192000 
 3827000   0.79966272   -3.7918087   -3.7918087   -2.7472001  0.033459991   -3.7918087    1.0446086      8192000 
 3828000   0.79944025    -3.791726    -3.791726   -2.7474046   0.03069396    -3.791726    1.0443215      8192000 
 3829000   0.79935812   -3.7915768   -3.7915768   -2.7473593  0.032499559   -3.7915768    1.0442175      8192000 
 3830000   0.79979793   -3.7919679   -3.7919679   -2.7471726  0.032367595   -3.7919679    1.0447953      8192000 
 3831000   0.79938981   -3.7918196   -3.7918196   -2.7475539  0.035317564   -3.7918196    1.0442657      8192000 
 3832000   0.79952449   -3.7920652   -3.7920652   -2.7476203  0.034364258   -3.7920652    1.0444449      8192000 
 3833000   0.79969928    -3.792112    -3.792112   -2.7474355  0.030367706    -3.792112    1.0446766      8192000 
 3834000   0.79991044   -3.7921681   -3.7921681   -2.7472121  0.033169329   -3.7921681    1.0449559      8192000 
 3835000    0.8000275   -3.7923168   -3.7923168   -2.7472047  0.028809327   -3.7923168    1.0451122      8192000 
 3836000   0.79973832   -3.7921261   -3.7921261   -2.7473884  0.032467882   -3.7921261    1.0447377      8192000 
 3837000   0.79988928   -3.7925171   -3.7925171   -2.7475787  0.029261628   -3.7925171    1.0449384      8192000 
 3838000   0.79955715   -3.7921499   -3.7921499   -2.7476421  0.032793525   -3.7921499    1.0445078      8192000 
 3839000   0.79955287   -3.7919535   -3.7919535   -2.7474479  0.031234717   -3.7919535    1.0445055      8192000 
 3840000   0.79989356   -3.7921444   -3.7921444   -2.7471903  0.029565768   -3.7921444    1.0449542      8192000 
 3841000   0.79948416   -3.7917125   -3.7917125   -2.7472899   0.03004484   -3.7917125    1.0444226      8192000 
 3842000    0.7990351   -3.7914224   -3.7914224   -2.7475832  0.033086213   -3.7914224    1.0438393      8192000 
 3843000   0.79977975   -3.7919998   -3.7919998   -2.7471842  0.030149276   -3.7919998    1.0448156      8192000 
 3844000    0.7997065   -3.7922348   -3.7922348   -2.7475116  0.028826209   -3.7922348    1.0447232      8192000 
 3845000   0.79968754   -3.7920596   -3.7920596   -2.7473579  0.030903363   -3.7920596    1.0447017      8192000 
 3846000   0.79980942   -3.7922194   -3.7922194   -2.7473549  0.032981267   -3.7922194    1.0448645      8192000 
 3847000   0.79963182   -3.7920088   -3.7920088    -2.747373   0.03174907   -3.7920088    1.0446358      8192000 
 3848000   0.79974265   -3.7919044   -3.7919044   -2.7471205  0.026776707   -3.7919044    1.0447838      8192000 
 3849000   0.79934718   -3.7914723   -3.7914723   -2.7472015  0.029118743   -3.7914723    1.0442707      8192000 
 3850000   0.79941409    -3.791661    -3.791661   -2.7472995  0.029008947    -3.791661    1.0443614      8192000 
 3851000   0.79933806   -3.7914879   -3.7914879   -2.7472225  0.032941924   -3.7914879    1.0442654      8192000 
 3852000   0.79940235   -3.7914656   -3.7914656   -2.7471127  0.032823964   -3.7914656    1.0443529      8192000 
 3853000   0.79938689   -3.7916799   -3.7916799   -2.7473439  0.033481246   -3.7916799     1.044336      8192000 
 3854000   0.79936638   -3.7917413   -3.7917413   -2.7474288  0.031841589   -3.7917413    1.0443125      8192000 
 3855000   0.79954922   -3.7916911   -3.7916911   -2.7471362  0.031248836   -3.7916911    1.0445549      8192000 
 3856000   0.79951208     -3.79194     -3.79194   -2.7474303  0.030794237     -3.79194    1.0445097      8192000 
 3857000    0.8001912    -3.792167    -3.792167   -2.7467668  0.031863265    -3.792167    1.0454002      8192000 
 3858000   0.79984131   -3.7922823   -3.7922823   -2.7473357  0.031361776   -3.7922823    1.0449466      8192000 
 3859000   0.79964672   -3.7918797   -3.7918797    -2.747184  0.032698009   -3.7918797    1.0446957      8192000 
 3860000   0.79980644   -3.7924113   -3.7924113   -2.7475036  0.030363145   -3.7924113    1.0449076      8192000 
 3861000   0.79942874   -3.7919873   -3.7919873   -2.7475695  0.029886962   -3.7919873    1.0444177      8192000 
 3862000   0.79956214   -3.7918808   -3.7918808   -2.7472855  0.030452925   -3.7918808    1.0445953      8192000 
 3863000   0.79924259   -3.7917595   -3.7917595   -2.7475784  0.031884834   -3.7917595    1.0441811      8192000 
 3864000   0.79985923   -3.7920863   -3.7920863    -2.747096  0.033763679   -3.7920863    1.0449903      8192000 
 3865000   0.79929511   -3.7918242   -3.7918242   -2.7475677  0.031768118   -3.7918242    1.0442566      8192000 
 3866000   0.79936525   -3.7918328   -3.7918328   -2.7474813  0.032817495   -3.7918328    1.0443515      8192000 
 3867000   0.79978062    -3.792029    -3.792029   -2.7471313  0.031926346    -3.792029    1.0448977      8192000 
 3868000   0.79998744   -3.7922984   -3.7922984   -2.7471271  0.033915467   -3.7922984    1.0451712      8192000 
 3869000    0.7992283   -3.7914351   -3.7914351   -2.7472524  0.032457785   -3.7914351    1.0441827      8192000 
 3870000   0.79952261   -3.7919166   -3.7919166   -2.7473458  0.029869446   -3.7919166    1.0445707      8192000 
 3871000   0.79978957   -3.7917668   -3.7917668    -2.746844  0.033146482   -3.7917668    1.0449228      8192000 
 3872000   0.79903187   -3.7913398   -3.7913398   -2.7474036  0.033014576   -3.7913398    1.0439362      8192000 
 3873000   0.79943896   -3.7920285   -3.7920285   -2.7475569  0.027988427   -3.7920285    1.0444716      8192000 
 3874000   0.79881411   -3.7916365   -3.7916365    -2.747978  0.028721092   -3.7916365    1.0436585      8192000 
 3875000   0.79924613   -3.7920317   -3.7920317   -2.7478055  0.027497843   -3.7920317    1.0442262      8192000 
 3876000   0.79904654   -3.7918329   -3.7918329   -2.7478639  0.028754784   -3.7918329     1.043969      8192000 
 3877000   0.79887867   -3.7915721   -3.7915721   -2.7478192  0.032358335   -3.7915721     1.043753      8192000 
 3878000   0.79904077   -3.7918366   -3.7918366   -2.7478686  0.027870526   -3.7918366     1.043968      8192000 
 3879000   0.79873958   -3.7920751   -3.7920751   -2.7484971  0.029165393   -3.7920751    1.0435781      8192000 
 3880000   0.79969978   -3.7923944   -3.7923944   -2.7475586  0.027595917   -3.7923944    1.0448359      8192000 
 3881000   0.79955311   -3.7924752   -3.7924752   -2.7478276  0.030761945   -3.7924752    1.0446475      8192000 
 3882000   0.79945186   -3.7923052   -3.7923052   -2.7477864  0.029406679   -3.7923052    1.0445188      8192000 
 3883000   0.79926688   -3.7920674   -3.7920674    -2.747787  0.032994011   -3.7920674    1.0442804      8192000 
 3884000   0.79989217   -3.7927053   -3.7927053   -2.7476046  0.033365749   -3.7927053    1.0451007      8192000 
 3885000   0.79922795   -3.7915676   -3.7915676   -2.7473313  0.034662413   -3.7915676    1.0442364      8192000 
 3886000   0.79973269   -3.7926181   -3.7926181   -2.7477189  0.030975959   -3.7926181    1.0448991      8192000 
 3887000   0.79951687   -3.7924062   -3.7924062   -2.7477857  0.031289543   -3.7924062    1.0446204      8192000 
 3888000   0.79982627     -3.79265     -3.79265   -2.7476218  0.030251581     -3.79265    1.0450282      8192000 
 3889000   0.79956685   -3.7919239   -3.7919239   -2.7472313   0.02995372   -3.7919239    1.0446926      8192000 
 3890000   0.79870205   -3.7914106   -3.7914106   -2.7478447   0.03179109   -3.7914106    1.0435659      8192000 
 3891000   0.79948214   -3.7916681   -3.7916681   -2.7470794  0.033834026   -3.7916681    1.0445887      8192000 
 3892000   0.79916455   -3.7919631   -3.7919631    -2.747786  0.032919178   -3.7919631    1.0441771      8192000 
 3893000   0.79959372   -3.7921959   -3.7921959   -2.7474548  0.030263389   -3.7921959    1.0447411      8192000 
 3894000   0.79940268   -3.7918674   -3.7918674   -2.7473724  0.034271378   -3.7918674     1.044495      8192000 
 3895000   0.79937125    -3.791958    -3.791958   -2.7475008  0.033456629    -3.791958    1.0444572      8192000 
 3896000   0.79940852   -3.7922581   -3.7922581   -2.7477489  0.030979379   -3.7922581    1.0445092      8192000 
 3897000   0.79918477   -3.7918887   -3.7918887   -2.7476683  0.030724638   -3.7918887    1.0442204      8192000 
 3898000   0.79903616   -3.7917533   -3.7917533   -2.7477237   0.03157938   -3.7917533    1.0440295      8192000 
 3899000   0.79941479   -3.7923167   -3.7923167   -2.7477891  0.028824816   -3.7923167    1.0445275      8192000 
 3900000   0.79916614   -3.7917033   -3.7917033   -2.7474971  0.030034374   -3.7917033    1.0442062      8192000 
 3901000   0.79902142   -3.7917499   -3.7917499   -2.7477295   0.03476339   -3.7917499    1.0440204      8192000 
 3902000   0.79938546   -3.7920496   -3.7920496   -2.7475503  0.027116136   -3.7920496    1.044499