LAMMPS (24 Dec 2020)
OMP_NUM_THREADS environment is not set. Defaulting to 1 thread. (src/comm.cpp:94)
  using 1 OpenMP thread(s) per MPI task
#Read the equilibrated lj fluid and add nanocubes

units           lj
atom_style      full
atom_modify     map array first cubes
dimension       3
boundary        p p f
pair_style      lj/cut/opt 2.5

variable        sigma           equal 1.0
variable        epsilon         equal 1.0
read_restart	restart.dat.10000000
Reading restart file ...
  restart file = 24 Dec 2020, LAMMPS = 24 Dec 2020
WARNING: Restart file used different # of processors: 288 vs. 768 (src/read_restart.cpp:697)
  restoring atom style full from restart
  orthogonal box = (0.0000000 0.0000000 0.0000000) to (120.00000 120.00000 240.00000)
  6 by 8 by 16 MPI processor grid
  restoring pair style lj/cut/opt from restart
  1553347 atoms
Finding 1-2 1-3 1-4 neighbors ...
  special bond factors lj:    0        0        0       
  special bond factors coul:  0        0        0       
     0 = max # of 1-2 neighbors
     0 = max # of 1-3 neighbors
     0 = max # of 1-4 neighbors
     1 = max # of special neighbors
  special bonds CPU = 7.563 seconds
  read_restart CPU = 8.880 seconds

group		solvent type 1
1553347 atoms in group solvent

read_data	data_450.cubes group cubes add append
Reading data file ...
  orthogonal box = (0.0000000 0.0000000 0.0000000) to (140.00000 140.00000 240.00000)
  8 by 8 by 12 MPI processor grid
  reading atoms ...
  560070 atoms
  reading velocities ...
  560070 velocities
Finding 1-2 1-3 1-4 neighbors ...
  special bond factors lj:    0        0        0       
  special bond factors coul:  0        0        0       
     0 = max # of 1-2 neighbors
     0 = max # of 1-3 neighbors
     0 = max # of 1-4 neighbors
     1 = max # of special neighbors
  special bonds CPU = 0.480 seconds
  read_data CPU = 3.956 seconds

group 		hull  type 2
218540 atoms in group hull
group 		dummy type 3
341530 atoms in group dummy

neighbor      0.4 bin
neigh_modify  exclude molecule/intra cubes


pair_modify   shift yes

pair_coeff    1 1 1.0 1.0 #solvent
pair_coeff    2 2 1.0 1.0 1.12 #np
pair_coeff    3 3 0.0 0.0 0.0 #dummy
pair_coeff    2 3 0.0 0.0 0.0 #np dummy
pair_coeff    1 2 ${sol} 1.0  #np solvent
pair_coeff    1 2 .525 1.0  
pair_coeff    1 3 0.0 0.0 2.5 #dummy solvent

# delete solvent where the cubes are
delete_atoms  overlap 1.0 solvent cubes
System init for delete_atoms ...
Unused restart file peratom fix info:
  fix style: STORE, fix ID: bin1_COMPUTE_STORE
Neighbor list info ...
  update every 1 steps, delay 10 steps, check yes
  max neighbors/atom: 2000, page size: 100000
  master list distance cutoff = 2.9
  ghost atom cutoff = 2.9
  binsize = 1.45, bins = 97 97 166
  2 neighbor lists, perpetual/occasional/extra = 1 1 0
  (1) command delete_atoms, occasional
      attributes: full, newton on
      pair build: full/bin
      stencil: full/bin/3d
      bin: standard
  (2) pair lj/cut/opt, perpetual
      attributes: half, newton on
      pair build: half/bin/newton
      stencil: half/bin/3d/newton
      bin: standard
WARNING: Delete_atoms cutoff > minimum neighbor cutoff (src/delete_atoms.cpp:307)
WARNING: Ignoring 'compress yes' for molecular system (src/delete_atoms.cpp:125)
Deleted 298110 atoms, new total = 1815307

pair_coeff    1 1 1.0 1.0 #solvent
pair_coeff    2 2 1.0 1.0 1.12 #np
pair_coeff    3 3 0.0 0.0 0.0 #dummy
pair_coeff    2 3 0.0 0.0 0.0 #np dummy
pair_coeff    1 2 ${sol} 1.0  #np solvent
pair_coeff    1 2 .525 1.0  
pair_coeff    1 3 0.0 0.0 0.0 #dummy solvent


comm_modify   mode multi cutoff/multi 1 2.5 cutoff/multi 2 2.5 cutoff/multi 3 6.95

reset_timestep 	0

balance 	1.05 shift z 10 1.05
Balancing ...
Neighbor list info ...
  update every 1 steps, delay 10 steps, check yes
  max neighbors/atom: 2000, page size: 100000
  master list distance cutoff = 2.9
  ghost atom cutoff = 6.95
  binsize = 1.45, bins = 97 97 166
  1 neighbor lists, perpetual/occasional/extra = 1 0 0
  (1) pair lj/cut/opt, perpetual
      attributes: half, newton on
      pair build: half/bin/newton
      stencil: half/bin/3d/newton
      bin: standard
 rebalancing time: 0.008 seconds
  iteration count = 4
  initial/final maximal load/proc = 4223.0000 4135.0000
  initial/final imbalance factor  = 1.7866201 1.7493900
  x cuts: 0.0000000 0.12500000 0.25000000 0.37500000 0.50000000 0.62500000 0.75000000 0.87500000 1.0000000
  y cuts: 0.0000000 0.12500000 0.25000000 0.37500000 0.50000000 0.62500000 0.75000000 0.87500000 1.0000000
  z cuts: 0.0000000 0.067708333 0.13020833 0.19270833 0.25520833 0.32291667 0.38541667 0.44791667 0.51041667 0.57812500 0.66145833 0.71354167 1.0000000

####################### WALLS ###########################

variable       epsilonWall equal 2*${epsilon}
variable       epsilonWall equal 2*1
variable       repulsive   equal   0.7147*${sigma}
variable       repulsive   equal   0.7147*1
variable       full	   equal   3*${sigma}
variable       full	   equal   3*1
region         lowWall block EDGE EDGE EDGE EDGE EDGE 2

fix            topWall all wall/lj93 zhi EDGE 	       ${epsilonWall} ${sigma} ${repulsive} units box
fix            topWall all wall/lj93 zhi EDGE 	       2 ${sigma} ${repulsive} units box
fix            topWall all wall/lj93 zhi EDGE 	       2 1 ${repulsive} units box
fix            topWall all wall/lj93 zhi EDGE 	       2 1 0.7147 units box
fix            lowSol solvent wall/lj93 zlo EDGE                ${epsilonWall} ${sigma} ${full} units box
fix            lowSol solvent wall/lj93 zlo EDGE                2 ${sigma} ${full} units box
fix            lowSol solvent wall/lj93 zlo EDGE                2 1 ${full} units box
fix            lowSol solvent wall/lj93 zlo EDGE                2 1 3 units box
fix 	       lowCub cubes wall/lj93 zlo EDGE                ${epsilonWall} ${sigma} ${repulsive} units box
fix 	       lowCub cubes wall/lj93 zlo EDGE                2 ${sigma} ${repulsive} units box
fix 	       lowCub cubes wall/lj93 zlo EDGE                2 1 ${repulsive} units box
fix 	       lowCub cubes wall/lj93 zlo EDGE                2 1 0.7147 units box


###################### COMPUTES ##########################

compute        bin1 solvent chunk/atom bin/1d z lower 1.0 units box
compute        bin3 solvent chunk/atom bin/3d x lower 5.0 y lower 5.0 z lower 5.0 units box

compute 	pe solvent 	   pe/atom
compute 	pe2 all 	   pe/atom

######################  FIXES ############################


fix             peclet solvent ave/chunk 10 10 100000 bin1 density/number norm                  none ave one file density.profile

fix              temp solvent ave/chunk 10 10 100000 bin1 temp norm                  none ave one file temp.profile

fix 		 dens solvent ave/chunk 10 10 500000 bin3 density/number norm 		 none ave one file dens3.profile

fix 		pe solvent ave/chunk 1 1 500000 bin3 c_pe norm none ave one file pe3.profile
fix             1 cubes rigid/nve/small molecule
  create bodies CPU = 0.049 seconds
  490 rigid bodies with 560070 atoms
  6.9282032 = max distance from body owner to body atom

fix             2 solvent nve# temp ${temp} ${temp} 10


## Thermostat
region          regthermo block EDGE EDGE EDGE EDGE 0 15
group           thermo dynamic solvent region regthermo every 1000
dynamic group thermo defined
fix             3 thermo langevin ${temp} ${temp} 10 156453
fix             3 thermo langevin 1.0 ${temp} 10 156453
fix             3 thermo langevin 1.0 1.0 10 156453


#### Load balancing

fix             bal all balance 1000 1.05 shift z 10 1.05

############### Diagnostics and computes ###################


compute        	com cubes          rigid/local   1 mol x y z
compute        	quat cubes         rigid/local   1 mol quatw quati quatj quatk

compute 	cc2 cubes 	   chunk/atom 	 molecule
compute 	msd cubes 	   msd/chunk 	 cc2

fix 		msd all ave/time  1 1 10000 c_msd[*] file dump.msd ave one mode vector

dump            1 all custom 500000 dump.lammpstrj id mol type x y z vx vy vz c_pe2
dump		sol  solvent custom 500000 dump.soltrj id x y z vx vy vz c_pe
dump		cubetrj cubes custom 500000 cubes.lammpstrj id mol type x y z vx vy vz
#dump            com cubes local 100000 dump.*.xyz c_com[*]
#dump	        xyz hull xyz 100000 cubes.xyz
#dump            quat cubes      local 100000 dump.*.quat c_quat[*]
dump		order cubes 	local 500000 dump.*.order c_com[*] c_quat[*]
#dump		mol cubes molfile 10000 mol.xyz xyz


dump            2 all image 500000 image.*.png type type zoom 1.5 size 1280 720
dump_modify     2 pad 8
dump		image cubes image 500000 image_cubes.*.png type type zoom 1.5 size 1280 720
dump_modify	image pad 8
dump            3 all movie 10000 movie.avi type type zoom 1.5 size 1280 720
dump		4 cubes movie 10000 movie_cubes.avi type type size 1280 720


thermo          1000
thermo_style    custom step temp epair evdwl etotal press pe ke atoms

restart         1000000 restart.dat
timestep        0.005
timer           full
New timer settings: style=full  mode=nosync  timeout=off

run 		10000000
Per MPI rank memory allocation (min/avg/max) = 14.59 | 22.10 | 23.97 Mbytes
Step Temp E_pair E_vdwl TotEng Press PotEng KinEng Atoms 
       0     1.008384   -2.1814626   -2.1814626   -1.1347403 0.0064009897   -2.1814626    1.0467222  1815307 
    1000   0.98803884   -2.1591562   -2.1591562   -1.1335526  0.043607357   -2.1591562    1.0256035  1815307 
    2000   0.97761373   -2.1473679   -2.1473679   -1.1325858   0.03761109   -2.1473679    1.0147821  1815307 
    3000   0.97136501   -2.1390147   -2.1390147    -1.130719  0.031184543   -2.1390147    1.0082958  1815307 
    4000    0.9655059   -2.1310264   -2.1310264   -1.1288125  0.029600359   -2.1310264    1.0022139  1815307 
    5000   0.96165685   -2.1248862   -2.1248862   -1.1266676  0.026138756   -2.1248862   0.99821853  1815307 
    6000   0.96016446   -2.1216597   -2.1216597   -1.1249903  0.026469394   -2.1216597    0.9966694  1815307 
    7000   0.95964716   -2.1190361   -2.1190361   -1.1229036  0.025127947   -2.1190361   0.99613244  1815307 
    8000   0.95949975   -2.1173996   -2.1173996   -1.1214201  0.026111815   -2.1173996   0.99597942  1815307 
    9000   0.96014205   -2.1167357   -2.1167357   -1.1200896  0.031215597   -2.1167357   0.99664614  1815307 
   10000   0.96124428   -2.1163069   -2.1163069   -1.1185166  0.032175214   -2.1163069   0.99779027  1815307 
   11000   0.96183391   -2.1155263   -2.1155263   -1.1171239  0.034162624   -2.1155263   0.99840232  1815307 
   12000   0.96379773   -2.1165752   -2.1165752   -1.1161344  0.033925517   -2.1165752    1.0004408  1815307 
   13000   0.96611049   -2.1176516   -2.1176516   -1.1148101   0.03907946   -2.1176516    1.0028415  1815307 
   14000   0.96678561   -2.1176551   -2.1176551   -1.1141129  0.041619837   -2.1176551    1.0035423  1815307 
   15000    0.9684641   -2.1186322   -2.1186322   -1.1133477  0.040351345   -2.1186322    1.0052846  1815307 
   16000    0.9686887   -2.1180987   -2.1180987    -1.112581   0.04480987   -2.1180987    1.0055177  1815307 
   17000   0.96901493    -2.118243    -2.118243   -1.1123866  0.045300471    -2.118243    1.0058564  1815307 
   18000   0.96989866   -2.1179982   -2.1179982   -1.1112245  0.043494621   -2.1179982    1.0067737  1815307 
   19000   0.96938291   -2.1167764   -2.1167764   -1.1105381  0.045085252   -2.1167764    1.0062383  1815307 
   20000   0.96963367   -2.1170669   -2.1170669   -1.1105683  0.045976605   -2.1170669    1.0064986  1815307 
   21000   0.97006022   -2.1167003   -2.1167003   -1.1097589  0.044914993   -2.1167003    1.0069414  1815307 
   22000   0.96828017   -2.1148444   -2.1148444   -1.1097508  0.045672252   -2.1148444    1.0050937  1815307 
   23000   0.96922425   -2.1160696   -2.1160696    -1.109996  0.043612432   -2.1160696    1.0060736  1815307 
   24000    0.9693123   -2.1158368   -2.1158368   -1.1096717  0.044851392   -2.1158368     1.006165  1815307 
   25000   0.97018371   -2.1161769   -2.1161769   -1.1091073  0.042114625   -2.1161769    1.0070696  1815307 
   26000   0.96942219   -2.1147105   -2.1147105   -1.1084314  0.041400921   -2.1147105    1.0062791  1815307 
   27000   0.96967846   -2.1149124   -2.1149124   -1.1083673  0.043236555   -2.1149124    1.0065451  1815307 
   28000   0.96889033   -2.1138121   -2.1138121   -1.1080851  0.044710031   -2.1138121     1.005727  1815307 
   29000   0.97032865   -2.1153224   -2.1153224   -1.1081024  0.043171268   -2.1153224      1.00722  1815307 
   30000   0.97084024    -2.115652    -2.115652   -1.1079009  0.043884372    -2.115652    1.0077511  1815307 
   31000   0.97113813   -2.1151817   -2.1151817   -1.1071214  0.047490799   -2.1151817    1.0080603  1815307 
   32000   0.97096679   -2.1150935   -2.1150935   -1.1072111  0.048470815   -2.1150935    1.0078824  1815307 
   33000   0.97014856   -2.1139986   -2.1139986   -1.1069655  0.048599589   -2.1139986    1.0070331  1815307 
   34000   0.97094441   -2.1149032   -2.1149032   -1.1070441   0.04402413   -2.1149032    1.0078592  1815307 
   35000   0.97138801   -2.1155358   -2.1155358   -1.1072161  0.044839642   -2.1155358    1.0083197  1815307 
   36000    0.9706184    -2.114504    -2.114504   -1.1069832  0.049437045    -2.114504    1.0075208  1815307 
   37000   0.97077536    -2.114071    -2.114071   -1.1063873  0.047532806    -2.114071    1.0076837  1815307 
   38000   0.97131942   -2.1148123   -2.1148123   -1.1065639  0.047106276   -2.1148123    1.0082485  1815307 
   39000   0.97101873   -2.1145593   -2.1145593   -1.1066229  0.045833248   -2.1145593    1.0079363  1815307 
   40000   0.97086426   -2.1143144   -2.1143144   -1.1065384  0.047236398   -2.1143144     1.007776  1815307 
   41000   0.97142089   -2.1149819   -2.1149819   -1.1066281  0.046650015   -2.1149819    1.0083538  1815307 
   42000    0.9698569   -2.1130072   -2.1130072   -1.1062768  0.044734691   -2.1130072    1.0067303  1815307 
   43000   0.96951322   -2.1125934   -2.1125934   -1.1062198  0.046023411   -2.1125934    1.0063736  1815307 
   44000   0.96975557   -2.1128075   -2.1128075   -1.1061823  0.047159299   -2.1128075    1.0066252  1815307 
   45000   0.97127845   -2.1140563   -2.1140563   -1.1058504  0.046657958   -2.1140563    1.0082059  1815307 
   46000    0.9709849   -2.1138324   -2.1138324   -1.1059312  0.045878034   -2.1138324    1.0079012  1815307 
   47000   0.97106804   -2.1134852   -2.1134852   -1.1054976  0.045081055   -2.1134852    1.0079875  1815307 
   48000   0.97089825   -2.1134888   -2.1134888   -1.1056775  0.051064111   -2.1134888    1.0078113  1815307 
   49000   0.97130382   -2.1142679   -2.1142679   -1.1060356  0.048786382   -2.1142679    1.0082323  1815307 
   50000    0.9716053   -2.1144657   -2.1144657   -1.1059205  0.048102631   -2.1144657    1.0085452  1815307 
   51000   0.97123028   -2.1136543   -2.1136543   -1.1054984    0.0487318   -2.1136543    1.0081559  1815307 
   52000   0.97115935   -2.1137832   -2.1137832   -1.1057008  0.045517635   -2.1137832    1.0080823  1815307 
   53000   0.97125488   -2.1143271   -2.1143271   -1.1061456  0.045892029   -2.1143271    1.0081815  1815307 
   54000   0.97153788   -2.1143837   -2.1143837   -1.1059084  0.046765643   -2.1143837    1.0084752  1815307 
   55000   0.97149079   -2.1141348   -2.1141348   -1.1057085   0.04777848   -2.1141348    1.0084263  1815307 
   56000    0.9720677    -2.114801    -2.114801   -1.1057758  0.049012184    -2.114801    1.0090252  1815307 
   57000   0.97181705   -2.1148196   -2.1148196   -1.1060546  0.046846181   -2.1148196     1.008765  1815307 
   58000   0.97055482   -2.1133892   -2.1133892   -1.1059344  0.049764196   -2.1133892    1.0074548  1815307 
   59000   0.97172665   -2.1148314   -2.1148314   -1.1061603  0.045525373   -2.1148314    1.0086712  1815307 
   60000   0.97061702   -2.1139903   -2.1139903   -1.1064709  0.049136545   -2.1139903    1.0075194  1815307 
   61000   0.97176591   -2.1147806   -2.1147806   -1.1060687  0.046883062   -2.1147806    1.0087119  1815307 
   62000   0.97154737   -2.1144305   -2.1144305   -1.1059454  0.049156116   -2.1144305    1.0084851  1815307 
   63000    0.9711065   -2.1141877   -2.1141877   -1.1061603  0.046989344   -2.1141877    1.0080275  1815307 
   64000   0.97084767   -2.1141515   -2.1141515   -1.1063927  0.048659198   -2.1141515    1.0077588  1815307 
   65000   0.97153189   -2.1148106   -2.1148106   -1.1063416  0.045431435   -2.1148106     1.008469  1815307 
   66000   0.97136139   -2.1149089   -2.1149089   -1.1066168    0.0470855   -2.1149089     1.008292  1815307 
   67000   0.97109386   -2.1141838   -2.1141838   -1.1061695   0.04667871   -2.1141838    1.0080143  1815307 
   68000   0.97190408   -2.1148782   -2.1148782   -1.1060228  0.046125378   -2.1148782    1.0088553  1815307 
   69000   0.97157408   -2.1145345   -2.1145345   -1.1060217  0.048746149   -2.1145345    1.0085128  1815307 
   70000   0.97097693   -2.1138684   -2.1138684   -1.1059754  0.046500583   -2.1138684     1.007893  1815307 
   71000    0.9711519   -2.1141561   -2.1141561   -1.1060815   0.04663082   -2.1141561    1.0080746  1815307 
   72000   0.97205951   -2.1157211   -2.1157211   -1.1067044   0.04614985   -2.1157211    1.0090167  1815307 
   73000   0.97096043    -2.114231    -2.114231   -1.1063552   0.05020477    -2.114231    1.0078758  1815307 
   74000   0.97159805   -2.1147611   -2.1147611   -1.1062234  0.048356784   -2.1147611    1.0085377  1815307 
   75000   0.97161402   -2.1144622   -2.1144622   -1.1059079   0.04615897   -2.1144622    1.0085543  1815307 
   76000   0.97091291   -2.1138719   -2.1138719   -1.1060454  0.048067483   -2.1138719    1.0078265  1815307 
   77000   0.97096772    -2.113944    -2.113944   -1.1060606  0.047098158    -2.113944    1.0078834  1815307 
   78000   0.97131032   -2.1142394   -2.1142394   -1.1060004  0.045983735   -2.1142394     1.008239  1815307 
   79000   0.97144455   -2.1143816   -2.1143816   -1.1060032  0.047077502   -2.1143816    1.0083783  1815307 
   80000   0.97155232   -2.1141256   -2.1141256   -1.1056353  0.049676529   -2.1141256    1.0084902  1815307 
   81000   0.97166345   -2.1133888   -2.1133888   -1.1047833  0.050055095   -2.1133888    1.0086056  1815307 
   82000   0.97163205   -2.1136159   -2.1136159   -1.1050429  0.047931961   -2.1136159     1.008573  1815307 
   83000   0.97149956   -2.1137439   -2.1137439   -1.1053085  0.048931421   -2.1137439    1.0084355  1815307 
   84000   0.97199075   -2.1137819   -2.1137819   -1.1048366  0.048985677   -2.1137819    1.0089453  1815307 
   85000   0.97140296   -2.1131035   -2.1131035   -1.1047683  0.049186129   -2.1131035    1.0083352  1815307 
   86000   0.97096997   -2.1124026   -2.1124026   -1.1045168  0.047475632   -2.1124026    1.0078857  1815307 
   87000   0.97175954    -2.112935    -2.112935   -1.1042297   0.04677375    -2.112935    1.0087053  1815307 
   88000   0.97237678   -2.1138614   -2.1138614   -1.1045154  0.049225091   -2.1138614     1.009346  1815307 
   89000   0.97171715   -2.1126731   -2.1126731   -1.1040118  0.043462431   -2.1126731    1.0086613  1815307 
   90000   0.97206609   -2.1129775   -2.1129775    -1.103954  0.047247876   -2.1129775    1.0090235  1815307 
   91000   0.97270295   -2.1135721   -2.1135721   -1.1038875  0.047843487   -2.1135721    1.0096846  1815307 
   92000   0.97155477   -2.1118293   -2.1118293   -1.1033366  0.047718192   -2.1118293    1.0084928  1815307 
   93000   0.97209716   -2.1121048   -2.1121048   -1.1030491  0.049823504   -2.1121048    1.0090558  1815307 
   94000   0.97235107   -2.1124096   -2.1124096   -1.1030902  0.048358728   -2.1124096    1.0093193  1815307 
   95000   0.97176896   -2.1117535   -2.1117535   -1.1030384  0.048901023   -2.1117535    1.0087151  1815307 
   96000   0.97287309   -2.1125275   -2.1125275   -1.1026663  0.047628942   -2.1125275    1.0098612  1815307 
   97000   0.97313183    -2.112541    -2.112541   -1.1024112  0.048703603    -2.112541    1.0101298  1815307 
   98000   0.97163692   -2.1111767   -2.1111767   -1.1025987  0.047531679   -2.1111767     1.008578  1815307 
   99000    0.9727136   -2.1124337   -2.1124337    -1.102738  0.047820467   -2.1124337    1.0096957  1815307 
  100000   0.97328341   -2.1127316   -2.1127316   -1.1024444   0.05080698   -2.1127316    1.0102871  1815307 
  101000   0.97221795   -2.1117088   -2.1117088   -1.1025276  0.047891356   -2.1117088    1.0091812  1815307 
  102000   0.97213644   -2.1112344   -2.1112344   -1.1021378  0.050533726   -2.1112344    1.0090966  1815307 
  103000   0.97196808   -2.1108851   -2.1108851   -1.1019633   0.04574614   -2.1108851    1.0089218  1815307 
  104000   0.97203165   -2.1109764   -2.1109764   -1.1019887  0.049966716   -2.1109764    1.0089878  1815307 
  105000   0.97183207   -2.1107622   -2.1107622   -1.1019816  0.048409255   -2.1107622    1.0087806  1815307 
  106000   0.97168298   -2.1104549   -2.1104549   -1.1018291  0.049095329   -2.1104549    1.0086259  1815307 
  107000   0.97291311   -2.1112871   -2.1112871   -1.1013843  0.045577097   -2.1112871    1.0099027  1815307 
  108000   0.97383417   -2.1113685   -2.1113685   -1.1005097  0.047342871   -2.1113685    1.0108588  1815307 
  109000   0.97377838   -2.1114375   -2.1114375   -1.1006366  0.049237799   -2.1114375    1.0108009  1815307 
  110000   0.97265422   -2.1103295   -2.1103295   -1.1006955  0.048525918   -2.1103295     1.009634  1815307 
  111000   0.97411353   -2.1119744   -2.1119744   -1.1008256  0.048043052   -2.1119744    1.0111488  1815307 
  112000   0.97287323   -2.1108462   -2.1108462   -1.1009848  0.050491189   -2.1108462    1.0098613  1815307 
  113000   0.97281156   -2.1107901   -2.1107901   -1.1009927  0.047655138   -2.1107901    1.0097973  1815307 
  114000   0.97346315   -2.1112455   -2.1112455   -1.1007718  0.050719267   -2.1112455    1.0104737  1815307 
  115000   0.97274147   -2.1100768   -2.1100768   -1.1003522  0.049568566   -2.1100768    1.0097246  1815307 
  116000   0.97214063   -2.1090572   -2.1090572   -1.0999563  0.048665209   -2.1090572    1.0091009  1815307 
  117000   0.97258224    -2.109244    -2.109244   -1.0996847   0.04965143    -2.109244    1.0095593  1815307 
  118000   0.97343353   -2.1100575   -2.1100575   -1.0996145  0.049786876   -2.1100575     1.010443  1815307 
  119000    0.9735257   -2.1101237   -2.1101237   -1.0995851  0.047964616   -2.1101237    1.0105386  1815307 
  120000   0.97335072   -2.1097503   -2.1097503   -1.0993933  0.047747709   -2.1097503     1.010357  1815307 
  121000   0.97270359   -2.1089662   -2.1089662    -1.099281  0.049864601   -2.1089662    1.0096853  1815307 
  122000    0.9730846   -2.1091583   -2.1091583   -1.0990776      0.04926   -2.1091583    1.0100808  1815307 
  123000   0.97251916    -2.108688    -2.108688   -1.0991942  0.050569903    -2.108688    1.0094938  1815307 
  124000   0.97394342   -2.1090184   -2.1090184   -1.0980462  0.048849154   -2.1090184    1.0109722  1815307 
  125000   0.97449628   -2.1096207   -2.1096207   -1.0980746  0.046379204   -2.1096207    1.0115461  1815307 
  126000   0.97401044   -2.1081873   -2.1081873   -1.0971455  0.050776908   -2.1081873    1.0110418  1815307 
  127000   0.97423766   -2.1079896   -2.1079896    -1.096712  0.051181629   -2.1079896    1.0112776  1815307 
  128000   0.97479417   -2.1084066   -2.1084066   -1.0965513   0.05155814   -2.1084066    1.0118553  1815307 
  129000    0.9750027    -2.108901    -2.108901   -1.0968292  0.049568326    -2.108901    1.0120718  1815307 
  130000   0.97459812   -2.1084615   -2.1084615   -1.0968097  0.051724358   -2.1084615    1.0116518  1815307 
  131000   0.97390366   -2.1075126   -2.1075126   -1.0965817   0.04865182   -2.1075126     1.010931  1815307 
  132000    0.9742612   -2.1074908   -2.1074908   -1.0961887  0.051178519   -2.1074908    1.0113021  1815307 
  133000   0.97479713   -2.1084336   -2.1084336   -1.0965752  0.048631878   -2.1084336    1.0118584  1815307 
  134000   0.97343382   -2.1066008   -2.1066008   -1.0961575  0.047752917   -2.1066008    1.0104432  1815307 
  135000   0.97359096   -2.1066542   -2.1066542   -1.0960478  0.048494904   -2.1066542    1.0106064  1815307 
  136000   0.97418171    -2.107104    -2.107104   -1.0958845  0.051544165    -2.107104    1.0112196  1815307 
  137000   0.97412895   -2.1066214   -2.1066214   -1.0954566  0.050466734   -2.1066214    1.0111648  1815307 
  138000   0.97415977   -2.1068004   -2.1068004   -1.0956036  0.049397679   -2.1068004    1.0111968  1815307 
  139000   0.97459824   -2.1070439   -2.1070439    -1.095392  0.047888679   -2.1070439    1.0116519  1815307 
  140000   0.97534511   -2.1078958   -2.1078958   -1.0954686  0.047995012   -2.1078958    1.0124272  1815307 
  141000   0.97445926   -2.1067429   -2.1067429   -1.0952352  0.051208117   -2.1067429    1.0115077  1815307 
  142000   0.97437954   -2.1063718   -2.1063718   -1.0949468  0.052136003   -2.1063718    1.0114249  1815307 
  143000    0.9746281   -2.1067586   -2.1067586   -1.0950757  0.049421473   -2.1067586    1.0116829  1815307 
  144000   0.97494379    -2.106687    -2.106687   -1.0946763  0.050567481    -2.106687    1.0120106  1815307 
  145000   0.97549917   -2.1066421   -2.1066421    -1.094055  0.053040044   -2.1066421    1.0125871  1815307 
  146000    0.9769295   -2.1078188   -2.1078188    -1.093747  0.050923479   -2.1078188    1.0140718  1815307 
  147000   0.97522683   -2.1064301   -2.1064301   -1.0941257  0.048741794   -2.1064301    1.0123044  1815307 
  148000   0.97515057   -2.1063295   -2.1063295   -1.0941042  0.050586756   -2.1063295    1.0122253  1815307 
  149000   0.97495269   -2.1056799   -2.1056799     -1.09366   0.04874749   -2.1056799    1.0120199  1815307 
  150000   0.97547621   -2.1060158   -2.1060158   -1.0934525  0.050491466   -2.1060158    1.0125633  1815307 
  151000   0.97554209   -2.1060294   -2.1060294   -1.0933977  0.049000068   -2.1060294    1.0126317  1815307 
  152000   0.97532571   -2.1053866   -2.1053866   -1.0929795  0.050030605   -2.1053866    1.0124071  1815307 
  153000    0.9750713   -2.1053192   -2.1053192   -1.0931762     0.052167   -2.1053192     1.012143  1815307 
  154000     0.976158   -2.1059705   -2.1059705   -1.0926995  0.051637381   -2.1059705     1.013271  1815307 
  155000   0.97574877   -2.1055682   -2.1055682    -1.092722  0.052852225   -2.1055682    1.0128462  1815307 
  156000   0.97600912   -2.1059371   -2.1059371   -1.0928206  0.051890227   -2.1059371    1.0131165  1815307 
  157000   0.97510641   -2.1050427   -2.1050427   -1.0928632  0.047938384   -2.1050427    1.0121794  1815307 
  158000   0.97547228   -2.1052133   -2.1052133   -1.0926541  0.053815218   -2.1052133    1.0125592  1815307 
  159000   0.97508351   -2.1050846   -2.1050846   -1.0929289  0.049665309   -2.1050846    1.0121557  1815307 
  160000   0.97497577   -2.1045795   -2.1045795   -1.0925357  0.049156491   -2.1045795    1.0120438  1815307 
  161000   0.97611884   -2.1053344   -2.1053344    -1.092104  0.050956752   -2.1053344    1.0132304  1815307 
  162000    0.9751238   -2.1040975   -2.1040975      -1.0919  0.051349906   -2.1040975    1.0121975  1815307 
  163000   0.97482432   -2.1037801   -2.1037801   -1.0918935  0.052721994   -2.1037801    1.0118866  1815307 
  164000   0.97572209   -2.1044106   -2.1044106   -1.0915921    0.0539737   -2.1044106    1.0128185  1815307 
  165000   0.97562154   -2.1041734   -2.1041734   -1.0914592  0.051109505   -2.1041734    1.0127141  1815307 
  166000   0.97690385   -2.1049843   -2.1049843   -1.0909391  0.052092578   -2.1049843    1.0140452  1815307 
  167000   0.97564787   -2.1032906   -2.1032906   -1.0905491  0.052859443   -2.1032906    1.0127415  1815307 
  168000   0.97639913   -2.1041108   -2.1041108   -1.0905895  0.050427168   -2.1041108    1.0135213  1815307 
  169000   0.97624739   -2.1042424   -2.1042424   -1.0908786  0.052696652   -2.1042424    1.0133638  1815307 
  170000   0.97575739   -2.1040382   -2.1040382    -1.091183  0.053270442   -2.1040382    1.0128552  1815307 
  171000   0.97613257   -2.1042433   -2.1042433   -1.0909987  0.052221896   -2.1042433    1.0132446  1815307 
  172000   0.97691741   -2.1051832   -2.1051832   -1.0911239  0.051585519   -2.1051832    1.0140593  1815307 
  173000   0.97627709   -2.1047451   -2.1047451   -1.0913505  0.053198892   -2.1047451    1.0133946  1815307 
  174000   0.97589404   -2.1043178   -2.1043178   -1.0913208  0.051913529   -2.1043178     1.012997  1815307 
  175000   0.97694534   -2.1046211   -2.1046211   -1.0905328  0.052718431   -2.1046211    1.0140883  1815307 
  176000   0.97662806   -2.1040137   -2.1040137   -1.0902548  0.049310666   -2.1040137    1.0137589  1815307 
  177000   0.97511203   -2.1024782   -2.1024782   -1.0902929  0.052480997   -2.1024782    1.0121853  1815307 
  178000   0.97566224   -2.1028024   -2.1028024    -1.090046  0.053078872   -2.1028024    1.0127564  1815307 
  179000   0.97534687   -2.1020036   -2.1020036   -1.0895746  0.052109611   -2.1020036     1.012429  1815307 
  180000   0.97576812   -2.1024311   -2.1024311   -1.0895648  0.050406374   -2.1024311    1.0128663  1815307 
  181000   0.97646063   -2.1026092   -2.1026092   -1.0890241  0.052113128   -2.1026092    1.0135851  1815307 
  182000   0.97685811   -2.1031923   -2.1031923   -1.0891946  0.052659077   -2.1031923    1.0139977  1815307 
  183000   0.97676931   -2.1028484   -2.1028484   -1.0889428  0.053739168   -2.1028484    1.0139056  1815307 
  184000   0.97684502   -2.1022959   -2.1022959   -1.0883117   0.05129829   -2.1022959    1.0139841  1815307 
  185000   0.97602227   -2.1014633   -2.1014633   -1.0883332  0.050927446   -2.1014633    1.0131301  1815307 
  186000   0.97602103   -2.1010192   -2.1010192   -1.0878903    0.0520689   -2.1010192    1.0131288  1815307 
  187000    0.9760571   -2.1008096   -2.1008096   -1.0876433   0.05594796   -2.1008096    1.0131663  1815307 
  188000   0.97825588   -2.1026903   -2.1026903   -1.0872416  0.054291955   -2.1026903    1.0154486  1815307 
  189000   0.97734586   -2.1016507   -2.1016507   -1.0871467  0.051495138   -2.1016507     1.014504  1815307 
  190000   0.97691381   -2.1015972   -2.1015972   -1.0875416   0.05174766   -2.1015972    1.0140556  1815307 
  191000   0.97548961   -2.0999752   -2.0999752    -1.087398  0.053500688   -2.0999752    1.0125772  1815307 
  192000   0.97706835   -2.1014161   -2.1014161   -1.0872001  0.049612995   -2.1014161     1.014216  1815307 
  193000   0.97896375   -2.1035249   -2.1035249   -1.0873415  0.050347506   -2.1035249    1.0161834  1815307 
  194000    0.9777977   -2.1019709   -2.1019709   -1.0869979  0.054344946   -2.1019709     1.014973  1815307 
  195000   0.97710915   -2.1009366   -2.1009366   -1.0866783  0.051642297   -2.1009366    1.0142583  1815307 
  196000   0.97675818   -2.1005118   -2.1005118   -1.0866178  0.049935982   -2.1005118     1.013894  1815307 
  197000   0.97619077   -2.0998564   -2.0998564   -1.0865514   0.05052707   -2.0998564     1.013305  1815307 
  198000   0.97670269   -2.1001006   -2.1001006   -1.0862642    0.0505425   -2.1001006    1.0138364  1815307 
  199000   0.97576614   -2.0989642   -2.0989642      -1.0861  0.053520049   -2.0989642    1.0128643  1815307 
  200000   0.97594324   -2.0987345   -2.0987345   -1.0856864  0.051753092   -2.0987345    1.0130481  1815307 
  201000   0.97709747   -2.0998096   -2.0998096   -1.0855634  0.049934991   -2.0998096    1.0142462  1815307 
  202000   0.97553771   -2.0986088   -2.0986088   -1.0859817  0.054677228   -2.0986088    1.0126271  1815307 
  203000   0.97595041   -2.0990316   -2.0990316   -1.0859761  0.053601789   -2.0990316    1.0130555  1815307 
  204000   0.97591194   -2.0991845   -2.0991845   -1.0861689  0.052931057   -2.0991845    1.0130156  1815307 
  205000   0.97741005    -2.099676    -2.099676   -1.0851054  0.055322102    -2.099676    1.0145707  1815307 
  206000   0.97727172    -2.099706    -2.099706   -1.0852789  0.052082339    -2.099706    1.0144271  1815307 
  207000    0.9787909    -2.101084    -2.101084     -1.08508  0.052355923    -2.101084     1.016004  1815307 
  208000    0.9776609   -2.0996226   -2.0996226   -1.0847916  0.053942041   -2.0996226     1.014831  1815307 
  209000   0.97778517   -2.0995304   -2.0995304   -1.0845704  0.053132276   -2.0995304      1.01496  1815307 
  210000   0.97728203   -2.0991762   -2.0991762   -1.0847384  0.050077288   -2.0991762    1.0144378  1815307 
  211000   0.97719581   -2.0992428   -2.0992428   -1.0848946  0.054011122   -2.0992428    1.0143483  1815307 
  212000   0.97821151   -2.0999603   -2.0999603   -1.0845577  0.053910789   -2.0999603    1.0154026  1815307 
  213000   0.97815207   -2.0998264   -2.0998264   -1.0844855   0.05233646   -2.0998264    1.0153409  1815307 
  214000   0.97753338   -2.0994447   -2.0994447    -1.084746  0.053092951   -2.0994447    1.0146987  1815307 
  215000   0.97710076   -2.0991052   -2.0991052   -1.0848555  0.051968017   -2.0991052    1.0142496  1815307 
  216000   0.97740357   -2.0991133   -2.0991133   -1.0845494  0.052287596   -2.0991133    1.0145639  1815307 
  217000   0.97745035   -2.0988403   -2.0988403   -1.0842278  0.051409907   -2.0988403    1.0146125  1815307 
  218000   0.97726984   -2.0985512   -2.0985512   -1.0841261  0.052088432   -2.0985512    1.0144251  1815307 
  219000   0.97670756   -2.0978619   -2.0978619   -1.0840205  0.050573482   -2.0978619    1.0138415  1815307 
  220000   0.97671281   -2.0984973   -2.0984973   -1.0846504  0.050580327   -2.0984973    1.0138469  1815307 
  221000   0.97714809   -2.0984196   -2.0984196   -1.0841209  0.052304134   -2.0984196    1.0142987  1815307 
  222000   0.97712685   -2.0988246   -2.0988246   -1.0845479  0.052778549   -2.0988246    1.0142767  1815307 
  223000   0.97676108   -2.0984507   -2.0984507   -1.0845536  0.052989268   -2.0984507     1.013897  1815307 
  224000   0.97691111   -2.0985172   -2.0985172   -1.0844645  0.050735459   -2.0985172    1.0140527  1815307 
  225000   0.97705241   -2.0989358   -2.0989358   -1.0847364  0.052123168   -2.0989358    1.0141994  1815307 
  226000    0.9768369   -2.0992396   -2.0992396   -1.0852639  0.052094029   -2.0992396    1.0139757  1815307 
  227000   0.97757211   -2.0997383   -2.0997383   -1.0849995  0.053598913   -2.0997383    1.0147389  1815307 
  228000   0.97709353   -2.0987775   -2.0987775   -1.0845354  0.053802093   -2.0987775    1.0142421  1815307 
  229000   0.97706286   -2.0993691   -2.0993691   -1.0851588  0.052118948   -2.0993691    1.0142103  1815307 
  230000   0.97691535   -2.0989717   -2.0989717   -1.0849146  0.051735146   -2.0989717    1.0140571  1815307 
  231000   0.97818375   -2.1000421   -2.1000421   -1.0846684  0.051388426   -2.1000421    1.0153738  1815307 
  232000   0.97743445   -2.0994795   -2.0994795   -1.0848835  0.053852124   -2.0994795     1.014596  1815307 
  233000   0.97799193   -2.0998334   -2.0998334   -1.0846588  0.055540666   -2.0998334    1.0151747  1815307 
  234000   0.97821125   -2.0994437   -2.0994437   -1.0840414  0.054300581   -2.0994437    1.0154023  1815307 
  235000   0.97852004   -2.0997939   -2.0997939   -1.0840711  0.052923838   -2.0997939    1.0157228  1815307 
  236000   0.97714579    -2.098314    -2.098314   -1.0840177  0.051695493    -2.098314    1.0142963  1815307 
  237000   0.97729406    -2.098452    -2.098452   -1.0840017   0.05356646    -2.098452    1.0144503  1815307 
  238000   0.97726639    -2.098494    -2.098494   -1.0840724  0.049822189    -2.098494    1.0144215  1815307 
  239000   0.97596423    -2.097393    -2.097393   -1.0843231  0.054994644    -2.097393    1.0130699  1815307 
  240000   0.97691686   -2.0978249   -2.0978249   -1.0837662   0.05388372   -2.0978249    1.0140587  1815307 
  241000   0.97828062   -2.0987488   -2.0987488   -1.0832745    0.0522883   -2.0987488    1.0154743  1815307 
  242000   0.97848525    -2.098768    -2.098768   -1.0830813   0.05363511    -2.098768    1.0156867  1815307 
  243000   0.97904135   -2.0997249   -2.0997249   -1.0834609  0.052433632   -2.0997249     1.016264  1815307 
  244000   0.97848177   -2.0989977   -2.0989977   -1.0833146  0.051269507   -2.0989977    1.0156831  1815307 
  245000    0.9785286   -2.0991162   -2.0991162   -1.0833845  0.052437468   -2.0991162    1.0157317  1815307 
  246000   0.97786727    -2.098494    -2.098494   -1.0834488  0.052919381    -2.098494    1.0150453  1815307 
  247000   0.97761259   -2.0978972   -2.0978972   -1.0831163  0.054034772   -2.0978972    1.0147809  1815307 
  248000   0.97855007   -2.0985805   -2.0985805   -1.0828265  0.052386558   -2.0985805     1.015754  1815307 
  249000   0.97705313   -2.0973525   -2.0973525   -1.0831523  0.050866149   -2.0973525    1.0142002  1815307 
  250000    0.9772565   -2.0973031   -2.0973031   -1.0828919  0.053473391   -2.0973031    1.0144113  1815307 
  251000    0.9788873   -2.0988165   -2.0988165   -1.0827124  0.053992718   -2.0988165    1.0161041  1815307 
  252000   0.97858872   -2.0981847   -2.0981847   -1.0823906  0.053166126   -2.0981847    1.0157941  1815307 
  253000   0.97850105   -2.0976947   -2.0976947   -1.0819916  0.054050053   -2.0976947    1.0157031  1815307 
  254000    0.9790716    -2.098003    -2.098003   -1.0817077  0.053259312    -2.098003    1.0162954  1815307 
  255000    0.9783085   -2.0970418   -2.0970418   -1.0815386  0.051046484   -2.0970418    1.0155033  1815307 
  256000   0.97872168   -2.0978614   -2.0978614   -1.0819293  0.054392089   -2.0978614    1.0159322  1815307 
  257000   0.97877863   -2.0981576   -2.0981576   -1.0821663  0.053183874   -2.0981576    1.0159913  1815307 
  258000   0.97782036    -2.097281    -2.097281   -1.0822844  0.053252604    -2.097281    1.0149966  1815307 
  259000   0.97719525   -2.0963632   -2.0963632   -1.0820155  0.056003632   -2.0963632    1.0143477  1815307 
  260000    0.9785747   -2.0980563   -2.0980563   -1.0822767  0.052539193   -2.0980563    1.0157796  1815307 
  261000   0.97788377   -2.0973149   -2.0973149   -1.0822525  0.053713124   -2.0973149    1.0150624  1815307 
  262000   0.97774172   -2.0970779   -2.0970779    -1.082163  0.053774486   -2.0970779    1.0149149  1815307 
  263000   0.97685837   -2.0963022   -2.0963022   -1.0823042   0.05271649   -2.0963022     1.013998  1815307 
  264000   0.97746201   -2.0970932   -2.0970932   -1.0824686  0.052660028   -2.0970932    1.0146246  1815307 
  265000   0.97817453    -2.097644    -2.097644   -1.0822798    0.0522769    -2.097644    1.0153642  1815307 
  266000   0.97706664   -2.0966394   -2.0966394   -1.0824252  0.050384524   -2.0966394    1.0142142  1815307 
  267000   0.97676798   -2.0962446   -2.0962446   -1.0823404  0.051160723   -2.0962446    1.0139042  1815307 
  268000   0.97831416   -2.0976122   -2.0976122    -1.082103  0.052742501   -2.0976122    1.0155091  1815307 
  269000   0.97920608   -2.0983108   -2.0983108   -1.0818758  0.052452719   -2.0983108     1.016435  1815307 
  270000   0.97843274    -2.097296    -2.097296   -1.0816637   0.05202536    -2.097296    1.0156322  1815307 
  271000   0.97768014   -2.0967062   -2.0967062   -1.0818551  0.053597733   -2.0967062     1.014851  1815307 
  272000   0.97842646   -2.0977784   -2.0977784   -1.0821527  0.050066796   -2.0977784    1.0156257  1815307 
  273000   0.97772434   -2.0969701   -2.0969701   -1.0820732  0.054007512   -2.0969701    1.0148969  1815307 
  274000   0.97844818   -2.0976484   -2.0976484   -1.0820001  0.053516865   -2.0976484    1.0156483  1815307 
  275000   0.97893211   -2.0979577   -2.0979577   -1.0818071  0.054609534   -2.0979577    1.0161506  1815307 
  276000   0.97855123   -2.0977247   -2.0977247   -1.0819694  0.054190002   -2.0977247    1.0157552  1815307 
  277000   0.97794667   -2.0973641   -2.0973641   -1.0822364  0.054191182   -2.0973641    1.0151277  1815307 
  278000   0.97875366   -2.0975286   -2.0975286   -1.0815633  0.052407537   -2.0975286    1.0159654  1815307 
  279000   0.97847258    -2.097301    -2.097301   -1.0816274  0.051652093    -2.097301    1.0156736  1815307 
  280000   0.97787672   -2.0968459   -2.0968459   -1.0817908  0.053103938   -2.0968459    1.0150551  1815307 
  281000   0.97867849    -2.097453    -2.097453   -1.0815657  0.053109957    -2.097453    1.0158873  1815307 
  282000   0.97803188   -2.0966889   -2.0966889   -1.0814727  0.054511144   -2.0966889    1.0152161  1815307 
  283000   0.97821129   -2.0966224   -2.0966224   -1.0812201   0.05249662   -2.0966224    1.0154024  1815307 
  284000   0.97884139   -2.0970183   -2.0970183   -1.0809619  0.050190912   -2.0970183    1.0160564  1815307 
  285000   0.97790472   -2.0960259   -2.0960259   -1.0809417  0.053585112   -2.0960259    1.0150841  1815307 
  286000   0.97818799   -2.0962467   -2.0962467   -1.0808685  0.052260017   -2.0962467    1.0153782  1815307 
  287000   0.97790033   -2.0958194   -2.0958194   -1.0807398   0.05361696   -2.0958194    1.0150796  1815307 
  288000   0.97909729   -2.0970981   -2.0970981    -1.080776  0.052653322   -2.0970981     1.016322  1815307 
  289000   0.97877715   -2.0963906   -2.0963906   -1.0804008  0.052901794   -2.0963906    1.0159897  1815307 
  290000   0.97848087   -2.0960168   -2.0960168   -1.0803346  0.053793499   -2.0960168    1.0156822  1815307 
  291000   0.97849685   -2.0957818   -2.0957818    -1.080083  0.054057653   -2.0957818    1.0156988  1815307 
  292000   0.97903987   -2.0965596   -2.0965596   -1.0802971  0.054465569   -2.0965596    1.0162624  1815307 
  293000   0.97931323   -2.0968688   -2.0968688   -1.0803226  0.053081074   -2.0968688    1.0165462  1815307 
  294000   0.97861551   -2.0965096   -2.0965096   -1.0806876  0.055641373   -2.0965096     1.015822  1815307 
  295000   0.97875331   -2.0967218   -2.0967218   -1.0807568  0.054106286   -2.0967218     1.015965  1815307 
  296000   0.97950799   -2.0974729   -2.0974729   -1.0807246  0.052888706   -2.0974729    1.0167484  1815307 
  297000   0.97754388    -2.095614    -2.095614   -1.0809044  0.055775346    -2.095614    1.0147096  1815307 
  298000   0.97790664   -2.0959439   -2.0959439   -1.0808578  0.056003249   -2.0959439    1.0150861  1815307 
  299000    0.9788925   -2.0964698   -2.0964698   -1.0803603  0.053183493   -2.0964698    1.0161095  1815307 
  300000   0.97964616   -2.0976115   -2.0976115   -1.0807197  0.054503441   -2.0976115    1.0168918  1815307 
  301000   0.97938489   -2.0971523   -2.0971523   -1.0805317  0.052689789   -2.0971523    1.0166206  1815307 
  302000   0.97912129   -2.0966893   -2.0966893   -1.0803424  0.052734182   -2.0966893     1.016347  1815307 
  303000   0.97844285   -2.0965634   -2.0965634   -1.0809207  0.052848875   -2.0965634    1.0156427  1815307 
  304000   0.97824459   -2.0960738   -2.0960738   -1.0806368  0.052543557   -2.0960738    1.0154369  1815307 
  305000   0.97898969    -2.096615    -2.096615   -1.0804047  0.052451862    -2.096615    1.0162104  1815307 
  306000   0.97988202   -2.0971866   -2.0971866     -1.08005  0.052572749   -2.0971866    1.0171366  1815307 
  307000   0.97954397   -2.0969588   -2.0969588   -1.0801731  0.055070649   -2.0969588    1.0167857  1815307 
  308000   0.97874746   -2.0967767   -2.0967767   -1.0808177  0.053192311   -2.0967767    1.0159589  1815307 
  309000   0.97967958   -2.0977847   -2.0977847   -1.0808583   0.05121024   -2.0977847    1.0169265  1815307 
  310000    0.9789037   -2.0971559   -2.0971559   -1.0810348  0.052899449   -2.0971559    1.0161211  1815307 
  311000   0.97917872   -2.0969003   -2.0969003   -1.0804938  0.054257317   -2.0969003    1.0164066  1815307 
  312000    0.9789444   -2.0964354   -2.0964354   -1.0802721  0.052034393   -2.0964354    1.0161633  1815307 
  313000    0.9791226   -2.0965308   -2.0965308   -1.0801825  0.052376478   -2.0965308    1.0163483  1815307 
  314000   0.97832971   -2.0956267   -2.0956267   -1.0801014  0.051899064   -2.0956267    1.0155253  1815307 
  315000   0.97819991   -2.0952834   -2.0952834   -1.0798929  0.052120693   -2.0952834    1.0153905  1815307 
  316000   0.97789292    -2.094777    -2.094777   -1.0797051   0.05269876    -2.094777    1.0150719  1815307 
  317000   0.97903228   -2.0958448   -2.0958448   -1.0795902  0.053627374   -2.0958448    1.0162546  1815307 
  318000   0.97891509   -2.0952598   -2.0952598   -1.0791269  0.053799874   -2.0952598    1.0161329  1815307 
  319000   0.97748031   -2.0939576   -2.0939576    -1.079314   0.05275982   -2.0939576    1.0146436  1815307 
  320000   0.97966301   -2.0961143   -2.0961143   -1.0792051  0.053458872   -2.0961143    1.0169093  1815307 
  321000   0.98038398   -2.0967497   -2.0967497   -1.0790921  0.054131515   -2.0967497    1.0176577  1815307 
  322000    0.9792013   -2.0953348   -2.0953348   -1.0789048  0.054803521   -2.0953348      1.01643  1815307 
  323000   0.97873285   -2.0953389   -2.0953389   -1.0793952  0.053074385   -2.0953389    1.0159438  1815307 
  324000   0.97912985   -2.0956961   -2.0956961   -1.0793403  0.054639339   -2.0956961    1.0163558  1815307 
  325000   0.97952886   -2.0960214   -2.0960214   -1.0792514  0.050906053   -2.0960214      1.01677  1815307 
  326000   0.97965419   -2.0959977   -2.0959977   -1.0790975  0.053614776   -2.0959977    1.0169001  1815307 
  327000   0.97861832   -2.0951778   -2.0951778   -1.0793529  0.054591539   -2.0951778    1.0158249  1815307 
  328000   0.97908622   -2.0956703   -2.0956703   -1.0793597  0.054865816   -2.0956703    1.0163106  1815307 
  329000   0.97987836    -2.096278    -2.096278   -1.0791452   0.05448458    -2.096278    1.0171328  1815307 
  330000   0.97963257   -2.0957413   -2.0957413   -1.0788636  0.052849818   -2.0957413    1.0168777  1815307 
  331000   0.97887894   -2.0950593   -2.0950593   -1.0789639  0.052513854   -2.0950593    1.0160954  1815307 
  332000    0.9780368   -2.0939897   -2.0939897   -1.0787684  0.052976957   -2.0939897    1.0152212  1815307 
  333000   0.97916472   -2.0954246   -2.0954246   -1.0790325  0.051823977   -2.0954246     1.016392  1815307 
  334000   0.97866155   -2.0950533   -2.0950533   -1.0791836  0.055045751   -2.0950533    1.0158697  1815307 
  335000   0.97798784   -2.0950145   -2.0950145   -1.0798441  0.050046147   -2.0950145    1.0151704  1815307 
  336000   0.97815268   -2.0952601   -2.0952601   -1.0799186  0.051818211   -2.0952601    1.0153415  1815307 
  337000    0.9796821   -2.0962816   -2.0962816   -1.0793525  0.051674063   -2.0962816    1.0169291  1815307 
  338000   0.97943492   -2.0951986   -2.0951986   -1.0785261  0.053933109   -2.0951986    1.0166725  1815307 
  339000   0.97940892   -2.0953451   -2.0953451   -1.0786996  0.050163809   -2.0953451    1.0166455  1815307 
  340000    0.9795505   -2.0962733   -2.0962733   -1.0794808  0.053191966   -2.0962733    1.0167925  1815307 
  341000   0.98005219   -2.0967033   -2.0967033     -1.07939  0.054557012   -2.0967033    1.0173133  1815307 
  342000   0.97885111   -2.0953311   -2.0953311   -1.0792646  0.050873042   -2.0953311    1.0160665  1815307 
  343000   0.97976316   -2.0962775   -2.0962775   -1.0792643  0.053306691   -2.0962775    1.0170132  1815307 
  344000   0.97928511    -2.095939    -2.095939    -1.079422  0.053277017    -2.095939     1.016517  1815307 
  345000   0.98012693   -2.0970268   -2.0970268   -1.0796359  0.051399883   -2.0970268    1.0173908  1815307 
  346000   0.97958756   -2.0965772   -2.0965772   -1.0797462   0.05419715   -2.0965772     1.016831  1815307 
  347000   0.97935151   -2.0963227   -2.0963227   -1.0797368  0.053494254   -2.0963227    1.0165859  1815307 
  348000   0.97897269   -2.0956618   -2.0956618   -1.0794691  0.052662849   -2.0956618    1.0161927  1815307 
  349000   0.97881284   -2.0958642   -2.0958642   -1.0798375  0.052257603   -2.0958642    1.0160268  1815307 
  350000    0.9787699   -2.0960308   -2.0960308   -1.0800486  0.054162067   -2.0960308    1.0159822  1815307 
  351000   0.97859413     -2.09512     -2.09512   -1.0793203  0.053410937     -2.09512    1.0157998  1815307 
  352000   0.97954049   -2.0957946   -2.0957946   -1.0790125  0.051496825   -2.0957946    1.0167821  1815307 
  353000   0.97890911   -2.0951586   -2.0951586   -1.0790319  0.054578926   -2.0951586    1.0161267  1815307 
  354000   0.97916545   -2.0950713   -2.0950713   -1.0786785  0.051999204   -2.0950713    1.0163928  1815307 
  355000   0.98060833   -2.0957343   -2.0957343   -1.0778438  0.052257639   -2.0957343    1.0178905  1815307 
  356000   0.97971224   -2.0947818   -2.0947818   -1.0778214  0.055309841   -2.0947818    1.0169604  1815307 
  357000   0.97945522   -2.0947555   -2.0947555    -1.078062  0.052739142   -2.0947555    1.0166936  1815307 
  358000   0.97873073   -2.0937546   -2.0937546   -1.0778131  0.053671436   -2.0937546    1.0159415  1815307 
  359000   0.97948483   -2.0944566   -2.0944566   -1.0777323    0.0539274   -2.0944566    1.0167243  1815307 
  360000   0.97981048   -2.0948114   -2.0948114    -1.077749  0.054131033   -2.0948114    1.0170623  1815307 
  361000   0.97978237   -2.0946432   -2.0946432     -1.07761  0.052966997   -2.0946432    1.0170332  1815307 
  362000   0.98027858   -2.0955906   -2.0955906   -1.0780423  0.053351646   -2.0955906    1.0175482  1815307 
  363000   0.98017353   -2.0946328   -2.0946328   -1.0771936   0.05409287   -2.0946328    1.0174392  1815307 
  364000    0.9801377   -2.0950517   -2.0950517   -1.0776497   0.05337023   -2.0950517     1.017402  1815307 
  365000   0.97892469   -2.0935109   -2.0935109    -1.077368  0.054856321   -2.0935109    1.0161429  1815307 
  366000   0.97905108    -2.093852    -2.093852    -1.077578  0.053015833    -2.093852    1.0162741  1815307 
  367000   0.97998277   -2.0944633   -2.0944633   -1.0772221  0.053071359   -2.0944633    1.0172412  1815307 
  368000   0.98023648   -2.0948615   -2.0948615   -1.0773569  0.055287396   -2.0948615    1.0175045  1815307 
  369000   0.97920132   -2.0939775   -2.0939775   -1.0775475  0.053653029   -2.0939775      1.01643  1815307 
  370000    0.9798639   -2.0941515   -2.0941515   -1.0770337  0.055318208   -2.0941515    1.0171178  1815307 
  371000    0.9798033   -2.0938712   -2.0938712   -1.0768163  0.054792878   -2.0938712    1.0170549  1815307 
  372000   0.98043789   -2.0946488   -2.0946488   -1.0769352  0.055279351   -2.0946488    1.0177136  1815307 
  373000   0.98024915   -2.0947685   -2.0947685   -1.0772508  0.053662235   -2.0947685    1.0175177  1815307 
  374000    0.9812754   -2.0959687   -2.0959687   -1.0773857  0.054332122   -2.0959687     1.018583  1815307 
  375000   0.97998378   -2.0945746   -2.0945746   -1.0773323  0.053589385   -2.0945746    1.0172422  1815307 
  376000   0.98008137   -2.0944128   -2.0944128   -1.0770693  0.056448085   -2.0944128    1.0173435  1815307 
  377000   0.98055268   -2.0947136   -2.0947136   -1.0768808  0.053220813   -2.0947136    1.0178328  1815307 
  378000     0.980454   -2.0947788   -2.0947788   -1.0770485  0.053416843   -2.0947788    1.0177303  1815307 
  379000   0.97972609   -2.0941291   -2.0941291   -1.0771543  0.055392168   -2.0941291    1.0169748  1815307 
  380000   0.97940753   -2.0934398   -2.0934398   -1.0767957  0.053561996   -2.0934398    1.0166441  1815307 
  381000   0.97953241   -2.0938529   -2.0938529   -1.0770792  0.053961648   -2.0938529    1.0167737  1815307 
  382000   0.98023481   -2.0938635   -2.0938635   -1.0763607  0.054477817   -2.0938635    1.0175028  1815307 
  383000    0.9804524   -2.0941838   -2.0941838   -1.0764551  0.050617485   -2.0941838    1.0177287  1815307 
  384000   0.98033222   -2.0936102   -2.0936102   -1.0760062  0.054321821   -2.0936102    1.0176039  1815307 
  385000   0.98045273   -2.0940116   -2.0940116   -1.0762826  0.055999599   -2.0940116     1.017729  1815307 
  386000   0.98059465   -2.0943303   -2.0943303    -1.076454  0.055308113   -2.0943303    1.0178763  1815307 
  387000   0.98019156    -2.094199    -2.094199   -1.0767411   0.05634824    -2.094199    1.0174579  1815307 
  388000    0.9806607   -2.0943455   -2.0943455   -1.0764006  0.053474494   -2.0943455    1.0179449  1815307 
  389000   0.98047622   -2.0942851   -2.0942851   -1.0765317  0.055267416   -2.0942851    1.0177534  1815307 
  390000   0.98025231   -2.0943392   -2.0943392   -1.0768182  0.056670005   -2.0943392     1.017521  1815307 
  391000   0.98117173   -2.0948012   -2.0948012   -1.0763259  0.054964804   -2.0948012    1.0184754  1815307 
  392000   0.98064779   -2.0939895   -2.0939895    -1.076058  0.054445819   -2.0939895    1.0179315  1815307 
  393000   0.98076581   -2.0944388   -2.0944388   -1.0763848  0.053261672   -2.0944388     1.018054  1815307 
  394000   0.98015923   -2.0938241   -2.0938241   -1.0763997  0.051997306   -2.0938241    1.0174244  1815307 
  395000   0.98016851   -2.0938216   -2.0938216   -1.0763876  0.057579772   -2.0938216     1.017434  1815307 
  396000   0.98015871   -2.0935314   -2.0935314   -1.0761076  0.053534989   -2.0935314    1.0174238  1815307 
  397000   0.97948872   -2.0926082   -2.0926082   -1.0758799  0.053765905   -2.0926082    1.0167284  1815307 
  398000    0.9799031   -2.0930066   -2.0930066   -1.0758481  0.052531221   -2.0930066    1.0171585  1815307 
  399000   0.98145841   -2.0948681   -2.0948681   -1.0760951  0.053260289   -2.0948681    1.0187729  1815307 
  400000   0.98039476   -2.0937371   -2.0937371   -1.0760683  0.053545984   -2.0937371    1.0176688  1815307 
  401000   0.98063825   -2.0938052   -2.0938052   -1.0758836  0.053341104   -2.0938052    1.0179216  1815307 
  402000   0.98034975   -2.0929068   -2.0929068   -1.0752847   0.05680581   -2.0929068    1.0176221  1815307 
  403000   0.97971808   -2.0925727   -2.0925727   -1.0756063  0.052605886   -2.0925727    1.0169664  1815307 
  404000   0.97985162   -2.0931197   -2.0931197   -1.0760146  0.055912029   -2.0931197    1.0171051  1815307 
  405000   0.98099187   -2.0941126   -2.0941126    -1.075824  0.053678877   -2.0941126    1.0182887  1815307 
  406000   0.98085344   -2.0942666   -2.0942666   -1.0761216  0.052919667   -2.0942666     1.018145  1815307 
  407000   0.98129005   -2.0952626   -2.0952626   -1.0766644  0.051679813   -2.0952626    1.0185982  1815307 
  408000   0.97950995   -2.0933387   -2.0933387   -1.0765883  0.051880016   -2.0933387    1.0167504  1815307 
  409000   0.97986968   -2.0933489   -2.0933489   -1.0762251  0.052320132   -2.0933489    1.0171238  1815307 
  410000   0.97985463   -2.0929438   -2.0929438   -1.0758356  0.053676888   -2.0929438    1.0171082  1815307 
  411000    0.9809995   -2.0945592   -2.0945592   -1.0762626  0.053603063   -2.0945592    1.0182966  1815307 
  412000   0.98096887   -2.0952215   -2.0952215   -1.0769567  0.053165448   -2.0952215    1.0182648  1815307 
  413000   0.98069188   -2.0943682   -2.0943682   -1.0763909  0.055187533   -2.0943682    1.0179773  1815307 
  414000   0.98024923   -2.0942824   -2.0942824   -1.0767646  0.052631587   -2.0942824    1.0175178  1815307 
  415000   0.97990646   -2.0935977   -2.0935977   -1.0764357  0.053013697   -2.0935977     1.017162  1815307 
  416000   0.98025524   -2.0940293   -2.0940293   -1.0765053  0.053360754   -2.0940293     1.017524  1815307 
  417000   0.98081685   -2.0942963   -2.0942963   -1.0761893  0.053132607   -2.0942963     1.018107  1815307 
  418000   0.98134218   -2.0947919   -2.0947919   -1.0761396  0.055970841   -2.0947919    1.0186523  1815307 
  419000   0.98099438    -2.094028    -2.094028   -1.0757368  0.051883951    -2.094028    1.0182913  1815307 
  420000   0.98061526   -2.0938309   -2.0938309   -1.0759332  0.053004565   -2.0938309    1.0178977  1815307 
  421000    0.9810269   -2.0941472   -2.0941472   -1.0758221   0.05594699   -2.0941472     1.018325  1815307 
  422000   0.98050635   -2.0939201   -2.0939201   -1.0761355  0.055796055   -2.0939201    1.0177847  1815307 
  423000   0.98055193   -2.0937053   -2.0937053   -1.0758733  0.056310487   -2.0937053     1.017832  1815307 
  424000   0.98046903   -2.0935977   -2.0935977   -1.0758518  0.053070168   -2.0935977    1.0177459  1815307 
  425000   0.98021735   -2.0929086   -2.0929086   -1.0754239  0.055989155   -2.0929086    1.0174847  1815307 
  426000   0.97998427   -2.0927666   -2.0927666   -1.0755239  0.052751779   -2.0927666    1.0172427  1815307 
  427000   0.97975038   -2.0926436   -2.0926436   -1.0756436  0.053707189   -2.0926436        1.017  1815307 
  428000   0.97950906   -2.0920589   -2.0920589   -1.0753094  0.052767589   -2.0920589    1.0167495  1815307 
  429000   0.98070644   -2.0934397   -2.0934397   -1.0754473  0.052947372   -2.0934397    1.0179924  1815307 
  430000    0.9801985   -2.0927453   -2.0927453   -1.0752801  0.053562511   -2.0927453    1.0174651  1815307 
  431000   0.98124786   -2.0941018   -2.0941018   -1.0755475  0.052745511   -2.0941018    1.0185544  1815307 
  432000   0.98006253   -2.0931289   -2.0931289    -1.075805  0.054322937   -2.0931289     1.017324  1815307 
  433000   0.98040573   -2.0934058   -2.0934058   -1.0757255  0.053115626   -2.0934058    1.0176802  1815307 
  434000   0.98025877   -2.0930922   -2.0930922   -1.0755646  0.052857178   -2.0930922    1.0175277  1815307 
  435000   0.97903421   -2.0921588   -2.0921588   -1.0759022  0.052188197   -2.0921588    1.0162566  1815307 
  436000   0.98120598   -2.0942585   -2.0942585   -1.0757476  0.054035638   -2.0942585    1.0185109  1815307 
  437000      0.98071   -2.0937439   -2.0937439   -1.0757479  0.056909027   -2.0937439    1.0179961  1815307 
  438000   0.98093405   -2.0940017   -2.0940017    -1.075773  0.053128535   -2.0940017    1.0182286  1815307 
  439000   0.97961477   -2.0925764   -2.0925764   -1.0757172  0.054905617   -2.0925764    1.0168592  1815307 
  440000   0.98109981   -2.0937304   -2.0937304   -1.0753297  0.056520556   -2.0937304    1.0184007  1815307 
  441000   0.98146685   -2.0941095   -2.0941095   -1.0753278  0.055436849   -2.0941095    1.0187817  1815307 
  442000   0.98214054   -2.0945983   -2.0945983   -1.0751173  0.052717744   -2.0945983     1.019481  1815307 
  443000   0.98123053   -2.0937093   -2.0937093   -1.0751729  0.055918379   -2.0937093    1.0185364  1815307 
  444000   0.98075956   -2.0928947   -2.0928947   -1.0748472  0.053335493   -2.0928947    1.0180475  1815307 
  445000   0.98237091   -2.0942782   -2.0942782   -1.0745581   0.05513206   -2.0942782    1.0197201  1815307 
  446000   0.98112963   -2.0936381   -2.0936381   -1.0752064  0.053433025   -2.0936381    1.0184317  1815307 
  447000   0.98087951   -2.0934326   -2.0934326   -1.0752606  0.052648658   -2.0934326     1.018172  1815307 
  448000   0.98128674   -2.0937694   -2.0937694   -1.0751747  0.051343077   -2.0937694    1.0185947  1815307 
  449000    0.9806424   -2.0926414   -2.0926414   -1.0747155  0.054835735   -2.0926414    1.0179259  1815307 
  450000   0.98060318   -2.0928515   -2.0928515   -1.0749663  0.055872067   -2.0928515    1.0178852  1815307 
  451000   0.98125565   -2.0932814   -2.0932814   -1.0747189  0.053350146   -2.0932814    1.0185625  1815307 
  452000    0.9810717   -2.0927739   -2.0927739   -1.0744024  0.054341438   -2.0927739    1.0183715  1815307 
  453000   0.98176687   -2.0936118   -2.0936118   -1.0745187  0.054945827   -2.0936118    1.0190931  1815307 
  454000   0.98113173   -2.0925341   -2.0925341   -1.0741002   0.05524101   -2.0925341    1.0184338  1815307 
  455000   0.98169756   -2.0929249   -2.0929249   -1.0739038  0.052880819   -2.0929249    1.0190212  1815307 
  456000   0.98144895   -2.0928405   -2.0928405   -1.0740774  0.055200868   -2.0928405    1.0187631  1815307 
  457000   0.98156189   -2.0929733   -2.0929733   -1.0740929   0.05521302   -2.0929733    1.0188804  1815307 
  458000   0.98109153   -2.0922673   -2.0922673   -1.0738752  0.054291818   -2.0922673    1.0183921  1815307 
  459000   0.98149216   -2.0929303   -2.0929303   -1.0741223  0.052491221   -2.0929303     1.018808  1815307 
  460000   0.98076377   -2.0920595   -2.0920595   -1.0740076  0.054825854   -2.0920595    1.0180519  1815307 
  461000   0.98057183   -2.0922386   -2.0922386    -1.074386   0.05417347   -2.0922386    1.0178527  1815307 
  462000   0.98119429    -2.092411    -2.092411   -1.0739123   0.05370809    -2.092411    1.0184988  1815307 
  463000   0.98104075   -2.0920697   -2.0920697   -1.0737303  0.054191677   -2.0920697    1.0183394  1815307 
  464000   0.98146595   -2.0921904   -2.0921904   -1.0734096  0.056805537   -2.0921904    1.0187808  1815307 
  465000   0.98140557   -2.0922065   -2.0922065   -1.0734885  0.056022149   -2.0922065    1.0187181  1815307 
  466000   0.98159596   -2.0928766   -2.0928766   -1.0739609  0.053556586   -2.0928766    1.0189157  1815307 
  467000   0.98164996   -2.0928819   -2.0928819   -1.0739101  0.055717405   -2.0928819    1.0189718  1815307 
  468000   0.98184042   -2.0928106   -2.0928106   -1.0736411  0.053041858   -2.0928106    1.0191695  1815307 
  469000   0.98163076   -2.0924344   -2.0924344   -1.0734826   0.05537991   -2.0924344    1.0189518  1815307 
  470000   0.98131184   -2.0923566   -2.0923566   -1.0737358   0.05283002   -2.0923566    1.0186208  1815307 
  471000   0.98155045    -2.092633    -2.092633   -1.0737645  0.053995394    -2.092633    1.0188685  1815307 
  472000   0.98030414   -2.0917309   -2.0917309   -1.0741561  0.052829113   -2.0917309    1.0175748  1815307 
  473000   0.98176682    -2.092799    -2.092799   -1.0737059  0.052221557    -2.092799    1.0190931  1815307 
  474000   0.98084723    -2.091257    -2.091257   -1.0731185   0.05670167    -2.091257    1.0181385  1815307 
  475000   0.98055834   -2.0908612   -2.0908612   -1.0730225  0.053448608   -2.0908612    1.0178386  1815307 
  476000   0.98061439   -2.0909896   -2.0909896   -1.0730927  0.054200816   -2.0909896    1.0178968  1815307 
  477000   0.98169151   -2.0917681   -2.0917681   -1.0727532  0.054010066   -2.0917681    1.0190149  1815307 
  478000   0.98055064   -2.0906235   -2.0906235   -1.0727928  0.056040714   -2.0906235    1.0178307  1815307 
  479000   0.98243028   -2.0919448   -2.0919448   -1.0721631  0.055926672   -2.0919448    1.0197818  1815307 
  480000   0.98165987    -2.091253    -2.091253   -1.0722709  0.053508496    -2.091253    1.0189821  1815307 
  481000     0.981278    -2.090978    -2.090978   -1.0723924  0.056926481    -2.090978    1.0185857  1815307 
  482000   0.98280166   -2.0928218   -2.0928218   -1.0726545  0.053423984   -2.0928218    1.0201672  1815307 
  483000   0.98170606   -2.0916856   -2.0916856   -1.0726556  0.054646743   -2.0916856      1.01903  1815307 
  484000   0.98204489   -2.0921387   -2.0921387    -1.072757  0.054244447   -2.0921387    1.0193817  1815307 
  485000   0.98179893   -2.0916078   -2.0916078   -1.0724814  0.054786821   -2.0916078    1.0191264  1815307 
  486000   0.98216729    -2.092408    -2.092408   -1.0728992  0.056120394    -2.092408    1.0195088  1815307 
  487000    0.9811338   -2.0914463   -2.0914463   -1.0730103  0.054956311   -2.0914463     1.018436  1815307 
  488000   0.98082672   -2.0912517   -2.0912517   -1.0731345  0.053480047   -2.0912517    1.0181172  1815307 
  489000   0.98174445   -2.0921169   -2.0921169   -1.0730471  0.053919655   -2.0921169    1.0190698  1815307 
  490000   0.98142439   -2.0916149   -2.0916149   -1.0728773  0.053651314   -2.0916149    1.0187376  1815307 
  491000   0.98108511   -2.0912306   -2.0912306   -1.0728452  0.052977133   -2.0912306    1.0183854  1815307 
  492000   0.98177984   -2.0918232   -2.0918232   -1.0727166  0.056644937   -2.0918232    1.0191066  1815307 
  493000   0.98116549   -2.0910871   -2.0910871   -1.0726182  0.056891234   -2.0910871    1.0184689  1815307 
  494000     0.981785   -2.0913863   -2.0913863   -1.0722744  0.054026028   -2.0913863    1.0191119  1815307 
  495000   0.98185853   -2.0913758   -2.0913758   -1.0721876  0.055629652   -2.0913758    1.0191883  1815307 
  496000   0.98226388   -2.0913945   -2.0913945   -1.0717855  0.054821059   -2.0913945     1.019609  1815307 
  497000   0.98140597    -2.090054    -2.090054   -1.0713355  0.052705255    -2.090054    1.0187185  1815307 
  498000   0.98199632   -2.0907398   -2.0907398   -1.0714085   0.05446112   -2.0907398    1.0193313  1815307 
  499000   0.98190205   -2.0907624   -2.0907624    -1.071529    0.0545866   -2.0907624    1.0192334  1815307 
  500000   0.98214631   -2.0910333   -2.0910333   -1.0715463  0.054575524   -2.0910333     1.019487  1815307 
  501000   0.98237988   -2.0911647   -2.0911647   -1.0714353  0.054115646   -2.0911647    1.0197294  1815307 
  502000   0.98281253   -2.0908348   -2.0908348   -1.0706563  0.054908437   -2.0908348    1.0201785  1815307 
  503000    0.9827224   -2.0910103   -2.0910103   -1.0709253  0.052643719   -2.0910103     1.020085  1815307 
  504000   0.98202926   -2.0909767   -2.0909767   -1.0716112  0.054332536   -2.0909767    1.0193655  1815307 
  505000   0.98140241   -2.0904298   -2.0904298    -1.071715  0.055790717   -2.0904298    1.0187148  1815307 
  506000   0.98212613   -2.0915899   -2.0915899   -1.0721238   0.05454111   -2.0915899     1.019466  1815307 
  507000   0.98244469   -2.0920245   -2.0920245   -1.0722278  0.052222874   -2.0920245    1.0197967  1815307 
  508000   0.98202411   -2.0914197   -2.0914197   -1.0720596  0.052661576   -2.0914197    1.0193601  1815307 
  509000   0.98254648   -2.0921362   -2.0921362   -1.0722338  0.054183277   -2.0921362    1.0199024  1815307 
  510000   0.98160798   -2.0915477   -2.0915477   -1.0726195  0.057629196   -2.0915477    1.0189282  1815307 
  511000   0.98289447   -2.0926667   -2.0926667   -1.0724031  0.051771693   -2.0926667    1.0202636  1815307 
  512000   0.98197039   -2.0913518   -2.0913518   -1.0720475  0.057310408   -2.0913518    1.0193044  1815307 
  513000   0.98165381   -2.0912897   -2.0912897    -1.072314  0.052843797   -2.0912897    1.0189758  1815307 
  514000   0.98195139   -2.0916136   -2.0916136    -1.072329  0.055741889   -2.0916136    1.0192847  1815307 
  515000   0.98211636   -2.0915917   -2.0915917   -1.0721358  0.054076373   -2.0915917    1.0194559  1815307 
  516000   0.98136143    -2.090698    -2.090698   -1.0720257  0.057005781    -2.090698    1.0186723  1815307 
  517000   0.98198849   -2.0915669   -2.0915669   -1.0722438  0.054941093   -2.0915669    1.0193232  1815307 
  518000   0.98180854   -2.0913934   -2.0913934    -1.072257  0.054558233   -2.0913934    1.0191364  1815307 
  519000   0.98213842   -2.0914706   -2.0914706   -1.0719918  0.058143831   -2.0914706    1.0194788  1815307 
  520000   0.98248793   -2.0920901   -2.0920901   -1.0722485  0.053087252   -2.0920901    1.0198416  1815307 
  521000    0.9814978   -2.0908463   -2.0908463   -1.0720325  0.056300479   -2.0908463    1.0188138  1815307 
  522000   0.98111233   -2.0908649   -2.0908649   -1.0724512  0.053834382   -2.0908649    1.0184137  1815307 
  523000   0.98082982   -2.0902087   -2.0902087   -1.0720882  0.053712203   -2.0902087    1.0181204  1815307 
  524000   0.98082006   -2.0899683   -2.0899683    -1.071858  0.056082733   -2.0899683    1.0181103  1815307 
  525000   0.98111747    -2.090463    -2.090463    -1.072044  0.053609692    -2.090463     1.018419  1815307 
  526000   0.98135191   -2.0904276   -2.0904276   -1.0717652  0.053230827   -2.0904276    1.0186624  1815307 
  527000   0.98287279   -2.0924168   -2.0924168   -1.0721758  0.052801415   -2.0924168    1.0202411  1815307 
  528000   0.98186886   -2.0913123   -2.0913123   -1.0721133  0.055599531   -2.0913123     1.019199  1815307 
  529000    0.9817804   -2.0913502   -2.0913502    -1.072243  0.053858548   -2.0913502    1.0191072  1815307 
  530000   0.98204742    -2.091046    -2.091046   -1.0716616  0.055892265    -2.091046    1.0193843  1815307 
  531000   0.98238469    -2.091035    -2.091035   -1.0713005  0.055491538    -2.091035    1.0197344  1815307 
  532000   0.98159444   -2.0906558   -2.0906558   -1.0717417  0.058272265   -2.0906558    1.0189141  1815307 
  533000   0.98191193   -2.0911249   -2.0911249   -1.0718812  0.057427295   -2.0911249    1.0192437  1815307 
  534000   0.98251163   -2.0915028   -2.0915028   -1.0716366  0.053468236   -2.0915028    1.0198662  1815307 
  535000   0.98288621     -2.09142     -2.09142    -1.071165  0.055035256     -2.09142     1.020255  1815307 
  536000   0.98260042   -2.0910182   -2.0910182   -1.0710598  0.056433957   -2.0910182    1.0199584  1815307 
  537000   0.98210928   -2.0902938   -2.0902938   -1.0708452  0.055710875   -2.0902938    1.0194486  1815307 
  538000   0.98135893   -2.0898814   -2.0898814   -1.0712117  0.055007995   -2.0898814    1.0186697  1815307 
  539000   0.98202029    -2.090338    -2.090338   -1.0709818  0.054827586    -2.090338    1.0193562  1815307 
  540000   0.98172979   -2.0901819   -2.0901819   -1.0711273  0.051805137   -2.0901819    1.0190546  1815307 
  541000   0.98162539   -2.0906681   -2.0906681   -1.0717218  0.053747106   -2.0906681    1.0189463  1815307 
  542000   0.98224838   -2.0908746   -2.0908746   -1.0712817  0.053444661   -2.0908746    1.0195929  1815307 
  543000   0.98215768   -2.0909972   -2.0909972   -1.0714984  0.055324188   -2.0909972    1.0194988  1815307 
  544000   0.98250267   -2.0917358   -2.0917358   -1.0718789   0.05278579   -2.0917358    1.0198569  1815307 
  545000   0.98080642   -2.0898853   -2.0898853   -1.0717892  0.054562649   -2.0898853    1.0180962  1815307 
  546000   0.98172263   -2.0907182   -2.0907182    -1.071671  0.055104063   -2.0907182    1.0190472  1815307 
  547000    0.9819468   -2.0911626   -2.0911626   -1.0718827  0.055156238   -2.0911626    1.0192799  1815307 
  548000   0.98164535   -2.0910195   -2.0910195   -1.0720525  0.052925364   -2.0910195     1.018967  1815307 
  549000   0.98176087   -2.0916319   -2.0916319    -1.072545   0.05363953   -2.0916319    1.0190869  1815307 
  550000   0.98232073   -2.0915916   -2.0915916   -1.0719236  0.052900914   -2.0915916     1.019668  1815307 
  551000   0.98173351   -2.0910529   -2.0910529   -1.0719944  0.055435508   -2.0910529    1.0190585  1815307 
  552000   0.98302971   -2.0919932   -2.0919932   -1.0715893  0.054579555   -2.0919932     1.020404  1815307 
  553000   0.98256555   -2.0918882   -2.0918882    -1.071966  0.053756197   -2.0918882    1.0199222  1815307 
  554000   0.98205624   -2.0912921   -2.0912921   -1.0718986  0.057876259   -2.0912921    1.0193935  1815307 
  555000    0.9820712   -2.0913843   -2.0913843   -1.0719753  0.055522671   -2.0913843     1.019409  1815307 
  556000   0.98150588   -2.0910087   -2.0910087   -1.0721865  0.055385747   -2.0910087    1.0188222  1815307 
  557000   0.98094195   -2.0899067   -2.0899067   -1.0716699    0.0551373   -2.0899067    1.0182368  1815307 
  558000    0.9820709   -2.0912244   -2.0912244   -1.0718156  0.054578566   -2.0912244    1.0194087  1815307 
  559000   0.98267748   -2.0917956   -2.0917956   -1.0717572  0.053140102   -2.0917956    1.0200384  1815307 
  560000   0.98235586   -2.0910804   -2.0910804   -1.0713759  0.054868171   -2.0910804    1.0197045  1815307 
  561000   0.98181555   -2.0901843   -2.0901843   -1.0710407  0.052118803   -2.0901843    1.0191437  1815307 
  562000   0.98134399   -2.0899962   -2.0899962    -1.071342   0.05476035   -2.0899962    1.0186542  1815307 
  563000   0.98153892   -2.0908451   -2.0908451   -1.0719886  0.053362223   -2.0908451    1.0188565  1815307 
  564000   0.98231021    -2.091057    -2.091057   -1.0713998  0.054764879    -2.091057    1.0196571  1815307 
  565000   0.98270972   -2.0913325   -2.0913325   -1.0712607  0.054176969   -2.0913325    1.0200718  1815307 
  566000   0.98251527   -2.0907949   -2.0907949   -1.0709249   0.05603462   -2.0907949      1.01987  1815307 
  567000   0.98174298   -2.0901387   -2.0901387   -1.0710704  0.054960254   -2.0901387    1.0190683  1815307 
  568000   0.98190874   -2.0901413   -2.0901413   -1.0709009  0.053248876   -2.0901413    1.0192404  1815307 
  569000   0.98138104   -2.0891558   -2.0891558   -1.0704631   0.05121646   -2.0891558    1.0186926  1815307 
  570000   0.98191515   -2.0899722   -2.0899722   -1.0707252   0.05274629   -2.0899722     1.019247  1815307 
  571000   0.98255909   -2.0904441   -2.0904441   -1.0705287  0.052068028   -2.0904441    1.0199155  1815307 
  572000   0.98262387   -2.0907336   -2.0907336   -1.0707509  0.053961531   -2.0907336    1.0199827  1815307 
  573000   0.98256194   -2.0909804   -2.0909804    -1.071062  0.056063296   -2.0909804    1.0199184  1815307 
  574000   0.98357489    -2.092825    -2.092825   -1.0718551  0.055437831    -2.092825    1.0209699  1815307 
  575000   0.98265307   -2.0919546   -2.0919546   -1.0719415  0.055087919   -2.0919546     1.020013  1815307 
  576000   0.98233687   -2.0917006   -2.0917006   -1.0720158   0.05385936   -2.0917006    1.0196848  1815307 
  577000   0.98288489   -2.0923215   -2.0923215   -1.0720678  0.054335675   -2.0923215    1.0202536  1815307 
  578000   0.98224547   -2.0911436   -2.0911436   -1.0715537  0.057944075   -2.0911436    1.0195899  1815307 
  579000   0.98223547   -2.0913526   -2.0913526   -1.0717731  0.053780187   -2.0913526    1.0195795  1815307 
  580000   0.98287964   -2.0919219   -2.0919219   -1.0716737  0.056782477   -2.0919219    1.0202482  1815307 
  581000   0.98235541   -2.0916279   -2.0916279   -1.0719238  0.054624976   -2.0916279     1.019704  1815307 
  582000   0.98262643   -2.0915648   -2.0915648   -1.0715794   0.05434946   -2.0915648    1.0199854  1815307 
  583000   0.98192756   -2.0906819   -2.0906819   -1.0714219  0.054105978   -2.0906819    1.0192599  1815307 
  584000   0.98200773   -2.0905508   -2.0905508   -1.0712076  0.053271049   -2.0905508    1.0193431  1815307 
  585000   0.98190889   -2.0904406   -2.0904406   -1.0712001  0.053561431   -2.0904406    1.0192405  1815307 
  586000    0.9812679     -2.08952     -2.08952   -1.0709449  0.057905734     -2.08952    1.0185752  1815307 
  587000   0.98209324   -2.0902984   -2.0902984   -1.0708665  0.057510609   -2.0902984    1.0194319  1815307 
  588000    0.9819466   -2.0900229   -2.0900229   -1.0707432  0.054517475   -2.0900229    1.0192797  1815307 
  589000   0.98191353   -2.0896437   -2.0896437   -1.0703984  0.054953332   -2.0896437    1.0192454  1815307 
  590000   0.98155343   -2.0894043   -2.0894043   -1.0705327  0.054699837   -2.0894043    1.0188716  1815307 
  591000    0.9813183   -2.0885662   -2.0885662   -1.0699387  0.057738028   -2.0885662    1.0186275  1815307 
  592000    0.9828221   -2.0901371   -2.0901371   -1.0699487  0.055136859   -2.0901371    1.0201885  1815307 
  593000   0.98257414   -2.0897232   -2.0897232   -1.0697921  0.056356689   -2.0897232    1.0199311  1815307 
  594000   0.98339904   -2.0901224   -2.0901224   -1.0693351   0.05367335   -2.0901224    1.0207873  1815307 
  595000   0.98308592     -2.08965     -2.08965   -1.0691876  0.056154952     -2.08965    1.0204623  1815307 
  596000   0.98330503   -2.0900799   -2.0900799   -1.0693901  0.057570674   -2.0900799    1.0206898  1815307 
  597000   0.98289448   -2.0892703   -2.0892703   -1.0690067  0.055814578   -2.0892703    1.0202636  1815307 
  598000   0.98194787   -2.0888924   -2.0888924   -1.0696114  0.055802458   -2.0888924     1.019281  1815307 
  599000   0.98292178   -2.0897159   -2.0897159   -1.0694239   0.05378426   -2.0897159    1.0202919  1815307 
  600000   0.98302465   -2.0892342   -2.0892342   -1.0688355  0.054738978   -2.0892342    1.0203987  1815307 
  601000   0.98239936   -2.0890862   -2.0890862   -1.0693365  0.057210233   -2.0890862    1.0197497  1815307 
  602000   0.98242689   -2.0892413   -2.0892413    -1.069463  0.052138179   -2.0892413    1.0197782  1815307 
  603000   0.98277177   -2.0889825   -2.0889825   -1.0688463  0.055647077   -2.0889825    1.0201362  1815307 
  604000   0.98339635   -2.0900973   -2.0900973   -1.0693128  0.057656791   -2.0900973    1.0207846  1815307 
  605000   0.98265515   -2.0897021   -2.0897021   -1.0696869  0.054333927   -2.0897021    1.0200152  1815307 
  606000   0.98353585   -2.0902924   -2.0902924    -1.069363  0.052115528   -2.0902924    1.0209294  1815307 
  607000   0.98265107   -2.0890238   -2.0890238   -1.0690129  0.056205446   -2.0890238    1.0200109  1815307 
  608000   0.98297658   -2.0892519   -2.0892519   -1.0689031  0.054397099   -2.0892519    1.0203488  1815307 
  609000   0.98385287   -2.0895458   -2.0895458   -1.0682873  0.054516499   -2.0895458    1.0212584  1815307 
  610000    0.9832761   -2.0890216   -2.0890216   -1.0683619  0.057102645   -2.0890216    1.0206597  1815307 
  611000   0.98325902   -2.0887456   -2.0887456   -1.0681036   0.05696661   -2.0887456     1.020642  1815307 
  612000   0.98285073   -2.0889293   -2.0889293   -1.0687111  0.054848646   -2.0889293    1.0202182  1815307 
  613000   0.98300143   -2.0889606   -2.0889606    -1.068586  0.056305694   -2.0889606    1.0203746  1815307 
  614000   0.98221463   -2.0884542   -2.0884542   -1.0688963  0.054392477   -2.0884542    1.0195579  1815307 
  615000   0.98241855     -2.08889     -2.08889   -1.0691204  0.055300036     -2.08889    1.0197696  1815307 
  616000   0.98274026   -2.0892553   -2.0892553   -1.0691518   0.05522683   -2.0892553    1.0201035  1815307 
  617000   0.98266676   -2.0895623   -2.0895623   -1.0695351  0.056089221   -2.0895623    1.0200272  1815307 
  618000   0.98283699   -2.0895055   -2.0895055   -1.0693016  0.054055311   -2.0895055    1.0202039  1815307 
  619000   0.98425568   -2.0915622   -2.0915622   -1.0698856  0.055602512   -2.0915622    1.0216766  1815307 
  620000   0.98293746   -2.0898169   -2.0898169   -1.0695087  0.055764179   -2.0898169    1.0203082  1815307 
  621000   0.98298051   -2.0901675   -2.0901675   -1.0698146  0.055324906   -2.0901675    1.0203529  1815307 
  622000   0.98383965    -2.091099    -2.091099   -1.0698543  0.054702395    -2.091099    1.0212447  1815307 
  623000   0.98376646   -2.0910166   -2.0910166   -1.0698479   0.05645121   -2.0910166    1.0211687  1815307 
  624000   0.98363693   -2.0903872   -2.0903872   -1.0693529  0.057480853   -2.0903872    1.0210343  1815307 
  625000   0.98190384   -2.0883248   -2.0883248   -1.0690895  0.054287164   -2.0883248    1.0192353  1815307 
  626000   0.98264914   -2.0889704   -2.0889704   -1.0689615  0.054698189   -2.0889704    1.0200089  1815307 
  627000   0.98244908   -2.0889766   -2.0889766   -1.0691753  0.051900154   -2.0889766    1.0198013  1815307 
  628000   0.98306328   -2.0889818   -2.0889818    -1.068543  0.054424479   -2.0889818    1.0204388  1815307 
  629000   0.98193687   -2.0878716   -2.0878716    -1.068602  0.054788516   -2.0878716    1.0192696  1815307 
  630000   0.98245393   -2.0882624   -2.0882624    -1.068456  0.051375844   -2.0882624    1.0198063  1815307 
  631000   0.98230803   -2.0880201   -2.0880201   -1.0683652  0.055777402   -2.0880201    1.0196549  1815307 
  632000   0.98317968   -2.0888593   -2.0888593   -1.0682996  0.057097479   -2.0888593    1.0205596  1815307 
  633000   0.98353615   -2.0890151   -2.0890151   -1.0680854   0.05490796   -2.0890151    1.0209297  1815307 
  634000     0.983772   -2.0891542   -2.0891542   -1.0679797   0.05470093   -2.0891542    1.0211745  1815307 
  635000    0.9830124   -2.0892038   -2.0892038   -1.0688178  0.055857147   -2.0892038     1.020386  1815307 
  636000   0.98331048   -2.0894956   -2.0894956   -1.0688002   0.05453721   -2.0894956    1.0206954  1815307 
  637000   0.98268325   -2.0889204   -2.0889204   -1.0688761  0.055228437   -2.0889204    1.0200443  1815307 
  638000    0.9832873   -2.0893909   -2.0893909   -1.0687196  0.054913688   -2.0893909    1.0206714  1815307 
  639000   0.98428134   -2.0900483   -2.0900483   -1.0683451  0.055614357   -2.0900483    1.0217032  1815307 
  640000   0.98451969   -2.0902166   -2.0902166    -1.068266    0.0541715   -2.0902166    1.0219506  1815307 
  641000   0.98426412   -2.0898225   -2.0898225   -1.0681372  0.056507308   -2.0898225    1.0216853  1815307 
  642000   0.98364669   -2.0890004   -2.0890004    -1.067956  0.055779009   -2.0890004    1.0210444  1815307 
[...]
 9832000    1.0067746   -2.0012199   -2.0012199  -0.95616822  0.066755499   -2.0012199    1.0450517  1815307 
 9833000    1.0069739   -2.0009997   -2.0009997  -0.95574119  0.068778986   -2.0009997    1.0452585  1815307 
 9834000    1.0076656   -2.0018215   -2.0018215  -0.95584492  0.065941623   -2.0018215    1.0459765  1815307 
 9835000     1.007187   -2.0009819   -2.0009819  -0.95550225   0.06700215   -2.0009819    1.0454797  1815307 
 9836000    1.0066405   -2.0003804   -2.0003804  -0.95546797  0.065913516   -2.0003804    1.0449124  1815307 
 9837000    1.0073771   -2.0008247   -2.0008247  -0.95514765  0.066317644   -2.0008247    1.0456771  1815307 
 9838000    1.0068535   -2.0002289   -2.0002289  -0.95509535  0.067880787   -2.0002289    1.0451335  1815307 
 9839000    1.0067761   -2.0004453   -2.0004453  -0.95539207  0.066134083   -2.0004453    1.0450532  1815307 
 9840000    1.0071047   -2.0004206   -2.0004206  -0.95502634   0.06659453   -2.0004206    1.0453943  1815307 
 9841000      1.00709   -2.0007202   -2.0007202  -0.95534116   0.06696399   -2.0007202     1.045379  1815307 
 9842000    1.0077559   -2.0020234   -2.0020234  -0.95595325    0.0640682   -2.0020234    1.0460702  1815307 
 9843000    1.0059757   -2.0000464   -2.0000464  -0.95582402  0.067035923   -2.0000464    1.0442224  1815307 
 9844000    1.0059117   -2.0005385   -2.0005385  -0.95638262  0.067335991   -2.0005385    1.0441559  1815307 
 9845000    1.0065504   -2.0011558   -2.0011558  -0.95633686  0.065579688   -2.0011558    1.0448189  1815307 
 9846000    1.0080743   -2.0019869   -2.0019869  -0.95558616  0.068551202   -2.0019869    1.0464008  1815307 
 9847000    1.0070679   -2.0013542   -2.0013542  -0.95599819  0.067802183   -2.0013542     1.045356  1815307 
 9848000    1.0069368   -2.0016354   -2.0016354  -0.95641539  0.067077514   -2.0016354      1.04522  1815307 
 9849000    1.0080881   -2.0026068   -2.0026068  -0.95619177  0.064598147   -2.0026068    1.0464151  1815307 
 9850000    1.0071197   -2.0023908   -2.0023908  -0.95698097  0.066923779   -2.0023908    1.0454099  1815307 
 9851000    1.0066697   -2.0017875   -2.0017875  -0.95684481  0.068482819   -2.0017875    1.0449427  1815307 
 9852000    1.0067373   -2.0015288   -2.0015288  -0.95651588  0.068092493   -2.0015288    1.0450129  1815307 
 9853000    1.0066241   -2.0012735   -2.0012735  -0.95637811  0.066397318   -2.0012735    1.0448954  1815307 
 9854000    1.0065463   -2.0014451   -2.0014451  -0.95663039   0.06689497   -2.0014451    1.0448147  1815307 
 9855000    1.0068599    -2.001606    -2.001606  -0.95646589  0.069226614    -2.001606    1.0451401  1815307 
 9856000     1.008488   -2.0027281   -2.0027281    -0.955898   0.06471131   -2.0027281    1.0468301  1815307 
 9857000    1.0078839    -2.001593    -2.001593  -0.95538989  0.070323874    -2.001593    1.0462031  1815307 
 9858000    1.0070892   -2.0011589   -2.0011589   -0.9557807  0.065530511   -2.0011589    1.0453782  1815307 
 9859000    1.0064145   -2.0003913   -2.0003913  -0.95571345  0.069531371   -2.0003913    1.0446779  1815307 
 9860000     1.007734   -2.0012426   -2.0012426  -0.95519509  0.065373415   -2.0012426    1.0460475  1815307 
 9861000     1.007505   -2.0010683   -2.0010683  -0.95525849  0.066490346   -2.0010683    1.0458098  1815307 
 9862000    1.0064747   -1.9997594   -1.9997594  -0.95501913  0.065332363   -1.9997594    1.0447403  1815307 
 9863000    1.0066174    -1.999515    -1.999515  -0.95462656  0.066667747    -1.999515    1.0448885  1815307 
 9864000    1.0068171   -1.9996145   -1.9996145   -0.9545187  0.068454682   -1.9996145    1.0450958  1815307 
 9865000    1.0072166   -2.0002722   -2.0002722  -0.95476171   0.06637662   -2.0002722    1.0455105  1815307 
 9866000    1.0068337   -1.9997177   -1.9997177  -0.95460467  0.069541413   -1.9997177     1.045113  1815307 
 9867000    1.0074652   -2.0006995   -2.0006995  -0.95493104  0.068518148   -2.0006995    1.0457685  1815307 
 9868000    1.0062493   -1.9988756   -1.9988756  -0.95436918  0.069717447   -1.9988756    1.0445064  1815307 
 9869000    1.0076768   -2.0000821   -2.0000821  -0.95409405  0.067027011   -2.0000821    1.0459881  1815307 
 9870000    1.0068147   -1.9989808   -1.9989808  -0.95388755  0.067275044   -1.9989808    1.0450932  1815307 
 9871000     1.007589   -1.9997418   -1.9997418   -0.9538448  0.065358499   -1.9997418     1.045897  1815307 
 9872000    1.0078176   -2.0000657   -2.0000657  -0.95393147  0.067233965   -2.0000657    1.0461343  1815307 
 9873000    1.0074675    -1.999786    -1.999786  -0.95401509  0.067888708    -1.999786    1.0457709  1815307 
 9874000    1.0077886   -2.0005281   -2.0005281  -0.95442396  0.066048094   -2.0005281    1.0461042  1815307 
 9875000    1.0075939   -2.0000764   -2.0000764   -0.9541743  0.067153877   -2.0000764    1.0459021  1815307 
 9876000     1.008016   -2.0008783   -2.0008783  -0.95453807  0.065082438   -2.0008783    1.0463402  1815307 
 9877000    1.0070987      -2.0002      -2.0002  -0.95481191  0.065897048      -2.0002    1.0453881  1815307 
 9878000     1.007302   -2.0003761   -2.0003761  -0.95477697  0.066880924   -2.0003761    1.0455991  1815307 
 9879000    1.0067878   -1.9999379   -1.9999379  -0.95487259  0.063844183   -1.9999379    1.0450653  1815307 
 9880000    1.0067886   -2.0001807   -2.0001807  -0.95511452  0.064680113   -2.0001807    1.0450662  1815307 
 9881000    1.0072732   -2.0008302   -2.0008302  -0.95526101  0.064577595   -2.0008302    1.0455692  1815307 
 9882000    1.0065828   -2.0002455   -2.0002455  -0.95539304  0.067162099   -2.0002455    1.0448525  1815307 
 9883000    1.0062445   -1.9995771   -1.9995771  -0.95507571  0.066414686   -1.9995771    1.0445014  1815307 
 9884000    1.0067117   -2.0001443   -2.0001443  -0.95515794  0.066392105   -2.0001443    1.0449864  1815307 
 9885000    1.0071893   -2.0003575   -2.0003575  -0.95487539  0.066697936   -2.0003575    1.0454821  1815307 
 9886000    1.0066546   -1.9997322   -1.9997322  -0.95480515  0.068914871   -1.9997322    1.0449271  1815307 
 9887000    1.0077003   -2.0006854   -2.0006854  -0.95467289  0.066767936   -2.0006854    1.0460125  1815307 
 9888000      1.00798   -2.0009386   -2.0009386  -0.95463579  0.066524634   -2.0009386    1.0463028  1815307 
 9889000    1.0070765   -2.0008623   -2.0008623  -0.95549739  0.065931422   -2.0008623     1.045365  1815307 
 9890000    1.0068716   -2.0005261   -2.0005261  -0.95537378  0.069279903   -2.0005261    1.0451523  1815307 
 9891000    1.0065159   -2.0003236   -2.0003236  -0.95554059  0.065537931   -2.0003236    1.0447831  1815307 
 9892000    1.0069603   -2.0007391   -2.0007391  -0.95549472  0.066638285   -2.0007391    1.0452444  1815307 
 9893000    1.0064777   -2.0000178   -2.0000178  -0.95527443  0.066279256   -2.0000178    1.0447434  1815307 
 9894000    1.0071629   -2.0011214   -2.0011214  -0.95566668  0.066001904   -2.0011214    1.0454547  1815307 
 9895000    1.0075812   -2.0011079   -2.0011079  -0.95521897  0.067721279   -2.0011079    1.0458889  1815307 
 9896000     1.007247    -2.000933    -2.000933  -0.95539101  0.068124071    -2.000933     1.045542  1815307 
 9897000    1.0069709   -2.0006683   -2.0006683  -0.95541296  0.067332245   -2.0006683    1.0452554  1815307 
 9898000    1.0081648   -2.0013469   -2.0013469  -0.95485212  0.067184869   -2.0013469    1.0464947  1815307 
 9899000    1.0074956   -2.0007652   -2.0007652  -0.95496509  0.068053709   -2.0007652    1.0458001  1815307 
 9900000     1.007784   -2.0006999   -2.0006999  -0.95460049  0.064312884   -2.0006999    1.0460994  1815307 
 9901000    1.0063262    -1.999217    -1.999217  -0.95463084  0.067418685    -1.999217    1.0445862  1815307 
 9902000    1.0064091   -1.9993586   -1.9993586  -0.95468639  0.067108377   -1.9993586    1.0446722  1815307 
 9903000    1.0070113   -2.0001453   -2.0001453  -0.95484796  0.064137528   -2.0001453    1.0452974  1815307 
 9904000    1.0062234   -1.9988227   -1.9988227  -0.95434324  0.065501089   -1.9988227    1.0444795  1815307 
 9905000    1.0069458   -1.9996812   -1.9996812  -0.95445195   0.06772025   -1.9996812    1.0452293  1815307 
 9906000    1.0066982   -1.9993346   -1.9993346  -0.95436232  0.063862578   -1.9993346    1.0449723  1815307 
 9907000     1.006536   -1.9997561   -1.9997561  -0.95495223  0.067096816   -1.9997561    1.0448039  1815307 
 9908000    1.0067869   -2.0002327   -2.0002327  -0.95516829   0.06626574   -2.0002327    1.0450644  1815307 
 9909000    1.0064949   -1.9998278   -1.9998278  -0.95506645  0.066822144   -1.9998278    1.0447613  1815307 
 9910000     1.007195    -1.999925    -1.999925  -0.95443697  0.069608798    -1.999925     1.045488  1815307 
 9911000    1.0083594   -2.0007659   -2.0007659  -0.95406919  0.068813427   -2.0007659    1.0466967  1815307 
 9912000    1.0076637   -2.0001938   -2.0001938  -0.95421926  0.066203812   -2.0001938    1.0459746  1815307 
 9913000    1.0078403   -2.0004176   -2.0004176  -0.95425979   0.06564326   -2.0004176    1.0461578  1815307 
 9914000    1.0069653   -1.9996931   -1.9996931  -0.95444348  0.067656285   -1.9996931    1.0452496  1815307 
 9915000    1.0080685   -2.0005924   -2.0005924  -0.95419766   0.06654444   -2.0005924    1.0463947  1815307 
 9916000    1.0076368   -2.0000953   -2.0000953  -0.95414861  0.065186789   -2.0000953    1.0459467  1815307 
 9917000    1.0079351   -2.0002778   -2.0002778  -0.95402155  0.065148218   -2.0002778    1.0462562  1815307 
 9918000    1.0073576   -1.9997888   -1.9997888  -0.95413195  0.067841802   -1.9997888    1.0456568  1815307 
 9919000    1.0071394   -1.9996194   -1.9996194  -0.95418909  0.069329699   -1.9996194    1.0454303  1815307 
 9920000    1.0076282   -1.9998803   -1.9998803  -0.95394254  0.068222016   -1.9998803    1.0459377  1815307 
 9921000    1.0076372   -1.9995708   -1.9995708  -0.95362383   0.07026468   -1.9995708     1.045947  1815307 
 9922000    1.0075071    -1.999961    -1.999961  -0.95414902  0.067655126    -1.999961     1.045812  1815307 
 9923000    1.0073085   -2.0000573   -2.0000573  -0.95445144  0.066865862   -2.0000573    1.0456058  1815307 
 9924000    1.0077764    -2.000793    -2.000793  -0.95470151  0.066084272    -2.000793    1.0460915  1815307 
 9925000    1.0074768   -2.0004505   -2.0004505  -0.95466989  0.066157941   -2.0004505    1.0457806  1815307 
 9926000    1.0084403   -2.0010176   -2.0010176  -0.95423696    0.0654207   -2.0010176    1.0467806  1815307 
 9927000     1.008799   -2.0014875   -2.0014875  -0.95433443  0.069344279   -2.0014875     1.047153  1815307 
 9928000    1.0083486   -2.0013929   -2.0013929  -0.95470736  0.066697721   -2.0013929    1.0466855  1815307 
 9929000    1.0080653   -2.0006084   -2.0006084  -0.95421702  0.067653498   -2.0006084    1.0463914  1815307 
 9930000    1.0080126   -2.0006054   -2.0006054  -0.95426864  0.069306691   -2.0006054    1.0463367  1815307 
 9931000    1.0075737   -2.0005701   -2.0005701    -0.954689  0.067887307   -2.0005701    1.0458811  1815307 
 9932000    1.0068923   -1.9998564   -1.9998564  -0.95468258  0.066715978   -1.9998564    1.0451738  1815307 
 9933000    1.0071611   -2.0000281   -2.0000281  -0.95457521  0.065366516   -2.0000281    1.0454529  1815307 
 9934000    1.0069189   -1.9995515   -1.9995515  -0.95435014  0.069244981   -1.9995515    1.0452014  1815307 
 9935000    1.0065797   -1.9991125   -1.9991125  -0.95426316  0.068051658   -1.9991125    1.0448494  1815307 
 9936000    1.0072338   -2.0001597   -2.0001597  -0.95463137  0.067958583   -2.0001597    1.0455283  1815307 
 9937000      1.00687   -1.9997295   -1.9997295  -0.95457881   0.06999282   -1.9997295    1.0451507  1815307 
 9938000    1.0070481   -2.0001128   -2.0001128  -0.95477723  0.068461522   -2.0001128    1.0453356  1815307 
 9939000    1.0085906   -2.0010765   -2.0010765  -0.95413981    0.0654211   -2.0010765    1.0469366  1815307 
 9940000    1.0078059   -2.0005265   -2.0005265   -0.9544044  0.067667854   -2.0005265    1.0461221  1815307 
 9941000    1.0078676    -2.000656    -2.000656   -0.9544698  0.068807077    -2.000656    1.0461862  1815307 
 9942000    1.0079852   -2.0012313   -2.0012313  -0.95492306  0.068614351   -2.0012313    1.0463082  1815307 
 9943000     1.007667   -2.0010754   -2.0010754  -0.95509742  0.066957065   -2.0010754     1.045978  1815307 
 9944000    1.0078736   -2.0011946   -2.0011946  -0.95500219  0.064941854   -2.0011946    1.0461924  1815307 
 9945000    1.0073733   -2.0004863   -2.0004863  -0.95481322  0.069569062   -2.0004863    1.0456731  1815307 
 9946000    1.0075249   -2.0010771   -2.0010771  -0.95524672  0.064446667   -2.0010771    1.0458304  1815307 
 9947000    1.0070227   -2.0010215   -2.0010215  -0.95571235  0.067859275   -2.0010215    1.0453092  1815307 
 9948000    1.0071537   -2.0011502   -2.0011502  -0.95570506  0.067140824   -2.0011502    1.0454451  1815307 
 9949000    1.0075873   -2.0015703   -2.0015703  -0.95567512   0.06569641   -2.0015703    1.0458952  1815307 
 9950000     1.007784   -2.0011661   -2.0011661   -0.9550667  0.067283526   -2.0011661    1.0460994  1815307 
 9951000    1.0076452    -2.000866    -2.000866  -0.95491064  0.064205614    -2.000866    1.0459553  1815307 
 9952000    1.0069806   -2.0004194   -2.0004194   -0.9551539  0.067322883   -2.0004194    1.0452655  1815307 
 9953000     1.006915   -2.0006919   -2.0006919  -0.95549459  0.066571639   -2.0006919    1.0451973  1815307 
 9954000    1.0069606   -2.0000945   -2.0000945  -0.95484982  0.066430716   -2.0000945    1.0452447  1815307 
 9955000    1.0068442   -1.9999358   -1.9999358  -0.95481194  0.067495304   -1.9999358    1.0451239  1815307 
 9956000    1.0077355   -2.0013582   -2.0013582  -0.95530919  0.063416906   -2.0013582    1.0460491  1815307 
 9957000    1.0078031   -2.0006505   -2.0006505  -0.95453127  0.068616958   -2.0006505    1.0461192  1815307 
 9958000    1.0085858   -2.0013153   -2.0013153  -0.95438365  0.063545678   -2.0013153    1.0469317  1815307 
 9959000     1.007419   -2.0003528   -2.0003528  -0.95463224  0.068922283   -2.0003528    1.0457205  1815307 
 9960000    1.0071864   -1.9999638   -1.9999638  -0.95448475  0.066185372   -1.9999638    1.0454791  1815307 
 9961000    1.0074841   -2.0001441   -2.0001441  -0.95435595  0.066516738   -2.0001441    1.0457881  1815307 
 9962000    1.0067362   -1.9999777   -1.9999777  -0.95496591    0.0658979   -1.9999777    1.0450117  1815307 
 9963000    1.0076063   -2.0004949   -2.0004949  -0.95457998  0.065980518   -2.0004949     1.045915  1815307 
 9964000    1.0062572   -1.9995064   -1.9995064  -0.95499181  0.065221371   -1.9995064    1.0445146  1815307 
 9965000    1.0067641   -1.9997979   -1.9997979  -0.95475712  0.063939824   -1.9997979    1.0450408  1815307 
 9966000    1.0071635   -2.0004348   -2.0004348  -0.95497955  0.066307355   -2.0004348    1.0454553  1815307 
 9967000    1.0059647   -1.9988435   -1.9988435  -0.95463258  0.067153711   -1.9988435    1.0442109  1815307 
 9968000    1.0070948   -1.9998455   -1.9998455  -0.95446147  0.067285566   -1.9998455     1.045384  1815307 
 9969000    1.0067762   -1.9994176   -1.9994176  -0.95436437  0.066375091   -1.9994176    1.0450533  1815307 
 9970000     1.007247    -1.999604    -1.999604  -0.95406196  0.065549279    -1.999604     1.045542  1815307 
 9971000    1.0070362   -1.9993451   -1.9993451    -0.954022  0.066541281   -1.9993451    1.0453231  1815307 
 9972000    1.0072508   -1.9998569   -1.9998569  -0.95431099  0.066310702   -1.9998569    1.0455459  1815307 
 9973000     1.007296    -1.999419    -1.999419  -0.95382611   0.06973042    -1.999419    1.0455929  1815307 
 9974000    1.0067787   -1.9991356   -1.9991356  -0.95407975  0.066084064   -1.9991356    1.0450559  1815307 
 9975000    1.0079366   -1.9997942   -1.9997942  -0.95353645  0.067417386   -1.9997942    1.0462578  1815307 
 9976000    1.0079263   -2.0003067   -2.0003067  -0.95405956  0.066285276   -2.0003067    1.0462471  1815307 
 9977000    1.0072462   -1.9996651   -1.9996651  -0.95412395  0.065572083   -1.9996651    1.0455412  1815307 
 9978000    1.0068911   -1.9996291   -1.9996291  -0.95445645  0.066156714   -1.9996291    1.0451726  1815307 
 9979000    1.0076075   -1.9998915   -1.9998915  -0.95397523  0.066601298   -1.9998915    1.0459162  1815307 
 9980000     1.008079    -2.000285    -2.000285  -0.95387938   0.06813757    -2.000285    1.0464057  1815307 
 9981000    1.0078798   -2.0000601   -2.0000601  -0.95386122  0.066317025   -2.0000601    1.0461989  1815307 
 9982000    1.0077067    -2.000203    -2.000203  -0.95418381  0.065202536    -2.000203    1.0460192  1815307 
 9983000    1.0066314   -1.9990584   -1.9990584  -0.95415544  0.067185228   -1.9990584     1.044903  1815307 
 9984000    1.0075391   -1.9999153   -1.9999153  -0.95407012   0.06810253   -1.9999153    1.0458452  1815307 
 9985000    1.0078353   -2.0001912   -2.0001912  -0.95403864  0.066513176   -2.0001912    1.0461526  1815307 
 9986000    1.0081595   -2.0007924   -2.0007924  -0.95430324  0.068399584   -2.0007924    1.0464892  1815307 
 9987000    1.0079909   -2.0007804   -2.0007804  -0.95446624  0.067809086   -2.0007804    1.0463142  1815307 
 9988000    1.0078028   -2.0001018   -2.0001018  -0.95398294  0.068065981   -2.0001018    1.0461189  1815307 
 9989000    1.0079902    -2.001265    -2.001265  -0.95495156  0.065503468    -2.001265    1.0463134  1815307 
 9990000    1.0068629   -2.0004694   -2.0004694   -0.9553261  0.063309047   -2.0004694    1.0451433  1815307 
 9991000    1.0067614   -2.0001675   -2.0001675   -0.9551295  0.064341602   -2.0001675     1.045038  1815307 
 9992000    1.0071461    -2.000285    -2.000285  -0.95484779  0.066688135    -2.000285    1.0454372  1815307 
 9993000    1.0069235   -2.0001811   -2.0001811  -0.95497489   0.06589471   -2.0001811    1.0452062  1815307 
 9994000    1.0072877    -2.000678    -2.000678  -0.95509374  0.069537298    -2.000678    1.0455842  1815307 
 9995000    1.0065686   -1.9999882   -1.9999882  -0.95515037  0.067294917   -1.9999882    1.0448379  1815307 
 9996000    1.0070326   -2.0000833   -2.0000833   -0.9547639   0.06570431   -2.0000833    1.0453194  1815307 
 9997000    1.0066932   -2.0001726   -2.0001726  -0.95520545  0.065698673   -2.0001726    1.0449672  1815307 
 9998000    1.0073432   -2.0007794   -2.0007794  -0.95513755  0.066654631   -2.0007794    1.0456419  1815307 
 9999000    1.0070892   -2.0003488   -2.0003488   -0.9549707  0.065840389   -2.0003488    1.0453781  1815307 
10000000    1.0070272   -2.0001191   -2.0001191  -0.95480535  0.065314036   -2.0001191    1.0453138  1815307 
Loop time of 22682.4 on 768 procs for 10000000 steps with 1815307 atoms

Performance: 190455.797 tau/day, 440.870 timesteps/s
89.8% CPU use with 768 MPI tasks x 1 OpenMP threads

MPI task timing breakdown:
Section |  min time  |  avg time  |  max time  |%varavg|  %CPU | %total
-----------------------------------------------------------------------
Pair    | 526.05     | 4391.7     | 8216.6     |3232.7 |  93.0 | 19.36
Bond    | 6.4233     | 6.8159     | 7.1542     |   4.8 | 100.0 |  0.03
Neigh   | 1036       | 4131.3     | 5823.2     |1701.5 |  98.7 | 18.21
Comm    | 4085.5     | 8076       | 13249      |2541.9 |  87.1 | 35.60
Output  | 505.22     | 506.56     | 508.53     |   3.7 |  81.3 |  2.23
Modify  | 2911.6     | 5257.1     | 12371      |2139.3 |  86.4 | 23.18
Other   |            | 313        |            |       |       |  1.38

Nlocal:        2363.68 ave        4024 max         962 min
Histogram: 4 8 18 74 492 140 18 8 4 2
Nghost:        5066.17 ave       10044 max        1758 min
Histogram: 48 76 208 74 99 93 69 55 39 7
Neighs:        41238.8 ave       74993 max        4972 min
Histogram: 130 139 40 22 30 27 25 38 229 88

Total # of neighbors = 31671432
Ave neighs/atom = 17.446874
Ave special neighs/atom = 0.0000000
Neighbor list builds = 1000000
Dangerous builds = 990000

Total wall time: 6:18:18
