LAMMPS (29 Oct 2020)
  using 1 OpenMP thread(s) per MPI task
#Read the equilibrated lj fluid and add nanocubes

units           lj
atom_style      full
atom_modify     map array first cubes
dimension       3
boundary        p p f
pair_style      lj/cut/opt 2.5

variable        sigma           equal 1.0
variable        epsilon         equal 1.0
read_restart	restart.dat.10000000
Reading restart file ...
  restart file = 24 Dec 2020, LAMMPS = 29 Oct 2020
WARNING: Restart file used different # of processors: 192 vs. 64 (src/read_restart.cpp:697)
  restoring atom style full from restart
  orthogonal box = (0.0000000 0.0000000 0.0000000) to (80.000000 80.000000 160.00000)
  2 by 4 by 8 MPI processor grid
  restoring pair style lj/cut/opt from restart
  443961 atoms
Finding 1-2 1-3 1-4 neighbors ...
  special bond factors lj:    0.0      0.0      0.0     
  special bond factors coul:  0.0      0.0      0.0     
     0 = max # of 1-2 neighbors
     0 = max # of 1-3 neighbors
     0 = max # of 1-4 neighbors
     1 = max # of special neighbors
  special bonds CPU = 12.525 seconds
  read_restart CPU = 13.239 seconds

group		solvent type 1
443961 atoms in group solvent

read_data	data_sharp_96.cubes group cubes add append
Reading data file ...
  orthogonal box = (0.0000000 0.0000000 0.0000000) to (80.000000 80.000000 160.00000)
  2 by 4 by 8 MPI processor grid
  reading atoms ...
  127776 atoms
  reading velocities ...
  127776 velocities
Finding 1-2 1-3 1-4 neighbors ...
  special bond factors lj:    0.0      0.0      0.0     
  special bond factors coul:  0.0      0.0      0.0     
     0 = max # of 1-2 neighbors
     0 = max # of 1-3 neighbors
     0 = max # of 1-4 neighbors
     1 = max # of special neighbors
  special bonds CPU = 0.021 seconds
  read_data CPU = 0.418 seconds

group 		hull  type 2
57792 atoms in group hull
group 		dummy type 3
69984 atoms in group dummy

neighbor      0.4 bin
neigh_modify  exclude molecule/intra cubes


pair_modify   shift yes

pair_coeff    1 1 1.0 1.0 #solvent
pair_coeff    2 2 1.0 1.0 1.12 #np
pair_coeff    3 3 0.0 0.0 0.0 #dummy
pair_coeff    2 3 0.0 0.0 0.0 #np dummy
pair_coeff    1 2 ${sol} 1.0  #np solvent
pair_coeff    1 2 .75 1.0  
pair_coeff    1 3 0.0 0.0 2.5 #dummy solvent

# delete solvent where the cubes are
delete_atoms  overlap 1.0 solvent cubes
System init for delete_atoms ...
Unused restart file peratom fix info:
  fix style: STORE, fix ID: bin1_COMPUTE_STORE
Neighbor list info ...
  update every 1 steps, delay 10 steps, check yes
  max neighbors/atom: 2000, page size: 100000
  master list distance cutoff = 2.9
  ghost atom cutoff = 2.9
  binsize = 1.45, bins = 56 56 111
  2 neighbor lists, perpetual/occasional/extra = 1 1 0
  (1) command delete_atoms, occasional
      attributes: full, newton on
      pair build: full/bin
      stencil: full/bin/3d
      bin: standard
  (2) pair lj/cut/opt, perpetual
      attributes: half, newton on
      pair build: half/bin/newton
      stencil: half/bin/3d/newton
      bin: standard
WARNING: Delete_atoms cutoff > minimum neighbor cutoff (src/delete_atoms.cpp:307)
WARNING: Ignoring 'compress yes' for molecular system (src/delete_atoms.cpp:125)
Deleted 89621 atoms, new total = 482116

pair_coeff    1 1 1.0 1.0 #solvent
pair_coeff    2 2 1.0 1.0 1.12 #np
pair_coeff    3 3 0.0 0.0 0.0 #dummy
pair_coeff    2 3 0.0 0.0 0.0 #np dummy
pair_coeff    1 2 ${sol} 1.0  #np solvent
pair_coeff    1 2 .75 1.0  
pair_coeff    1 3 0.0 0.0 0.0 #dummy solvent


comm_modify   mode multi cutoff/multi 1 2.5 cutoff/multi 2 2.5 cutoff/multi 3 8.67

reset_timestep 	0

balance 	1.05 shift z 10 1.05
Balancing ...
Neighbor list info ...
  update every 1 steps, delay 10 steps, check yes
  max neighbors/atom: 2000, page size: 100000
  master list distance cutoff = 2.9
  ghost atom cutoff = 8.67
  binsize = 1.45, bins = 56 56 111
  1 neighbor lists, perpetual/occasional/extra = 1 0 0
  (1) pair lj/cut/opt, perpetual
      attributes: half, newton on
      pair build: half/bin/newton
      stencil: half/bin/3d/newton
      bin: standard
 rebalancing time: 0.016 seconds
  iteration count = 4
  initial/final maximal load/proc = 10471.000 8358.0000
  initial/final imbalance factor  = 1.3900057 1.1095089
  x cuts: 0.0000000 0.5 1.0000000
  y cuts: 0.0000000 0.25 0.5 0.75 1.0000000
  z cuts: 0.0000000 0.1015625 0.1953125 0.2890625 0.3828125 0.484375 0.578125 0.671875 1.0000000

####################### WALLS ###########################

variable       epsilonWall equal 2*${epsilon}
variable       epsilonWall equal 2*1
variable       repulsive   equal   0.7147*${sigma}
variable       repulsive   equal   0.7147*1
variable       full	   equal   3*${sigma}
variable       full	   equal   3*1
region         lowWall block EDGE EDGE EDGE EDGE EDGE 2

fix            topWall all wall/lj93 zhi EDGE 	       ${epsilonWall} ${sigma} ${repulsive} units box
fix            topWall all wall/lj93 zhi EDGE 	       2 ${sigma} ${repulsive} units box
fix            topWall all wall/lj93 zhi EDGE 	       2 1 ${repulsive} units box
fix            topWall all wall/lj93 zhi EDGE 	       2 1 0.7147 units box
fix            lowSol solvent wall/lj93 zlo EDGE                ${epsilonWall} ${sigma} ${full} units box
fix            lowSol solvent wall/lj93 zlo EDGE                2 ${sigma} ${full} units box
fix            lowSol solvent wall/lj93 zlo EDGE                2 1 ${full} units box
fix            lowSol solvent wall/lj93 zlo EDGE                2 1 3 units box
fix 	       lowCub cubes wall/lj93 zlo EDGE                ${epsilonWall} ${sigma} ${repulsive} units box
fix 	       lowCub cubes wall/lj93 zlo EDGE                2 ${sigma} ${repulsive} units box
fix 	       lowCub cubes wall/lj93 zlo EDGE                2 1 ${repulsive} units box
fix 	       lowCub cubes wall/lj93 zlo EDGE                2 1 0.7147 units box


###################### COMPUTES ##########################

compute        bin1 solvent chunk/atom bin/1d z lower 1.0 units box
compute        bin3 solvent chunk/atom bin/3d x lower 1.0 y lower 1.0 z lower 1.0 units box

compute 	pe solvent 	   pe/atom
compute 	pe2 all 	   pe/atom

######################  FIXES ############################


fix             peclet solvent ave/chunk 10 10 10000 bin1 density/number norm                  none ave one file density.profile

fix              temp solvent ave/chunk 10 10 10000 bin1 temp norm                  none ave one file temp.profile

fix 		 dens solvent ave/chunk 10 10 500000 bin3 density/number norm 		 none ave one file dens3.profile

fix		 temp2 solvent ave/chunk 10 10 500000 bin3 temp norm none ave one file temp3.profile

fix 		pe solvent ave/chunk 1 1 500000 bin3 c_pe norm none ave one file pe3.profile

fix             1 cubes rigid/nve/small molecule
  create bodies CPU = 0.015 seconds
  96 rigid bodies with 127776 atoms
  8.6602540 = max distance from body owner to body atom

fix             2 solvent nve# temp ${temp} ${temp} 10


## Thermostat
region          regthermo block EDGE EDGE EDGE EDGE 0 15
group           thermo dynamic solvent region regthermo every 1000
dynamic group thermo defined
fix             3 thermo langevin ${temp} ${temp} 10 156453
fix             3 thermo langevin 1.0 ${temp} 10 156453
fix             3 thermo langevin 1.0 1.0 10 156453


#### Load balancing

fix             bal all balance 1000 1.05 shift z 10 1.05

############### Diagnostics and computes ###################

compute        	com cubes          rigid/local   1 mol x y z
compute        	quat cubes         rigid/local   1 mol quatw quati quatj quatk

compute 	cc2 cubes 	   chunk/atom 	 molecule
compute 	msd cubes 	   msd/chunk 	 cc2

fix 		msd all ave/time  1 1 10000 c_msd[*] file dump.msd ave one mode vector

dump            1 all custom 500000 dump.lammpstrj id mol type x y z vx vy vz c_pe2
dump		sol  solvent custom 500000 dump.soltrj id x y z vx vy vz c_pe
dump		cubetrj cubes custom 500000 cubes.lammpstrj id mol type x y z vx vy vz
dump            com cubes local 100000 dump.*.xyz c_com[*]
dump	        xyz hull xyz 100000 cubes.xyz
dump            quat cubes      local 100000 dump.*.quat c_quat[*]
dump		order cubes 	local 100000 dump.*.order c_com[*] c_quat[*]
#dump		mol cubes molfile 10000 mol.xyz xyz


dump            2 all image 100000 image.*.png type type zoom 1.5 size 1280 720
dump_modify     2 pad 8
dump		image cubes image 100000 image_cubes.*.png type type zoom 1.5 size 1280 720
dump_modify	image pad 8
dump            3 all movie 5000 movie.avi type type zoom 1.5 size 1280 720
dump		4 cubes movie 5000 movie_cubes.avi type type size 1280 720


thermo          1000
thermo_style    custom step temp epair evdwl etotal press pe ke atoms

restart         1000000 restart.dat
timestep        0.005
timer           full
New timer settings: style=full  mode=nosync  timeout=off

run 		10000000
Per MPI rank memory allocation (min/avg/max) = 82.71 | 99.55 | 102.7 Mbytes
Step Temp E_pair E_vdwl TotEng Press PotEng KinEng Atoms 
       0    1.0056373   -2.3247444   -2.3247444   -1.2154794  -0.10895417   -2.3247444     1.109265   482116 
    1000    1.0138575   -2.3347339   -2.3347339   -1.2164017  0.064071409   -2.3347339    1.1183322   482116 
    2000     1.015693   -2.3376959   -2.3376959   -1.2173389  0.057209984   -2.3376959    1.1203569   482116 
    3000    1.0153528   -2.3384693   -2.3384693   -1.2184876  0.058489617   -2.3384693    1.1199817   482116 
    4000    1.0170196   -2.3398536   -2.3398536   -1.2180335  0.068860841   -2.3398536    1.1218202   482116 
    5000    1.0192521   -2.3426586   -2.3426586   -1.2183758  0.065175656   -2.3426586    1.1242828   482116 
    6000    1.0172532   -2.3409391   -2.3409391   -1.2188612  0.069205768   -2.3409391    1.1220779   482116 
    7000    1.0149624   -2.3402009   -2.3402009   -1.2206499  0.062970779   -2.3402009     1.119551   482116 
    8000    1.0163925   -2.3435946   -2.3435946   -1.2224661  0.063004343   -2.3435946    1.1211285   482116 
    9000    1.0176299   -2.3455898   -2.3455898   -1.2230964  0.056641689   -2.3455898    1.1224934   482116 
   10000    1.0181762    -2.346345    -2.346345    -1.223249  0.064574006    -2.346345     1.123096   482116 
   11000    1.0176599   -2.3474055   -2.3474055    -1.224879  0.071169153   -2.3474055    1.1225265   482116 
   12000    1.0190781   -2.3500569   -2.3500569    -1.225966  0.056389966   -2.3500569    1.1240908   482116 
   13000    1.0188756   -2.3511108   -2.3511108   -1.2272434  0.069722685   -2.3511108    1.1238674   482116 
   14000    1.0192793   -2.3527771   -2.3527771   -1.2284644  0.075139593   -2.3527771    1.1243127   482116 
   15000    1.0201604   -2.3532167   -2.3532167    -1.227932  0.078549259   -2.3532167    1.1252847   482116 
   16000     1.019128   -2.3543114   -2.3543114   -1.2301655  0.071731816   -2.3543114    1.1241459   482116 
   17000    1.0214569   -2.3570827   -2.3570827   -1.2303679  0.071166219   -2.3570827    1.1267147   482116 
   18000    1.0181025   -2.3547114   -2.3547114   -1.2316967  0.073179066   -2.3547114    1.1230147   482116 
   19000    1.0188802   -2.3562597   -2.3562597   -1.2323871  0.074537863   -2.3562597    1.1238726   482116 
   20000    1.0209611   -2.3580591   -2.3580591   -1.2318912   0.07265814   -2.3580591    1.1261679   482116 
   21000    1.0205358   -2.3591302   -2.3591302   -1.2334315  0.075005919   -2.3591302    1.1256987   482116 
   22000    1.0208795   -2.3599787   -2.3599787   -1.2339008  0.073295303   -2.3599787    1.1260779   482116 
   23000    1.0187111    -2.356971    -2.356971    -1.233285  0.065259002    -2.356971     1.123686   482116 
   24000    1.0187407   -2.3570976   -2.3570976   -1.2333789  0.072642776   -2.3570976    1.1237187   482116 
   25000    1.0187891   -2.3579373   -2.3579373   -1.2341653  0.064801341   -2.3579373    1.1237721   482116 
   26000     1.017019   -2.3570373   -2.3570373   -1.2352177  0.070976234   -2.3570373    1.1218195   482116 
   27000    1.0178886   -2.3582829   -2.3582829   -1.2355043  0.061334236   -2.3582829    1.1227787   482116 
   28000    1.0190097   -2.3602743   -2.3602743   -1.2362589  0.069525535   -2.3602743    1.1240154   482116 
   29000    1.0185184   -2.3588895   -2.3588895   -1.2354161  0.068555587   -2.3588895    1.1234734   482116 
   30000    1.0187962   -2.3596849   -2.3596849    -1.235905  0.067846162   -2.3596849    1.1237799   482116 
   31000    1.0183483   -2.3588618   -2.3588618    -1.235576  0.063053708   -2.3588618    1.1232858   482116 
   32000    1.0157484   -2.3559929   -2.3559929   -1.2355749  0.063589398   -2.3559929     1.120418   482116 
   33000     1.015056   -2.3548385   -2.3548385   -1.2351843  0.067978256   -2.3548385    1.1196542   482116 
   34000    1.0159132   -2.3556117   -2.3556117    -1.235012  0.063039648   -2.3556117    1.1205997   482116 
   35000    1.0151805   -2.3547689   -2.3547689   -1.2349774  0.072867777   -2.3547689    1.1197916   482116 
   36000    1.0166486    -2.355269    -2.355269   -1.2338581  0.070823364    -2.355269     1.121411   482116 
   37000    1.0157505    -2.353586    -2.353586   -1.2331657  0.067333384    -2.353586    1.1204203   482116 
   38000      1.01748   -2.3559819   -2.3559819   -1.2336539  0.059211877   -2.3559819     1.122328   482116 
   39000     1.014905   -2.3524484   -2.3524484   -1.2329608  0.063301035   -2.3524484    1.1194877   482116 
   40000    1.0150938   -2.3532819   -2.3532819    -1.233586  0.063625721   -2.3532819    1.1196959   482116 
   41000    1.0146419   -2.3533278   -2.3533278   -1.2341303  0.064700523   -2.3533278    1.1191975   482116 
   42000    1.0141101   -2.3520839   -2.3520839   -1.2334731  0.063193349   -2.3520839    1.1186108   482116 
   43000    1.0171591   -2.3562103   -2.3562103   -1.2342362  0.056982765   -2.3562103    1.1219741   482116 
   44000    1.0138255   -2.3531259   -2.3531259   -1.2348289  0.069031871   -2.3531259     1.118297   482116 
   45000     1.014698   -2.3544249   -2.3544249   -1.2351655  0.057922366   -2.3544249    1.1192594   482116 
   46000    1.0136792   -2.3529377   -2.3529377   -1.2348022  0.065089605   -2.3529377    1.1181355   482116 
   47000    1.0140263   -2.3541067   -2.3541067   -1.2355883  0.059587963   -2.3541067    1.1185184   482116 
   48000    1.0135364    -2.354382    -2.354382   -1.2364039  0.061578727    -2.354382    1.1179781   482116 
   49000     1.014672   -2.3557841   -2.3557841   -1.2365534  0.057990505   -2.3557841    1.1192307   482116 
   50000    1.0135554   -2.3549772   -2.3549772   -1.2369781  0.061807235   -2.3549772    1.1179991   482116 
   51000    1.0141807   -2.3560135   -2.3560135   -1.2373248  0.068799878   -2.3560135    1.1186887   482116 
   52000    1.0163272   -2.3579907   -2.3579907   -1.2369342  0.070533417   -2.3579907    1.1210565   482116 
   53000     1.016471   -2.3589441   -2.3589441   -1.2377291  0.064418036   -2.3589441    1.1212151   482116 
   54000    1.0172183   -2.3592798   -2.3592798   -1.2372405  0.065487384   -2.3592798    1.1220394   482116 
   55000    1.0170205   -2.3585274   -2.3585274   -1.2367062  0.066458888   -2.3585274    1.1218211   482116 
   56000    1.0165657   -2.3586324   -2.3586324    -1.237313  0.077957542   -2.3586324    1.1213195   482116 
   57000    1.0189082   -2.3618266   -2.3618266   -1.2379232  0.070578719   -2.3618266    1.1239034   482116 
   58000    1.0179385   -2.3611806   -2.3611806   -1.2383468   0.06582099   -2.3611806    1.1228338   482116 
   59000     1.020313   -2.3630873   -2.3630873   -1.2376343  0.077806051   -2.3630873     1.125453   482116 
   60000    1.0201603   -2.3628713   -2.3628713   -1.2375868  0.077669718   -2.3628713    1.1252845   482116 
   61000    1.0183224   -2.3621255   -2.3621255   -1.2388682  0.070682879   -2.3621255    1.1232572   482116 
   62000    1.0193107   -2.3631925   -2.3631925   -1.2388451  0.075955806   -2.3631925    1.1243474   482116 
   63000    1.0191748   -2.3633789   -2.3633789   -1.2391814  0.068555313   -2.3633789    1.1241975   482116 
   64000    1.0189803   -2.3633866   -2.3633866   -1.2394037  0.068918944   -2.3633866    1.1239829   482116 
   65000    1.0186752   -2.3629393   -2.3629393   -1.2392929  0.069644634   -2.3629393    1.1236464   482116 
   66000    1.0180302   -2.3632424   -2.3632424   -1.2403076  0.079138361   -2.3632424    1.1229349   482116 
   67000    1.0173191   -2.3626759   -2.3626759   -1.2405254  0.071686211   -2.3626759    1.1221505   482116 
   68000     1.018794   -2.3645177   -2.3645177   -1.2407402  0.071012049   -2.3645177    1.1237775   482116 
   69000    1.0182153   -2.3639729   -2.3639729   -1.2408339  0.072783237   -2.3639729    1.1231391   482116 
   70000    1.0162165   -2.3629677   -2.3629677   -1.2420333  0.080188298   -2.3629677    1.1209343   482116 
   71000    1.0161365   -2.3628819   -2.3628819   -1.2420358  0.070216619   -2.3628819     1.120846   482116 
   72000    1.0174481   -2.3639372   -2.3639372   -1.2416443  0.066912866   -2.3639372    1.1222929   482116 
   73000    1.0166743   -2.3635373   -2.3635373    -1.242098  0.069106307   -2.3635373    1.1214393   482116 
   74000    1.0163351   -2.3631693   -2.3631693   -1.2421042  0.068320461   -2.3631693    1.1210651   482116 
   75000    1.0178592   -2.3641506   -2.3641506   -1.2414043  0.062551365   -2.3641506    1.1227463   482116 
   76000    1.0174545   -2.3642803   -2.3642803   -1.2419805   0.06614897   -2.3642803    1.1222999   482116 
   77000    1.0180009    -2.365277    -2.365277   -1.2423744  0.064193686    -2.365277    1.1229026   482116 
   78000    1.0167895   -2.3640132   -2.3640132   -1.2424468   0.06224323   -2.3640132    1.1215664   482116 
   79000     1.016533   -2.3634933   -2.3634933   -1.2422099  0.070284303   -2.3634933    1.1212835   482116 
   80000    1.0151586   -2.3623795   -2.3623795   -1.2426121  0.061988105   -2.3623795    1.1197674   482116 
   81000    1.0152384   -2.3632492   -2.3632492   -1.2433938  0.071234235   -2.3632492    1.1198554   482116 
   82000    1.0139213   -2.3628859   -2.3628859   -1.2444833  0.066716998   -2.3628859    1.1184026   482116 
   83000    1.0136983   -2.3638912   -2.3638912   -1.2457346  0.071735465   -2.3638912    1.1181567   482116 
   84000    1.0142196   -2.3643169   -2.3643169   -1.2455853  0.057752156   -2.3643169    1.1187317   482116 
   85000    1.0172644   -2.3663826   -2.3663826   -1.2442924  0.065936861   -2.3663826    1.1220902   482116 
   86000    1.0175293   -2.3676587   -2.3676587   -1.2452763  0.065988703   -2.3676587    1.1223824   482116 
   87000    1.0145909   -2.3639867   -2.3639867   -1.2448455  0.073319577   -2.3639867    1.1191412   482116 
   88000    1.0162232   -2.3655197   -2.3655197    -1.244578  0.060031803   -2.3655197    1.1209418   482116 
   89000    1.0166007    -2.365705    -2.365705    -1.244347  0.077316877    -2.365705    1.1213581   482116 
   90000    1.0169607   -2.3656528   -2.3656528   -1.2438976  0.068630946   -2.3656528    1.1217552   482116 
   91000    1.0182444   -2.3669232   -2.3669232    -1.243752  0.071184876   -2.3669232    1.1231712   482116 
   92000    1.0186595   -2.3673641   -2.3673641    -1.243735  0.070414625   -2.3673641    1.1236291   482116 
   93000    1.0192433   -2.3675623   -2.3675623   -1.2432892  0.070879402   -2.3675623     1.124273   482116 
   94000     1.019333   -2.3676862   -2.3676862   -1.2433142  0.072787975   -2.3676862     1.124372   482116 
   95000    1.0189928   -2.3672188   -2.3672188   -1.2432222  0.070418042   -2.3672188    1.1239967   482116 
   96000    1.0166205   -2.3656314   -2.3656314   -1.2442515  0.075421507   -2.3656314    1.1213799   482116 
   97000    1.0167411    -2.365274    -2.365274    -1.243761  0.073354375    -2.365274     1.121513   482116 
   98000    1.0158595    -2.365404    -2.365404   -1.2448635  0.064118409    -2.365404    1.1205405   482116 
   99000    1.0172701   -2.3664401   -2.3664401   -1.2443437  0.063855683   -2.3664401    1.1220965   482116 
  100000    1.0155684   -2.3648186   -2.3648186   -1.2445992  0.070131013   -2.3648186    1.1202194   482116 
  101000    1.0170009   -2.3670415   -2.3670415    -1.245242  0.070768894   -2.3670415    1.1217995   482116 
  102000    1.0143724   -2.3649772   -2.3649772    -1.246077  0.063146908   -2.3649772    1.1189002   482116 
  103000    1.0145356   -2.3657361   -2.3657361   -1.2466558  0.058637433   -2.3657361    1.1190802   482116 
  104000    1.0151541   -2.3664067   -2.3664067   -1.2466443  0.063972332   -2.3664067    1.1197624   482116 
  105000     1.015282   -2.3662621   -2.3662621   -1.2463586  0.065263255   -2.3662621    1.1199035   482116 
  106000    1.0151652   -2.3659843   -2.3659843   -1.2462096  0.068964275   -2.3659843    1.1197747   482116 
  107000    1.0161622   -2.3675745   -2.3675745   -1.2467001  0.064788611   -2.3675745    1.1208744   482116 
  108000    1.0160436   -2.3681663   -2.3681663   -1.2474226  0.061364514   -2.3681663    1.1207436   482116 
  109000    1.0138171   -2.3664655   -2.3664655   -1.2481778  0.063070789   -2.3664655    1.1182877   482116 
  110000    1.0148404   -2.3669038   -2.3669038   -1.2474874  0.063724946   -2.3669038    1.1194164   482116 
  111000    1.0151104   -2.3666184   -2.3666184   -1.2469041  0.067789658   -2.3666184    1.1197142   482116 
  112000    1.0165133   -2.3681821   -2.3681821   -1.2469204  0.061047439   -2.3681821    1.1212617   482116 
  113000    1.0156801   -2.3683204   -2.3683204   -1.2479778  0.069808222   -2.3683204    1.1203426   482116 
  114000    1.0163026   -2.3695544   -2.3695544   -1.2485251  0.064069864   -2.3695544    1.1210293   482116 
  115000    1.0140253   -2.3673566   -2.3673566   -1.2488393  0.072725626   -2.3673566    1.1185173   482116 
  116000    1.0162799   -2.3691323   -2.3691323    -1.248128  0.064515803   -2.3691323    1.1210043   482116 
  117000    1.0154051   -2.3696905   -2.3696905   -1.2496511  0.072122428   -2.3696905    1.1200393   482116 
  118000    1.0175093   -2.3719191   -2.3719191   -1.2495587  0.061459719   -2.3719191    1.1223604   482116 
  119000    1.0186433   -2.3723141   -2.3723141   -1.2487029  0.068870315   -2.3723141    1.1236112   482116 
  120000    1.0172205   -2.3710078   -2.3710078    -1.248966  0.070920011   -2.3710078    1.1220418   482116 
  121000    1.0161138   -2.3706086   -2.3706086   -1.2497875  0.066170393   -2.3706086     1.120821   482116 
  122000    1.0159134   -2.3709312   -2.3709312   -1.2503311  0.069936108   -2.3709312       1.1206   482116 
  123000    1.0151858   -2.3694432   -2.3694432   -1.2496458   0.07338048   -2.3694432    1.1197974   482116 
  124000    1.0168938   -2.3716345   -2.3716345   -1.2499532  0.072015754   -2.3716345    1.1216814   482116 
  125000    1.0169103   -2.3714752   -2.3714752   -1.2497755  0.072497808   -2.3714752    1.1216997   482116 
  126000    1.0156729   -2.3708664   -2.3708664   -1.2505316  0.065803954   -2.3708664    1.1203348   482116 
  127000    1.0174204   -2.3728525   -2.3728525   -1.2505902  0.070877779   -2.3728525    1.1222623   482116 
  128000    1.0175948   -2.3729404   -2.3729404   -1.2504857  0.069138075   -2.3729404    1.1224547   482116 
  129000    1.0184517   -2.3732187   -2.3732187   -1.2498188  0.068218879   -2.3732187    1.1233999   482116 
  130000    1.0184395   -2.3728788   -2.3728788   -1.2494924  0.068690845   -2.3728788    1.1233864   482116 
  131000    1.0172099   -2.3728328   -2.3728328   -1.2508027  0.069636343   -2.3728328    1.1220301   482116 
  132000    1.0157496    -2.370552    -2.370552   -1.2501327  0.071056391    -2.370552    1.1204193   482116 
  133000    1.0166726    -2.372059    -2.372059   -1.2506216  0.070463197    -2.372059    1.1214375   482116 
  134000    1.0146713   -2.3705531   -2.3705531   -1.2513233  0.070374228   -2.3705531    1.1192299   482116 
  135000    1.0151749   -2.3715025   -2.3715025   -1.2517172  0.068228764   -2.3715025    1.1197854   482116 
  136000    1.0142602   -2.3708698   -2.3708698   -1.2520933  0.066534796   -2.3708698    1.1187765   482116 
  137000     1.016233   -2.3728397   -2.3728397   -1.2518872  0.057542994   -2.3728397    1.1209525   482116 
  138000    1.0145959   -2.3716628   -2.3716628   -1.2525161  0.063646169   -2.3716628    1.1191467   482116 
  139000    1.0140639   -2.3702485   -2.3702485   -1.2516886  0.057964652   -2.3702485    1.1185599   482116 
  140000    1.0154384   -2.3716587   -2.3716587   -1.2515827  0.071079956   -2.3716587     1.120076   482116 
  141000    1.0161729   -2.3720679   -2.3720679   -1.2511817  0.074494636   -2.3720679    1.1208862   482116 
  142000    1.0152112   -2.3709199   -2.3709199   -1.2510945  0.059255383   -2.3709199    1.1198255   482116 
  143000    1.0160382   -2.3721221   -2.3721221   -1.2513843  0.069078665   -2.3721221    1.1207377   482116 
  144000    1.0154229   -2.3704201   -2.3704201   -1.2503612  0.067861773   -2.3704201    1.1200589   482116 
  145000    1.0155626    -2.370666    -2.370666    -1.250453  0.073548165    -2.370666     1.120213   482116 
  146000    1.0152086   -2.3699532   -2.3699532   -1.2501307  0.068012712   -2.3699532    1.1198225   482116 
  147000    1.0144105   -2.3697678   -2.3697678   -1.2508256  0.059151906   -2.3697678    1.1189422   482116 
  148000    1.0135414   -2.3693631   -2.3693631   -1.2513796  0.078476162   -2.3693631    1.1179835   482116 
  149000    1.0141951   -2.3702403   -2.3702403   -1.2515357  0.063229929   -2.3702403    1.1187046   482116 
  150000    1.0136893   -2.3702068   -2.3702068     -1.25206  0.066543038   -2.3702068    1.1181468   482116 
  151000    1.0150698    -2.372232    -2.372232   -1.2525626  0.061620209    -2.372232    1.1196694   482116 
  152000    1.0141482   -2.3706889   -2.3706889    -1.252036  0.059879019   -2.3706889    1.1186529   482116 
  153000    1.0157517   -2.3725025   -2.3725025   -1.2520809  0.071287277   -2.3725025    1.1204217   482116 
  154000    1.0159653   -2.3720351   -2.3720351   -1.2513779  0.069781288   -2.3720351    1.1206572   482116 
  155000    1.0161848   -2.3733897   -2.3733897   -1.2524903  0.072738108   -2.3733897    1.1208994   482116 
  156000    1.0164168   -2.3733405   -2.3733405   -1.2521852  0.073514608   -2.3733405    1.1211552   482116 
  157000    1.0148655   -2.3713333   -2.3713333   -1.2518892  0.070248385   -2.3713333    1.1194441   482116 
  158000    1.0141428   -2.3701533   -2.3701533   -1.2515063  0.063392301   -2.3701533    1.1186469   482116 
  159000    1.0140612   -2.3700993   -2.3700993   -1.2515424  0.063090151   -2.3700993    1.1185569   482116 
  160000    1.0163848   -2.3733019   -2.3733019   -1.2521819  0.068767104   -2.3733019    1.1211199   482116 
  161000    1.0145792   -2.3711814   -2.3711814   -1.2520531  0.067304039   -2.3711814    1.1191283   482116 
  162000    1.0155799   -2.3730906   -2.3730906   -1.2528585  0.063631096   -2.3730906    1.1202321   482116 
  163000    1.0148026   -2.3727701   -2.3727701   -1.2533953  0.062784478   -2.3727701    1.1193748   482116 
  164000    1.0158439   -2.3732752   -2.3732752   -1.2527518  0.055608249   -2.3732752    1.1205234   482116 
  165000    1.0157791   -2.3728869   -2.3728869    -1.252435  0.068565831   -2.3728869    1.1204519   482116 
  166000    1.0168107   -2.3738758   -2.3738758    -1.252286  0.062018981   -2.3738758    1.1215898   482116 
  167000    1.0153379   -2.3732647   -2.3732647   -1.2532994  0.064994367   -2.3732647    1.1199652   482116 
  168000    1.0145328   -2.3732322   -2.3732322    -1.254155  0.063912481   -2.3732322    1.1190771   482116 
  169000    1.0150457   -2.3733415   -2.3733415   -1.2536985  0.069001227   -2.3733415    1.1196429   482116 
  170000    1.0165262   -2.3739242   -2.3739242   -1.2526483  0.074847238   -2.3739242    1.1212759   482116 
  171000    1.0152719   -2.3738875   -2.3738875   -1.2539951  0.065422191   -2.3738875    1.1198924   482116 
  172000    1.0149878    -2.373705    -2.373705   -1.2541259  0.075686822    -2.373705     1.119579   482116 
  173000    1.0162163   -2.3756748   -2.3756748   -1.2547407  0.070048851   -2.3756748    1.1209341   482116 
  174000    1.0144278   -2.3740429   -2.3740429   -1.2550816  0.069734162   -2.3740429    1.1189613   482116 
  175000    1.0154621   -2.3748658   -2.3748658   -1.2547636  0.068742173   -2.3748658    1.1201022   482116 
  176000    1.0154095    -2.375372    -2.375372   -1.2553278  0.068421349    -2.375372    1.1200442   482116 
  177000     1.013674   -2.3748479   -2.3748479   -1.2567181  0.066245078   -2.3748479    1.1181298   482116 
  178000    1.0153932   -2.3754729   -2.3754729   -1.2554467  0.069913003   -2.3754729    1.1200262   482116 
  179000    1.0156724   -2.3757608   -2.3757608   -1.2554267  0.060793434   -2.3757608    1.1203341   482116 
  180000    1.0146553   -2.3734457   -2.3734457   -1.2542334   0.06603394   -2.3734457    1.1192123   482116 
  181000    1.0157113   -2.3739806   -2.3739806   -1.2536035  0.070442146   -2.3739806    1.1203771   482116 
  182000    1.0153056   -2.3739496   -2.3739496   -1.2540201  0.063883156   -2.3739496    1.1199295   482116 
  183000    1.0148711   -2.3734049   -2.3734049   -1.2539546  0.072851551   -2.3734049    1.1194503   482116 
  184000    1.0148639   -2.3739323   -2.3739323   -1.2544899  0.068026409   -2.3739323    1.1194424   482116 
  185000    1.0156545   -2.3746457   -2.3746457   -1.2543312  0.065200558   -2.3746457    1.1203145   482116 
  186000    1.0142952   -2.3743939   -2.3743939   -1.2555789  0.074042914   -2.3743939     1.118815   482116 
  187000    1.0133527   -2.3738717   -2.3738717   -1.2560962  0.066627041   -2.3738717    1.1177754   482116 
  188000    1.0151959   -2.3754664   -2.3754664   -1.2556578  0.075704238   -2.3754664    1.1198086   482116 
  189000    1.0148566   -2.3741753   -2.3741753    -1.254741  0.066892845   -2.3741753    1.1194343   482116 
  190000    1.0146827   -2.3749946   -2.3749946   -1.2557521  0.069620028   -2.3749946    1.1192425   482116 
  191000    1.0160713   -2.3749335   -2.3749335   -1.2541593  0.069587343   -2.3749335    1.1207741   482116 
  192000     1.014743   -2.3738481   -2.3738481    -1.254539  0.063457987   -2.3738481     1.119309   482116 
  193000    1.0119518    -2.371542    -2.371542   -1.2553119  0.061757882    -2.371542    1.1162302   482116 
  194000    1.0147782   -2.3754597   -2.3754597   -1.2561119    0.0617145   -2.3754597    1.1193478   482116 
  195000    1.0143013   -2.3744625   -2.3744625   -1.2556406  0.064089811   -2.3744625    1.1188218   482116 
  196000    1.0164314   -2.3763214   -2.3763214   -1.2551501  0.065448527   -2.3763214    1.1211713   482116 
  197000    1.0156499   -2.3759908   -2.3759908   -1.2556815  0.068482211   -2.3759908    1.1203093   482116 
  198000    1.0126142   -2.3733422   -2.3733422   -1.2563813  0.071008518   -2.3733422    1.1169609   482116 
  199000    1.0142221   -2.3759849   -2.3759849   -1.2572506  0.068350616   -2.3759849    1.1187344   482116 
  200000    1.0128199   -2.3756741   -2.3756741   -1.2584864  0.061741172   -2.3756741    1.1171877   482116 
  201000    1.0138213   -2.3755367   -2.3755367   -1.2572444  0.063944276   -2.3755367    1.1182924   482116 
  202000    1.0137292   -2.3759006   -2.3759006   -1.2577098  0.065581917   -2.3759006    1.1181908   482116 
  203000    1.0125822     -2.37398     -2.37398   -1.2570545   0.07171891     -2.37398    1.1169255   482116 
  204000    1.0138151   -2.3742737   -2.3742737   -1.2559883  0.073551865   -2.3742737    1.1182854   482116 
  205000    1.0140429   -2.3742171   -2.3742171   -1.2556803  0.058139713   -2.3742171    1.1185367   482116 
  206000    1.0154535   -2.3762808   -2.3762808   -1.2561881  0.060435162   -2.3762808    1.1200927   482116 
  207000     1.015637   -2.3760956   -2.3760956   -1.2558005  0.069603434   -2.3760956    1.1202951   482116 
  208000    1.0146476   -2.3756864   -2.3756864   -1.2564827  0.069179164   -2.3756864    1.1192038   482116 
  209000    1.0166231   -2.3772094   -2.3772094   -1.2558266  0.070203605   -2.3772094    1.1213828   482116 
  210000    1.0164445   -2.3766281   -2.3766281   -1.2554422  0.072862391   -2.3766281    1.1211858   482116 
  211000    1.0161298   -2.3767857   -2.3767857    -1.255947  0.070382111   -2.3767857    1.1208387   482116 
  212000    1.0158582   -2.3765743   -2.3765743   -1.2560351  0.069439113   -2.3765743    1.1205392   482116 
  213000    1.0171885   -2.3776519   -2.3776519   -1.2556454  0.066851399   -2.3776519    1.1220065   482116 
  214000     1.015566   -2.3761117   -2.3761117   -1.2558949   0.08068272   -2.3761117    1.1202168   482116 
  215000    1.0152794   -2.3765209   -2.3765209   -1.2566203  0.072092964   -2.3765209    1.1199007   482116 
  216000    1.0148267   -2.3768824   -2.3768824   -1.2574811  0.071776673   -2.3768824    1.1194013   482116 
  217000    1.0135343   -2.3754185   -2.3754185   -1.2574428  0.074816371   -2.3754185    1.1179757   482116 
  218000    1.0135172   -2.3766085   -2.3766085   -1.2586516  0.077747145   -2.3766085    1.1179569   482116 
  219000    1.0131495   -2.3755704   -2.3755704   -1.2580191  0.074570768   -2.3755704    1.1175513   482116 
  220000    1.0136953   -2.3775344   -2.3775344   -1.2593811   0.06512528   -2.3775344    1.1181533   482116 
  221000    1.0152541   -2.3793648   -2.3793648    -1.259492  0.069814325   -2.3793648    1.1198728   482116 
  222000    1.0118093   -2.3752588   -2.3752588   -1.2591859  0.067931281   -2.3752588     1.116073   482116 
  223000    1.0124369   -2.3752566   -2.3752566   -1.2584914  0.068773456   -2.3752566    1.1167653   482116 
  224000    1.0120403   -2.3752318   -2.3752318    -1.258904  0.075333072   -2.3752318    1.1163278   482116 
  225000     1.012005   -2.3751916   -2.3751916   -1.2589028  0.071868166   -2.3751916    1.1162888   482116 
  226000    1.0129042   -2.3768067   -2.3768067   -1.2595259  0.060303799   -2.3768067    1.1172808   482116 
  227000    1.0129961   -2.3766849   -2.3766849   -1.2593028  0.066823197   -2.3766849     1.117382   482116 
  228000    1.0130206   -2.3760931   -2.3760931    -1.258684  0.069315624   -2.3760931    1.1174091   482116 
  229000    1.0143235   -2.3761175   -2.3761175   -1.2572712  0.076144787   -2.3761175    1.1188463   482116 
  230000    1.0143518   -2.3768569   -2.3768569   -1.2579794  0.076620838   -2.3768569    1.1188775   482116 
  231000    1.0141329   -2.3769194   -2.3769194   -1.2582834  0.072188435   -2.3769194     1.118636   482116 
  232000     1.013665   -2.3763598   -2.3763598   -1.2582399  0.070950922   -2.3763598    1.1181199   482116 
  233000    1.0138038   -2.3773476   -2.3773476   -1.2590746   0.06454623   -2.3773476     1.118273   482116 
  234000    1.0140918   -2.3775595   -2.3775595   -1.2589688  0.066113704   -2.3775595    1.1185907   482116 
  235000    1.0159125   -2.3788592   -2.3788592   -1.2582602  0.074683855   -2.3788592     1.120599   482116 
  236000    1.0145376   -2.3775782   -2.3775782   -1.2584958  0.066279076   -2.3775782    1.1190824   482116 
  237000     1.015055   -2.3779248   -2.3779248   -1.2582717  0.077079465   -2.3779248    1.1196531   482116 
  238000    1.0155186   -2.3784579   -2.3784579   -1.2582933  0.079460328   -2.3784579    1.1201645   482116 
  239000    1.0154571   -2.3788487   -2.3788487   -1.2587521  0.071868671   -2.3788487    1.1200966   482116 
  240000    1.0164032   -2.3793325   -2.3793325   -1.2581922  0.079045804   -2.3793325    1.1211403   482116 
  241000    1.0165737   -2.3790426   -2.3790426   -1.2577143  0.076721274   -2.3790426    1.1213283   482116 
  242000    1.0166625   -2.3795381   -2.3795381   -1.2581118  0.070455354   -2.3795381    1.1214263   482116 
  243000    1.0152294   -2.3799248   -2.3799248   -1.2600793  0.073669891   -2.3799248    1.1198455   482116 
  244000    1.0156434     -2.37902     -2.37902   -1.2587178  0.065249797     -2.37902    1.1203022   482116 
  245000    1.0154594   -2.3794708   -2.3794708   -1.2593715  0.062365078   -2.3794708    1.1200992   482116 
  246000    1.0156226   -2.3805281   -2.3805281   -1.2602489  0.074093218   -2.3805281    1.1202792   482116 
  247000    1.0147419   -2.3798107   -2.3798107    -1.260503  0.067542401   -2.3798107    1.1193078   482116 
  248000    1.0145511   -2.3788319   -2.3788319   -1.2597345  0.066689348   -2.3788319    1.1190974   482116 
  249000    1.0137891   -2.3772455   -2.3772455   -1.2589887  0.060479962   -2.3772455    1.1182568   482116 
  250000    1.0151493   -2.3773491   -2.3773491   -1.2575919  0.066190696   -2.3773491    1.1197572   482116 
  251000    1.0136697   -2.3770163   -2.3770163   -1.2588912  0.064042237   -2.3770163     1.118125   482116 
  252000    1.0132475   -2.3768154   -2.3768154   -1.2591559  0.061818756   -2.3768154    1.1176594   482116 
  253000     1.013588    -2.377065    -2.377065   -1.2590301  0.070825192    -2.377065    1.1180349   482116 
  254000     1.014093   -2.3782019   -2.3782019   -1.2596098  0.067780982   -2.3782019    1.1185921   482116 
  255000    1.0124618   -2.3766862   -2.3766862   -1.2598935  0.070182925   -2.3766862    1.1167927   482116 
  256000    1.0133368   -2.3769344   -2.3769344   -1.2591765  0.077436792   -2.3769344    1.1177579   482116 
  257000    1.0129099   -2.3766047   -2.3766047   -1.2593177   0.06218686   -2.3766047    1.1172871   482116 
  258000    1.0120467   -2.3759675   -2.3759675   -1.2596327  0.069022685   -2.3759675    1.1163348   482116 
  259000    1.0130665    -2.376824    -2.376824   -1.2593643  0.066734479    -2.376824    1.1174597   482116 
  260000    1.0124228   -2.3764015   -2.3764015   -1.2596518  0.066432563   -2.3764015    1.1167497   482116 
  261000     1.012457   -2.3760949   -2.3760949   -1.2593074  0.069134679   -2.3760949    1.1167874   482116 
  262000    1.0123492   -2.3762066   -2.3762066   -1.2595382  0.069414858   -2.3762066    1.1166685   482116 
  263000    1.0147013   -2.3781724   -2.3781724   -1.2589094  0.066176637   -2.3781724     1.119263   482116 
  264000    1.0134566    -2.377103    -2.377103    -1.259213  0.071238338    -2.377103      1.11789   482116 
  265000    1.0144493    -2.376462    -2.376462    -1.257477  0.072545764    -2.376462     1.118985   482116 
  266000    1.0150299   -2.3783568   -2.3783568   -1.2587314  0.067049338   -2.3783568    1.1196254   482116 
  267000    1.0144838    -2.378769    -2.378769   -1.2597459  0.067921602    -2.378769    1.1190231   482116 
  268000    1.0160117   -2.3800873   -2.3800873   -1.2593789  0.070185546   -2.3800873    1.1207084   482116 
  269000     1.015572   -2.3797717   -2.3797717   -1.2595483  0.065803864   -2.3797717    1.1202234   482116 
  270000    1.0137261   -2.3779673   -2.3779673     -1.25978  0.064603284   -2.3779673    1.1181873   482116 
  271000    1.0134075   -2.3769767   -2.3769767   -1.2591409  0.076812945   -2.3769767    1.1178358   482116 
  272000    1.0130165   -2.3769135   -2.3769135    -1.259509  0.064915778   -2.3769135    1.1174046   482116 
  273000    1.0130306    -2.376666    -2.376666   -1.2592459  0.060856949    -2.376666    1.1174201   482116 
  274000    1.0142056   -2.3778568   -2.3778568   -1.2591406  0.064443879   -2.3778568    1.1187163   482116 
  275000    1.0135596   -2.3776858   -2.3776858   -1.2596821  0.078045811   -2.3776858    1.1180037   482116 
  276000    1.0160089   -2.3806376   -2.3806376   -1.2599322  0.063357154   -2.3806376    1.1207053   482116 
  277000    1.0144382   -2.3789964   -2.3789964   -1.2600236  0.078749613   -2.3789964    1.1189728   482116 
  278000     1.013525   -2.3778525   -2.3778525    -1.259887    0.0666524   -2.3778525    1.1179654   482116 
  279000    1.0147102   -2.3786999   -2.3786999   -1.2594271  0.075926868   -2.3786999    1.1192728   482116 
  280000    1.0139355   -2.3786047   -2.3786047   -1.2601864  0.077884099   -2.3786047    1.1184183   482116 
  281000    1.0124668   -2.3770754   -2.3770754   -1.2602771  0.062465078   -2.3770754    1.1167983   482116 
  282000    1.0122281   -2.3771724   -2.3771724   -1.2606375  0.071826112   -2.3771724     1.116535   482116 
  283000    1.0134816   -2.3780797   -2.3780797    -1.260162  0.069534605   -2.3780797    1.1179176   482116 
  284000    1.0133559   -2.3772366   -2.3772366   -1.2594576  0.060940585   -2.3772366    1.1177789   482116 
  285000    1.0135327   -2.3781846   -2.3781846   -1.2602107  0.070552234   -2.3781846    1.1179739   482116 
  286000    1.0125441   -2.3771859   -2.3771859   -1.2603024  0.076064593   -2.3771859    1.1168835   482116 
  287000    1.0132246   -2.3775656   -2.3775656   -1.2599316  0.065296184   -2.3775656    1.1176341   482116 
  288000    1.0133356   -2.3769275   -2.3769275   -1.2591709  0.065627395   -2.3769275    1.1177566   482116 
  289000    1.0139295   -2.3778707   -2.3778707   -1.2594591  0.061805299   -2.3778707    1.1184116   482116 
  290000    1.0134753   -2.3774283   -2.3774283   -1.2595176  0.068298903   -2.3774283    1.1179107   482116 
  291000    1.0147224   -2.3778352   -2.3778352   -1.2585489  0.075792492   -2.3778352    1.1192863   482116 
  292000    1.0138209   -2.3775976   -2.3775976   -1.2593056  0.062811836   -2.3775976    1.1182919   482116 
  293000    1.0132618   -2.3782042   -2.3782042   -1.2605291  0.062627973   -2.3782042    1.1176751   482116 
  294000    1.0123508   -2.3770788   -2.3770788   -1.2604085  0.065760884   -2.3770788    1.1166703   482116 
  295000    1.0131025   -2.3782189   -2.3782189   -1.2607194  0.064870927   -2.3782189    1.1174995   482116 
  296000      1.01093   -2.3754403   -2.3754403   -1.2603372   0.06570443   -2.3754403    1.1151031   482116 
  297000    1.0135358   -2.3783776   -2.3783776   -1.2604002  0.065308946   -2.3783776    1.1179774   482116 
  298000    1.0150325    -2.379644    -2.379644   -1.2600156  0.062847548    -2.379644    1.1196283   482116 
  299000    1.0142083   -2.3781454   -2.3781454   -1.2594261  0.068801853   -2.3781454    1.1187192   482116 
  300000      1.01472   -2.3796589   -2.3796589   -1.2603753  0.074004971   -2.3796589    1.1192836   482116 
  301000    1.0151087   -2.3802002   -2.3802002   -1.2604878  0.068823151   -2.3802002    1.1197124   482116 
  302000    1.0140664   -2.3807488   -2.3807488   -1.2621862  0.068640435   -2.3807488    1.1185627   482116 
  303000    1.0117681   -2.3787569   -2.3787569   -1.2627294  0.066084364   -2.3787569    1.1160276   482116 
  304000    1.0153525   -2.3812106   -2.3812106   -1.2612293  0.062985389   -2.3812106    1.1199813   482116 
  305000    1.0126842   -2.3784607   -2.3784607   -1.2614227  0.062848269   -2.3784607    1.1170381   482116 
  306000    1.0135704   -2.3802853   -2.3802853   -1.2622697  0.070587466   -2.3802853    1.1180156   482116 
  307000    1.0138588   -2.3807284   -2.3807284   -1.2623947  0.078057901   -2.3807284    1.1183337   482116 
  308000    1.0133935   -2.3801543   -2.3801543   -1.2623339  0.072345419   -2.3801543    1.1178204   482116 
  309000    1.0138155   -2.3811193   -2.3811193   -1.2628334  0.071722484   -2.3811193    1.1182859   482116 
  310000    1.0152896   -2.3819389   -2.3819389   -1.2620269  0.069293914   -2.3819389    1.1199119   482116 
  311000    1.0145044   -2.3817234   -2.3817234   -1.2626776  0.080222443   -2.3817234    1.1190458   482116 
  312000    1.0126984   -2.3813414   -2.3813414   -1.2642878  0.069261245   -2.3813414    1.1170537   482116 
  313000    1.0135444   -2.3819278   -2.3819278   -1.2639409  0.074422445   -2.3819278    1.1179868   482116 
  314000    1.0146046   -2.3829737   -2.3829737   -1.2638173  0.069443642   -2.3829737    1.1191564   482116 
  315000    1.0147039    -2.381991    -2.381991   -1.2627251  0.068928746    -2.381991    1.1192658   482116 
  316000    1.0153424    -2.382338    -2.382338   -1.2623678  0.067880238    -2.382338    1.1199702   482116 
  317000    1.0142191   -2.3816028   -2.3816028   -1.2628716  0.065609198   -2.3816028    1.1187311   482116 
  318000     1.014084   -2.3817422   -2.3817422   -1.2631602  0.069035141   -2.3817422     1.118582   482116 
  319000    1.0133595   -2.3810214   -2.3810214   -1.2632385  0.068560716   -2.3810214    1.1177829   482116 
  320000    1.0144839   -2.3826613   -2.3826613    -1.263638  0.067064189   -2.3826613    1.1190232   482116 
  321000    1.0157304   -2.3831845   -2.3831845   -1.2627864  0.069112225   -2.3831845    1.1203981   482116 
  322000    1.0140603   -2.3818715   -2.3818715   -1.2633156  0.069867566   -2.3818715    1.1185559   482116 
  323000    1.0126555   -2.3801625   -2.3801625   -1.2631561  0.067880753   -2.3801625    1.1170063   482116 
  324000    1.0129259    -2.381014    -2.381014   -1.2637094  0.066595115    -2.381014    1.1173046   482116 
  325000    1.0126975   -2.3802007   -2.3802007   -1.2631479  0.076539585   -2.3802007    1.1170527   482116 
  326000    1.0126988    -2.381166    -2.381166   -1.2641119  0.069021832    -2.381166    1.1170541   482116 
  327000    1.0151013   -2.3830823   -2.3830823   -1.2633781  0.068615786   -2.3830823    1.1197042   482116 
  328000    1.0145087   -2.3822506   -2.3822506      -1.2632  0.063812914   -2.3822506    1.1190506   482116 
  329000    1.0119098   -2.3799067   -2.3799067   -1.2637229  0.072511355   -2.3799067    1.1161838   482116 
  330000    1.0136683   -2.3812996   -2.3812996   -1.2631761  0.076793184   -2.3812996    1.1181235   482116 
  331000    1.0139767   -2.3816161   -2.3816161   -1.2631523  0.064460678   -2.3816161    1.1184638   482116 
  332000    1.0142138   -2.3814416   -2.3814416   -1.2627163  0.060544319   -2.3814416    1.1187252   482116 
  333000    1.0117579   -2.3794376   -2.3794376   -1.2634214  0.064126408   -2.3794376    1.1160163   482116 
  334000    1.0142972   -2.3822352   -2.3822352    -1.263418  0.065882997   -2.3822352    1.1188172   482116 
  335000    1.0137798   -2.3813346   -2.3813346   -1.2630881    0.0674318   -2.3813346    1.1182465   482116 
  336000     1.014526   -2.3821105   -2.3821105   -1.2630409  0.067809518   -2.3821105    1.1190696   482116 
  337000    1.0137949   -2.3813224   -2.3813224   -1.2630592  0.073689655   -2.3813224    1.1182632   482116 
  338000    1.0134416   -2.3816665   -2.3816665    -1.263793  0.065442883   -2.3816665    1.1178735   482116 
  339000    1.0150418   -2.3833932   -2.3833932   -1.2637546   0.07210056   -2.3833932    1.1196386   482116 
  340000    1.0129916   -2.3816597   -2.3816597   -1.2642826  0.065455958   -2.3816597    1.1173771   482116 
  341000    1.0130558    -2.381087    -2.381087   -1.2636391  0.064778427    -2.381087    1.1174479   482116 
  342000    1.0121712    -2.380392    -2.380392   -1.2639198  0.073124212    -2.380392    1.1164722   482116 
  343000    1.0130048   -2.3809163   -2.3809163   -1.2635246  0.079779171   -2.3809163    1.1173917   482116 
  344000    1.0147863   -2.3834092   -2.3834092   -1.2640525  0.069861148   -2.3834092    1.1193567   482116 
  345000    1.0140164   -2.3823321   -2.3823321   -1.2638246  0.071295438   -2.3823321    1.1185075   482116 
  346000    1.0171777   -2.3842651   -2.3842651   -1.2622705  0.064332425   -2.3842651    1.1219946   482116 
  347000    1.0158312   -2.3834335   -2.3834335   -1.2629242  0.073250442   -2.3834335    1.1205093   482116 
  348000    1.0147936   -2.3824419   -2.3824419   -1.2630771  0.077241619   -2.3824419    1.1193648   482116 
  349000    1.0163431   -2.3834099   -2.3834099   -1.2623359  0.075429552   -2.3834099     1.121074   482116 
  350000    1.0151723   -2.3828693   -2.3828693   -1.2630868  0.072666952   -2.3828693    1.1197825   482116 
  351000    1.0150581   -2.3825296   -2.3825296   -1.2628731  0.079060978   -2.3825296    1.1196565   482116 
  352000    1.0145526   -2.3821942   -2.3821942   -1.2630952  0.069494191   -2.3821942     1.119099   482116 
  353000    1.0124416   -2.3808457   -2.3808457   -1.2640753  0.075629175   -2.3808457    1.1167704   482116 
  354000    1.0139768    -2.383209    -2.383209   -1.2647451  0.072644141    -2.383209    1.1184639   482116 
  355000    1.0145305   -2.3834785   -2.3834785   -1.2644039  0.067418137   -2.3834785    1.1190746   482116 
  356000    1.0132755   -2.3827768   -2.3827768   -1.2650866  0.076372571   -2.3827768    1.1176902   482116 
  357000    1.0121605   -2.3816994   -2.3816994    -1.265239  0.068534639   -2.3816994    1.1164604   482116 
  358000    1.0097605   -2.3789457   -2.3789457   -1.2651326  0.068232041   -2.3789457    1.1138131   482116 
  359000    1.0106783   -2.3789531   -2.3789531   -1.2641277  0.068799575   -2.3789531    1.1148254   482116 
  360000    1.0124569   -2.3805979   -2.3805979   -1.2638106  0.064738302   -2.3805979    1.1167873   482116 
  361000    1.0122366   -2.3804693   -2.3804693    -1.263925  0.077056579   -2.3804693    1.1165443   482116 
  362000    1.0129481   -2.3803916   -2.3803916   -1.2630624  0.066025869   -2.3803916    1.1173292   482116 
  363000    1.0133387   -2.3804023   -2.3804023   -1.2626423  0.071032206   -2.3804023    1.1177599   482116 
  364000    1.0151772   -2.3814084   -2.3814084   -1.2616204  0.067526314   -2.3814084    1.1197879   482116 
  365000    1.0129915   -2.3807495   -2.3807495   -1.2633725  0.070578346   -2.3807495     1.117377   482116 
  366000    1.0130905   -2.3799714   -2.3799714   -1.2624852  0.062708815   -2.3799714    1.1174862   482116 
  367000    1.0122629   -2.3790113   -2.3790113    -1.262438  0.065824278   -2.3790113    1.1165734   482116 
  368000    1.0118058   -2.3791041   -2.3791041    -1.263035  0.067088227   -2.3791041    1.1160691   482116 
  369000    1.0113772   -2.3797691   -2.3797691   -1.2641728  0.062814638   -2.3797691    1.1155964   482116 
  370000    1.0125422   -2.3812529   -2.3812529   -1.2643715  0.070720801   -2.3812529    1.1168814   482116 
  371000    1.0121848   -2.3809294   -2.3809294   -1.2644422  0.071713644   -2.3809294    1.1164872   482116 
  372000    1.0122731   -2.3807144   -2.3807144   -1.2641299  0.065561748   -2.3807144    1.1165845   482116 
  373000    1.0120705   -2.3811564   -2.3811564   -1.2647953  0.063847631   -2.3811564    1.1163611   482116 
  374000    1.0131385   -2.3821341   -2.3821341    -1.264595  0.069346522   -2.3821341    1.1175392   482116 
  375000    1.0121573   -2.3797892   -2.3797892   -1.2633324  0.073961332   -2.3797892    1.1164568   482116 
  376000    1.0129587   -2.3809899   -2.3809899    -1.263649  0.073584405   -2.3809899    1.1173409   482116 
  377000    1.0142082   -2.3823555   -2.3823555   -1.2636364  0.069734869   -2.3823555    1.1187191   482116 
  378000    1.0125944   -2.3816907   -2.3816907   -1.2647517  0.070605318   -2.3816907     1.116939   482116 
  379000    1.0135491   -2.3813548   -2.3813548   -1.2633627  0.068819861   -2.3813548     1.117992   482116 
  380000    1.0111227   -2.3802016   -2.3802016   -1.2648859  0.073643937   -2.3802016    1.1153156   482116 
  381000    1.0132793   -2.3833148   -2.3833148   -1.2656203  0.071945317   -2.3833148    1.1176945   482116 
  382000    1.0132505   -2.3830692   -2.3830692   -1.2654066  0.068548934   -2.3830692    1.1176627   482116 
  383000    1.0141326   -2.3836515   -2.3836515   -1.2650158  0.076585083   -2.3836515    1.1186357   482116 
  384000    1.0127718   -2.3830605   -2.3830605   -1.2659258  0.067698108   -2.3830605    1.1171347   482116 
  385000     1.014082   -2.3841209   -2.3841209    -1.265541  0.068015008   -2.3841209    1.1185799   482116 
  386000    1.0121509   -2.3824422   -2.3824422   -1.2659924  0.066061257   -2.3824422    1.1164497   482116 
  387000    1.0126138    -2.381786    -2.381786   -1.2648256  0.067756472    -2.381786    1.1169604   482116 
  388000    1.0116956   -2.3814243   -2.3814243   -1.2654767  0.071448437   -2.3814243    1.1159476   482116 
  389000    1.0137687   -2.3828368   -2.3828368   -1.2646025  0.079465291   -2.3828368    1.1182343   482116 
  390000    1.0134626   -2.3822955   -2.3822955   -1.2643989  0.076825583   -2.3822955    1.1178966   482116 
  391000    1.0136091   -2.3830291   -2.3830291   -1.2649709  0.061565643   -2.3830291    1.1180582   482116 
  392000    1.0130301   -2.3820757   -2.3820757   -1.2646561  0.063750346   -2.3820757    1.1174196   482116 
  393000    1.0128703   -2.3828702   -2.3828702   -1.2656269  0.070906198   -2.3828702    1.1172433   482116 
  394000    1.0123242   -2.3814963   -2.3814963   -1.2648554  0.078518466   -2.3814963    1.1166409   482116 
  395000    1.0144706   -2.3840957   -2.3840957   -1.2650872  0.072447229   -2.3840957    1.1190085   482116 
  396000     1.011401   -2.3801641   -2.3801641   -1.2645415  0.075337084   -2.3801641    1.1156226   482116 
  397000    1.0124764   -2.3813936   -2.3813936   -1.2645848  0.068016872   -2.3813936    1.1168088   482116 
  398000    1.0129855   -2.3816453   -2.3816453   -1.2642749  0.069810391   -2.3816453    1.1173703   482116 
  399000    1.0124694   -2.3814983   -2.3814983   -1.2646972   0.07064034   -2.3814983    1.1168011   482116 
  400000     1.012939   -2.3816117   -2.3816117   -1.2642926  0.063055913   -2.3816117     1.117319   482116 
  401000    1.0115975   -2.3813171   -2.3813171   -1.2654777  0.061184745   -2.3813171    1.1158394   482116 
  402000    1.0131252   -2.3819924   -2.3819924   -1.2644679  0.069488434   -2.3819924    1.1175245   482116 
  403000    1.0115066   -2.3813403   -2.3813403   -1.2656011  0.067625864   -2.3813403    1.1157391   482116 
  404000    1.0113505   -2.3811208   -2.3811208   -1.2655538  0.061684224   -2.3811208     1.115567   482116 
  405000    1.0122507    -2.381501    -2.381501    -1.264941  0.074768084    -2.381501    1.1165599   482116 
  406000    1.0130114    -2.383194    -2.383194   -1.2657951  0.060360107    -2.383194    1.1173989   482116 
  407000    1.0122249    -2.381898    -2.381898   -1.2653666  0.068736162    -2.381898    1.1165314   482116 
  408000    1.0124887   -2.3823159   -2.3823159   -1.2654935  0.064375189   -2.3823159    1.1168224   482116 
  409000    1.0123953   -2.3829944   -2.3829944    -1.266275  0.062772171   -2.3829944    1.1167194   482116 
  410000    1.0114957   -2.3817787   -2.3817787   -1.2660517   0.06628398   -2.3817787     1.115727   482116 
  411000    1.0123903   -2.3819069   -2.3819069    -1.265193  0.078419186   -2.3819069    1.1167139   482116 
  412000    1.0109326   -2.3809627   -2.3809627   -1.2658567  0.063630625   -2.3809627     1.115106   482116 
  413000    1.0115549   -2.3821974   -2.3821974   -1.2664051  0.064956259   -2.3821974    1.1157924   482116 
  414000    1.0111563   -2.3810369   -2.3810369   -1.2656843  0.068713914   -2.3810369    1.1153527   482116 
  415000     1.011699   -2.3815908   -2.3815908   -1.2656395  0.069107989   -2.3815908    1.1159513   482116 
  416000    1.0138423   -2.3845483   -2.3845483   -1.2662328  0.062237787   -2.3845483    1.1183155   482116 
  417000    1.0147357   -2.3857305   -2.3857305   -1.2664296  0.063185745   -2.3857305    1.1193009   482116 
  418000    1.0115618   -2.3824119   -2.3824119   -1.2666118  0.071646573   -2.3824119       1.1158   482116 
  419000    1.0132245   -2.3838216   -2.3838216   -1.2661875  0.074643659   -2.3838216    1.1176341   482116 
  420000    1.0136722   -2.3837873   -2.3837873   -1.2656595  0.071480622   -2.3837873    1.1181278   482116 
  421000    1.0125819   -2.3831139   -2.3831139   -1.2661887  0.068081748   -2.3831139    1.1169251   482116 
  422000    1.0136973   -2.3848486   -2.3848486   -1.2666931  0.068878248   -2.3848486    1.1181555   482116 
  423000    1.0134502   -2.3847769   -2.3847769   -1.2668939  0.074101793   -2.3847769     1.117883   482116 
  424000    1.0135245   -2.3846556   -2.3846556   -1.2666907  0.072025847   -2.3846556    1.1179649   482116 
  425000    1.0130299   -2.3847305   -2.3847305   -1.2673111   0.08013442   -2.3847305    1.1174194   482116 
  426000    1.0136146   -2.3856539   -2.3856539   -1.2675896  0.074886757   -2.3856539    1.1180644   482116 
  427000    1.0134722   -2.3857969   -2.3857969   -1.2678897  0.076374118   -2.3857969    1.1179072   482116 
  428000    1.0154229   -2.3869314   -2.3869314   -1.2668724  0.070206904   -2.3869314     1.120059   482116 
  429000    1.0149299   -2.3866688   -2.3866688   -1.2671537  0.070770969   -2.3866688    1.1195151   482116 
  430000    1.0136123   -2.3849966   -2.3849966   -1.2669348  0.076860333   -2.3849966    1.1180618   482116 
  431000    1.0148708   -2.3868451   -2.3868451   -1.2673951   0.07545986   -2.3868451      1.11945   482116 
  432000    1.0122193   -2.3842477   -2.3842477   -1.2677224  0.075935985   -2.3842477    1.1165253   482116 
  433000    1.0123589   -2.3841056   -2.3841056   -1.2674265  0.069128418   -2.3841056    1.1166792   482116 
  434000      1.01263   -2.3845203   -2.3845203    -1.267542  0.072723681   -2.3845203    1.1169783   482116 
  435000    1.0142767   -2.3858421   -2.3858421   -1.2670474  0.072310463   -2.3858421    1.1187947   482116 
  436000    1.0123445   -2.3842315   -2.3842315   -1.2675681  0.074924346   -2.3842315    1.1166634   482116 
  437000    1.0117356   -2.3830747   -2.3830747    -1.267083  0.065304166   -2.3830747    1.1159917   482116 
  438000     1.014913   -2.3872952   -2.3872952   -1.2677987  0.064641209   -2.3872952    1.1194966   482116 
  439000    1.0129942   -2.3844792   -2.3844792   -1.2670992  0.066494004   -2.3844792      1.11738   482116 
  440000    1.0143563   -2.3869121   -2.3869121   -1.2680296  0.074464634   -2.3869121    1.1188825   482116 
  441000    1.0128678   -2.3855193   -2.3855193   -1.2682787  0.074903169   -2.3855193    1.1172405   482116 
  442000    1.0136078   -2.3862049   -2.3862049   -1.2681481  0.079022668   -2.3862049    1.1180569   482116 
  443000    1.0120498   -2.3847138   -2.3847138   -1.2683756  0.068459807   -2.3847138    1.1163382   482116 
  444000    1.0135581   -2.3861503   -2.3861503   -1.2681483  0.071414429   -2.3861503     1.118002   482116 
  445000    1.0121588   -2.3849822   -2.3849822   -1.2685237  0.070969908   -2.3849822    1.1164585   482116 
  446000    1.0121525   -2.3855008   -2.3855008   -1.2690492  0.071555081   -2.3855008    1.1164516   482116 
  447000    1.0138045   -2.3861208   -2.3861208    -1.267847  0.068255281   -2.3861208    1.1182738   482116 
  448000    1.0131252   -2.3850453   -2.3850453   -1.2675208  0.069463034   -2.3850453    1.1175245   482116 
  449000    1.0135845   -2.3867474   -2.3867474   -1.2687163  0.074140671   -2.3867474    1.1180311   482116 
  450000    1.0141816   -2.3869706   -2.3869706   -1.2682808  0.061371995   -2.3869706    1.1186898   482116 
  451000    1.0162163   -2.3877493   -2.3877493   -1.2668152  0.075720838   -2.3877493    1.1209342   482116 
  452000     1.015314   -2.3868583   -2.3868583   -1.2669196   0.06789953   -2.3868583    1.1199388   482116 
  453000     1.016243   -2.3875543   -2.3875543   -1.2665907  0.069843673   -2.3875543    1.1209636   482116 
  454000     1.013741   -2.3865336   -2.3865336     -1.26833  0.070319548   -2.3865336    1.1182037   482116 
  455000    1.0133181   -2.3861426   -2.3861426   -1.2684054  0.072414816   -2.3861426    1.1177372   482116 
  456000    1.0129657   -2.3863114   -2.3863114   -1.2689628  0.065655655   -2.3863114    1.1173486   482116 
  457000    1.0144089   -2.3871927   -2.3871927   -1.2682522  0.069861928   -2.3871927    1.1189405   482116 
  458000    1.0140231    -2.386584    -2.386584    -1.268069  0.072266885    -2.386584     1.118515   482116 
  459000    1.0133564   -2.3860111   -2.3860111   -1.2682316  0.074818882   -2.3860111    1.1177796   482116 
  460000    1.0119662   -2.3839565   -2.3839565   -1.2677105    0.0639457   -2.3839565     1.116246   482116 
  461000    1.0140898    -2.385997    -2.385997   -1.2674085  0.081490817    -2.385997    1.1185885   482116 
  462000    1.0139246   -2.3868452   -2.3868452   -1.2684389  0.069027664   -2.3868452    1.1184063   482116 
  463000    1.0143659   -2.3874125   -2.3874125   -1.2685195  0.062511063   -2.3874125     1.118893   482116 
  464000    1.0124192   -2.3849106   -2.3849106   -1.2681649  0.066793855   -2.3849106    1.1167458   482116 
  465000    1.0135178    -2.385866    -2.385866   -1.2679084  0.060971644    -2.385866    1.1179576   482116 
  466000    1.0137167   -2.3863371   -2.3863371   -1.2681602  0.064345901   -2.3863371     1.118177   482116 
  467000    1.0153488   -2.3868426   -2.3868426   -1.2668653  0.069081233   -2.3868426    1.1199772   482116 
  468000    1.0134248   -2.3854497   -2.3854497   -1.2675948  0.069329027   -2.3854497    1.1178549   482116 
  469000      1.01239   -2.3839105   -2.3839105    -1.267197  0.074584248   -2.3839105    1.1167135   482116 
  470000    1.0151433   -2.3867239   -2.3867239   -1.2669734  0.068256837   -2.3867239    1.1197505   482116 
  471000    1.0135222   -2.3858545   -2.3858545   -1.2678922  0.067607704   -2.3858545    1.1179624   482116 
  472000    1.0112637   -2.3851925   -2.3851925   -1.2697214  0.070360603   -2.3851925    1.1154711   482116 
  473000    1.0129323    -2.386293    -2.386293   -1.2689812   0.06869852    -2.386293    1.1173117   482116 
  474000    1.0124076   -2.3873576   -2.3873576   -1.2706247   0.06412518   -2.3873576    1.1167329   482116 
  475000    1.0123321   -2.3854226   -2.3854226   -1.2687729  0.062205847   -2.3854226    1.1166497   482116 
  476000     1.013126   -2.3858276   -2.3858276   -1.2683023   0.07027405   -2.3858276    1.1175253   482116 
  477000    1.0130266   -2.3860586   -2.3860586   -1.2686428  0.068593546   -2.3860586    1.1174157   482116 
  478000    1.0138759   -2.3878533   -2.3878533   -1.2695008  0.068040515   -2.3878533    1.1183525   482116 
  479000    1.0143858   -2.3876749   -2.3876749   -1.2687599  0.071036477   -2.3876749     1.118915   482116 
  480000    1.0133892    -2.387014    -2.387014   -1.2691983  0.065265852    -2.387014    1.1178157   482116 
  481000    1.0128324   -2.3878158   -2.3878158   -1.2706144  0.073770486   -2.3878158    1.1172015   482116 
  482000    1.0153563   -2.3893014   -2.3893014   -1.2693159  0.068094544   -2.3893014    1.1199855   482116 
  483000    1.0162971   -2.3888274   -2.3888274   -1.2678042  0.075034212   -2.3888274    1.1210232   482116 
  484000    1.0134833   -2.3860108   -2.3860108   -1.2680913  0.077646521   -2.3860108    1.1179195   482116 
  485000    1.0145391   -2.3874934   -2.3874934   -1.2684093  0.062313014   -2.3874934    1.1190841   482116 
  486000    1.0119569   -2.3855341   -2.3855341   -1.2692984  0.065733707   -2.3855341    1.1162357   482116 
  487000     1.013909   -2.3871931   -2.3871931    -1.268804  0.068204656   -2.3871931     1.118389   482116 
  488000    1.0140829   -2.3869152   -2.3869152   -1.2683343  0.076595501   -2.3869152    1.1185809   482116 
  489000     1.013159   -2.3863567   -2.3863567   -1.2687949  0.065451608   -2.3863567    1.1175618   482116 
  490000    1.0124386   -2.3864939   -2.3864939   -1.2697268  0.073080409   -2.3864939    1.1167672   482116 
  491000    1.0143571    -2.387586    -2.387586   -1.2687026   0.06734364    -2.387586    1.1188834   482116 
  492000    1.0122303   -2.3848047   -2.3848047   -1.2682674  0.069990444   -2.3848047    1.1165373   482116 
  493000    1.0116454   -2.3853539   -2.3853539   -1.2694617  0.085866441   -2.3853539    1.1158922   482116 
  494000     1.010658   -2.3836932   -2.3836932   -1.2688901  0.067638144   -2.3836932    1.1148031   482116 
  495000    1.0110164   -2.3840902   -2.3840902   -1.2688918  0.063956724   -2.3840902    1.1151984   482116 
  496000    1.0100611   -2.3825319   -2.3825319   -1.2683872  0.058786894   -2.3825319    1.1141447   482116 
  497000    1.0113445   -2.3832271   -2.3832271   -1.2676669  0.065763302   -2.3832271    1.1155603   482116 
  498000    1.0115562   -2.3823875   -2.3823875   -1.2665938  0.075138723   -2.3823875    1.1157938   482116 
  499000    1.0132776   -2.3845295   -2.3845295    -1.266837  0.070810229   -2.3845295    1.1176926   482116 
  500000    1.0126781    -2.383481    -2.383481   -1.2664497  0.066565827    -2.383481    1.1170313   482116 
  501000    1.0122692   -2.3843435   -2.3843435   -1.2677633  0.074686842   -2.3843435    1.1165802   482116 
  502000    1.0136244   -2.3848074   -2.3848074   -1.2667322  0.069467439   -2.3848074    1.1180752   482116 
  503000    1.0119574   -2.3828376   -2.3828376   -1.2666012  0.060565881   -2.3828376    1.1162364   482116 
  504000    1.0134419   -2.3842715   -2.3842715   -1.2663977  0.072070482   -2.3842715    1.1178739   482116 
  505000    1.0124018   -2.3837094   -2.3837094   -1.2669829  0.068141818   -2.3837094    1.1167265   482116 
  506000    1.0137848   -2.3862435   -2.3862435   -1.2679915  0.067971834   -2.3862435     1.118252   482116 
  507000    1.0129687   -2.3845678   -2.3845678   -1.2672159  0.073602625   -2.3845678    1.1173519   482116 
  508000    1.0136355   -2.3858076   -2.3858076   -1.2677203  0.065572903   -2.3858076    1.1180873   482116 
  509000    1.0149436    -2.386859    -2.386859   -1.2673288  0.063636727    -2.386859    1.1195303   482116 
  510000     1.013028   -2.3860798   -2.3860798   -1.2686625  0.060029523   -2.3860798    1.1174173   482116 
  511000    1.0130699   -2.3858278   -2.3858278   -1.2683643  0.080093376   -2.3858278    1.1174635   482116 
  512000    1.0140426   -2.3868448   -2.3868448   -1.2683083  0.070212834   -2.3868448    1.1185365   482116 
  513000    1.0139335   -2.3874229   -2.3874229   -1.2690068  0.062452084   -2.3874229    1.1184161   482116 
  514000    1.0118034   -2.3855926   -2.3855926   -1.2695262  0.079388063   -2.3855926    1.1160664   482116 
  515000    1.0132635   -2.3864051   -2.3864051    -1.268728  0.066464565   -2.3864051     1.117677   482116 
  516000    1.0154704   -2.3892549   -2.3892549   -1.2691435  0.064627224   -2.3892549    1.1201114   482116 
  517000    1.0168988   -2.3896711   -2.3896711   -1.2679842  0.074420969   -2.3896711    1.1216869   482116 
  518000    1.0145076   -2.3873611   -2.3873611   -1.2683117  0.072243996   -2.3873611    1.1190494   482116 
  519000     1.012782   -2.3854711   -2.3854711   -1.2683251  0.077719297   -2.3854711     1.117146   482116 
  520000     1.014824   -2.3878424   -2.3878424   -1.2684441  0.076597805   -2.3878424    1.1193983   482116 
  521000     1.014622   -2.3879843   -2.3879843   -1.2688088  0.065561693   -2.3879843    1.1191755   482116 
  522000    1.0123151   -2.3863947   -2.3863947   -1.2697637  0.081763849   -2.3863947     1.116631   482116 
  523000    1.0146274   -2.3894265   -2.3894265   -1.2702451  0.073175228   -2.3894265    1.1191814   482116 
  524000    1.0120095   -2.3867481   -2.3867481   -1.2704542  0.071980304   -2.3867481    1.1162939   482116 
  525000    1.0137866   -2.3886913   -2.3886913   -1.2704373  0.069254301   -2.3886913     1.118254   482116 
  526000    1.0120313   -2.3858604   -2.3858604   -1.2695426  0.067811615   -2.3858604    1.1163179   482116 
  527000    1.0131196   -2.3872094   -2.3872094    -1.269691   0.06914627   -2.3872094    1.1175183   482116 
  528000     1.013459   -2.3880027   -2.3880027     -1.27011  0.064996811   -2.3880027    1.1178927   482116 
  529000    1.0148487   -2.3896585   -2.3896585   -1.2702329  0.071976155   -2.3896585    1.1194256   482116 
  530000    1.0126801   -2.3885906   -2.3885906    -1.271557  0.070171929   -2.3885906    1.1170336   482116 
  531000    1.0120763   -2.3876438   -2.3876438   -1.2712763  0.069602931   -2.3876438    1.1163675   482116 
  532000    1.0128676   -2.3885534   -2.3885534   -1.2713131  0.068148693   -2.3885534    1.1172403   482116 
  533000    1.0138819   -2.3901353   -2.3901353   -1.2717762  0.062022217   -2.3901353    1.1183591   482116 
  534000    1.0142204   -2.3889339   -2.3889339   -1.2702014  0.068167142   -2.3889339    1.1187326   482116 
  535000    1.0133195   -2.3875422   -2.3875422   -1.2698034  0.074106082   -2.3875422    1.1177388   482116 
  536000    1.0152924      -2.3892      -2.3892   -1.2692851  0.071431267      -2.3892     1.119915   482116 
  537000    1.0131522   -2.3872615   -2.3872615   -1.2697072  0.073610752   -2.3872615    1.1175543   482116 
  538000    1.0145801   -2.3891835   -2.3891835   -1.2700542  0.072780862   -2.3891835    1.1191293   482116 
  539000     1.015119    -2.390289    -2.390289   -1.2705653  0.070063142    -2.390289    1.1197238   482116 
  540000    1.0139092   -2.3892463   -2.3892463    -1.270857  0.069500029   -2.3892463    1.1183892   482116 
  541000    1.0157194   -2.3904336   -2.3904336   -1.2700476   0.07313706   -2.3904336     1.120386   482116 
  542000    1.0171485   -2.3912473   -2.3912473    -1.269285  0.064753747   -2.3912473    1.1219623   482116 
  543000    1.0146525   -2.3897014   -2.3897014   -1.2704922  0.069454977   -2.3897014    1.1192092   482116 
  544000    1.0133893   -2.3876692   -2.3876692   -1.2698535  0.068413052   -2.3876692    1.1178157   482116 
  545000    1.0142778   -2.3889582   -2.3889582   -1.2701624   0.08005714   -2.3889582    1.1187958   482116 
  546000    1.0149191   -2.3896531   -2.3896531   -1.2701499  0.070639822   -2.3896531    1.1195032   482116 
  547000    1.0128767   -2.3877029   -2.3877029   -1.2704524  0.077746396   -2.3877029    1.1172504   482116 
  548000    1.0136059   -2.3875477   -2.3875477    -1.269493  0.074631281   -2.3875477    1.1180547   482116 
  549000    1.0139878   -2.3876411   -2.3876411   -1.2691651  0.070515518   -2.3876411     1.118476   482116 
  550000     1.012343   -2.3872828   -2.3872828   -1.2706211  0.070823212   -2.3872828    1.1166616   482116 
  551000    1.0117872    -2.386262    -2.386262   -1.2702134  0.073762551    -2.386262    1.1160487   482116 
  552000    1.0122335   -2.3873408   -2.3873408      -1.2708  0.069970771   -2.3873408    1.1165409   482116 
  553000    1.0128849    -2.388211    -2.388211   -1.2709516  0.066451062    -2.388211    1.1172594   482116 
  554000    1.0117858   -2.3865802   -2.3865802    -1.270533  0.069673979   -2.3865802    1.1160471   482116 
  555000    1.0110561   -2.3862727   -2.3862727   -1.2710305  0.064898038   -2.3862727    1.1152422   482116 
  556000    1.0100463   -2.3841379   -2.3841379   -1.2700096  0.072734727   -2.3841379    1.1141283   482116 
  557000    1.0116827   -2.3864683   -2.3864683    -1.270535  0.061470692   -2.3864683    1.1159333   482116 
  558000    1.0134833   -2.3876608   -2.3876608   -1.2697414  0.064105949   -2.3876608    1.1179195   482116 
  559000    1.0147129   -2.3882932   -2.3882932   -1.2690175  0.061911931   -2.3882932    1.1192758   482116 
  560000    1.0156301   -2.3881414   -2.3881414   -1.2678539   0.06474049   -2.3881414    1.1202875   482116 
  561000    1.0135788     -2.38662     -2.38662   -1.2685951  0.064490325     -2.38662    1.1180249   482116 
  562000    1.0139549   -2.3880527   -2.3880527    -1.269613  0.067085389   -2.3880527    1.1184397   482116 
  563000    1.0146733   -2.3878093   -2.3878093   -1.2685771  0.075376713   -2.3878093    1.1192322   482116 
  564000    1.0131918   -2.3858074   -2.3858074   -1.2682094  0.068552787   -2.3858074     1.117598   482116 
  565000    1.0150321   -2.3885042   -2.3885042   -1.2688764   0.06947208   -2.3885042    1.1196279   482116 
  566000    1.0116835   -2.3865086   -2.3865086   -1.2705744  0.070822147   -2.3865086    1.1159342   482116 
  567000    1.0126142   -2.3879856   -2.3879856   -1.2710247   0.07095661   -2.3879856    1.1169609   482116 
  568000    1.0128918    -2.388944    -2.388944    -1.271677   0.07800405    -2.388944     1.117267   482116 
  569000    1.0136344   -2.3908717   -2.3908717   -1.2727855  0.061536647   -2.3908717    1.1180861   482116 
  570000    1.0129031   -2.3900145   -2.3900145   -1.2727351  0.077473885   -2.3900145    1.1172795   482116 
  571000     1.010902   -2.3890038   -2.3890038   -1.2739316  0.075478897   -2.3890038    1.1150722   482116 
  572000    1.0130006   -2.3906917   -2.3906917   -1.2733047  0.074117371   -2.3906917     1.117387   482116 
  573000    1.0126961    -2.390711    -2.390711   -1.2736597  0.062263886    -2.390711    1.1170512   482116 
  574000    1.0141438    -2.390944    -2.390944    -1.272296  0.070243009    -2.390944     1.118648   482116 
  575000    1.0145467   -2.3919332   -2.3919332   -1.2728408   0.06894267   -2.3919332    1.1190925   482116 
  576000    1.0125205   -2.3914196   -2.3914196   -1.2745621  0.074569722   -2.3914196    1.1168575   482116 
  577000    1.0124957   -2.3905763   -2.3905763   -1.2737462  0.076963678   -2.3905763    1.1168301   482116 
  578000    1.0122763   -2.3903153   -2.3903153   -1.2737272  0.073458314   -2.3903153    1.1165882   482116 
  579000    1.0132064   -2.3914653   -2.3914653   -1.2738512  0.068471289   -2.3914653    1.1176141   482116 
  580000    1.0141867   -2.3930339   -2.3930339   -1.2743385  0.073447482   -2.3930339    1.1186954   482116 
  581000     1.013396   -2.3929172   -2.3929172    -1.275094  0.070346422   -2.3929172    1.1178232   482116 
  582000    1.0134492   -2.3936595   -2.3936595   -1.2757776   0.06264139   -2.3936595    1.1178819   482116 
  583000    1.0130372   -2.3917368   -2.3917368   -1.2743093  0.079810418   -2.3917368    1.1174274   482116 
  584000    1.0133118   -2.3920929   -2.3920929   -1.2743626  0.067829179   -2.3920929    1.1177303   482116 
  585000    1.0119053   -2.3907065   -2.3907065   -1.2745277  0.066778475   -2.3907065    1.1161789   482116 
  586000    1.0141829   -2.3931226   -2.3931226   -1.2744315  0.066597807   -2.3931226    1.1186911   482116 
  587000    1.0126032   -2.3906967   -2.3906967    -1.273748  0.072738217   -2.3906967    1.1169487   482116 
  588000    1.0130277    -2.391628    -2.391628    -1.274211  0.074854013    -2.391628     1.117417   482116 
  589000    1.0130698   -2.3914177   -2.3914177   -1.2739543  0.062828493   -2.3914177    1.1174634   482116 
  590000    1.0121313   -2.3899487   -2.3899487   -1.2735205  0.075805386   -2.3899487    1.1164282   482116 
  591000    1.0117463   -2.3896516   -2.3896516    -1.273648  0.071723292   -2.3896516    1.1160035   482116 
  592000    1.0128066   -2.3903995   -2.3903995   -1.2732265  0.069147588   -2.3903995     1.117173   482116 
  593000    1.0126544   -2.3905787   -2.3905787   -1.2735735  0.075764968   -2.3905787    1.1170052   482116 
  594000    1.0098887   -2.3878351   -2.3878351   -1.2738805  0.068924531   -2.3878351    1.1139545   482116 
  595000    1.0110792   -2.3882128   -2.3882128   -1.2729452  0.062851801   -2.3882128    1.1152676   482116 
  596000    1.0116197   -2.3895374   -2.3895374   -1.2736736  0.064264679   -2.3895374    1.1158639   482116 
  597000    1.0106408   -2.3872877   -2.3872877   -1.2725036  0.071087332   -2.3872877    1.1147841   482116 
  598000    1.0114993   -2.3875132   -2.3875132   -1.2717822  0.065947272   -2.3875132     1.115731   482116 
  599000    1.0111218   -2.3873675   -2.3873675   -1.2720528  0.074255828   -2.3873675    1.1153147   482116 
  600000    1.0138225   -2.3897188   -2.3897188   -1.2714252  0.066431964   -2.3897188    1.1182936   482116 
  601000    1.0124863   -2.3872755   -2.3872755   -1.2704557  0.072310255   -2.3872755    1.1168198   482116 
  602000    1.0138788   -2.3895355   -2.3895355   -1.2711797  0.068785282   -2.3895355    1.1183558   482116 
  603000    1.0109112   -2.3867615   -2.3867615   -1.2716791  0.067305059   -2.3867615    1.1150824   482116 
  604000    1.0120149   -2.3889194   -2.3889194   -1.2726196  0.071893031   -2.3889194    1.1162997   482116 
  605000    1.0106777   -2.3874578   -2.3874578   -1.2726331  0.074950236   -2.3874578    1.1148247   482116 
  606000    1.0102294   -2.3871273   -2.3871273    -1.272797  0.066970381   -2.3871273    1.1143303   482116 
  607000    1.0115643    -2.388875    -2.388875   -1.2730722   0.06472908    -2.388875    1.1158027   482116 
  608000     1.012732   -2.3898481   -2.3898481   -1.2727573  0.065800163   -2.3898481    1.1170908   482116 
  609000    1.0129073   -2.3897236   -2.3897236   -1.2724395  0.063485913   -2.3897236    1.1172841   482116 
  610000    1.0127843    -2.389827    -2.389827   -1.2726786  0.070965721    -2.389827    1.1171484   482116 
  611000    1.0134833   -2.3903208   -2.3903208   -1.2724013  0.063018883   -2.3903208    1.1179195   482116 
  612000    1.0122626   -2.3895443   -2.3895443   -1.2729714  0.072215301   -2.3895443     1.116573   482116 
  613000    1.0126242   -2.3899507   -2.3899507   -1.2729789  0.076069394   -2.3899507    1.1169719   482116 
  614000     1.011077   -2.3890472   -2.3890472    -1.273782   0.07010249   -2.3890472    1.1152653   482116 
  615000    1.0127472   -2.3905084   -2.3905084   -1.2734008  0.072401606   -2.3905084    1.1171076   482116 
  616000    1.0111908    -2.389846    -2.389846   -1.2744553  0.067230832    -2.389846    1.1153907   482116 
  617000    1.0111819   -2.3899591   -2.3899591   -1.2745781  0.062560471   -2.3899591     1.115381   482116 
  618000    1.0125563    -2.391352    -2.391352   -1.2744551  0.066625699    -2.391352    1.1168969   482116 
  619000    1.0113661   -2.3901669   -2.3901669   -1.2745827  0.066500008   -2.3901669    1.1155841   482116 
  620000    1.0110902   -2.3910022   -2.3910022   -1.2757225  0.073632438   -2.3910022    1.1152797   482116 
  621000    1.0120419   -2.3921766   -2.3921766   -1.2758471  0.063831038   -2.3921766    1.1163295   482116 
  622000    1.0129112   -2.3925371   -2.3925371   -1.2752487  0.059660403   -2.3925371    1.1172885   482116 
  623000    1.0125712   -2.3922039   -2.3922039   -1.2752905  0.059082843   -2.3922039    1.1169134   482116 
  624000    1.0120121   -2.3927724   -2.3927724   -1.2764758   0.06770474   -2.3927724    1.1162967   482116 
  625000    1.0104752   -2.3910249   -2.3910249   -1.2764235  0.069512027   -2.3910249    1.1146014   482116 
  626000    1.0111932   -2.3924052   -2.3924052   -1.2770118   0.06635796   -2.3924052    1.1153934   482116 
  627000     1.011796   -2.3911379   -2.3911379   -1.2750797  0.067418092   -2.3911379    1.1160583   482116 
  628000    1.0142749   -2.3936313   -2.3936313   -1.2748387  0.065730456   -2.3936313    1.1187926   482116 
  629000    1.0163174   -2.3953424   -2.3953424   -1.2742967  0.070547267   -2.3953424    1.1210456   482116 
  630000    1.0126959   -2.3920338   -2.3920338   -1.2749829  0.074026336   -2.3920338     1.117051   482116 
  631000    1.0132591   -2.3922692   -2.3922692    -1.274597  0.068976012   -2.3922692    1.1176722   482116 
  632000    1.0135725   -2.3932556   -2.3932556   -1.2752377  0.068673963   -2.3932556    1.1180179   482116 
  633000     1.013959   -2.3939141   -2.3939141   -1.2754699  0.065173546   -2.3939141    1.1184442   482116 
  634000    1.0142091   -2.3939721   -2.3939721   -1.2752521  0.067361868   -2.3939721      1.11872   482116 
  635000    1.0112688   -2.3921046   -2.3921046   -1.2766278  0.071948355   -2.3921046    1.1154768   482116 
  636000    1.0117601   -2.3932641   -2.3932641   -1.2772454  0.058444823   -2.3932641    1.1160187   482116 
  637000    1.0120316   -2.3929031   -2.3929031   -1.2765849  0.073050603   -2.3929031    1.1163182   482116 
  638000    1.0099187   -2.3913443   -2.3913443   -1.2773567    0.0609645   -2.3913443    1.1139876   482116 
  639000    1.0103177   -2.3911408   -2.3911408   -1.2767131  0.065932746   -2.3911408    1.1144277   482116 
  640000    1.0115874    -2.391517    -2.391517   -1.2756887  0.069506826    -2.391517    1.1158283   482116 
  641000    1.0129349   -2.3934104   -2.3934104   -1.2760958  0.066138053   -2.3934104    1.1173146   482116 
  642000    1.0133634   -2.3931235   -2.3931235   -1.2753363  0.063565976   -2.3931235    1.1177872   482116 
  643000    1.0135332   -2.3939836   -2.3939836   -1.2760091  0.071826657   -2.3939836    1.1179745   482116 
  644000    1.0121323   -2.3920097   -2.3920097   -1.2755804  0.071297704   -2.3920097    1.1164292   482116 
[...]
 9832000      1.00623   -2.4322154   -2.4322154   -1.3222967  0.062669808   -2.4322154    1.1099187   482116 
 9833000    1.0065499   -2.4324595   -2.4324595    -1.322188  0.061830498   -2.4324595    1.1102716   482116 
 9834000    1.0069937   -2.4329931   -2.4329931   -1.3222319  0.068738129   -2.4329931    1.1107612   482116 
 9835000    1.0077295   -2.4324577   -2.4324577   -1.3208849  0.072087811   -2.4324577    1.1115728   482116 
 9836000    1.0069022   -2.4311321   -2.4311321   -1.3204719  0.067667167   -2.4311321    1.1106602   482116 
 9837000    1.0076963   -2.4320589   -2.4320589   -1.3205227  0.069968192   -2.4320589    1.1115362   482116 
 9838000    1.0076665   -2.4314363   -2.4314363   -1.3199329  0.073482605   -2.4314363    1.1115033   482116 
 9839000    1.0088979   -2.4331635   -2.4331635   -1.3203019  0.072677293   -2.4331635    1.1128616   482116 
 9840000    1.0094392   -2.4339506   -2.4339506    -1.320492  0.073465242   -2.4339506    1.1134586   482116 
 9841000    1.0102473   -2.4348956   -2.4348956   -1.3205455  0.064137124   -2.4348956      1.11435   482116 
 9842000     1.009654   -2.4339822   -2.4339822   -1.3202866  0.068784547   -2.4339822    1.1136956   482116 
 9843000      1.00717   -2.4315134   -2.4315134   -1.3205577  0.069916482   -2.4315134    1.1109557   482116 
 9844000    1.0076904   -2.4321527   -2.4321527   -1.3206231  0.071405025   -2.4321527    1.1115296   482116 
 9845000    1.0076139   -2.4319514   -2.4319514   -1.3205061  0.066015667   -2.4319514    1.1114453   482116 
 9846000    1.0075483   -2.4326001   -2.4326001   -1.3212272  0.071770803   -2.4326001    1.1113729   482116 
 9847000    1.0060044   -2.4314183   -2.4314183   -1.3217485  0.069965234   -2.4314183    1.1096699   482116 
 9848000    1.0064173   -2.4307187   -2.4307187   -1.3205933  0.060638708   -2.4307187    1.1101254   482116 
 9849000    1.0056529   -2.4299313   -2.4299313   -1.3206492  0.070025614   -2.4299313    1.1092821   482116 
 9850000    1.0080728   -2.4321646   -2.4321646   -1.3202131  0.066826875   -2.4321646    1.1119515   482116 
 9851000    1.0069447    -2.430982    -2.430982   -1.3202749  0.066748042    -2.430982    1.1107071   482116 
 9852000    1.0081041   -2.4314093   -2.4314093   -1.3194233  0.072850085   -2.4314093     1.111986   482116 
 9853000    1.0068454   -2.4307113   -2.4307113   -1.3201137  0.069172928   -2.4307113    1.1105976   482116 
 9854000    1.0074375   -2.4320427   -2.4320427    -1.320792  0.064798625   -2.4320427    1.1112507   482116 
 9855000    1.0064114   -2.4305075   -2.4305075   -1.3203887  0.069017731   -2.4305075    1.1101188   482116 
 9856000    1.0075688   -2.4310953   -2.4310953   -1.3196999  0.059045758   -2.4310953    1.1113955   482116 
 9857000    1.0069934   -2.4304199   -2.4304199   -1.3196591  0.070171776   -2.4304199    1.1107609   482116 
 9858000    1.0071259   -2.4315662   -2.4315662   -1.3206592   0.07064012   -2.4315662     1.110907   482116 
 9859000    1.0062705   -2.4292219   -2.4292219   -1.3192585  0.067896299   -2.4292219    1.1099634   482116 
 9860000    1.0065745   -2.4305925   -2.4305925   -1.3202937  0.064988796   -2.4305925    1.1102988   482116 
 9861000    1.0055524   -2.4296547   -2.4296547   -1.3204834  0.066297387   -2.4296547    1.1091713   482116 
 9862000    1.0054846   -2.4303776   -2.4303776   -1.3212811  0.068603439   -2.4303776    1.1090965   482116 
 9863000    1.0052909   -2.4310297   -2.4310297   -1.3221468  0.065684209   -2.4310297    1.1088829   482116 
 9864000    1.0050132   -2.4314787   -2.4314787   -1.3229022  0.062253215   -2.4314787    1.1085765   482116 
 9865000    1.0048119   -2.4312021   -2.4312021   -1.3228476  0.065233525   -2.4312021    1.1083545   482116 
 9866000    1.0050845   -2.4317571   -2.4317571   -1.3231019  0.059186843   -2.4317571    1.1086552   482116 
 9867000    1.0065028   -2.4327099   -2.4327099   -1.3224903  0.063240998   -2.4327099    1.1102197   482116 
 9868000    1.0061787   -2.4319049   -2.4319049   -1.3220427  0.066596173   -2.4319049    1.1098622   482116 
 9869000    1.0064309   -2.4325621   -2.4325621   -1.3224217  0.067006026   -2.4325621    1.1101404   482116 
 9870000    1.0077689   -2.4337292   -2.4337292    -1.322113  0.067037474   -2.4337292    1.1116162   482116 
 9871000    1.0078944   -2.4334139   -2.4334139   -1.3216591  0.064441821   -2.4334139    1.1117547   482116 
 9872000    1.0070366   -2.4324311   -2.4324311   -1.3216227  0.062794089   -2.4324311    1.1108084   482116 
 9873000    1.0086739    -2.433123    -2.433123   -1.3205085  0.065883043    -2.433123    1.1126145   482116 
 9874000    1.0089789   -2.4322958   -2.4322958   -1.3193449  0.077213648   -2.4322958    1.1129509   482116 
 9875000    1.0099422   -2.4344668   -2.4344668   -1.3204532  0.074893866   -2.4344668    1.1140135   482116 
 9876000    1.0086083   -2.4325355   -2.4325355   -1.3199934  0.076544509   -2.4325355    1.1125421   482116 
 9877000    1.0095969   -2.4340712   -2.4340712   -1.3204387  0.070713912   -2.4340712    1.1136326   482116 
 9878000    1.0104636    -2.434707    -2.434707   -1.3201184  0.075708155    -2.434707    1.1145886   482116 
 9879000    1.0086234   -2.4328937   -2.4328937   -1.3203349  0.071181613   -2.4328937    1.1125588   482116 
 9880000     1.007283    -2.431837    -2.431837   -1.3207567  0.078726789    -2.431837    1.1110802   482116 
 9881000    1.0087487   -2.4331402   -2.4331402   -1.3204432  0.067393291   -2.4331402     1.112697   482116 
 9882000    1.0067874   -2.4317849   -2.4317849   -1.3212513   0.06425755   -2.4317849    1.1105336   482116 
 9883000    1.0074354   -2.4316315   -2.4316315   -1.3203832    0.0731065   -2.4316315    1.1112484   482116 
 9884000    1.0065273   -2.4301534   -2.4301534   -1.3199067  0.070697435   -2.4301534    1.1102466   482116 
 9885000    1.0073907    -2.431321    -2.431321    -1.320122  0.068144069    -2.431321     1.111199   482116 
 9886000    1.0049863   -2.4282487   -2.4282487   -1.3197018  0.069504307   -2.4282487    1.1085469   482116 
 9887000    1.0074848   -2.4312308   -2.4312308    -1.319928   0.06060415   -2.4312308    1.1113028   482116 
 9888000     1.007125   -2.4299295   -2.4299295   -1.3190235  0.058337597   -2.4299295     1.110906   482116 
 9889000    1.0077342   -2.4308953   -2.4308953   -1.3193173    0.0706458   -2.4308953    1.1115779   482116 
 9890000    1.0095777   -2.4322547   -2.4322547   -1.3186433  0.058257867   -2.4322547    1.1136114   482116 
 9891000    1.0065263   -2.4297152   -2.4297152   -1.3194696  0.063794994   -2.4297152    1.1102456   482116 
 9892000    1.0086465   -2.4302463   -2.4302463    -1.317662   0.07086644   -2.4302463    1.1125843   482116 
 9893000    1.0063564   -2.4284233   -2.4284233   -1.3183651  0.075948712   -2.4284233    1.1100582   482116 
 9894000    1.0089186   -2.4321097   -2.4321097   -1.3192253  0.054482136   -2.4321097    1.1128844   482116 
 9895000     1.006574   -2.4298719   -2.4298719   -1.3195737  0.066987292   -2.4298719    1.1102982   482116 
 9896000    1.0085246   -2.4322017   -2.4322017   -1.3197519  0.066572111   -2.4322017    1.1124498   482116 
 9897000     1.008193   -2.4323337   -2.4323337   -1.3202496  0.065499777   -2.4323337     1.112084   482116 
 9898000    1.0061604   -2.4304012   -2.4304012   -1.3205592  0.070477053   -2.4304012     1.109842   482116 
 9899000    1.0058809   -2.4312267   -2.4312267    -1.321693  0.065562577   -2.4312267    1.1095337   482116 
 9900000    1.0055996   -2.4298336   -2.4298336   -1.3206102  0.070189661   -2.4298336    1.1092234   482116 
 9901000     1.006266   -2.4307861   -2.4307861   -1.3208276  0.071491382   -2.4307861    1.1099584   482116 
 9902000    1.0090134   -2.4317816   -2.4317816   -1.3187926  0.071767054   -2.4317816    1.1129889   482116 
 9903000    1.0078168   -2.4305331   -2.4305331    -1.318864  0.075155561   -2.4305331    1.1116691   482116 
 9904000    1.0071981    -2.430688    -2.430688   -1.3197015  0.066492527    -2.430688    1.1109866   482116 
 9905000    1.0072455   -2.4304507   -2.4304507   -1.3194119   0.06190568   -2.4304507    1.1110389   482116 
 9906000    1.0080644   -2.4318274   -2.4318274   -1.3198852  0.066252326   -2.4318274    1.1119421   482116 
 9907000    1.0070213   -2.4306997   -2.4306997   -1.3199081  0.066484034   -2.4306997    1.1107916   482116 
 9908000    1.0079544   -2.4325723   -2.4325723   -1.3207515  0.067982239   -2.4325723    1.1118209   482116 
 9909000    1.0093075   -2.4337758   -2.4337758   -1.3204624  0.075239921   -2.4337758    1.1133134   482116 
 9910000    1.0088692   -2.4331279   -2.4331279    -1.320298  0.070284672   -2.4331279    1.1128299   482116 
 9911000    1.0083091   -2.4326214   -2.4326214   -1.3204093   0.07447069   -2.4326214    1.1122121   482116 
 9912000    1.0068549   -2.4317356   -2.4317356   -1.3211276  0.076026089   -2.4317356     1.110608   482116 
 9913000    1.0092116   -2.4336829   -2.4336829   -1.3204753   0.07459958   -2.4336829    1.1132076   482116 
 9914000    1.0090996   -2.4338899   -2.4338899   -1.3208059  0.068225166   -2.4338899     1.113084   482116 
 9915000    1.0087347   -2.4340792   -2.4340792   -1.3213976  0.072792711   -2.4340792    1.1126816   482116 
 9916000    1.0071624   -2.4310907   -2.4310907   -1.3201435  0.079668645   -2.4310907    1.1109472   482116 
 9917000     1.008337   -2.4321002   -2.4321002   -1.3198573  0.080885281   -2.4321002    1.1122429   482116 
 9918000    1.0075223   -2.4300218   -2.4300218   -1.3186776  0.077216912   -2.4300218    1.1113442   482116 
 9919000    1.0108577   -2.4348807   -2.4348807   -1.3198573   0.06293068   -2.4348807    1.1150234   482116 
 9920000    1.0068899   -2.4318019   -2.4318019   -1.3211552  0.069840371   -2.4318019    1.1106466   482116 
 9921000    1.0083286   -2.4330823   -2.4330823   -1.3208487  0.070353855   -2.4330823    1.1122336   482116 
 9922000    1.0062215   -2.4327221   -2.4327221   -1.3228128  0.064615545   -2.4327221    1.1099093   482116 
 9923000    1.0067211   -2.4325347   -2.4325347   -1.3220742  0.056800487   -2.4325347    1.1104605   482116 
 9924000    1.0047682   -2.4310086   -2.4310086   -1.3227023  0.067523122   -2.4310086    1.1083063   482116 
 9925000    1.0070642   -2.4330644   -2.4330644   -1.3222255  0.055525314   -2.4330644    1.1108389   482116 
 9926000    1.0064297   -2.4325344   -2.4325344   -1.3223953  0.069420053   -2.4325344     1.110139   482116 
 9927000    1.0058511   -2.4317213   -2.4317213   -1.3222205   0.06580798   -2.4317213    1.1095009   482116 
 9928000    1.0071193   -2.4334164   -2.4334164   -1.3225166  0.066926701   -2.4334164    1.1108997   482116 
 9929000    1.0055466   -2.4313598   -2.4313598   -1.3221948  0.072954506   -2.4313598    1.1091649   482116 
 9930000    1.0059787   -2.4298465   -2.4298465   -1.3202049  0.067168334   -2.4298465    1.1096416   482116 
 9931000    1.0066332    -2.430561    -2.430561   -1.3201975  0.068217615    -2.430561    1.1103635   482116 
 9932000    1.0082124   -2.4311955   -2.4311955     -1.31909  0.067964299   -2.4311955    1.1121055   482116 
 9933000    1.0086024   -2.4319164   -2.4319164   -1.3193807  0.065266592   -2.4319164    1.1125357   482116 
 9934000    1.0088542   -2.4330056   -2.4330056   -1.3201922  0.067741007   -2.4330056    1.1128134   482116 
 9935000    1.0074214   -2.4304938   -2.4304938   -1.3192608  0.065655123   -2.4304938    1.1112329   482116 
 9936000    1.0070571   -2.4312665   -2.4312665   -1.3204354  0.073659391   -2.4312665     1.110831   482116 
 9937000    1.0080517   -2.4317348   -2.4317348   -1.3198066  0.072472329   -2.4317348    1.1119282   482116 
 9938000    1.0084529   -2.4322965   -2.4322965   -1.3199258  0.065145392   -2.4322965    1.1123708   482116 
 9939000    1.0071437    -2.431036    -2.431036   -1.3201093  0.070342192    -2.431036    1.1109266   482116 
 9940000    1.0064668   -2.4305696   -2.4305696   -1.3203897  0.077161693   -2.4305696      1.11018   482116 
 9941000    1.0050038    -2.429223    -2.429223   -1.3206567  0.065506671    -2.429223    1.1085662   482116 
 9942000     1.008464   -2.4325383   -2.4325383   -1.3201553  0.063272303   -2.4325383     1.112383   482116 
 9943000     1.006647   -2.4321233   -2.4321233   -1.3217446   0.06516003   -2.4321233    1.1103787   482116 
 9944000    1.0065634   -2.4303993   -2.4303993   -1.3201127   0.06504555   -2.4303993    1.1102865   482116 
 9945000    1.0034883   -2.4283308   -2.4283308   -1.3214363   0.07116518   -2.4283308    1.1068946   482116 
 9946000    1.0046033   -2.4294823   -2.4294823   -1.3213578  0.064662596   -2.4294823    1.1081245   482116 
 9947000    1.0061196   -2.4300745   -2.4300745   -1.3202775   0.06674521   -2.4300745     1.109797   482116 
 9948000    1.0062573   -2.4307379   -2.4307379   -1.3207891   0.06820438   -2.4307379    1.1099488   482116 
 9949000    1.0063722   -2.4305344   -2.4305344   -1.3204589  0.062811854   -2.4305344    1.1100756   482116 
 9950000    1.0090499   -2.4331022   -2.4331022    -1.320073  0.079232751   -2.4331022    1.1130292   482116 
 9951000    1.0074093   -2.4306663   -2.4306663   -1.3194468  0.068883568   -2.4306663    1.1112195   482116 
 9952000    1.0063794   -2.4303331   -2.4303331   -1.3202496  0.070681688   -2.4303331    1.1100835   482116 
 9953000     1.007485   -2.4316083   -2.4316083   -1.3203053  0.076708896   -2.4316083     1.111303   482116 
 9954000    1.0081327   -2.4326928   -2.4326928   -1.3206753  0.062322594   -2.4326928    1.1120175   482116 
 9955000    1.0042934   -2.4288412   -2.4288412   -1.3210586  0.068809599   -2.4288412    1.1077826   482116 
 9956000    1.0064375   -2.4310126   -2.4310126    -1.320865  0.060348775   -2.4310126    1.1101476   482116 
 9957000     1.005391   -2.4296172   -2.4296172    -1.320624  0.063451956   -2.4296172    1.1089933   482116 
 9958000    1.0041733   -2.4298297   -2.4298297   -1.3221796  0.062983155   -2.4298297    1.1076501   482116 
 9959000    1.0043674   -2.4298169   -2.4298169   -1.3219527  0.072484257   -2.4298169    1.1078642   482116 
 9960000     1.005373   -2.4312085   -2.4312085    -1.322235   0.05846668   -2.4312085    1.1089735   482116 
 9961000    1.0060228   -2.4314905   -2.4314905   -1.3218003  0.074714903   -2.4314905    1.1096902   482116 
 9962000    1.0047576   -2.4305806   -2.4305806   -1.3222859  0.067635964   -2.4305806    1.1082947   482116 
 9963000    1.0065345   -2.4325876   -2.4325876    -1.322333   0.06954398   -2.4325876    1.1102546   482116 
 9964000    1.0055705   -2.4314973   -2.4314973    -1.322306  0.068270218   -2.4314973    1.1091913   482116 
 9965000    1.0062153   -2.4313016   -2.4313016    -1.321399  0.068687209   -2.4313016    1.1099026   482116 
 9966000    1.0059183   -2.4323853   -2.4323853   -1.3228104   0.07076337   -2.4323853    1.1095749   482116 
 9967000    1.0071768   -2.4335515   -2.4335515   -1.3225884   0.06907687   -2.4335515    1.1109631   482116 
 9968000    1.0084912   -2.4341702   -2.4341702   -1.3217573  0.073347492   -2.4341702    1.1124129   482116 
 9969000    1.0059372    -2.432243    -2.432243   -1.3226472  0.072155448    -2.432243    1.1095958   482116 
 9970000    1.0079108   -2.4350801   -2.4350801   -1.3233073  0.069215019   -2.4350801    1.1117728   482116 
 9971000    1.0057121   -2.4332588   -2.4332588   -1.3239112  0.073186149   -2.4332588    1.1093475   482116 
 9972000    1.0089052   -2.4345341   -2.4345341   -1.3216645  0.074603751   -2.4345341    1.1128697   482116 
 9973000    1.0077928   -2.4335844   -2.4335844   -1.3219417  0.063008791   -2.4335844    1.1116426   482116 
 9974000    1.0064005   -2.4327677   -2.4327677   -1.3226608  0.073290728   -2.4327677    1.1101069   482116 
 9975000    1.0062377   -2.4329913   -2.4329913    -1.323064  0.069738562   -2.4329913    1.1099272   482116 
 9976000    1.0055176   -2.4329712   -2.4329712   -1.3238382  0.067305432   -2.4329712     1.109133   482116 
 9977000    1.0052367    -2.433268    -2.433268   -1.3244449  0.064725169    -2.433268    1.1088231   482116 
 9978000    1.0033016   -2.4317284   -2.4317284   -1.3250398  0.072052568   -2.4317284    1.1066887   482116 
 9979000    1.0056489    -2.433511    -2.433511   -1.3242332  0.064124149    -2.433511    1.1092778   482116 
 9980000    1.0070172   -2.4349981   -2.4349981    -1.324211  0.064878006   -2.4349981    1.1107871   482116 
 9981000    1.0072956   -2.4350342   -2.4350342     -1.32394  0.070406882   -2.4350342    1.1110941   482116 
 9982000    1.0044545   -2.4315609   -2.4315609   -1.3236006  0.062939756   -2.4315609    1.1079603   482116 
 9983000    1.0072447   -2.4347635   -2.4347635   -1.3237255  0.052921963   -2.4347635     1.111038   482116 
 9984000    1.0053922   -2.4337317   -2.4337317   -1.3247371  0.057383191   -2.4337317    1.1089946   482116 
 9985000    1.0055444   -2.4336213   -2.4336213   -1.3244587  0.065962282   -2.4336213    1.1091625   482116 
 9986000     1.005844   -2.4333372   -2.4333372   -1.3238442  0.070462133   -2.4333372     1.109493   482116 
 9987000    1.0042781   -2.4316326   -2.4316326   -1.3238668  0.073829121   -2.4316326    1.1077658   482116 
 9988000    1.0065256   -2.4346724   -2.4346724   -1.3244276   0.06520474   -2.4346724    1.1102448   482116 
 9989000    1.0054978   -2.4337632   -2.4337632   -1.3246521  0.060858394   -2.4337632    1.1091111   482116 
 9990000    1.0048432   -2.4330755   -2.4330755   -1.3246864  0.067603143   -2.4330755     1.108389   482116 
 9991000    1.0066996   -2.4339963   -2.4339963   -1.3235596  0.065273284   -2.4339963    1.1104367   482116 
 9992000    1.0054738   -2.4325289   -2.4325289   -1.3234443  0.070470662   -2.4325289    1.1090846   482116 
 9993000    1.0073885   -2.4338981   -2.4338981   -1.3227015  0.059495459   -2.4338981    1.1111966   482116 
 9994000    1.0072688   -2.4343683   -2.4343683   -1.3233037  0.069720954   -2.4343683    1.1110646   482116 
 9995000    1.0051869   -2.4325235   -2.4325235   -1.3237553  0.070182674   -2.4325235    1.1087682   482116 
 9996000    1.0057087   -2.4327713   -2.4327713   -1.3234276  0.069182873   -2.4327713    1.1093437   482116 
 9997000    1.0068851     -2.43374     -2.43374   -1.3230986  0.069986957     -2.43374    1.1106414   482116 
 9998000    1.0053226   -2.4323577   -2.4323577   -1.3234399  0.070405204   -2.4323577    1.1089178   482116 
 9999000    1.0061086   -2.4334115   -2.4334115   -1.3236266  0.071915333   -2.4334115    1.1097849   482116 
10000000    1.0061999   -2.4327648   -2.4327648   -1.3228793  0.066020249   -2.4327648    1.1098855   482116 
Loop time of 86739.7 on 64 procs for 10000000 steps with 482116 atoms

Performance: 49804.204 tau/day, 115.288 timesteps/s
98.8% CPU use with 64 MPI tasks x 1 OpenMP threads

MPI task timing breakdown:
Section |  min time  |  avg time  |  max time  |%varavg|  %CPU | %total
-----------------------------------------------------------------------
Pair    | 12852      | 21394      | 33441      |3017.6 |  98.5 | 24.66
Bond    | 4.0958     | 5.5592     | 8.5424     |  57.0 | 100.0 |  0.01
Neigh   | 8068.4     | 15934      | 28245      |2968.8 |  99.9 | 18.37
Comm    | 16297      | 38325      | 44864      |2945.9 |  98.3 | 44.18
Output  | 409.34     | 412.64     | 418.66     |  15.2 |  98.5 |  0.48
Modify  | 6913.3     | 9851.1     | 19843      |4066.0 |  99.0 | 11.36
Other   |            | 818.3      |            |       |       |  0.94

Nlocal:        7533.06 ave        8961 max        6418 min
Histogram: 2 5 6 15 17 6 6 4 2 1
Nghost:        11866.5 ave       17329 max        5186 min
Histogram: 8 2 4 2 7 6 12 12 5 6
Neighs:       159040.0 ave      221402 max       76690 min
Histogram: 2 3 2 4 11 17 10 5 2 8

Total # of neighbors = 10178556
Ave neighs/atom = 21.112255
Ave special neighs/atom = 0.0000000
Neighbor list builds = 1000000
Dangerous builds = 990000

Total wall time: 24:06:00
