LAMMPS (24 Dec 2020)
OMP_NUM_THREADS environment is not set. Defaulting to 1 thread. (src/comm.cpp:94)
  using 1 OpenMP thread(s) per MPI task
#Read the equilibrated lj fluid and add nanocubes

units           lj
atom_style      full
dimension       3
boundary        p p f
pair_style      lj/cut/opt 2.5

variable        sigma           equal 1.0
variable        epsilon         equal 1.0
read_restart	restart.dat.10000000
Reading restart file ...
  restart file = 24 Dec 2020, LAMMPS = 24 Dec 2020
  restoring atom style full from restart
  orthogonal box = (0.0000000 0.0000000 0.0000000) to (80.000000 80.000000 160.00000)
  6 by 4 by 12 MPI processor grid
  restoring pair style lj/cut/opt from restart
  476190 atoms
Finding 1-2 1-3 1-4 neighbors ...
  special bond factors lj:    0        0        0       
  special bond factors coul:  0        0        0       
     0 = max # of 1-2 neighbors
     0 = max # of 1-3 neighbors
     0 = max # of 1-4 neighbors
     1 = max # of special neighbors
  special bonds CPU = 2.327 seconds
  read_restart CPU = 2.851 seconds

group		solvent type 1
366462 atoms in group solvent
group 		hull  type 2
42816 atoms in group hull
group 		dummy type 3
66912 atoms in group dummy

neighbor      0.4 bin
neigh_modify  exclude molecule/intra cubes


pair_modify   shift yes

pair_coeff    1 1 1.0 1.0 #solvent
pair_coeff    2 2 1.0 1.0 1.12 #np
pair_coeff    3 3 0.0 0.0 0.0 #dummy
pair_coeff    2 3 0.0 0.0 0.0 #np dummy
pair_coeff    1 2 ${sol} 1.0  #np solvent
pair_coeff    1 2 0.7 1.0  
pair_coeff    1 3 0.0 0.0 0.0 #dummy solvent


comm_modify   mode multi cutoff/multi 1 2.5 cutoff/multi 2 2.5 cutoff/multi 3 6.95

reset_timestep 	0

balance 	1.05 shift z 10 1.05
Balancing ...
Unused restart file global fix info:
  fix style: STORE, fix ID: msd_COMPUTE_STORE
Unused restart file peratom fix info:
  fix style: STORE, fix ID: bin1_COMPUTE_STORE
Neighbor list info ...
  update every 1 steps, delay 10 steps, check yes
  max neighbors/atom: 2000, page size: 100000
  master list distance cutoff = 2.9
  ghost atom cutoff = 6.95
  binsize = 1.45, bins = 56 56 111
  1 neighbor lists, perpetual/occasional/extra = 1 0 0
  (1) pair lj/cut/opt, perpetual
      attributes: half, newton on
      pair build: half/bin/newton
      stencil: half/bin/3d/newton
      bin: standard
 rebalancing time: 0.054 seconds
  iteration count = 4
  initial/final maximal load/proc = 2933.0000 2408.0000
  initial/final imbalance factor  = 1.7738802 1.4563599
  x cuts: 0.0000000 0.16666667 0.33333333 0.50000000 0.66666667 0.83333333 1.0000000
  y cuts: 0.0000000 0.25000000 0.50000000 0.75000000 1.0000000
  z cuts: 0.0000000 0.067708333 0.13020833 0.19270833 0.23958333 0.30208333 0.36458333 0.42708333 0.49479167 0.54687500 0.63020833 0.68229167 1.0000000

####################### WALLS ###########################

variable       epsilonWall equal 2*${epsilon}
variable       epsilonWall equal 2*1
variable       repulsive   equal   0.7147*${sigma}
variable       repulsive   equal   0.7147*1
variable       full	   equal   3*${sigma}
variable       full	   equal   3*1
region         lowWall block EDGE EDGE EDGE EDGE EDGE 2

fix            topWall all wall/lj93 zhi EDGE 	       ${epsilonWall} ${sigma} ${repulsive} units box
fix            topWall all wall/lj93 zhi EDGE 	       2 ${sigma} ${repulsive} units box
fix            topWall all wall/lj93 zhi EDGE 	       2 1 ${repulsive} units box
fix            topWall all wall/lj93 zhi EDGE 	       2 1 0.7147 units box
fix            lowSol solvent wall/lj93 zlo EDGE                ${epsilonWall} ${sigma} ${full} units box
fix            lowSol solvent wall/lj93 zlo EDGE                2 ${sigma} ${full} units box
fix            lowSol solvent wall/lj93 zlo EDGE                2 1 ${full} units box
fix            lowSol solvent wall/lj93 zlo EDGE                2 1 3 units box
fix 	       lowCub cubes wall/lj93 zlo EDGE                ${epsilonWall} ${sigma} ${repulsive} units box
fix 	       lowCub cubes wall/lj93 zlo EDGE                2 ${sigma} ${repulsive} units box
fix 	       lowCub cubes wall/lj93 zlo EDGE                2 1 ${repulsive} units box
fix 	       lowCub cubes wall/lj93 zlo EDGE                2 1 0.7147 units box


###################### COMPUTES ##########################

compute        bin1 solvent chunk/atom bin/1d z lower 1.0 units box


######################  FIXES ############################


fix             peclet solvent ave/chunk 10 10 10000 bin1 density/number norm                  none ave one file density.profile

fix              temp solvent ave/chunk 10 10 10000 bin1 temp norm                  none ave one file temp.profile

fix             1 cubes rigid/nve/small molecule
  create bodies CPU = 0.025 seconds
  96 rigid bodies with 109728 atoms
  6.9282032 = max distance from body owner to body atom

fix             2 solvent nve# temp ${temp} ${temp} 10


## Thermostat
region          regthermo block EDGE EDGE EDGE EDGE 0 15
group           thermo dynamic solvent region regthermo every 1000
dynamic group thermo defined
fix             3 thermo langevin ${temp} ${temp} 10 156453
fix             3 thermo langevin 1.0 ${temp} 10 156453
fix             3 thermo langevin 1.0 1.0 10 156453

## Evaporation
region          regevap block EDGE EDGE EDGE EDGE 140 EDGE
fix             4 solvent evaporate ${evap} 1 regevap 156415
fix             4 solvent evaporate 85 1 regevap 156415

#### Load balancing

fix             bal all balance 1000 1.05 shift z 10 1.05

############### Diagnostics and computes ###################

compute        	com cubes          rigid/local   1 mol x y z
compute        	quat cubes         rigid/local   1 mol quatw quati quatj quatk

compute 	cc2 cubes 	   chunk/atom 	 molecule
compute 	msd cubes 	   msd/chunk 	 cc2

fix 		msd all ave/time  1 1 10000 c_msd[*] file dump.msd ave one mode vector

dump            1 all custom 500000 dump.lammpstrj id mol type x y z
dump		cubetrj hull custom 500000 cubes.lammpstrj id mol type x y z
dump            com cubes local 10000 dump.*.xyz c_com[*]
dump	        xyz hull xyz 100000 cubes.xyz
dump            quat cubes      local 10000 dump.*.quat c_quat[*]
#dump		mol cubes molfile 10000 mol.xyz xyz


dump            2 all image 10000 image.*.png type type zoom 1.5 size 1280 720
dump_modify     2 pad 8
dump		image cubes image 10000 image_cubes.*.png type type zoom 1.5 size 1280 720
dump_modify	image pad 8
dump            3 all movie 5000 movie.avi type type zoom 1.5 size 1280 720
dump		4 cubes movie 5000 movie_cubes.avi type type size 1280 720


thermo          1000
thermo_style    custom step temp epair evdwl etotal press pe ke atoms

restart         1000000 restart.dat
timestep        0.005
timer           full
New timer settings: style=full  mode=nosync  timeout=off

run 		30000000
Per MPI rank memory allocation (min/avg/max) = 14.30 | 19.58 | 23.38 Mbytes
Step Temp E_pair E_vdwl TotEng Press PotEng KinEng Atoms 
       0    1.0054979   -2.4726432   -2.4726432   -1.3113352   0.07513051   -2.4726432     1.161308   476190 
    1000    1.0053719   -2.4717152   -2.4717152    -1.310526  0.068915332   -2.4717152    1.1611893   476179 
    2000    1.0062157   -2.4721151   -2.4721151   -1.3099221  0.067294797   -2.4721151    1.1621931   476167 
    3000    1.0061767    -2.470701    -2.470701   -1.3085237  0.071052835    -2.470701    1.1621773   476155 
    4000    1.0064948   -2.4730367   -2.4730367   -1.3104626  0.070399205   -2.4730367    1.1625741   476143 
    5000    1.0064233   -2.4725957   -2.4725957   -1.3100774  0.068599129   -2.4725957    1.1625183   476132 
    6000    1.0053105   -2.4708787   -2.4708787   -1.3096165  0.069402351   -2.4708787    1.1612622   476120 
    7000    1.0063384    -2.471834    -2.471834   -1.3093551  0.065522024    -2.471834    1.1624789   476108 
    8000    1.0044456   -2.4691224   -2.4691224   -1.3088008  0.068758254   -2.4691224    1.1603216   476096 
    9000    1.0049963   -2.4697614   -2.4697614   -1.3087768  0.065776419   -2.4697614    1.1609846   476085 
   10000    1.0053742   -2.4703208   -2.4703208   -1.3088704  0.059477294   -2.4703208    1.1614504   476073 
   11000    1.0053707    -2.468854    -2.468854   -1.3073784  0.068545137    -2.468854    1.1614757   476061 
   12000    1.0057228    -2.469767    -2.469767   -1.3078552  0.067620552    -2.469767    1.1619118   476049 
   13000    1.0019777   -2.4650819   -2.4650819   -1.3074701  0.074907062   -2.4650819    1.1576118   476038 
   14000    1.0046634   -2.4685619   -2.4685619    -1.307818  0.056717371   -2.4685619    1.1607439   476026 
   15000     1.003868    -2.467793    -2.467793   -1.3079388  0.059829591    -2.467793    1.1598542   476014 
   16000    1.0036609   -2.4685384   -2.4685384   -1.3088942  0.065170523   -2.4685384    1.1596441   476002 
   17000    1.0046284   -2.4693102   -2.4693102    -1.308519  0.061199788   -2.4693102    1.1607912   475990 
   18000    1.0054008   -2.4690078   -2.4690078   -1.3072972  0.066918624   -2.4690078    1.1617106   475979 
   19000    1.0054047   -2.4690942   -2.4690942   -1.3073498  0.064858793   -2.4690942    1.1617444   475967 
   20000    1.0034295   -2.4666349   -2.4666349   -1.3071436  0.062997032   -2.4666349    1.1594913   475955 
   21000    1.0045277   -2.4680946   -2.4680946   -1.3073051    0.0632406   -2.4680946    1.1607895   475943 
   22000    1.0044138   -2.4677259   -2.4677259   -1.3070412  0.073140901   -2.4677259    1.1606847   475932 
   23000    1.0059214   -2.4686327   -2.4686327   -1.3061765  0.064258626   -2.4686327    1.1624562   475920 
   24000    1.0058116   -2.4687634   -2.4687634   -1.3064048  0.062246989   -2.4687634    1.1623586   475908 
   25000    1.0050647   -2.4683129   -2.4683129   -1.3067882  0.071334758   -2.4683129    1.1615247   475896 
   26000    1.0036025   -2.4669021   -2.4669021   -1.3070403    0.0667351   -2.4669021    1.1598617   475885 
   27000    1.0033347   -2.4672994   -2.4672994   -1.3077179  0.065426415   -2.4672994    1.1595815   475873 
   28000    1.0035437   -2.4669669   -2.4669669   -1.3071146  0.063817302   -2.4669669    1.1598523   475861 
   29000    1.0041728   -2.4683724   -2.4683724   -1.3077638  0.069081647   -2.4683724    1.1606086   475849 
   30000    1.0032774   -2.4678985   -2.4678985    -1.308298  0.067322364   -2.4678985    1.1596005   475838 
   31000    1.0060264   -2.4696338   -2.4696338   -1.3068266  0.068895128   -2.4696338    1.1628071   475826 
   32000    1.0038082   -2.4684119   -2.4684119   -1.3081394  0.073571353   -2.4684119    1.1602725   475814 
   33000    1.0051823   -2.4705497   -2.4705497   -1.3086595  0.076790569   -2.4705497    1.1618902   475802 
   34000    1.0054912   -2.4701776   -2.4701776   -1.3079011  0.062854996   -2.4701776    1.1622765   475790 
   35000     1.005074   -2.4701112   -2.4701112   -1.3082901  0.071083148   -2.4701112    1.1618212   475779 
   36000    1.0044444   -2.4717398   -2.4717398   -1.3106172  0.059793116   -2.4717398    1.1611226   475767 
   37000    1.0036899    -2.470356    -2.470356   -1.3100764  0.073436428    -2.470356    1.1602797   475755 
   38000    1.0052533   -2.4718797   -2.4718797   -1.3097634  0.072149046   -2.4718797    1.1621163   475743 
   39000    1.0048792   -2.4716476   -2.4716476   -1.3099369  0.062312481   -2.4716476    1.1617107   475732 
   40000    1.0051322   -2.4720683   -2.4720683   -1.3100358  0.065761866   -2.4720683    1.1620325   475720 
   41000    1.0035359   -2.4713557   -2.4713557   -1.3111395  0.068902449   -2.4713557    1.1602163   475708 
   42000    1.0031712   -2.4710752   -2.4710752   -1.3112513  0.076135727   -2.4710752    1.1598239   475696 
   43000    1.0043288   -2.4723409   -2.4723409   -1.3111518  0.060304728   -2.4723409    1.1611891   475685 
   44000    1.0031016   -2.4708009   -2.4708009   -1.3110014  0.076462581   -2.4708009    1.1597995   475673 
   45000    1.0037739   -2.4729026   -2.4729026   -1.3122965  0.074236404   -2.4729026    1.1606061   475661 
   46000    1.0049396   -2.4743455   -2.4743455   -1.3123622  0.072446309   -2.4743455    1.1619833   475649 
   47000    1.0029117   -2.4719462   -2.4719462    -1.312281  0.077359709   -2.4719462    1.1596652   475638 
   48000    1.0036757   -2.4724206   -2.4724206   -1.3118426  0.062786506   -2.4724206     1.160578   475626 
   49000    1.0049792    -2.473326    -2.473326   -1.3112115  0.072667086    -2.473326    1.1621146   475614 
   50000    1.0040177   -2.4725553   -2.4725553   -1.3115232  0.070680102   -2.4725553     1.161032   475602 
   51000    1.0051742   -2.4736958   -2.4736958   -1.3112971   0.05649257   -2.4736958    1.1623987   475590 
   52000    1.0057104   -2.4749464   -2.4749464   -1.3119006   0.07749489   -2.4749464    1.1630457   475579 
   53000    1.0048857    -2.473886    -2.473886   -1.3117647  0.069396161    -2.473886    1.1621213   475567 
   54000    1.0048055   -2.4740185   -2.4740185   -1.3119606  0.072817269   -2.4740185    1.1620579   475555 
   55000    1.0034963   -2.4733579   -2.4733579   -1.3127848  0.062619682   -2.4733579    1.1605731   475543 
   56000    1.0048261   -2.4736399   -2.4736399    -1.311502  0.066478022   -2.4736399    1.1621379   475532 
   57000     1.004277   -2.4732519   -2.4732519   -1.3117198  0.067959954   -2.4732519    1.1615321   475520 
   58000    1.0033033   -2.4726651   -2.4726651   -1.3122298  0.068319523   -2.4726651    1.1604353   475508 
   59000    1.0038321   -2.4727876   -2.4727876   -1.3117114  0.069143731   -2.4727876    1.1610762   475496 
   60000    1.0034576   -2.4734854   -2.4734854   -1.3128155    0.0647841   -2.4734854    1.1606699   475485 
   61000    1.0024379   -2.4730095   -2.4730095   -1.3134898  0.069052647   -2.4730095    1.1595197   475473 
   62000    1.0042589   -2.4745804   -2.4745804   -1.3129251  0.065756196   -2.4745804    1.1616553   475461 
   63000    1.0040518   -2.4740619   -2.4740619   -1.3126168  0.072223189   -2.4740619    1.1614451   475449 
   64000    1.0042643   -2.4743578   -2.4743578     -1.31264  0.070444422   -2.4743578    1.1617178   475438 
   65000    1.0044555   -2.4741252   -2.4741252   -1.3121569  0.057417119   -2.4741252    1.1619683   475426 
   66000    1.0035243    -2.472533    -2.472533   -1.3116126  0.076414379    -2.472533    1.1609204   475414 
   67000    1.0031071   -2.4726229   -2.4726229   -1.3121558  0.060698008   -2.4726229     1.160467   475402 
   68000     1.002269   -2.4723288   -2.4723288   -1.3128021  0.072878458   -2.4723288    1.1595267   475390 
   69000    1.0010348   -2.4712183   -2.4712183   -1.3130926  0.071372409   -2.4712183    1.1581257   475379 
   70000    1.0021169   -2.4716317   -2.4716317   -1.3122248  0.066437917   -2.4716317    1.1594069   475367 
   71000    1.0042266   -2.4746077   -2.4746077   -1.3127307  0.069859867   -2.4746077     1.161877   475355 
   72000    1.0044451   -2.4738279   -2.4738279   -1.3116688   0.06916201   -2.4738279    1.1621591   475343 
   73000    1.0021864   -2.4709603   -2.4709603   -1.3113876  0.074037352   -2.4709603    1.1595727   475332 
   74000    1.0038628   -2.4723242   -2.4723242   -1.3107827  0.067342935   -2.4723242    1.1615416   475320 
   75000    1.0036703   -2.4727977   -2.4727977   -1.3114495  0.075936428   -2.4727977    1.1613482   475308 
   76000    1.0057599   -2.4753457   -2.4753457   -1.3115503  0.071179863   -2.4753457    1.1637955   475296 
   77000    1.0046808   -2.4718767   -2.4718767    -1.309303  0.067423055   -2.4718767    1.1625737   475285 
   78000    1.0049162   -2.4724678   -2.4724678   -1.3095923  0.075308725   -2.4724678    1.1628755   475273 
   79000     1.002807    -2.470573    -2.470573   -1.3101089  0.074138275    -2.470573     1.160464   475261 
   80000    1.0046809   -2.4724156   -2.4724156   -1.3097537  0.061367194   -2.4724156    1.1626619   475249 
   81000    1.0040412   -2.4726574   -2.4726574   -1.3107089  0.064948992   -2.4726574    1.1619485   475238 
   82000    1.0028108   -2.4712348   -2.4712348   -1.3106808  0.070758215   -2.4712348    1.1605539   475226 
   83000    1.0023245   -2.4696304   -2.4696304     -1.30961  0.070109645   -2.4696304    1.1600204   475214 
   84000    1.0035541   -2.4726188   -2.4726188    -1.311146  0.067713955   -2.4726188    1.1614728   475202 
   85000    1.0024659    -2.470852    -2.470852   -1.3106094  0.066398102    -2.470852    1.1602426   475190 
   86000    1.0033685   -2.4729442   -2.4729442   -1.3116301  0.060398866   -2.4729442    1.1613141   475179 
   87000    1.0021291   -2.4707812   -2.4707812   -1.3108722  0.064534701   -2.4707812     1.159909   475167 
   88000    1.0018218   -2.4706491   -2.4706491   -1.3110666  0.072344016   -2.4706491    1.1595825   475155 
   89000    1.0020858    -2.471099    -2.471099   -1.3111816   0.06678181    -2.471099    1.1599174   475143 
   90000    1.0022855   -2.4713944   -2.4713944    -1.311219  0.070904075   -2.4713944    1.1601754   475132 
   91000    1.0012938   -2.4708005   -2.4708005   -1.3117437  0.060698343   -2.4708005    1.1590568   475120 
   92000    1.0023129   -2.4708987   -2.4708987   -1.3106329  0.062320391   -2.4708987    1.1602658   475108 
   93000    1.0019988   -2.4700556   -2.4700556   -1.3101241  0.060651998   -2.4700556    1.1599315   475096 
   94000    1.0013919   -2.4692315   -2.4692315   -1.3099757  0.066089567   -2.4692315    1.1592558   475085 
   95000    1.0017856   -2.4699737   -2.4699737   -1.3102329  0.069576632   -2.4699737    1.1597409   475073 
   96000     1.002816   -2.4708417   -2.4708417   -1.3098787   0.06539897   -2.4708417     1.160963   475061 
   97000    1.0024819   -2.4693952   -2.4693952   -1.3087896  0.069144988   -2.4693952    1.1606056   475049 
   98000    1.0023222   -2.4697344   -2.4697344   -1.3092869  0.067676122   -2.4697344    1.1604475   475038 
   99000    1.0024968   -2.4702577   -2.4702577   -1.3095788  0.062452844   -2.4702577    1.1606789   475026 
  100000    1.0025847   -2.4713503   -2.4713503   -1.3105402  0.059317534   -2.4713503    1.1608101   475014 
  101000    1.0032991   -2.4712096   -2.4712096   -1.3095431  0.071263197   -2.4712096    1.1616665   475002 
  102000    1.0013533   -2.4695027   -2.4695027   -1.3100597  0.067728453   -2.4695027    1.1594429   474990 
  103000    1.0012677   -2.4690309   -2.4690309   -1.3096602  0.069492285   -2.4690309    1.1593706   474979 
  104000    1.0021619   -2.4696581   -2.4696581   -1.3092228  0.073787067   -2.4696581    1.1604353   474967 
  105000    1.0012369   -2.4698455   -2.4698455    -1.310452  0.062172967   -2.4698455    1.1593935   474955 
  106000     1.001877   -2.4710482   -2.4710482   -1.3108841  0.070778133   -2.4710482    1.1601641   474943 
  107000    1.0034934   -2.4723408   -2.4723408    -1.310278  0.063045465   -2.4723408    1.1620628   474932 
  108000    1.0034667   -2.4723042   -2.4723042    -1.310243  0.067484436   -2.4723042    1.1620612   474920 
  109000    1.0032008   -2.4725251   -2.4725251   -1.3107425  0.060522217   -2.4725251    1.1617826   474908 
  110000    1.0023755    -2.471247    -2.471247   -1.3103907  0.078224227    -2.471247    1.1608563   474896 
  111000    1.0026148   -2.4719452   -2.4719452    -1.310785  0.069603046   -2.4719452    1.1611602   474885 
  112000    1.0007418   -2.4716406   -2.4716406   -1.3126202  0.066956897   -2.4716406    1.1590204   474873 
  113000    1.0022093   -2.4724735   -2.4724735   -1.3117243  0.067403822   -2.4724735    1.1607493   474861 
  114000    1.0029253   -2.4739243   -2.4739243   -1.3123165  0.065858725   -2.4739243    1.1616079   474849 
  115000    1.0005632   -2.4716122   -2.4716122   -1.3127132  0.069992548   -2.4716122    1.1588989   474838 
  116000    1.0011257   -2.4722596   -2.4722596   -1.3126799  0.067351067   -2.4722596    1.1595797   474826 
  117000    1.0002056   -2.4712076   -2.4712076   -1.3126643  0.064692548   -2.4712076    1.1585433   474814 
  118000    1.0010776   -2.4719445   -2.4719445   -1.3123619  0.063176633   -2.4719445    1.1595826   474802 
  119000    1.0009021   -2.4727519   -2.4727519   -1.3133433  0.062582738   -2.4727519    1.1594087   474790 
  120000    1.0007819   -2.4720362   -2.4720362   -1.3127399  0.065673428   -2.4720362    1.1592963   474779 
  121000    1.0021192   -2.4732383   -2.4732383   -1.3123635  0.064902553   -2.4732383    1.1608748   474767 
  122000    1.0010853   -2.4722272   -2.4722272   -1.3125208  0.064697637   -2.4722272    1.1597064   474755 
  123000    1.0022951   -2.4733312   -2.4733312    -1.312194  0.074580238   -2.4733312    1.1611372   474743 
  124000    1.0013696   -2.4715194   -2.4715194   -1.3114274   0.07392489   -2.4715194    1.1600919   474732 
  125000    1.0020771    -2.472046    -2.472046    -1.311105  0.065724205    -2.472046    1.1609409   474720 
  126000     1.002026   -2.4715344   -2.4715344   -1.3106234  0.064722924   -2.4715344     1.160911   474708 
  127000    1.0014542   -2.4719423   -2.4719423   -1.3116644  0.065371206   -2.4719423    1.1602779   474696 
  128000   0.99942637   -2.4705175   -2.4705175   -1.3125622  0.070778609   -2.4705175    1.1579553   474685 
  129000    1.0009823   -2.4717142   -2.4717142   -1.3119268  0.071244463   -2.4717142    1.1597873   474673 
  130000    1.0020943   -2.4730912   -2.4730912   -1.3119861   0.06751159   -2.4730912    1.1611051   474661 
  131000    1.0020225   -2.4724631   -2.4724631   -1.3114118  0.063015753   -2.4724631    1.1610513   474649 
  132000    1.0016763   -2.4724323   -2.4724323   -1.3117552  0.070365084   -2.4724323    1.1606771   474638 
  133000    1.0004258   -2.4719428   -2.4719428   -1.3126855  0.063108285   -2.4719428    1.1592573   474626 
  134000   0.99967679   -2.4712777   -2.4712777    -1.312859   0.06527923   -2.4712777    1.1584187   474614 
  135000   0.99999176   -2.4709933   -2.4709933   -1.3121803  0.070187468   -2.4709933     1.158813   474602 
  136000    0.9991448   -2.4697384   -2.4697384   -1.3118776  0.064890872   -2.4697384    1.1578608   474590 
  137000   0.99963723   -2.4707062   -2.4707062   -1.3122479  0.066436068   -2.4707062    1.1584583   474579 
  138000   0.99980018   -2.4703198   -2.4703198   -1.3116433  0.069099812   -2.4703198    1.1586764   474567 
  139000   0.99819438   -2.4700677   -2.4700677    -1.313223   0.07263445   -2.4700677    1.1568447   474555 
  140000   0.99949977    -2.470074    -2.470074   -1.3116872  0.065751184    -2.470074    1.1583869   474543 
  141000    1.0014642   -2.4716559   -2.4716559   -1.3109654  0.069400652   -2.4716559    1.1606905   474532 
  142000   0.99897734   -2.4694547   -2.4694547   -1.3116172  0.069180641   -2.4694547    1.1578375   474520 
  143000    1.0014828   -2.4723501   -2.4723501   -1.3115793  0.066065726   -2.4723501    1.1607708   474508 
  144000   0.99967108   -2.4705935   -2.4705935   -1.3118933  0.068579923   -2.4705935    1.1587002   474496 
  145000    1.0011169   -2.4722823   -2.4722823   -1.3118794  0.065672998   -2.4722823    1.1604029   474485 
  146000   0.99849033   -2.4694411   -2.4694411   -1.3120534  0.061081882   -2.4694411    1.1573877   474473 
  147000   0.99954804   -2.4708239   -2.4708239   -1.3121809  0.068737838   -2.4708239     1.158643   474461 
  148000   0.99962129   -2.4708768   -2.4708768   -1.3121196  0.067902878   -2.4708768    1.1587572   474449 
  149000    1.0009269   -2.4721044   -2.4721044   -1.3118068  0.063397095   -2.4721044    1.1602976   474438 
  150000    1.0003211   -2.4715327   -2.4715327    -1.311908  0.066669661   -2.4715327    1.1596247   474426 
  151000    1.0014424   -2.4728955   -2.4728955   -1.3119416  0.064937075   -2.4728955    1.1609539   474414 
  152000    1.0019448   -2.4726211   -2.4726211   -1.3110554  0.068853711   -2.4726211    1.1615657   474402 
  153000    1.0016005   -2.4739569   -2.4739569    -1.312761  0.061835771   -2.4739569    1.1611959   474390 
  154000    1.0005235   -2.4712876   -2.4712876   -1.3113134  0.072447236   -2.4712876    1.1599742   474379 
  155000    1.0014505    -2.471987    -2.471987   -1.3109087  0.069276527    -2.471987    1.1610783   474367 
  156000    1.0012249   -2.4725436   -2.4725436   -1.3116975  0.067941901   -2.4725436    1.1608461   474355 
  157000   0.99922634   -2.4710575   -2.4710575   -1.3124992  0.063367624   -2.4710575    1.1585583   474343 
  158000   0.99748601   -2.4687486   -2.4687486   -1.3121814  0.070483964   -2.4687486    1.1565673   474332 
  159000    1.0004841   -2.4713977   -2.4713977   -1.3113248  0.069856797   -2.4713977    1.1600728   474320 
  160000    1.0008389   -2.4715709   -2.4715709   -1.3110573  0.061359205   -2.4715709    1.1605136   474308 
  161000    1.0007186   -2.4722705   -2.4722705    -1.311867  0.070410601   -2.4722705    1.1604035   474296 
  162000    1.0017539   -2.4729252   -2.4729252   -1.3112943  0.068869583   -2.4729252    1.1616309   474285 
  163000    1.0004789   -2.4722617   -2.4722617     -1.31208  0.071080987   -2.4722617    1.1601817   474273 
  164000    1.0001583    -2.470472    -2.470472   -1.3106327  0.068926507    -2.470472    1.1598393   474261 
  165000    1.0017419   -2.4718593   -2.4718593   -1.3101542   0.06109175   -2.4718593    1.1617051   474249 
  166000   0.99984973   -2.4706395   -2.4706395   -1.3111018   0.06761058   -2.4706395    1.1595377   474238 
  167000   0.99968627    -2.469926    -2.469926   -1.3105485  0.070376378    -2.469926    1.1593775   474226 
  168000     1.001158   -2.4714362   -2.4714362   -1.3103225  0.055951602   -2.4714362    1.1611137   474214 
  169000    1.0007814   -2.4707373   -2.4707373   -1.3100309  0.066884803   -2.4707373    1.1607063   474202 
  170000   0.99940437   -2.4704957   -2.4704957   -1.3113571  0.060604199   -2.4704957    1.1591386   474190 
  171000    0.9996657   -2.4705852   -2.4705852   -1.3111166    0.0510191   -2.4705852    1.1594686   474179 
  172000   0.99851512   -2.4697142   -2.4697142   -1.3115508  0.062160933   -2.4697142    1.1581634   474167 
  173000   0.99918797   -2.4705609   -2.4705609   -1.3115878  0.062793615   -2.4705609    1.1589731   474155 
  174000   0.99824223   -2.4694456   -2.4694456   -1.3115401  0.072194847   -2.4694456    1.1579054   474143 
  175000   0.99774964   -2.4691754   -2.4691754   -1.3118145  0.069678165   -2.4691754    1.1573609   474132 
  176000   0.99913678    -2.471002    -2.471002   -1.3120027  0.062540297    -2.471002    1.1589993   474120 
  177000   0.99957099   -2.4711528   -2.4711528   -1.3116204  0.069500207   -2.4711528    1.1595323   474108 
  178000   0.99957429   -2.4717325   -2.4717325   -1.3121669  0.056547386   -2.4717325    1.1595655   474096 
  179000   0.99944894   -2.4709454   -2.4709454   -1.3114984  0.069907447   -2.4709454     1.159447   474085 
  180000    1.0008928   -2.4723926   -2.4723926   -1.3112412  0.071119386   -2.4723926    1.1611514   474073 
  181000    1.0011841   -2.4736621   -2.4736621   -1.3121433  0.064521756   -2.4736621    1.1615188   474061 
  182000    1.0000484    -2.471847    -2.471847   -1.3116164  0.062438009    -2.471847    1.1602305   474049 
  183000   0.99928146   -2.4710839   -2.4710839   -1.3117163  0.066440046   -2.4710839    1.1593676   474038 
  184000    1.0019615   -2.4734759   -2.4734759   -1.3109695  0.066484834   -2.4734759    1.1625064   474026 
  185000    1.0002269   -2.4725217   -2.4725217   -1.3119983   0.06700968   -2.4725217    1.1605233   474014 
  186000    1.0003318   -2.4728852   -2.4728852   -1.3122108  0.063601404   -2.4728852    1.1606744   474002 
  187000   0.99870962    -2.470281    -2.470281   -1.3114595  0.069098524    -2.470281    1.1588215   473990 
  188000    0.9998552   -2.4713391   -2.4713391   -1.3111614  0.067308519   -2.4713391    1.1601777   473979 
  189000    1.0006291   -2.4730158   -2.4730158   -1.3119107  0.062544004   -2.4730158    1.1611051   473967 
  190000   0.99957418    -2.473536    -2.473536   -1.3136256  0.063199092    -2.473536    1.1599103   473955 
  191000    1.0009149   -2.4741634   -2.4741634   -1.3126679  0.061378371   -2.4741634    1.1614955   473943 
  192000   0.99997075   -2.4730539   -2.4730539    -1.312627  0.060645426   -2.4730539    1.1604268   473932 
  193000   0.99902964   -2.4721507   -2.4721507   -1.3127866  0.067802649   -2.4721507    1.1593641   473920 
  194000    1.0005571   -2.4738696   -2.4738696   -1.3127036  0.062685721   -2.4738696     1.161166   473908 
  195000   0.99843024   -2.4723083   -2.4723083   -1.3135812  0.071096383   -2.4723083    1.1587272   473896 
  196000   0.99895522   -2.4714465   -2.4714465   -1.3120831  0.069887229   -2.4714465    1.1593633   473885 
  197000    1.0006886   -2.4745333   -2.4745333   -1.3131289  0.063578665   -2.4745333    1.1614044   473873 
  198000   0.99965205   -2.4730043   -2.4730043   -1.3127735  0.063462135   -2.4730043    1.1602308   473861 
  199000     1.001014    -2.474476    -2.474476   -1.3126351  0.068041351    -2.474476    1.1618409   473849 
  200000    1.0008858   -2.4744716   -2.4744716   -1.3127525  0.073206689   -2.4744716    1.1617191   473838 
  201000    1.0004645   -2.4744217   -2.4744217   -1.3131622  0.073162217   -2.4744217    1.1612596   473826 
  202000   0.99755956   -2.4709558   -2.4709558   -1.3130387  0.070761624   -2.4709558     1.157917   473814 
  203000    1.0014031   -2.4750143   -2.4750143   -1.3126064  0.067756516   -2.4750143    1.1624079   473802 
  204000    1.0000194   -2.4738673   -2.4738673   -1.3130362  0.062569403   -2.4738673    1.1608311   473790 
  205000   0.99959275   -2.4746316   -2.4746316   -1.3142688  0.066365892   -2.4746316    1.1603628   473779 
  206000    1.0003129   -2.4757604   -2.4757604   -1.3145323  0.068739491   -2.4757604    1.1612281   473767 
  207000   0.99927944   -2.4748309   -2.4748309    -1.314773  0.064694878   -2.4748309    1.1600578   473755 
  208000   0.99894433   -2.4755676   -2.4755676   -1.3158694  0.065663841   -2.4755676    1.1596982   473743 
  209000   0.99784294   -2.4741849   -2.4741849   -1.3157385  0.064801715   -2.4741849    1.1584465   473732 
  210000   0.99848285   -2.4757108   -2.4757108   -1.3164921  0.066962916   -2.4757108    1.1592187   473720 
  211000   0.99704524   -2.4736275   -2.4736275   -1.3160485  0.066936344   -2.4736275     1.157579   473708 
  212000   0.99687485   -2.4738245   -2.4738245    -1.316414  0.064886323   -2.4738245    1.1574105   473696 
  213000   0.99751478   -2.4744399   -2.4744399   -1.3162595  0.070293702   -2.4744399    1.1581804   473685 
  214000   0.99814816   -2.4741506   -2.4741506   -1.3152055  0.065843541   -2.4741506    1.1589452   473673 
  215000   0.99842259   -2.4749036   -2.4749036   -1.3156104  0.065014248   -2.4749036    1.1592932   473661 
  216000   0.99772494   -2.4745659   -2.4745659   -1.3160535  0.063904836   -2.4745659    1.1585125   473649 
  217000   0.99953837   -2.4770565   -2.4770565   -1.3164115  0.062446993   -2.4770565    1.1606451   473638 
  218000   0.99890584    -2.475687    -2.475687    -1.315747   0.06519124    -2.475687      1.15994   473626 
  219000    0.9996449   -2.4765593   -2.4765593   -1.3157317  0.060831062   -2.4765593    1.1608276   473614 
  220000   0.99737191   -2.4755139   -2.4755139   -1.3172964  0.069544545   -2.4755139    1.1582175   473602 
  221000   0.99891373   -2.4777292   -2.4777292   -1.3176919  0.067271952   -2.4777292    1.1600373   473590 
  222000   0.99626304    -2.475065    -2.475065    -1.318079  0.072757627    -2.475065    1.1569859   473579 
  223000   0.99671852   -2.4756774   -2.4756774   -1.3181331  0.066035135   -2.4756774    1.1575442   473567 
  224000   0.99774907   -2.4769411   -2.4769411   -1.3181707  0.067362475   -2.4769411    1.1587704   473555 
  225000   0.99684901   -2.4765086   -2.4765086   -1.3187542  0.069965284   -2.4765086    1.1577545   473543 
  226000   0.99757205   -2.4772065   -2.4772065   -1.3185854  0.067153893   -2.4772065    1.1586211   473532 
  227000   0.99788529   -2.4767044   -2.4767044   -1.3176901  0.071131678   -2.4767044    1.1590143   473520 
  228000   0.99896572   -2.4771842   -2.4771842   -1.3168856  0.070319835   -2.4771842    1.1602986   473508 
  229000   0.99733848   -2.4749739   -2.4749739    -1.316536  0.074656993   -2.4749739    1.1584379   473496 
  230000   0.99955348   -2.4782906   -2.4782906   -1.3172529  0.066267517   -2.4782906    1.1610377   473485 
  231000   0.99717452   -2.4758148   -2.4758148    -1.317511   0.07136106   -2.4758148    1.1583037   473473 
  232000   0.99857442   -2.4765143   -2.4765143    -1.316555  0.067168159   -2.4765143    1.1599592   473461 
  233000   0.99813952   -2.4755269   -2.4755269   -1.3160434  0.075888838   -2.4755269    1.1594834   473449 
  234000   0.99597567   -2.4738963   -2.4738963   -1.3168996  0.071496389   -2.4738963    1.1569967   473438 
  235000   0.99651385   -2.4741567   -2.4741567   -1.3165055   0.06610702   -2.4741567    1.1576512   473426 
  236000   0.99741676   -2.4747994   -2.4747994   -1.3160699  0.064781512   -2.4747994    1.1587295   473414 
  237000    0.9965542   -2.4756333   -2.4756333   -1.3178765  0.066565728   -2.4756333    1.1577568   473402 
  238000   0.99509001   -2.4739203   -2.4739203   -1.3178353  0.055904949   -2.4739203    1.1560851   473390 
  239000    0.9957684   -2.4748914   -2.4748914   -1.3179913  0.072188707   -2.4748914    1.1569001   473379 
  240000   0.99554773    -2.474384    -2.474384    -1.317711  0.066330197    -2.474384     1.156673   473367 
  241000   0.99599621   -2.4738826   -2.4738826   -1.3166592  0.075505378   -2.4738826    1.1572234   473355 
  242000   0.99755137   -2.4760971   -2.4760971   -1.3170374  0.069295786   -2.4760971    1.1590597   473343 
  243000   0.99772521   -2.4742628   -2.4742628   -1.3149742   0.06484293   -2.4742628    1.1592886   473332 
  244000   0.99708761   -2.4737384   -2.4737384   -1.3151613  0.070598731   -2.4737384    1.1585772   473320 
  245000   0.99587057   -2.4726339   -2.4726339   -1.3154415  0.067764164   -2.4726339    1.1571924   473308 
  246000   0.99698645   -2.4732076   -2.4732076   -1.3146892  0.059373583   -2.4732076    1.1585184   473296 
  247000   0.99727964   -2.4741871   -2.4741871   -1.3153011  0.064251705   -2.4741871     1.158886   473285 
  248000   0.99624469   -2.4733601   -2.4733601   -1.3156475  0.061096163   -2.4733601    1.1577127   473273 
  249000    0.9949514   -2.4715202   -2.4715202   -1.3152811  0.066967329   -2.4715202    1.1562391   473261 
  250000   0.99479931   -2.4709481   -2.4709481   -1.3148564  0.059373331   -2.4709481    1.1560917   473249 
  251000   0.99631052   -2.4733756   -2.4733756   -1.3155007     0.062617   -2.4733756    1.1578748   473238 
  252000   0.99427609   -2.4712402   -2.4712402   -1.3157005  0.052867834   -2.4712402    1.1555398   473226 
  253000   0.99667391   -2.4729572   -2.4729572   -1.3146013  0.064343372   -2.4729572    1.1583559   473214 
  254000   0.99669417   -2.4733615   -2.4733615   -1.3149527  0.064707266   -2.4733615    1.1584088   473202 
  255000   0.99652458   -2.4730641   -2.4730641    -1.314823  0.067138985   -2.4730641    1.1582411   473190 
  256000   0.99697247   -2.4740115   -2.4740115   -1.3152229  0.064062673   -2.4740115    1.1587886   473179 
  257000   0.99622132   -2.4732718   -2.4732718   -1.3153269  0.070221046   -2.4732718    1.1579449   473167 
  258000    0.9974458   -2.4741837   -2.4741837   -1.3147861  0.071703867   -2.4741837    1.1593975   473155 
  259000   0.99863051   -2.4755086   -2.4755086   -1.3147046  0.071342097   -2.4755086     1.160804   473143 
  260000   0.99819809   -2.4746294   -2.4746294    -1.314301  0.060574262   -2.4746294    1.1603284   473132 
  261000   0.99822411   -2.4749028   -2.4749028   -1.3145148  0.073358588   -2.4749028    1.1603881   473120 
  262000   0.99779587   -2.4744013   -2.4744013   -1.3144817   0.06947185   -2.4744013    1.1599197   473108 
  263000   0.99881167   -2.4746002   -2.4746002   -1.3134702  0.068354223   -2.4746002      1.16113   473096 
  264000   0.99679153   -2.4741238   -2.4741238   -1.3153153  0.067457487   -2.4741238    1.1588085   473085 
  265000   0.99661893   -2.4742275   -2.4742275   -1.3155903  0.061627656   -2.4742275    1.1586372   473073 
  266000   0.99647567   -2.4743809   -2.4743809   -1.3158809  0.072443492   -2.4743809    1.1585001   473061 
  267000   0.99742468   -2.4759672   -2.4759672   -1.3163344  0.079954418   -2.4759672    1.1596328   473049 
  268000   0.99607196   -2.4750814   -2.4750814   -1.3169944  0.071381799   -2.4750814     1.158087   473038 
  269000   0.99648374   -2.4762006   -2.4762006   -1.3176054  0.066739049   -2.4762006    1.1585951   473026 
  270000   0.99434692   -2.4730521   -2.4730521   -1.3169121  0.066237452   -2.4730521      1.15614   473014 
  271000    0.9957831   -2.4747491   -2.4747491   -1.3169099  0.059080914   -2.4747491    1.1578393   473002 
  272000   0.99592856   -2.4755948   -2.4755948    -1.317557  0.073158941   -2.4755948    1.1580378   472990 
  273000   0.99534698    -2.473834    -2.473834   -1.3164455  0.070313097    -2.473834    1.1573885   472979 
  274000   0.99564594   -2.4746165   -2.4746165   -1.3168511  0.067859818   -2.4746165    1.1577655   472967 
  275000   0.99546852   -2.4740713   -2.4740713   -1.3164828  0.063985949   -2.4740713    1.1575885   472955 
  276000   0.99610786    -2.473843    -2.473843   -1.3154816  0.073297176    -2.473843    1.1583614   472943 
  277000   0.99539728   -2.4729305   -2.4729305   -1.3153685  0.067808397   -2.4729305     1.157562   472932 
  278000   0.99728877   -2.4751504   -2.4751504   -1.3153593  0.065146834   -2.4751504     1.159791   472920 
  279000   0.99759599   -2.4745167   -2.4745167    -1.314339  0.067575577   -2.4745167    1.1601778   472908 
  280000   0.99524812   -2.4733869   -2.4733869   -1.3159102  0.066886433   -2.4733869    1.1574766   472896 
  281000   0.99609082   -2.4735541   -2.4735541   -1.3150705  0.067921852   -2.4735541    1.1584836   472885 
  282000   0.99703789   -2.4745149   -2.4745149   -1.3149003  0.064314465   -2.4745149    1.1596145   472873 
  283000   0.99486153    -2.473062    -2.473062   -1.3159494  0.067588561    -2.473062    1.1571127   472861 
  284000   0.99383581   -2.4721817   -2.4721817   -1.3162327  0.063710375   -2.4721817     1.155949   472849 
  285000   0.99483878   -2.4725378   -2.4725378   -1.3153953  0.068857616   -2.4725378    1.1571425   472838 
  286000   0.99328952   -2.4706691   -2.4706691   -1.3152994  0.071430587   -2.4706691    1.1553698   472826 
  287000   0.99399653   -2.4719947   -2.4719947   -1.3157732  0.066844152   -2.4719947    1.1562215   472814 
  288000   0.99442892   -2.4711852   -2.4711852   -1.3144314  0.065235723   -2.4711852    1.1567538   472802 
  289000   0.99622989   -2.4740153   -2.4740153   -1.3151371  0.063621499   -2.4740153    1.1588782   472790 
  290000   0.99427941   -2.4718782   -2.4718782    -1.315242  0.069162195   -2.4718782    1.1566362   472779 
  291000   0.99563785   -2.4727857   -2.4727857   -1.3145398  0.065077114   -2.4727857    1.1582458   472767 
  292000   0.99751723   -2.4750236   -2.4750236    -1.314562  0.060520011   -2.4750236    1.1604616   472755 
  293000   0.99645925   -2.4728971   -2.4728971   -1.3136368  0.067075363   -2.4728971    1.1592602   472743 
  294000   0.99538782   -2.4712761   -2.4712761   -1.3132354  0.064514831   -2.4712761    1.1580407   472732 
  295000   0.99687778   -2.4742237   -2.4742237   -1.3144201  0.064627332   -2.4742237    1.1598036   472720 
  296000   0.99639298    -2.473756    -2.473756   -1.3144871  0.070776965    -2.473756     1.159269   472708 
  297000   0.99574191    -2.473339    -2.473339   -1.3147981  0.062654349    -2.473339    1.1585409   472696 
  298000   0.99567994   -2.4728477   -2.4728477    -1.314352  0.067059777   -2.4728477    1.1584957   472685 
  299000   0.99583006   -2.4722499   -2.4722499   -1.3135501  0.065759895   -2.4722499    1.1586998   472673 
  300000   0.99532484   -2.4719231   -2.4719231   -1.3137817  0.061910907   -2.4719231    1.1581414   472661 
  301000   0.99461042   -2.4714004   -2.4714004   -1.3140609  0.057662636   -2.4714004    1.1573395   472649 
  302000   0.99503158   -2.4715795   -2.4715795    -1.313723  0.064842287   -2.4715795    1.1578565   472638 
  303000    0.9950177   -2.4716928   -2.4716928   -1.3138231  0.069335975   -2.4716928    1.1578697   472626 
  304000     0.994182   -2.4702015   -2.4702015   -1.3132749  0.065881207   -2.4702015    1.1569266   472614 
  305000   0.99416764   -2.4705919   -2.4705919   -1.3136526  0.068428128   -2.4705919    1.1569393   472602 
  306000   0.99462451   -2.4718774   -2.4718774    -1.314377  0.061299246   -2.4718774    1.1575004   472590 
  307000   0.99412673   -2.4721278   -2.4721278   -1.3151798  0.061715278   -2.4721278     1.156948   472579 
  308000   0.99136501   -2.4699015   -2.4699015   -1.3161383  0.058767434   -2.4699015    1.1537632   472567 
  309000    0.9928225   -2.4696483   -2.4696483   -1.3141594  0.066902619   -2.4696483    1.1554888   472555 
  310000   0.99392548   -2.4711847   -2.4711847   -1.3143828  0.059085612   -2.4711847    1.1568019   472543 
  311000   0.99368283   -2.4699918   -2.4699918   -1.3134454  0.068485131   -2.4699918    1.1565464   472532 
  312000   0.99365578     -2.47065     -2.47065   -1.3141057  0.067371542     -2.47065    1.1565443   472520 
  313000   0.99296619   -2.4718623   -2.4718623   -1.3160913  0.064236118   -2.4718623     1.155771   472508 
  314000   0.99389218   -2.4725309   -2.4725309   -1.3156527  0.054005421   -2.4725309    1.1568782   472496 
  315000   0.99425974   -2.4721257   -2.4721257   -1.3147927  0.060163502   -2.4721257     1.157333   472485 
  316000   0.99535206    -2.473052    -2.473052   -1.3144181  0.066821076    -2.473052    1.1586339   472473 
  317000   0.99305982   -2.4706898   -2.4706898   -1.3146948  0.067040968   -2.4706898     1.155995   472461 
  318000   0.99512691   -2.4735948   -2.4735948   -1.3151642   0.06447412   -2.4735948    1.1584306   472449 
  319000   0.99474445   -2.4735027   -2.4735027   -1.3154903  0.064393459   -2.4735027    1.1580124   472438 
  320000    0.9954484   -2.4734892   -2.4734892   -1.3146279  0.065343934   -2.4734892    1.1588613   472426 
  321000   0.99514239   -2.4725694   -2.4725694   -1.3140349   0.07289298   -2.4725694    1.1585345   472414 
  322000   0.99733383    -2.474598    -2.474598   -1.3134828  0.070150679    -2.474598    1.1611152   472402 
  323000   0.99638402   -2.4738535   -2.4738535   -1.3138145   0.06914655   -2.4738535    1.1600389   472390 
  324000   0.99419253   -2.4718816   -2.4718816   -1.3143672  0.065091547   -2.4718816    1.1575144   472379 
  325000   0.99465465   -2.4713781   -2.4713781   -1.3132962  0.071796091   -2.4713781    1.1580819   472367 
  326000   0.99635821   -2.4733017   -2.4733017   -1.3132069  0.069135862   -2.4733017    1.1600948   472355 
  327000   0.99492431   -2.4724546   -2.4724546   -1.3139998  0.064681418   -2.4724546    1.1584547   472343 
  328000   0.99471334   -2.4726757   -2.4726757   -1.3144397   0.06471774   -2.4726757     1.158236   472332 
  329000   0.99518973   -2.4739161   -2.4739161   -1.3150959  0.072535594   -2.4739161    1.1588202   472320 
  330000   0.99774623   -2.4763181   -2.4763181   -1.3144915  0.064089811   -2.4763181    1.1618265   472308 
  331000   0.99599364   -2.4743268   -2.4743268   -1.3145116  0.061823752   -2.4743268    1.1598152   472296 
  332000   0.99428329   -2.4735469   -2.4735469   -1.3156964  0.075403709   -2.4735469    1.1578505   472285 
  333000   0.99464301   -2.4740026   -2.4740026   -1.3157037  0.061359344   -2.4740026    1.1582988   472273 
  334000   0.99383846   -2.4731332   -2.4731332   -1.3157418  0.067521811   -2.4731332    1.1573913   472261 
  335000   0.99192934    -2.470761    -2.470761   -1.3155637  0.069085033    -2.470761    1.1551974   472249 
  336000   0.99496608   -2.4741517   -2.4741517   -1.3153908  0.055427215   -2.4741517    1.1587609   472238 
  337000   0.99206842     -2.47129     -2.47129   -1.3158744  0.056295595     -2.47129    1.1554156   472226 
  338000   0.99298979   -2.4726345   -2.4726345   -1.3161165  0.060710893   -2.4726345    1.1565181   472214 
  339000   0.99165595   -2.4710987   -2.4710987   -1.3161048  0.061313926   -2.4710987    1.1549939   472202 
  340000   0.99191203   -2.4714429   -2.4714429   -1.3161213  0.063642732   -2.4714429    1.1553215   472190 
  341000   0.99271525   -2.4728132   -2.4728132   -1.3165291  0.066559907   -2.4728132     1.156284   472179 
  342000   0.99135399   -2.4712853   -2.4712853   -1.3165574  0.059852727   -2.4712853    1.1547278   472167 
  343000   0.99112267   -2.4703191   -2.4703191   -1.3158314  0.065474637   -2.4703191    1.1544877   472155 
  344000   0.99136522    -2.470784    -2.470784   -1.3159844  0.058174682    -2.470784    1.1547996   472143 
  345000   0.99233111   -2.4713939   -2.4713939   -1.3154423  0.067156742   -2.4713939    1.1559517   472132 
  346000   0.99436005    -2.474076    -2.474076   -1.3157314  0.057996006    -2.474076    1.1583446   472120 
  347000   0.99074371   -2.4709362   -2.4709362   -1.3167751  0.064488286   -2.4709362    1.1541612   472108 
  348000   0.99313053   -2.4733834   -2.4733834   -1.3164123  0.069030012   -2.4733834    1.1569711   472096 
  349000   0.99142514   -2.4716901   -2.4716901   -1.3166788  0.065375615   -2.4716901    1.1550113   472085 
  350000   0.99200267   -2.4725739   -2.4725739   -1.3168604  0.066875138   -2.4725739    1.1557135   472073 
  351000   0.99237188   -2.4726819   -2.4726819   -1.3165089  0.064319653   -2.4726819     1.156173   472061 
  352000    0.9928628   -2.4725281   -2.4725281   -1.3157537  0.064871354   -2.4725281    1.1567744   472049 
  353000   0.99228448   -2.4706154   -2.4706154   -1.3144878  0.069679097   -2.4706154    1.1561275   472038 
  354000   0.99292672   -2.4714062   -2.4714062    -1.314501  0.067910337   -2.4714062    1.1569052   472026 
  355000   0.99380606   -2.4723445   -2.4723445   -1.3143852  0.061905297   -2.4723445    1.1579592   472014 
  356000   0.99377324   -2.4728273   -2.4728273   -1.3148769  0.068354099   -2.4728273    1.1579504   472002 
  357000   0.99507296   -2.4746225   -2.4746225   -1.3151281  0.074861374   -2.4746225    1.1594943   471990 
  358000   0.99532115   -2.4752958   -2.4752958   -1.3154852  0.066809266   -2.4752958    1.1598106   471979 
  359000   0.99352993   -2.4730181   -2.4730181   -1.3152653  0.066122681   -2.4730181    1.1577528   471967 
  360000   0.99431512   -2.4733889   -2.4733889   -1.3146917  0.066020198   -2.4733889    1.1586972   471955 
  361000   0.99339936   -2.4716623   -2.4716623   -1.3140029  0.070943451   -2.4716623    1.1576595   471943 
  362000   0.99290655   -2.4719354   -2.4719354   -1.3148232  0.062667236   -2.4719354    1.1571121   471932 
  363000   0.99352255   -2.4721312   -2.4721312   -1.3142718  0.062762084   -2.4721312    1.1578595   471920 
  364000   0.99255292   -2.4716988   -2.4716988     -1.31494  0.059156575   -2.4716988    1.1567589   471908 
  365000   0.99003384   -2.4694087   -2.4694087   -1.3155563  0.070631491   -2.4694087    1.1538524   471896 
  366000   0.99229644   -2.4723902   -2.4723902   -1.3158739  0.056852602   -2.4723902    1.1565163   471885 
  367000     0.990218   -2.4696619   -2.4696619   -1.3155386    0.0655964   -2.4696619    1.1541233   471873 
  368000   0.99208339   -2.4711251   -2.4711251   -1.3147982  0.062761581   -2.4711251    1.1563268   471861 
  369000   0.99238332   -2.4714727   -2.4714727   -1.3147669  0.065714789   -2.4714727    1.1567058   471849 
  370000   0.99193408   -2.4715502   -2.4715502    -1.315341   0.06151518   -2.4715502    1.1562091   471838 
  371000   0.99240646    -2.473618    -2.473618   -1.3168289  0.057722666    -2.473618    1.1567892   471826 
  372000   0.99068508   -2.4710618   -2.4710618   -1.3162498  0.065970285   -2.4710618     1.154812   471814 
  373000   0.99182377   -2.4722786   -2.4722786   -1.3161098  0.057880834   -2.4722786    1.1561688   471802 
  374000   0.99055604   -2.4702408   -2.4702408   -1.3155205  0.064753808   -2.4702408    1.1547204   471790 
  375000   0.99286582   -2.4731647   -2.4731647   -1.3157248  0.062408172   -2.4731647    1.1574399   471779 
  376000   0.99087505   -2.4707622   -2.4707622   -1.3156136  0.062057312   -2.4707622    1.1551485   471767 
  377000    0.9922541   -2.4725299   -2.4725299   -1.3157442  0.061729756   -2.4725299    1.1567857   471755 
  378000   0.99298225   -2.4717914   -2.4717914   -1.3141274  0.060861422   -2.4717914     1.157664   471743 
  379000   0.99318779   -2.4720348   -2.4720348   -1.3141042  0.067604025   -2.4720348    1.1579306   471732 
  380000   0.99215434   -2.4712012   -2.4712012    -1.314446  0.064255615   -2.4712012    1.1567552   471720 
  381000   0.99183788    -2.470764    -2.470764   -1.3143484  0.070864148    -2.470764    1.1564156   471708 
  382000   0.99440845   -2.4738059   -2.4738059   -1.3143637  0.065071199   -2.4738059    1.1594422   471696 
  383000   0.99289634   -2.4726001   -2.4726001    -1.314894  0.063114523   -2.4726001    1.1577062   471685 
  384000   0.99210675   -2.4715979   -2.4715979   -1.3147829  0.059825776   -2.4715979    1.1568149   471673 
  385000   0.99387495   -2.4731024   -2.4731024   -1.3141962  0.069176464   -2.4731024    1.1589062   471661 
  386000   0.99295457   -2.4716393   -2.4716393   -1.3137769  0.070479635   -2.4716393    1.1578624   471649 
  387000   0.99202682   -2.4711983   -2.4711983   -1.3143907  0.067307995   -2.4711983    1.1568076   471638 
  388000   0.99135961   -2.4715603   -2.4715603   -1.3155014  0.068854553   -2.4715603     1.156059   471626 
  389000   0.99068591   -2.4708663   -2.4708663   -1.3155635  0.068595366   -2.4708663    1.1553027   471614 
  390000   0.99054912   -2.4713365   -2.4713365   -1.3161639  0.062417856   -2.4713365    1.1551726   471602 
  391000   0.99010355   -2.4711198   -2.4711198   -1.3164374   0.05613408   -2.4711198    1.1546824   471590 
  392000   0.99060004   -2.4720071   -2.4720071   -1.3167188  0.062710993   -2.4720071    1.1552883   471579 
  393000    0.9919912   -2.4742139   -2.4742139   -1.3172737  0.062169972   -2.4742139    1.1569402   471567 
  394000   0.99008531   -2.4714546   -2.4714546   -1.3167078  0.057949429   -2.4714546    1.1547468   471555 
  395000   0.99127778   -2.4719573   -2.4719573   -1.3157903  0.068079073   -2.4719573     1.156167   471543 
  396000   0.99071603   -2.4713648   -2.4713648    -1.315826  0.066535513   -2.4713648    1.1555388   471532 
  397000   0.99358285   -2.4755217   -2.4755217   -1.3166097  0.063217966   -2.4755217     1.158912   471520 
  398000   0.99283533   -2.4746543   -2.4746543   -1.3165847  0.070958538   -2.4746543    1.1580696   471508 
  399000   0.99229886    -2.473641    -2.473641   -1.3161677  0.074721823    -2.473641    1.1574733   471496 
  400000   0.99148819   -2.4712705   -2.4712705   -1.3147158  0.069423457   -2.4712705    1.1565547   471485 
  401000   0.99266516   -2.4733772   -2.4733772   -1.3154201  0.066180483   -2.4733772    1.1579571   471473 
  402000   0.99423596   -2.4752404   -2.4752404   -1.3154215  0.061275562   -2.4752404    1.1598189   471461 
  403000   0.99201155   -2.4725859   -2.4725859   -1.3153324  0.066471091   -2.4725859    1.1572535   471449 
  404000   0.99286737   -2.4734054   -2.4734054   -1.3151264  0.067200644   -2.4734054    1.1582789   471438 
  405000   0.99352387   -2.4748946   -2.4748946   -1.3158203  0.060719599   -2.4748946    1.1590743   471426 
  406000   0.99020662   -2.4720271   -2.4720271   -1.3167934  0.064374644   -2.4720271    1.1552337   471414 
  407000   0.99026831   -2.4724702   -2.4724702   -1.3171351   0.06487454   -2.4724702    1.1553351   471402 
  408000   0.98978599   -2.4724721   -2.4724721   -1.3176703  0.055466532   -2.4724721    1.1548018   471390 
  409000   0.99147439   -2.4729007   -2.4729007   -1.3161021  0.059669601   -2.4729007    1.1567986   471379 
  410000   0.99074723   -2.4729711   -2.4729711   -1.3169915  0.070350892   -2.4729711    1.1559797   471367 
  411000   0.99019146   -2.4727146   -2.4727146    -1.317354  0.061487278   -2.4727146    1.1553606   471355 
  412000   0.99175209   -2.4739081   -2.4739081   -1.3166971  0.063179637   -2.4739081     1.157211   471343 
  413000   0.99038253   -2.4717863   -2.4717863   -1.3161464  0.065349816   -2.4717863      1.15564   471332 
  414000   0.99120988   -2.4732302   -2.4732302   -1.3165954  0.066543005   -2.4732302    1.1566348   471320 
  415000   0.98955051   -2.4701177   -2.4701177   -1.3153898   0.06380281   -2.4701177    1.1547279   471308 
  416000   0.99179655   -2.4723935   -2.4723935   -1.3150151   0.07093997   -2.4723935    1.1573783   471296 
  417000   0.99087461   -2.4704572   -2.4704572   -1.3141278  0.068362294   -2.4704572    1.1563294   471285 
  418000   0.99333093   -2.4726817   -2.4726817   -1.3134563  0.063777284   -2.4726817    1.1592254   471273 
  419000    0.9923516   -2.4721112   -2.4721112   -1.3139991  0.060216507   -2.4721112     1.158112   471261 
  420000    0.9921711    -2.472172    -2.472172   -1.3142411  0.065791936    -2.472172    1.1579309   471249 
  421000   0.99178059   -2.4715994   -2.4715994   -1.3140972  0.064550656   -2.4715994    1.1575021   471238 
  422000   0.99270837    -2.472722    -2.472722   -1.3141076  0.068984955    -2.472722    1.1586145   471226 
  423000   0.98975202   -2.4709259   -2.4709259   -1.3157325  0.066276041   -2.4709259    1.1551934   471214 
  424000    0.9896348   -2.4717443   -2.4717443   -1.3166582  0.067609856   -2.4717443     1.155086   471202 
  425000   0.99054206   -2.4742777   -2.4742777   -1.3181033  0.059484389   -2.4742777    1.1561744   471190 
  426000    0.9891566   -2.4734007   -2.4734007   -1.3188165  0.062172713   -2.4734007    1.1545842   471179 
  427000    0.9876407   -2.4702136   -2.4702136   -1.3173694  0.059056745   -2.4702136    1.1528442   471167 
  428000   0.98974908   -2.4724903   -2.4724903   -1.3171557   0.06882903   -2.4724903    1.1553347   471155 
  429000   0.98992352   -2.4735254   -2.4735254   -1.3179577  0.060466466   -2.4735254    1.1555677   471143 
  430000    0.9893565   -2.4734607   -2.4734607   -1.3185279  0.058853847   -2.4734607    1.1549328   471132 
  431000   0.99065955   -2.4732726   -2.4732726   -1.3167893  0.062557379   -2.4732726    1.1564834   471120 
  432000   0.98878921    -2.471296    -2.471296   -1.3169667  0.069943547    -2.471296    1.1543294   471108 
  433000   0.99011364    -2.473851    -2.473851    -1.317946  0.066979493    -2.473851     1.155905   471096 
  434000   0.98989667   -2.4736324   -2.4736324   -1.3179538  0.068474432   -2.4736324    1.1556786   471085 
  435000   0.99173611    -2.475115    -2.475115   -1.3172594  0.065078662    -2.475115    1.1578556   471073 
  436000   0.99170415   -2.4754165   -2.4754165   -1.3175687  0.065732188   -2.4754165    1.1578478   471061 
  437000   0.99254541   -2.4761311   -2.4761311   -1.3172716  0.066312328   -2.4761311    1.1588595   471049 
  438000   0.99004723   -2.4746435   -2.4746435   -1.3186737  0.072812004   -2.4746435    1.1559698   471038 
  439000   0.98877633    -2.473842    -2.473842   -1.3193267   0.06343671    -2.473842    1.1545153   471026 
  440000   0.98995772   -2.4754343   -2.4754343   -1.3195101  0.061042624   -2.4754343    1.1559241   471014 
  441000   0.98963464   -2.4739579   -2.4739579   -1.3183816  0.065204138   -2.4739579    1.1555763   471002 
  442000   0.99005093   -2.4744956   -2.4744956   -1.3184037  0.056343774   -2.4744956    1.1560919   470990 
  443000   0.98876955   -2.4733098   -2.4733098   -1.3186873  0.071354296   -2.4733098    1.1546226   470979 
  444000     0.988686   -2.4736678   -2.4736678   -1.3191134  0.059870714   -2.4736678    1.1545544   470967 
  445000   0.98904797   -2.4734318   -2.4734318   -1.3184252  0.066778139   -2.4734318    1.1550066   470955 
  446000   0.98965654   -2.4744838   -2.4744838   -1.3187371  0.069375796   -2.4744838    1.1557467   470943 
  447000   0.98966409   -2.4756652   -2.4756652   -1.3198827  0.062136983   -2.4756652    1.1557825   470932 
  448000   0.99004576   -2.4747401   -2.4747401   -1.3184824  0.063107774   -2.4747401    1.1562577   470920 
  449000   0.98853806   -2.4733933   -2.4733933    -1.318867  0.065286586   -2.4733933    1.1545263   470908 
  450000   0.98846866   -2.4738696   -2.4738696    -1.319395  0.059084366   -2.4738696    1.1544747   470896 
  451000   0.98844914   -2.4740458   -2.4740458    -1.319567  0.056333718   -2.4740458    1.1544788   470885 
  452000   0.98679859   -2.4719158   -2.4719158   -1.3193354  0.064528464   -2.4719158    1.1525804   470873 
  453000     0.988543   -2.4723372   -2.4723372   -1.3176899  0.065912161   -2.4723372    1.1546473   470861 
  454000   0.98938829    -2.472442    -2.472442   -1.3167779  0.067634735    -2.472442    1.1556641   470849 
  455000   0.98844779   -2.4712404   -2.4712404   -1.3166479   0.06419809   -2.4712404    1.1545925   470838 
  456000   0.98973941   -2.4728883   -2.4728883   -1.3167576  0.070576118   -2.4728883    1.1561307   470826 
  457000    0.9905443   -2.4739037   -2.4739037   -1.3168033  0.065950913   -2.4739037    1.1571004   470814 
  458000   0.98917463    -2.472151    -2.472151   -1.3166212  0.066179585    -2.472151    1.1555299   470802 
  459000   0.98978759   -2.4725722   -2.4725722   -1.3162969  0.064861142   -2.4725722    1.1562754   470790 
  460000   0.98988628   -2.4724217   -2.4724217    -1.316004   0.05920714   -2.4724217    1.1564177   470779 
  461000   0.98889587    -2.471485    -2.471485   -1.3161949  0.059734163    -2.471485    1.1552901   470767 
  462000   0.99093746   -2.4738697   -2.4738697    -1.316165   0.06676859   -2.4738697    1.1577047   470755 
  463000   0.98811228   -2.4701757   -2.4701757   -1.3157421  0.062879089   -2.4701757    1.1544335   470743 
  464000   0.98878271   -2.4715784   -2.4715784   -1.3163346  0.063638278   -2.4715784    1.1552438   470732 
  465000   0.98889744   -2.4720783   -2.4720783    -1.316671  0.065721166   -2.4720783    1.1554073   470720 
  466000   0.98937893   -2.4719746   -2.4719746   -1.3159752  0.065358544   -2.4719746    1.1559993   470708 
  467000   0.98949064   -2.4725291   -2.4725291   -1.3163698  0.053664919   -2.4725291    1.1561593   470696 
  468000   0.98666969   -2.4693611   -2.4693611    -1.316471  0.066075741   -2.4693611    1.1528902   470685 
  469000   0.98708916   -2.4702988   -2.4702988   -1.3168891  0.067973698   -2.4702988    1.1534097   470673 
  470000   0.98810996   -2.4721763   -2.4721763   -1.3175444  0.054918649   -2.4721763    1.1546319   470661 
  471000   0.98763444    -2.471427    -2.471427   -1.3173213   0.06169212    -2.471427    1.1541057   470649 
  472000   0.98751634   -2.4695451   -2.4695451   -1.3155505  0.065428954   -2.4695451    1.1539947   470638 
  473000   0.98787381   -2.4702092   -2.4702092   -1.3157673  0.067789236   -2.4702092    1.1544418   470626 
  474000   0.98769378   -2.4704832   -2.4704832   -1.3162223  0.056083911   -2.4704832    1.1542609   470614 
  475000   0.98689441    -2.469156    -2.469156   -1.3157999  0.068074618    -2.469156    1.1533561   470602 
  476000   0.98783287   -2.4703024   -2.4703024   -1.3158201  0.062835468   -2.4703024    1.1544823   470590 
  477000   0.98647357   -2.4694193   -2.4694193   -1.3164987  0.064015578   -2.4694193    1.1529206   470579 
  478000   0.98594161   -2.4694438   -2.4694438   -1.3171154  0.055027142   -2.4694438    1.1523283   470567 
  479000   0.98469802   -2.4690932   -2.4690932    -1.318189  0.059123934   -2.4690932    1.1509042   470555 
  480000   0.98566794   -2.4695532   -2.4695532    -1.317486  0.060688121   -2.4695532    1.1520672   470543 
  481000   0.98641502    -2.469893    -2.469893   -1.3169257  0.061205127    -2.469893    1.1529674   470532 
  482000   0.98759291   -2.4718178   -2.4718178   -1.3174443  0.066860623   -2.4718178    1.1543736   470520 
  483000   0.98902598   -2.4727781   -2.4727781      -1.3167  0.058279901   -2.4727781    1.1560781   470508 
  484000   0.98858466    -2.471034    -2.471034   -1.3154423   0.06263182    -2.471034    1.1555917   470496 
  485000   0.98825555   -2.4719196   -2.4719196   -1.3166855  0.065447306   -2.4719196    1.1552341   470485 
  486000   0.98802134   -2.4709238   -2.4709238    -1.315934  0.064079181   -2.4709238    1.1549897   470473 
  487000   0.98941726    -2.472965    -2.472965    -1.316314  0.063868764    -2.472965    1.1566511   470461 
  488000    0.9889457   -2.4716832   -2.4716832   -1.3155539  0.062907043   -2.4716832    1.1561293   470449 
  489000   0.98845008   -2.4726345   -2.4726345   -1.3170576  0.071039418   -2.4726345    1.1555769   470438 
  490000   0.98858558   -2.4724152   -2.4724152   -1.3166504  0.057222641   -2.4724152    1.1557648   470426 
  491000   0.99124646   -2.4750426   -2.4750426   -1.3161374  0.058606321   -2.4750426    1.1589052   470414 
  492000   0.99084484   -2.4758986   -2.4758986   -1.3174334  0.065856646   -2.4758986    1.1584652   470402 
  493000   0.98908463   -2.4736761   -2.4736761   -1.3172394  0.064285672   -2.4736761    1.1564367   470390 
  494000   0.98970032   -2.4734438   -2.4734438   -1.3162602   0.06211278   -2.4734438    1.1571836   470379 
  495000   0.98774327    -2.473131    -2.473131   -1.3182061  0.067944509    -2.473131    1.1549249   470367 
  496000    0.9865453   -2.4727341   -2.4727341   -1.3191806  0.067601678   -2.4727341    1.1535536   470355 
  497000   0.98604646    -2.472753    -2.472753   -1.3197533   0.06935646    -2.472753    1.1529997   470343 
  498000   0.99023649   -2.4763883   -2.4763883    -1.318462  0.059118657   -2.4763883    1.1579263   470332 
  499000   0.98740154   -2.4740767   -2.4740767   -1.3194361  0.063001557   -2.4740767    1.1546407   470320 
  500000   0.98743093   -2.4748108   -2.4748108   -1.3201063  0.068830517   -2.4748108    1.1547045   470308 
  501000   0.98796903    -2.475244    -2.475244   -1.3198808  0.058823636    -2.475244    1.1553632   470296 
  502000   0.98530088   -2.4715572   -2.4715572   -1.3192873  0.070885904   -2.4715572      1.15227   470285 
  503000   0.98778886   -2.4757063   -2.4757063   -1.3204973  0.061290013   -2.4757063     1.155209   470273 
  504000   0.98759257    -2.474565    -2.474565    -1.319556  0.059958307    -2.474565     1.155009   470261 
  505000   0.98624046   -2.4727786   -2.4727786   -1.3193215  0.065991311   -2.4727786    1.1534571   470249 
  506000   0.98597546   -2.4738885   -2.4738885   -1.3207144  0.059293277   -2.4738885    1.1531741   470238 
  507000   0.98438122   -2.4723582   -2.4723582   -1.3210193  0.067279965   -2.4723582    1.1513389   470226 
  508000   0.98672231   -2.4735248   -2.4735248   -1.3194182  0.064177926   -2.4735248    1.1541065   470214 
  509000   0.98669458    -2.474529    -2.474529   -1.3204255  0.066050988    -2.474529    1.1541035   470202 
  510000   0.98653843    -2.472976    -2.472976   -1.3190257  0.063972517    -2.472976    1.1539503   470190 
  511000   0.98551079   -2.4720175   -2.4720175   -1.3192423  0.068619575   -2.4720175    1.1527753   470179 
  512000   0.98557435   -2.4720005   -2.4720005   -1.3191215  0.069515728   -2.4720005    1.1528791   470167 
  513000   0.98512199   -2.4722573   -2.4722573    -1.319878  0.058397035   -2.4722573    1.1523793   470155 
  514000   0.98612457   -2.4734591   -2.4734591   -1.3198776  0.062720658   -2.4734591    1.1535816   470143 
  515000   0.98674967   -2.4731963   -2.4731963   -1.3188565  0.059693031   -2.4731963    1.1543398   470132 
  516000   0.98779293   -2.4747936   -2.4747936   -1.3192038  0.064052398   -2.4747936    1.1555898   470120 
  517000   0.98602203    -2.472618    -2.472618   -1.3190705  0.062888725    -2.472618    1.1535475   470108 
  518000   0.98565276   -2.4720844   -2.4720844   -1.3189395  0.072719493   -2.4720844    1.1531449   470096 
  519000   0.98576673    -2.472465    -2.472465   -1.3191597   0.06371467    -2.472465    1.1533052   470085 
  520000   0.98861894   -2.4760091   -2.4760091   -1.3193374  0.066833017   -2.4760091    1.1566717   470073 
  521000   0.98869817   -2.4761722   -2.4761722   -1.3193783  0.060495003   -2.4761722     1.156794   470061 
  522000   0.98750591    -2.475622    -2.475622   -1.3201935  0.061444666    -2.475622    1.1554285   470049 
  523000   0.98636293   -2.4751915   -2.4751915   -1.3210733  0.068406731   -2.4751915    1.1541182   470038 
  524000   0.98592968   -2.4752733   -2.4752733   -1.3216326  0.062621243   -2.4752733    1.1536407   470026 
  525000   0.98699616   -2.4754312   -2.4754312   -1.3205132  0.073457166   -2.4754312    1.1549181   470014 
  526000   0.98724299    -2.474528    -2.474528   -1.3192917  0.058575391    -2.474528    1.1552364   470002 
  527000   0.98644586    -2.474144    -2.474144   -1.3198109  0.060334778    -2.474144    1.1543331   469990 
  528000   0.98506486   -2.4725866   -2.4725866   -1.3198426  0.068642791   -2.4725866     1.152744   469979 
  529000   0.98650952   -2.4749656   -2.4749656   -1.3205016  0.067956674   -2.4749656    1.1544641   469967 
  530000   0.98769997   -2.4746191   -2.4746191   -1.3187324   0.07099137   -2.4746191    1.1558867   469955 
  531000   0.98806734   -2.4755868   -2.4755868   -1.3192406  0.066701445   -2.4755868    1.1563462   469943 
  532000   0.98707586   -2.4754981   -2.4754981   -1.3202853  0.064853147   -2.4754981    1.1552129   469932 
  533000    0.9859249   -2.4745195   -2.4745195   -1.3206242  0.061599034   -2.4745195    1.1538953   469920 
  534000   0.98705773   -2.4753271   -2.4753271   -1.3200765  0.059671363   -2.4753271    1.1552506   469908 
  535000   0.98544832   -2.4743644   -2.4743644   -1.3209679  0.067059752   -2.4743644    1.1533964   469896 
  536000    0.9862247   -2.4748381   -2.4748381   -1.3205059  0.063010937   -2.4748381    1.1543322   469885 
  537000   0.98452386   -2.4741428   -2.4741428    -1.321772  0.062674903   -2.4741428    1.1523708   469873 
  538000    0.9841793   -2.4734862   -2.4734862   -1.3214892  0.062249037   -2.4734862    1.1519969   469861 
  539000   0.98554787    -2.474576    -2.474576   -1.3209476  0.061988666    -2.474576    1.1536283   469849 
  540000   0.98378124   -2.4729875   -2.4729875   -1.3214001  0.061826808   -2.4729875    1.1515874   469838 
  541000   0.98634938   -2.4751326   -2.4751326   -1.3205095  0.055598359   -2.4751326    1.1546231   469826 
  542000     0.985539   -2.4737095   -2.4737095   -1.3200056   0.06136055   -2.4737095    1.1537039   469814 
  543000   0.98529399   -2.4725211   -2.4725211   -1.3190745  0.064283281   -2.4725211    1.1534466   469802 
  544000    0.9867033   -2.4734751   -2.4734751   -1.3183493  0.066680082   -2.4734751    1.1551259   469790 
  545000   0.98640957    -2.473321    -2.473321    -1.318512  0.065033928    -2.473321     1.154809   469779 
  546000    0.9868473   -2.4741075   -2.4741075   -1.3187564  0.069410638   -2.4741075     1.155351   469767 
  547000   0.98570035    -2.473986    -2.473986   -1.3199483  0.064029681    -2.473986    1.1540377   469755 
  548000   0.98588968   -2.4734123   -2.4734123   -1.3191234  0.058794031   -2.4734123    1.1542889   469743 
  549000   0.98558036   -2.4729275   -2.4729275   -1.3189738  0.063889086   -2.4729275    1.1539537   469732 
  550000   0.98603736   -2.4731825   -2.4731825   -1.3186642  0.060901209   -2.4731825    1.1545183   469720 
  551000    0.9861254   -2.4731957   -2.4731957   -1.3185448  0.067400285   -2.4731957    1.1546509   469708 
  552000   0.98584273   -2.4742877   -2.4742877   -1.3199384  0.065452953   -2.4742877    1.1543494   469696 
  553000    0.9840673   -2.4720596   -2.4720596   -1.3197621  0.063005507   -2.4720596    1.1522975   469685 
  554000   0.98370966   -2.4706811   -2.4706811    -1.318773  0.061402342   -2.4706811    1.1519081   469673 
  555000   0.98333908   -2.4709526   -2.4709526    -1.319449  0.059981726   -2.4709526    1.1515036   469661 
  556000   0.98478433   -2.4713608   -2.4713608   -1.3181353  0.057963675   -2.4713608    1.1532255   469649 
  557000    0.9836145   -2.4696394   -2.4696394   -1.3177568  0.060376754   -2.4696394    1.1518825   469638 
  558000   0.98401246   -2.4710676   -2.4710676   -1.3186896  0.061072193   -2.4710676     1.152378   469626 
  559000   0.98341303   -2.4708984   -2.4708984    -1.319193   0.06273127   -2.4708984    1.1517055   469614 
  560000   0.98349785   -2.4708011   -2.4708011   -1.3189669  0.056181702   -2.4708011    1.1518342   469602 
  561000   0.98369421   -2.4707143   -2.4707143   -1.3186206  0.054255282   -2.4707143    1.1520936   469590 
  562000   0.98223741    -2.469218    -2.469218   -1.3188037  0.062272342    -2.469218    1.1504144   469579 
  563000    0.9835459   -2.4715277   -2.4715277   -1.3195513  0.057312904   -2.4715277    1.1519764   469567 
  564000   0.98297282   -2.4704827   -2.4704827   -1.3191481  0.064634055   -2.4704827    1.1513346   469555 
  565000   0.98434456   -2.4720614   -2.4720614   -1.3190907   0.05913874   -2.4720614    1.1529707   469543 
  566000   0.98244625   -2.4686244   -2.4686244   -1.3178502  0.060924658   -2.4686244    1.1507742   469532 
  567000   0.98512702   -2.4715591   -2.4715591   -1.3176154  0.060972257   -2.4715591    1.1539437   469520 
  568000   0.98438822   -2.4708729   -2.4708729   -1.3177651  0.064107682   -2.4708729    1.1531078   469508 
  569000   0.98543685   -2.4726359   -2.4726359   -1.3182702  0.055111419   -2.4726359    1.1543657   469496 
  570000   0.98451795   -2.4715785   -2.4715785   -1.3182622  0.071829851   -2.4715785    1.1533163   469485 
  571000   0.98540326   -2.4736982   -2.4736982   -1.3193153  0.063162292   -2.4736982    1.1543829   469473 
  572000   0.98431134    -2.472764    -2.472764   -1.3196308  0.064822541    -2.472764    1.1531332   469461 
  573000   0.98227352   -2.4702711   -2.4702711   -1.3194958  0.067888803   -2.4702711    1.1507753   469449 
  574000   0.98455041    -2.474035    -2.474035   -1.3205652  0.068370984    -2.474035    1.1534698   469438 
  575000   0.98430507   -2.4743156   -2.4743156   -1.3211038  0.054480472   -2.4743156    1.1532118   469426 
  576000    0.9825988   -2.4732903   -2.4732903   -1.3220481  0.056502242   -2.4732903    1.1512422   469414 
  577000   0.98500171   -2.4747897   -2.4747897   -1.3207027  0.065727594   -2.4747897     1.154087   469402 
  578000   0.98333193   -2.4742388   -2.4742388   -1.3220787  0.064544156   -2.4742388      1.15216   469390 
  579000    0.9848424   -2.4753984   -2.4753984   -1.3214415  0.061577151   -2.4753984    1.1539569   469379 
  580000   0.98437883   -2.4750031   -2.4750031   -1.3215599  0.065454586   -2.4750031    1.1534432   469367 
  581000   0.98472971   -2.4751565   -2.4751565   -1.3212727  0.062942792   -2.4751565    1.1538838   469355 
  582000   0.98426583   -2.4760685   -2.4760685   -1.3226987  0.063503232   -2.4760685    1.1533698   469343 
  583000     0.982993    -2.475236    -2.475236   -1.3233307  0.068183471    -2.475236    1.1519053   469332 
  584000   0.98259698   -2.4750727   -2.4750727    -1.323602   0.07085732   -2.4750727    1.1514706   469320 
  585000   0.98306463   -2.4758741   -2.4758741    -1.323826   0.05865478   -2.4758741    1.1520481   469308 
  586000   0.98110319    -2.473268    -2.473268   -1.3234891  0.066413141    -2.473268    1.1497789   469296 
  587000   0.98328221   -2.4757288   -2.4757288   -1.3233692   0.06684022   -2.4757288    1.1523596   469285 
  588000   0.98345722   -2.4759838   -2.4759838   -1.3233896  0.068401788   -2.4759838    1.1525941   469273 
  589000   0.98508582    -2.477881    -2.477881   -1.3233487  0.056011608    -2.477881    1.1545324   469261 
  590000   0.98337572   -2.4761824   -2.4761824   -1.3236248   0.07191856   -2.4761824    1.1525576   469249 
  591000   0.98492232   -2.4781886   -2.4781886   -1.3237913  0.058432203   -2.4781886    1.1543973   469238 
  592000   0.98434193   -2.4767501   -2.4767501   -1.3230035  0.065533425   -2.4767501    1.1537466   469226 
  593000   0.98390117   -2.4764197   -2.4764197   -1.3231602  0.060031972   -2.4764197    1.1532594   469214 
  594000   0.98427785   -2.4757474   -2.4757474    -1.322017  0.063967398   -2.4757474    1.1537305   469202 
  595000   0.98453845   -2.4762511   -2.4762511   -1.3221856  0.061143864   -2.4762511    1.1540654   469190 
  596000   0.98321528   -2.4758308   -2.4758308   -1.3232893  0.067411313   -2.4758308    1.1525415   469179 
  597000   0.98313077   -2.4751395   -2.4751395   -1.3226676  0.060923768   -2.4751395    1.1524719   469167 
  598000   0.98204511   -2.4745104   -2.4745104   -1.3232817  0.059596154   -2.4745104    1.1512286   469155 
  599000   0.98354273   -2.4760279   -2.4760279   -1.3230141  0.062476769   -2.4760279    1.1530138   469143 
  600000   0.98288312   -2.4748326   -2.4748326   -1.3225651  0.062964512   -2.4748326    1.1522675   469132 
  601000   0.98297791   -2.4751477   -2.4751477   -1.3227395  0.067562216   -2.4751477    1.1524081   469120 
  602000   0.98271214    -2.474955    -2.474955    -1.322829  0.059327114    -2.474955     1.152126   469108 
  603000   0.98230855    -2.475111    -2.475111   -1.3234287  0.061827969    -2.475111    1.1516823   469096 
  604000   0.98081827   -2.4730345   -2.4730345   -1.3230724   0.06126512   -2.4730345     1.149962   469085 
  605000   0.98151201   -2.4735701   -2.4735701   -1.3227652  0.057847637   -2.4735701    1.1508048   469073 
  606000   0.98148366   -2.4728083   -2.4728083   -1.3220072  0.066684586   -2.4728083    1.1508011   469061 
  607000   0.98284186   -2.4732067   -2.4732067   -1.3207837  0.056533884   -2.4732067     1.152423   469049 
  608000    0.9815422    -2.472425    -2.472425   -1.3214988  0.058708463    -2.472425    1.1509261   469038 
  609000   0.98284299   -2.4737154   -2.4737154   -1.3212345   0.06112513   -2.4737154    1.1524809   469026 
  610000   0.98177541   -2.4718558   -2.4718558   -1.3205973  0.056880481   -2.4718558    1.1512585   469014 
  611000   0.98140404   -2.4741872   -2.4741872   -1.3233348  0.062202569   -2.4741872    1.1508525   469002 
  612000     0.981631   -2.4735839   -2.4735839   -1.3224359  0.068213747   -2.4735839    1.1511481   468990 
  613000   0.98200412   -2.4734827   -2.4734827   -1.3218701  0.060058776   -2.4734827    1.1516126   468979 
  614000   0.98266579   -2.4744129   -2.4744129   -1.3219948  0.064094303   -2.4744129    1.1524181   468967 
  615000   0.98281242   -2.4734251   -2.4734251   -1.3208055  0.064293425   -2.4734251    1.1526195   468955 
  616000   0.98270755   -2.4740377   -2.4740377   -1.3215117   0.06054709   -2.4740377     1.152526   468943 
  617000   0.98041517    -2.472177    -2.472177   -1.3223125  0.053956142    -2.472177    1.1498645   468932 
  618000   0.98028325   -2.4719723   -2.4719723   -1.3222332  0.058135289   -2.4719723    1.1497392   468920 
  619000   0.98068987   -2.4720732   -2.4720732   -1.3218277  0.055577289   -2.4720732    1.1502455   468908 
  620000   0.98162082   -2.4730727   -2.4730727   -1.3217058  0.062047925   -2.4730727    1.1513669   468896 
  621000   0.98239492   -2.4745469   -2.4745469    -1.322245  0.063545319   -2.4745469    1.1523019   468885 
  622000   0.98158913   -2.4733535   -2.4733535   -1.3219673  0.067045979   -2.4733535    1.1513862   468873 
  623000   0.98089898   -2.4719355   -2.4719355   -1.3213294  0.059583087   -2.4719355    1.1506061   468861 
  624000   0.98336464   -2.4745582   -2.4745582   -1.3210304  0.056676471   -2.4745582    1.1535279   468849 
  625000   0.98241849   -2.4729859   -2.4729859   -1.3205408  0.066958698   -2.4729859     1.152445   468838 
  626000   0.98156199   -2.4727209   -2.4727209   -1.3212512  0.064115536   -2.4727209    1.1514698   468826 
  627000    0.9823109   -2.4743114   -2.4743114   -1.3219336  0.061123912   -2.4743114    1.1523778   468814 
  628000   0.98247811   -2.4730301   -2.4730301   -1.3204266  0.067709009   -2.4730301    1.1526035   468802 
  629000   0.98168757   -2.4734458   -2.4734458   -1.3217403  0.065606038   -2.4734458    1.1517055   468790 
  630000   0.98257099   -2.4739588   -2.4739588   -1.3211898  0.062875236   -2.4739588     1.152769   468779 
  631000   0.98313266   -2.4742229   -2.4742229   -1.3207654  0.071256859   -2.4742229    1.1534575   468767 
  632000   0.98361932   -2.4752276   -2.4752276   -1.3211696   0.06447255   -2.4752276     1.154058   468755 
  633000   0.98202218   -2.4736396   -2.4736396    -1.321426  0.065088727   -2.4736396    1.1522136   468743 
  634000   0.98223287   -2.4741971   -2.4741971   -1.3217092  0.066950447   -2.4741971    1.1524879   468732 
  635000   0.98335152    -2.474731    -2.474731   -1.3209011  0.062761435    -2.474731      1.15383   468720 
  636000   0.98319077   -2.4744965   -2.4744965   -1.3208257  0.065071888   -2.4744965    1.1536709   468708 
  637000   0.98284027   -2.4754889   -2.4754889   -1.3221997   0.06999173   -2.4754889    1.1532891   468696 
  638000   0.98227485   -2.4744613   -2.4744613   -1.3218086  0.066900122   -2.4744613    1.1526527   468685 
  639000   0.98072056    -2.472709    -2.472709   -1.3218507  0.061099852    -2.472709    1.1508583   468673 
  640000   0.98070279   -2.4732742   -2.4732742   -1.3224073  0.063651522   -2.4732742    1.1508669   468661 
  641000    0.9800511   -2.4719753   -2.4719753   -1.3218438  0.056889207   -2.4719753    1.1501316   468649 
  642000   0.98272689   -2.4749246   -2.4749246   -1.3216258  0.062401531   -2.4749246    1.1532988   468638 
  643000   0.98114295    -2.472675    -2.472675   -1.3212056  0.063223178    -2.472675    1.1514694   468626 
  644000   0.98030144   -2.4735919   -2.4735919   -1.3230806  0.067158276   -2.4735919    1.1505113   468614 
  645000   0.97907238   -2.4727656   -2.4727656   -1.3236674  0.059250185   -2.4727656    1.1490983   468602 
  646000   0.97993968   -2.4729521   -2.4729521   -1.3228065  0.064455321   -2.4729521    1.1501456   468590 
  647000   0.98029932   -2.4727336   -2.4727336   -1.3221388  0.065153633   -2.4727336    1.1505947   468579 
  648000   0.98105349   -2.4725624   -2.4725624    -1.321053  0.061511223   -2.4725624    1.1515094   468567 
  649000   0.98156993   -2.4726006   -2.4726006   -1.3204556  0.066086729   -2.4726006    1.1521451   468555 
  650000   0.98261769   -2.4733483   -2.4733483   -1.3199439   0.05701953   -2.4733483    1.1534045   468543 
  651000   0.98089961   -2.4721656   -2.4721656   -1.3207508  0.060218353   -2.4721656    1.1514148   468532 
  652000   0.98020281   -2.4713452   -2.4713452   -1.3207188  0.060338414   -2.4713452    1.1506263   468520 
  653000   0.98060508   -2.4723593   -2.4723593   -1.3212313  0.058815544   -2.4723593     1.151128   468508 
  654000   0.98169288   -2.4726116   -2.4726116   -1.3201771  0.064851693   -2.4726116    1.1524345   468496 
  655000   0.98167429    -2.473549    -2.473549   -1.3211093  0.060813061    -2.473549    1.1524397   468485 
  656000   0.98171654   -2.4740375   -2.4740375   -1.3215187  0.059653864   -2.4740375    1.1525189   468473 
  657000   0.98078511   -2.4724557   -2.4724557   -1.3210008  0.060831346   -2.4724557    1.1514549   468461 
  658000   0.98012644   -2.4714987   -2.4714987   -1.3207876  0.067943413   -2.4714987    1.1507111   468449 
  659000    0.9814318    -2.472383    -2.472383   -1.3201123  0.056709914    -2.472383    1.1522707   468438 
  660000   0.98233055   -2.4737751   -2.4737751   -1.3204197  0.057667359   -2.4737751    1.1533554   468426 
  661000    0.9805599   -2.4731502   -2.4731502   -1.3218442  0.060993651   -2.4731502     1.151306   468414 
  662000   0.97827266   -2.4708825   -2.4708825   -1.3222326  0.061485322   -2.4708825    1.1486499   468402 
  663000   0.97936687   -2.4712911   -2.4712911    -1.321327  0.062099669   -2.4712911    1.1499641   468390 
[...]
29832000  0.041113217  -0.23317135  -0.23317135 -0.052606397 0.0094568568  -0.23317135   0.18056495   125226 
29833000  0.040789566  -0.23170818  -0.23170818 -0.052547504  0.013155394  -0.23170818   0.17916068   125214 
29834000   0.04118939  -0.23281193  -0.23281193 -0.051877763  0.013317915  -0.23281193   0.18093417   125202 
29835000  0.040829055  -0.23080023  -0.23080023 -0.051431729   0.01004828  -0.23080023   0.17936851   125190 
29836000  0.041135836  -0.23111736  -0.23111736 -0.050385235  0.010707672  -0.23111736   0.18073213   125179 
29837000  0.041041558  -0.23091136  -0.23091136  -0.05057616  0.011659435  -0.23091136   0.18033519   125167 
29838000   0.04107404   -0.2306395   -0.2306395 -0.050144273  0.008872422   -0.2306395   0.18049522   125155 
29839000   0.04092907   -0.2309555   -0.2309555 -0.051080078 0.0096514423   -0.2309555   0.17987542   125143 
29840000  0.040780704  -0.22981248  -0.22981248 -0.050573342  0.011185039  -0.22981248   0.17923914   125132 
29841000  0.040478274  -0.22957875  -0.22957875 -0.051651793  0.011752482  -0.22957875   0.17792696   125120 
29842000  0.040277564  -0.22792037  -0.22792037 -0.050858674  0.010730995  -0.22792037   0.17706169   125108 
29843000  0.040759206  -0.22955171  -0.22955171 -0.050355511  0.009924824  -0.22955171    0.1791962   125096 
29844000  0.040454785  -0.22966367  -0.22966367 -0.051790202  0.011813403  -0.22966367   0.17787346   125085 
29845000  0.040354285  -0.22976646  -0.22976646 -0.052317854  0.015546979  -0.22976646   0.17744861   125073 
29846000  0.040104397  -0.22803023  -0.22803023 -0.051663531   0.01194877  -0.22803023    0.1763667   125061 
29847000  0.040463771  -0.22952948  -0.22952948 -0.051565289  0.012584629  -0.22952948   0.17796419   125049 
29848000  0.040404613  -0.22985774  -0.22985774  -0.05213809   0.01065636  -0.22985774   0.17771965   125038 
29849000  0.040486155  -0.22993998  -0.22993998 -0.051844581   0.01051904  -0.22993998    0.1780954   125026 
29850000  0.040263259  -0.22953093  -0.22953093 -0.052399035  0.011021789  -0.22953093    0.1771319   125014 
29851000  0.040438447  -0.23022012  -0.23022012 -0.052300429 0.0087264241  -0.23022012   0.17791969   125002 
29852000   0.03999985  -0.22810437  -0.22810437 -0.052097507  0.010756922  -0.22810437   0.17600686   124990 
29853000  0.040291713  -0.22920525  -0.22920525 -0.051898537  0.010598294  -0.22920525   0.17730672   124979 
29854000  0.040171065  -0.22838552  -0.22838552 -0.051592748  0.010005664  -0.22838552   0.17679277   124967 
29855000  0.039972191  -0.22702227  -0.22702227 -0.051087848  0.007996871  -0.22702227   0.17593442   124955 
29856000  0.040312042  -0.22783669  -0.22783669 -0.050389399 0.0086781439  -0.22783669   0.17744729   124943 
29857000  0.040015601  -0.22640274  -0.22640274 -0.050244823   0.01319654  -0.22640274   0.17615791   124932 
29858000   0.04005503  -0.22715211  -0.22715211 -0.050803689  0.013718746  -0.22715211   0.17634843   124920 
29859000   0.04016596  -0.22815555  -0.22815555 -0.051301748 0.0096686933  -0.22815555    0.1768538   124908 
29860000  0.039940762  -0.22750952  -0.22750952 -0.051630384 0.0080110522  -0.22750952   0.17587913   124896 
29861000  0.040037066   -0.2286076   -0.2286076 -0.052288862 0.0078738531   -0.2286076   0.17631874   124885 
29862000  0.039963014  -0.22901611  -0.22901611 -0.053006573  0.012161521  -0.22901611   0.17600954   124873 
29863000  0.039807727  -0.22847815  -0.22847815 -0.053135699 0.0093079722  -0.22847815   0.17534245   124861 
29864000  0.039651082   -0.2268897   -0.2268897 -0.052220437  0.011618751   -0.2268897   0.17466926   124849 
29865000  0.040253316  -0.22937684  -0.22937684 -0.052039022 0.0068556274  -0.22937684   0.17733782   124838 
29866000  0.039878655  -0.22794001  -0.22794001 -0.052235891 0.0082056471  -0.22794001   0.17570412   124826 
29867000  0.039857747   -0.2279653   -0.2279653 -0.052336413 0.0094122807   -0.2279653   0.17562889   124814 
29868000  0.039683004  -0.22755141  -0.22755141 -0.052675696  0.013565808  -0.22755141   0.17487571   124802 
29869000  0.039610506  -0.22749667  -0.22749667 -0.052923655  0.012171824  -0.22749667   0.17457301   124790 
29870000  0.039582994  -0.22715185  -0.22715185 -0.052684714  0.011149573  -0.22715185   0.17446714   124779 
29871000  0.039619509  -0.22747882  -0.22747882 -0.052833939  0.010280918  -0.22747882   0.17464488   124767 
29872000  0.039411246  -0.22665166  -0.22665166 -0.052908101 0.0097222582  -0.22665166   0.17374356   124755 
29873000  0.039163588  -0.22698288  -0.22698288 -0.054314507 0.0098783072  -0.22698288   0.17266837   124743 
29874000  0.039451303  -0.22835377  -0.22835377 -0.054401549  0.009275314  -0.22835377   0.17395222   124732 
29875000  0.039198054  -0.22662677  -0.22662677 -0.053774574  0.008630441  -0.22662677    0.1728522   124720 
29876000  0.039208439  -0.22676699  -0.22676699 -0.053852356  0.012038224  -0.22676699   0.17291463   124708 
29877000  0.039160483  -0.22677973  -0.22677973 -0.054059977  0.011968173  -0.22677973   0.17271976   124696 
29878000  0.039401767    -0.227243    -0.227243 -0.053443715  0.010632283    -0.227243   0.17379928   124685 
29879000   0.03946831  -0.22806804  -0.22806804 -0.053958477   0.01237444  -0.22806804   0.17410956   124673 
29880000  0.039082824  -0.22661005  -0.22661005 -0.054184418 0.0084358818  -0.22661005   0.17242563   124661 
29881000  0.039242747  -0.22621657  -0.22621657 -0.053068718  0.010193916  -0.22621657   0.17314785   124649 
29882000  0.039130952  -0.22621536  -0.22621536 -0.053545532  0.011495504  -0.22621536   0.17266982   124638 
29883000  0.039294503  -0.22655294  -0.22655294  -0.05314473  0.010579698  -0.22655294   0.17340821   124626 
29884000  0.039016036  -0.22610399  -0.22610399 -0.053908087  0.011258533  -0.22610399    0.1721959   124614 
29885000  0.039186234  -0.22581023  -0.22581023 -0.052846513  0.014503773  -0.22581023   0.17296372   124602 
29886000  0.039230547  -0.22540045  -0.22540045 -0.052224457 0.0072958073  -0.22540045   0.17317599   124590 
29887000  0.038817349  -0.22424209  -0.22424209 -0.052874956  0.012279658  -0.22424209   0.17136713   124579 
29888000  0.039275055  -0.22581072  -0.22581072 -0.052406247 0.0092063734  -0.22581072   0.17340447   124567 
29889000  0.039014419  -0.22404478  -0.22404478 -0.051774452 0.0096683269  -0.22404478   0.17227033   124555 
29890000  0.039057501  -0.22421183  -0.22421183 -0.051734649    0.0128078  -0.22421183   0.17247718   124543 
29891000  0.039088754  -0.22526186  -0.22526186 -0.052631427 0.0095622677  -0.22526186   0.17263044   124532 
29892000  0.039097159  -0.22529028  -0.22529028 -0.052606081   0.01092876  -0.22529028   0.17268419   124520 
29893000  0.038637492  -0.22408806  -0.22408806 -0.053417668   0.01060119  -0.22408806   0.17067039   124508 
29894000  0.038356702  -0.22314517  -0.22314517 -0.053698762  0.011238326  -0.22314517   0.16944641   124496 
29895000  0.038744488  -0.22447085  -0.22447085 -0.053296216  0.012626988  -0.22447085   0.17117463   124485 
29896000  0.038532593  -0.22292671  -0.22292671 -0.052671825 0.0081564901  -0.22292671   0.17025489   124473 
29897000  0.038679905  -0.22411741  -0.22411741 -0.053195151  0.010711201  -0.22411741   0.17092226   124461 
29898000  0.038626528  -0.22319002  -0.22319002 -0.052487173 0.0095037688  -0.22319002   0.17070285   124449 
29899000  0.038673291  -0.22413558  -0.22413558 -0.053210965  0.010500819  -0.22413558   0.17092462   124438 
29900000  0.038343564  -0.22251496  -0.22251496 -0.053031295   0.01114093  -0.22251496   0.16948366   124426 
29901000  0.038439716  -0.22309701  -0.22309701 -0.053171955 0.0099784097  -0.22309701   0.16992505   124414 
29902000  0.038204924  -0.22208395  -0.22208395 -0.053180518  0.011003766  -0.22208395   0.16890344   124402 
29903000   0.03848751  -0.22397405  -0.22397405 -0.053804899 0.0065656909  -0.22397405   0.17016916   124390 
29904000  0.038356706   -0.2232644   -0.2232644 -0.053658581 0.0098673895   -0.2232644   0.16960582   124379 
29905000  0.038619524  -0.22365896  -0.22365896 -0.052874531 0.0097935812  -0.22365896   0.17078442   124367 
29906000  0.038308431  -0.22225466  -0.22225466 -0.052829608  0.011546366  -0.22225466   0.16942505   124355 
29907000  0.038527026    -0.223246    -0.223246 -0.052837736 0.0092413305    -0.223246   0.17040826   124343 
29908000  0.038160056   -0.2221609   -0.2221609 -0.053360848  0.011185658   -0.2221609   0.16880006   124332 
29909000  0.038194781  -0.22284449  -0.22284449 -0.053874526  0.009782598  -0.22284449   0.16896997   124320 
29910000  0.038270169  -0.22197757  -0.22197757 -0.052657749  0.011396042  -0.22197757   0.16931982   124308 
29911000  0.038326211  -0.22359185  -0.22359185 -0.054007706  0.010464868  -0.22359185   0.16958414   124296 
29912000  0.038257688  -0.22361903  -0.22361903 -0.054323101  0.012990338  -0.22361903   0.16929592   124285 
29913000  0.038290985  -0.22346123  -0.22346123 -0.054001599 0.0079746068  -0.22346123   0.16945963   124273 
29914000  0.037805483   -0.2215335   -0.2215335 -0.054206337  0.011017442   -0.2215335   0.16732716   124261 
29915000  0.038074457  -0.22258338  -0.22258338 -0.054049466 0.0061872486  -0.22258338   0.16853392   124249 
29916000  0.038521965  -0.22416667  -0.22416667 -0.053636791  0.011732267  -0.22416667   0.17052988   124238 
29917000  0.038007122  -0.22183968  -0.22183968  -0.05357267   0.01175735  -0.22183968   0.16826701   124226 
29918000  0.038014445  -0.22188949  -0.22188949 -0.053573797 0.0095355447  -0.22188949   0.16831569   124214 
29919000  0.037844456  -0.22105142  -0.22105142 -0.053472196 0.0097409662  -0.22105142   0.16757922   124202 
29920000  0.037734678  -0.22119087  -0.22119087 -0.054081606  0.010188315  -0.22119087   0.16710926   124190 
29921000  0.037813607  -0.22055929  -0.22055929 -0.053085654  0.013060192  -0.22055929   0.16747364   124179 
29922000  0.037652135   -0.2213383   -0.2213383 -0.054563699  0.011576746   -0.2213383   0.16677461   124167 
29923000  0.037725746  -0.22139271  -0.22139271 -0.054275908  0.012479701  -0.22139271    0.1671168   124155 
29924000  0.037940038  -0.22232717  -0.22232717 -0.054244856  0.012433077  -0.22232717   0.16808232   124143 
29925000  0.037925811  -0.22212182  -0.22212182  -0.05408764 0.0087234887  -0.22212182   0.16803418   124132 
29926000   0.03763461  -0.22121829  -0.22121829 -0.054458192 0.0097044748  -0.22121829    0.1667601   124120 
29927000  0.037741107  -0.22196404  -0.22196404 -0.054715875 0.0090368165  -0.22196404   0.16724816   124108 
29928000  0.037706269  -0.22117922  -0.22117922 -0.054069282 0.0067277798  -0.22117922   0.16710994   124096 
29929000  0.037922751  -0.22150107  -0.22150107 -0.053416811 0.0099368888  -0.22150107   0.16808426   124085 
29930000  0.037867327   -0.2212655   -0.2212655 -0.053410661  0.011461421   -0.2212655   0.16785484   124073 
29931000  0.037555332  -0.22025027  -0.22025027 -0.053762309  0.010969879  -0.22025027   0.16648796   124061 
29932000  0.037512358  -0.21978771  -0.21978771  -0.05347417 0.0080146521  -0.21978771   0.16631354   124049 
29933000  0.037584827  -0.22005005  -0.22005005 -0.053400443  0.009024404  -0.22005005   0.16664961   124038 
29934000  0.037273562  -0.22079064  -0.22079064 -0.055505176  0.010916144  -0.22079064   0.16528546   124026 
29935000  0.037025584  -0.21951014  -0.21951014 -0.055308418  0.011316532  -0.21951014   0.16420172   124014 
29936000  0.036830162  -0.21859398  -0.21859398  -0.05524311  0.010118946  -0.21859398   0.16335087   124002 
29937000  0.037134326  -0.21936157  -0.21936157 -0.054645721   0.01187583  -0.21936157   0.16471585   123990 
29938000  0.037253043  -0.21918414  -0.21918414 -0.053927039  0.010316036  -0.21918414    0.1652571   123979 
29939000  0.037126038  -0.21926776  -0.21926776 -0.054558122 0.0094495222  -0.21926776   0.16470964   123967 
29940000  0.037100861   -0.2190783   -0.2190783 -0.054464426   0.01098253   -0.2190783   0.16461388   123955 
29941000  0.036761016  -0.21826081  -0.21826081 -0.055139007 0.0075518805  -0.21826081    0.1631218   123943 
29942000  0.036890895  -0.21917195  -0.21917195 -0.055459303 0.0080842927  -0.21917195   0.16371265   123932 
29943000  0.036859743   -0.2186228   -0.2186228 -0.055032559 0.0088360154   -0.2186228   0.16359024   123920 
29944000  0.037171877  -0.21915078  -0.21915078 -0.054159247 0.0068182276  -0.21915078   0.16499153   123908 
29945000  0.037068989  -0.21933669  -0.21933669 -0.054785899 0.0085584427  -0.21933669   0.16455079   123896 
29946000  0.037081548   -0.2181742   -0.2181742 -0.053553053  0.010700959   -0.2181742   0.16462115   123885 
29947000  0.037152234  -0.21893375  -0.21893375 -0.053982811 0.0093158256  -0.21893375   0.16495094   123873 
29948000  0.037370032  -0.21915466  -0.21915466 -0.053220653 0.0096916544  -0.21915466     0.165934   123861 
29949000  0.036991575  -0.21764048  -0.21764048  -0.05337102 0.0099517004  -0.21764048   0.16426946   123849 
29950000  0.036942628  -0.21743039  -0.21743039 -0.053363724  0.010970472  -0.21743039   0.16406667   123838 
29951000  0.036758742  -0.21788236  -0.21788236 -0.054616535  0.010771192  -0.21788236   0.16326583   123826 
29952000  0.036905882  -0.21793194  -0.21793194 -0.053996695   0.01143025  -0.21793194   0.16393525   123814 
29953000  0.036774371  -0.21621323  -0.21621323 -0.052846323  0.011622568  -0.21621323   0.16336691   123802 
29954000   0.03659093    -0.215918    -0.215918 -0.053350254 0.0074302953    -0.215918   0.16256775   123790 
29955000  0.036694489   -0.2166938   -0.2166938 -0.053651469 0.0089204108   -0.2166938   0.16304233   123779 
29956000  0.037138324  -0.21778457  -0.21778457 -0.052754173  0.011425291  -0.21778457    0.1650304   123767 
29957000  0.036814291  -0.21620125  -0.21620125 -0.052594892  0.011299394  -0.21620125   0.16360636   123755 
29958000  0.036875122  -0.21657316  -0.21657316 -0.052680567  0.010437224  -0.21657316   0.16389259   123743 
29959000  0.037046948  -0.21723494  -0.21723494 -0.052564029 0.0096311893  -0.21723494   0.16467092   123732 
29960000  0.037118527  -0.21841055  -0.21841055 -0.053405464 0.0082397048  -0.21841055   0.16500509   123720 
29961000  0.036901955  -0.21773937  -0.21773937 -0.053681117 0.0090940161  -0.21773937   0.16405826   123708 
29962000  0.036620635   -0.2170803   -0.2170803  -0.05425694  0.012899747   -0.2170803   0.16282336   123696 
29963000  0.036508268  -0.21656999  -0.21656999 -0.054231801 0.0082887448  -0.21656999   0.16233819   123685 
29964000  0.036425465  -0.21548461  -0.21548461 -0.053498895 0.0078663532  -0.21548461   0.16198571   123673 
29965000   0.03680955  -0.21774383  -0.21774383 -0.054034183  0.012009192  -0.21774383   0.16370964   123661 
29966000   0.03654384  -0.21753621  -0.21753621  -0.05499254  0.010457207  -0.21753621   0.16254367   123649 
29967000  0.036440604  -0.21772334  -0.21772334 -0.055624425  0.014649906  -0.21772334   0.16209891   123638 
29968000  0.036242324  -0.21721999  -0.21721999 -0.055987441 0.0092504144  -0.21721999   0.16123255   123626 
29969000  0.036044694  -0.21692733  -0.21692733 -0.056558418 0.0072885167  -0.21692733   0.16036891   123614 
29970000  0.036218018  -0.21687156  -0.21687156 -0.055715853 0.0091341461  -0.21687156   0.16115571   123602 
29971000  0.036130912  -0.21729895  -0.21729895 -0.056515221 0.0094684746  -0.21729895   0.16078373   123590 
29972000  0.036281169  -0.21814149  -0.21814149 -0.056674738  0.012131335  -0.21814149   0.16146675   123579 
29973000  0.036240003  -0.21793435  -0.21793435 -0.056635148  0.009294382  -0.21793435    0.1612992   123567 
29974000  0.036022538  -0.21669639  -0.21669639 -0.056349518 0.0063865634  -0.21669639   0.16034687   123555 
29975000  0.036069381  -0.21613241  -0.21613241 -0.055561433  0.012078521  -0.21613241   0.16057097   123543 
29976000  0.036173344  -0.21745881  -0.21745881 -0.056410685  0.011552666  -0.21745881   0.16104813   123532 
29977000  0.035991716  -0.21749356  -0.21749356 -0.057238496 0.0094344648  -0.21749356   0.16025507   123520 
29978000  0.035997202  -0.21712542  -0.21712542 -0.056830349 0.0091827187  -0.21712542   0.16029507   123508 
29979000  0.035966849  -0.21743376  -0.21743376 -0.057258296 0.0079902264  -0.21743376   0.16017547   123496 
29980000  0.035532129  -0.21577612  -0.21577612 -0.057522544 0.0060016071  -0.21577612   0.15825358   123485 
29981000  0.036263573  -0.21861537  -0.21861537 -0.057088385   0.01088964  -0.21861537   0.16152699   123473 
29982000  0.035710013  -0.21704761  -0.21704761  -0.05797086  0.010767945  -0.21704761   0.15907675   123461 
29983000  0.035680634  -0.21678247  -0.21678247 -0.057821141 0.0076237905  -0.21678247   0.15896133   123449 
29984000  0.035790884  -0.21692129  -0.21692129 -0.057454571 0.0093869405  -0.21692129   0.15946671   123438 
29985000  0.035905168  -0.21696911  -0.21696911 -0.056977644 0.0079994049  -0.21696911   0.15999147   123426 
29986000  0.035745987  -0.21559367  -0.21559367 -0.056296021  0.009871316  -0.21559367   0.15929765   123414 
29987000  0.035598938  -0.21534187  -0.21534187 -0.056684096 0.0093411547  -0.21534187   0.15865777   123402 
29988000  0.035821597   -0.2168722   -0.2168722 -0.057206552 0.0096673204   -0.2168722   0.15966564   123390 
29989000  0.035714068  -0.21661938  -0.21661938 -0.057418828 0.0084719281  -0.21661938   0.15920055   123379 
29990000  0.035575456  -0.21567132  -0.21567132 -0.057073221  0.008692268  -0.21567132    0.1585981   123367 
29991000  0.035215793  -0.21455076  -0.21455076 -0.057540799  0.011256555  -0.21455076   0.15700996   123355 
29992000  0.035397901  -0.21543848  -0.21543848 -0.057601231 0.0085488243  -0.21543848   0.15783725   123343 
29993000   0.03539871  -0.21514009  -0.21514009 -0.057285157 0.0094121683  -0.21514009   0.15785494   123332 
29994000  0.035419008  -0.21456333  -0.21456333 -0.056602512 0.0069614436  -0.21456333   0.15796082   123320 
29995000  0.035510775  -0.21488387  -0.21488387 -0.056498379 0.0075583729  -0.21488387   0.15838549   123308 
29996000    0.0357851  -0.21608797  -0.21608797 -0.056463397 0.0097029308  -0.21608797   0.15962457   123296 
29997000  0.035433423  -0.21419807  -0.21419807 -0.056128104 0.0077130892  -0.21419807   0.15806997   123285 
29998000  0.035252514  -0.21508472  -0.21508472 -0.057806484   0.01245972  -0.21508472   0.15727824   123273 
29999000  0.035276189   -0.2151457   -0.2151457 -0.057746514 0.0093454595   -0.2151457   0.15739918   123261 
30000000  0.035295632  -0.21528913  -0.21528913 -0.057787858  0.008420464  -0.21528913   0.15750127   123249 
Loop time of 40448.3 on 288 procs for 30000000 steps with 123249 atoms

Performance: 320409.226 tau/day, 741.688 timesteps/s
93.0% CPU use with 288 MPI tasks x 1 OpenMP threads

MPI task timing breakdown:
Section |  min time  |  avg time  |  max time  |%varavg|  %CPU | %total
-----------------------------------------------------------------------
Pair    | 1453.7     | 5293.7     | 8410.8     |2289.8 |  95.0 | 13.09
Bond    | 19.02      | 20.096     | 21.99      |   9.1 | 100.0 |  0.05
Neigh   | 1831.6     | 5905.4     | 7780.4     |1930.9 |  98.2 | 14.60
Comm    | 11096      | 16299      | 20789      |1480.5 |  92.2 | 40.30
Output  | 3795.9     | 3799.8     | 3811.4     |   8.5 |  89.7 |  9.39
Modify  | 5917.6     | 8662.2     | 16143      |2304.3 |  92.4 | 21.42
Other   |            | 468        |            |       |       |  1.16

Nlocal:        427.948 ave        1038 max           5 min
Histogram: 27 13 47 53 55 37 35 12 5 4
Nghost:        4106.62 ave        8091 max          78 min
Histogram: 20 14 23 28 48 49 51 30 18 7
Neighs:        830.816 ave        3090 max           0 min
Histogram: 84 45 40 42 38 18 8 6 5 2

Total # of neighbors = 239275
Ave neighs/atom = 1.9413951
Ave special neighs/atom = 0.0000000
Neighbor list builds = 3176471
Dangerous builds = 2795292

Total wall time: 11:14:13
