LAMMPS (24 Dec 2020)
OMP_NUM_THREADS environment is not set. Defaulting to 1 thread. (src/comm.cpp:94)
  using 1 OpenMP thread(s) per MPI task
#Read the equilibrated lj fluid and add nanocubes

units           lj
atom_style      full
#atom_modify     map array first cubes
dimension       3
boundary        p p f
pair_style      lj/cut/opt 2.5

variable        sigma           equal 1.0
variable        epsilon         equal 1.0
read_restart	restart.dat.10000000
Reading restart file ...
  restart file = 24 Dec 2020, LAMMPS = 24 Dec 2020
  restoring atom style full from restart
  orthogonal box = (0.0000000 0.0000000 0.0000000) to (80.000000 80.000000 160.00000)
  6 by 4 by 12 MPI processor grid
  restoring pair style lj/cut/opt from restart
  476190 atoms
Finding 1-2 1-3 1-4 neighbors ...
  special bond factors lj:    0        0        0       
  special bond factors coul:  0        0        0       
     0 = max # of 1-2 neighbors
     0 = max # of 1-3 neighbors
     0 = max # of 1-4 neighbors
     1 = max # of special neighbors
  special bonds CPU = 2.390 seconds
  read_restart CPU = 2.900 seconds

group		solvent type 1
366462 atoms in group solvent
group 		hull  type 2
42816 atoms in group hull
group 		dummy type 3
66912 atoms in group dummy

neighbor      0.4 bin
neigh_modify  exclude molecule/intra cubes

pair_modify   shift yes

pair_coeff    1 1 1.0 1.0 #solvent
pair_coeff    2 2 1.0 1.0 1.12 #np
pair_coeff    3 3 0.0 0.0 0.0 #dummy
pair_coeff    2 3 0.0 0.0 0.0 #np dummy
pair_coeff    1 2 ${sol} 1.0  #np solvent
pair_coeff    1 2 0.5 1.0  
pair_coeff    1 3 0.0 0.0 0.0 #dummy solvent


comm_modify   mode multi cutoff/multi 1 2.5 cutoff/multi 2 2.5 cutoff/multi 3 6.95

reset_timestep 	0

balance 	1.05 shift z 10 1.05
Balancing ...
Unused restart file global fix info:
  fix style: STORE, fix ID: msd_COMPUTE_STORE
Unused restart file peratom fix info:
  fix style: STORE, fix ID: bin1_COMPUTE_STORE
  fix style: STORE, fix ID: bin3_COMPUTE_STORE
Neighbor list info ...
  update every 1 steps, delay 10 steps, check yes
  max neighbors/atom: 2000, page size: 100000
  master list distance cutoff = 2.9
  ghost atom cutoff = 6.95
  binsize = 1.45, bins = 56 56 111
  1 neighbor lists, perpetual/occasional/extra = 1 0 0
  (1) pair lj/cut/opt, perpetual
      attributes: half, newton on
      pair build: half/bin/newton
      stencil: half/bin/3d/newton
      bin: standard
 rebalancing time: 0.051 seconds
  iteration count = 3
  initial/final maximal load/proc = 2495.0000 2444.0000
  initial/final imbalance factor  = 1.5089775 1.4781327
  x cuts: 0.0000000 0.16666667 0.33333333 0.50000000 0.66666667 0.83333333 1.0000000
  y cuts: 0.0000000 0.25000000 0.50000000 0.75000000 1.0000000
  z cuts: 0.0000000 0.072916667 0.13541667 0.19791667 0.26041667 0.34375000 0.39583333 0.47916667 0.52083333 0.60416667 0.68750000 0.76041667 1.0000000

####################### WALLS ###########################

variable       epsilonWall equal 2*${epsilon}
variable       epsilonWall equal 2*1
variable       repulsive   equal   0.7147*${sigma}
variable       repulsive   equal   0.7147*1
variable       full	   equal   3*${sigma}
variable       full	   equal   3*1
region         lowWall block EDGE EDGE EDGE EDGE EDGE 2

fix            topWall all wall/lj93 zhi EDGE 	       ${epsilonWall} ${sigma} ${repulsive} units box
fix            topWall all wall/lj93 zhi EDGE 	       2 ${sigma} ${repulsive} units box
fix            topWall all wall/lj93 zhi EDGE 	       2 1 ${repulsive} units box
fix            topWall all wall/lj93 zhi EDGE 	       2 1 0.7147 units box
fix            lowSol solvent wall/lj93 zlo EDGE                ${epsilonWall} ${sigma} ${full} units box
fix            lowSol solvent wall/lj93 zlo EDGE                2 ${sigma} ${full} units box
fix            lowSol solvent wall/lj93 zlo EDGE                2 1 ${full} units box
fix            lowSol solvent wall/lj93 zlo EDGE                2 1 3 units box
fix 	       lowCub cubes wall/lj93 zlo EDGE                ${epsilonWall} ${sigma} ${repulsive} units box
fix 	       lowCub cubes wall/lj93 zlo EDGE                2 ${sigma} ${repulsive} units box
fix 	       lowCub cubes wall/lj93 zlo EDGE                2 1 ${repulsive} units box
fix 	       lowCub cubes wall/lj93 zlo EDGE                2 1 0.7147 units box


###################### COMPUTES ##########################

compute        bin1 solvent chunk/atom bin/1d z lower 1.0 units box
compute        bin3 solvent chunk/atom bin/3d x lower 5.0 y lower 5.0 z lower 5.0 units box

compute 	pe solvent 	   pe/atom
compute 	pe2 all 	   pe/atom

######################  FIXES ############################


fix             peclet solvent ave/chunk 10 10 10000 bin1 density/number norm                  none ave one file density.profile

fix              temp solvent ave/chunk 10 10 10000 bin1 temp norm                  none ave one file temp.profile

fix 		 dens solvent ave/chunk 10 10 500000 bin3 density/number norm 		 none ave one file dens3.profile

fix		 temp2 solvent ave/chunk 10 10 500000 bin3 temp norm none ave one file temp3.profile

fix 		pe solvent ave/chunk 1 1 500000 bin3 c_pe norm none ave one file pe3.profile



################### INTEGRATION

fix             1 cubes rigid/nve/small molecule
  create bodies CPU = 0.025 seconds
  96 rigid bodies with 109728 atoms
  6.9282032 = max distance from body owner to body atom

fix             2 solvent nve



## Thermostat
region          regthermo block EDGE EDGE EDGE EDGE 0 15
group           thermo dynamic solvent region regthermo every 1000
dynamic group thermo defined
fix             3 thermo langevin ${temp} ${temp} 10 156453
fix             3 thermo langevin 1.0 ${temp} 10 156453
fix             3 thermo langevin 1.0 1.0 10 156453

## Evaporation
region		regevap block EDGE EDGE EDGE EDGE 140 EDGE
fix 		4 solvent evaporate ${evap} 1 regevap 156415
fix 		4 solvent evaporate 85 1 regevap 156415


#### Load balancing

fix             bal all balance 1000 1.05 shift z 10 1.05

############### Diagnostics and computes ###################

compute 	coord solvent coord/atom cutoff 2.5 group solvent

compute        	com cubes          rigid/local   1 mol x y z
compute        	quat cubes         rigid/local   1 mol quatw quati quatj quatk

compute 	cc2 cubes 	   chunk/atom 	 molecule
compute 	msd cubes 	   msd/chunk 	 cc2

fix 		msd all ave/time  1 1 10000 c_msd[*] file dump.msd ave one mode vector



#dump            1 all custom 500000 dump.lammpstrj id mol type x y z vx vy vz c_pe2
dump		sol  solvent custom 500000 dump.soltrj id x y z vx vy vz c_pe c_coord
dump		cubetrj cubes custom 500000 cubes.lammpstrj id mol type x y z vx vy vz
dump            com cubes local 500000 dump.*.xyz c_com[*]
dump	        xyz hull xyz 500000 cubes.xyz
#dump            quat cubes      local 100000 dump.*.quat c_quat[*]
dump		order cubes 	local 100000 dump.*.order c_com[*] c_quat[*]
#dump		mol cubes molfile 10000 mol.xyz xyz


dump            2 all image 100000 image.*.png type type zoom 1.5 size 1280 720
dump_modify     2 pad 8
dump		image cubes image 100000 image_cubes.*.png type type zoom 1.5 size 1280 720
dump_modify	image pad 8
dump            3 all movie 5000 movie.avi type type zoom 1.5 size 1280 720
dump		4 cubes movie 5000 movie_cubes.avi type type size 1280 720


thermo          1000
thermo_style    custom step temp epair evdwl etotal press pe ke atoms

restart         1000000 restart.dat
timestep        0.005
timer           full
New timer settings: style=full  mode=nosync  timeout=off

run 		${steps}
run 		10000000
Neighbor list info ...
  update every 1 steps, delay 10 steps, check yes
  max neighbors/atom: 2000, page size: 100000
  master list distance cutoff = 2.9
  ghost atom cutoff = 6.95
  binsize = 1.45, bins = 56 56 111
  2 neighbor lists, perpetual/occasional/extra = 1 1 0
  (1) pair lj/cut/opt, perpetual
      attributes: half, newton on
      pair build: half/bin/newton
      stencil: half/bin/3d/newton
      bin: standard
  (2) compute coord/atom, occasional
      attributes: full, newton on
      pair build: full/bin
      stencil: full/bin/3d
      bin: standard
Per MPI rank memory allocation (min/avg/max) = 16.24 | 20.28 | 25.22 Mbytes
Step Temp E_pair E_vdwl TotEng Press PotEng KinEng Atoms 
       0     1.004883   -2.3922458   -2.3922458   -1.2316481  0.057922176   -2.3922458    1.1605978   476190 
    1000    1.0064714   -2.3938855   -2.3938855   -1.2314264  0.065482362   -2.3938855    1.1624591   476179 
    2000    1.0039395   -2.3921919   -2.3921919   -1.2326278  0.076033851   -2.3921919     1.159564   476167 
    3000    1.0047173   -2.3924101   -2.3924101   -1.2319184  0.067760379   -2.3924101    1.1604917   476155 
    4000    1.0046855   -2.3916296   -2.3916296   -1.2311454  0.071338696   -2.3916296    1.1604842   476143 
    5000    1.0083727   -2.3941108   -2.3941108   -1.2293407  0.068485426   -2.3941108    1.1647701   476132 
    6000    1.0071828    -2.393442    -2.393442   -1.2300171  0.069437312    -2.393442     1.163425   476120 
    7000     1.006337   -2.3928725   -2.3928725   -1.2303952   0.07179609   -2.3928725    1.1624773   476108 
    8000    1.0039619   -2.3925909   -2.3925909    -1.232828  0.064990043   -2.3925909    1.1597629   476096 
    9000    1.0032892   -2.3927995   -2.3927995   -1.2337869   0.07384023   -2.3927995    1.1590126   476085 
   10000     1.003315   -2.3934514   -2.3934514   -1.2343798  0.066747214   -2.3934514    1.1590716   476073 
   11000    1.0034615   -2.3941968   -2.3941968   -1.2349268  0.066753866   -2.3941968      1.15927   476061 
   12000    1.0036787   -2.3931771   -2.3931771   -1.2336269  0.070838457   -2.3931771    1.1595502   476049 
   13000    1.0027198    -2.392907    -2.392907   -1.2344379  0.071522934    -2.392907    1.1584692   476038 
   14000    1.0045715   -2.3950542   -2.3950542   -1.2344164   0.06235992   -2.3950542    1.1606378   476026 
   15000    1.0042695   -2.3951372   -2.3951372   -1.2348192  0.066485028   -2.3951372     1.160318   476014 
   16000    1.0031829   -2.3942552   -2.3942552   -1.2351633   0.06964823   -2.3942552    1.1590918   476002 
   17000    1.0038122   -2.3944708   -2.3944708   -1.2346227  0.069446544   -2.3944708    1.1598481   475990 
   18000    1.0048836   -2.3949671   -2.3949671   -1.2338541  0.064079518   -2.3949671     1.161113   475979 
   19000    1.0040134    -2.394738    -2.394738   -1.2346013  0.063676005    -2.394738    1.1601367   475967 
   20000    1.0039296   -2.3957274   -2.3957274   -1.2356582  0.065060354   -2.3957274    1.1600692   475955 
   21000    1.0038176   -2.3942749   -2.3942749   -1.2343059  0.067988587   -2.3942749     1.159969   475943 
   22000    1.0017004   -2.3917081   -2.3917081   -1.2341589  0.067824101   -2.3917081    1.1575492   475932 
   23000     1.004883   -2.3939036   -2.3939036   -1.2326474  0.063574949   -2.3939036    1.1612562   475920 
   24000    1.0030059   -2.3920341   -2.3920341   -1.2329179  0.064036741   -2.3920341    1.1591162   475908 
   25000    1.0034619   -2.3924765   -2.3924765   -1.2328041  0.065213935   -2.3924765    1.1596724   475896 
   26000    1.0042881   -2.3931869   -2.3931869   -1.2325328   0.06641742   -2.3931869    1.1606541   475885 
   27000    1.0046692   -2.3924764   -2.3924764   -1.2313526  0.062282533   -2.3924764    1.1611239   475873 
   28000    1.0037202     -2.39033     -2.39033   -1.2302737  0.070441167     -2.39033    1.1600562   475861 
   29000    1.0034926   -2.3907289   -2.3907289   -1.2309065  0.066670148   -2.3907289    1.1598224   475849 
   30000    1.0035052   -2.3909135   -2.3909135   -1.2310497  0.070065848   -2.3909135    1.1598639   475838 
   31000    1.0032615   -2.3912512   -2.3912512   -1.2316399  0.065900965   -2.3912512    1.1596114   475826 
   32000    1.0043049    -2.392059    -2.392059   -1.2312123  0.069954548    -2.392059    1.1608467   475814 
   33000    1.0048558   -2.3931461   -2.3931461   -1.2316334  0.068637534   -2.3931461    1.1615128   475802 
   34000    1.0051318   -2.3943584   -2.3943584   -1.2324973  0.065911269   -2.3943584    1.1618611   475790 
   35000    1.0039982   -2.3927565   -2.3927565    -1.232179  0.066125612   -2.3927565    1.1605775   475779 
   36000    1.0031659   -2.3923312   -2.3923312   -1.2326865   0.07023081   -2.3923312    1.1596447   475767 
   37000    1.0027845   -2.3918943   -2.3918943   -1.2326613  0.069698417   -2.3918943     1.159233   475755 
   38000    1.0044532    -2.393316    -2.393316   -1.2321246  0.068876745    -2.393316    1.1611914   475743 
   39000    1.0059104   -2.3954263   -2.3954263   -1.2325235  0.064503059   -2.3954263    1.1629029   475732 
   40000    1.0040941   -2.3951148   -2.3951148   -1.2342824  0.066354678   -2.3951148    1.1608324   475720 
   41000     1.004164   -2.3942936   -2.3942936   -1.2333511  0.068441259   -2.3942936    1.1609425   475708 
   42000    1.0038961   -2.3952043   -2.3952043   -1.2345424  0.066168591   -2.3952043     1.160662   475696 
   43000    1.0018526   -2.3923542   -2.3923542    -1.234028  0.068976065   -2.3923542    1.1583262   475685 
   44000    1.0008967   -2.3911993   -2.3911993   -1.2339491   0.06654934   -2.3911993    1.1572502   475673 
   45000    1.0017392   -2.3924315   -2.3924315   -1.2341781  0.065514519   -2.3924315    1.1582535   475661 
   46000    1.0016271   -2.3927025   -2.3927025   -1.2345494  0.066077641   -2.3927025    1.1581532   475649 
   47000    1.0035767   -2.3941454   -2.3941454   -1.2337112  0.070903152   -2.3941454    1.1604342   475638 
   48000    1.0055304   -2.3962611   -2.3962611   -1.2335385  0.061265663   -2.3962611    1.1627226   475626 
   49000    1.0022618   -2.3925276   -2.3925276   -1.2335554  0.067618367   -2.3925276    1.1589723   475614 
   50000    1.0028674   -2.3940006   -2.3940006   -1.2342988  0.064191838   -2.3940006    1.1597018   475602 
   51000    1.0029758   -2.3939695   -2.3939695    -1.234113  0.067393268   -2.3939695    1.1598565   475590 
   52000    1.0027933   -2.3930924   -2.3930924   -1.2334201  0.065782507   -2.3930924    1.1596723   475579 
   53000    1.0022116   -2.3921804   -2.3921804   -1.2331517  0.062243743   -2.3921804    1.1590287   475567 
   54000    1.0022085   -2.3912799   -2.3912799   -1.2322255  0.071287425   -2.3912799    1.1590544   475555 
   55000    1.0044891   -2.3935516   -2.3935516   -1.2318304   0.06624678   -2.3935516    1.1617212   475543 
   56000    1.0046903   -2.3944698   -2.3944698    -1.232489  0.075113818   -2.3944698    1.1619808   475532 
   57000    1.0036895   -2.3929543   -2.3929543   -1.2321017  0.068195559   -2.3929543    1.1608526   475520 
   58000    1.0050295   -2.3946847   -2.3946847   -1.2322529  0.062212752   -2.3946847    1.1624318   475508 
   59000    1.0032333    -2.391772    -2.391772   -1.2313884  0.069691213    -2.391772    1.1603836   475496 
   60000     1.002653    -2.390618    -2.390618   -1.2308788  0.073624348    -2.390618    1.1597392   475485 
   61000    1.0036002   -2.3917426   -2.3917426   -1.2308785  0.065138395   -2.3917426    1.1608641   475473 
   62000    1.0031346   -2.3924956   -2.3924956   -1.2321408  0.064038861   -2.3924956    1.1603549   475461 
   63000    1.0048329   -2.3945148   -2.3945148   -1.2321661  0.070991249   -2.3945148    1.1623487   475449 
   64000    1.0036078   -2.3938582   -2.3938582   -1.2328999  0.060898747   -2.3938582    1.1609584   475438 
   65000    1.0024398   -2.3929544   -2.3929544   -1.2333178  0.071575618   -2.3929544    1.1596365   475426 
   66000    1.0044535   -2.3961681   -2.3961681   -1.2341728  0.064876092   -2.3961681    1.1619954   475414 
   67000    1.0029473   -2.3951023   -2.3951023   -1.2348201   0.06534946   -2.3951023    1.1602822   475402 
   68000    1.0037155   -2.3960027   -2.3960027   -1.2348025  0.065222152   -2.3960027    1.1612002   475390 
   69000    1.0016368    -2.394523    -2.394523   -1.2357009  0.070805631    -2.394523    1.1588221   475379 
   70000    1.0012329   -2.3933434   -2.3933434   -1.2349593  0.066861203   -2.3933434    1.1583841   475367 
   71000    1.0023521   -2.3950693   -2.3950693    -1.235361  0.060601251   -2.3950693    1.1597082   475355 
   72000    1.0011133   -2.3942813   -2.3942813   -1.2359772  0.065879688   -2.3942813    1.1583041   475343 
   73000    1.0036077   -2.3964252   -2.3964252   -1.2352081  0.066423401   -2.3964252    1.1612171   475332 
   74000    1.0013877   -2.3935907   -2.3935907    -1.234913  0.066826431   -2.3935907    1.1586778   475320 
   75000    1.0017353   -2.3938793   -2.3938793     -1.23477   0.06675437   -2.3938793    1.1591092   475308 
   76000    1.0011493   -2.3918171   -2.3918171   -1.2333566  0.071210992   -2.3918171    1.1584604   475296 
   77000    1.0012399   -2.3927984   -2.3927984   -1.2342063  0.070914554   -2.3927984     1.158592   475285 
   78000      1.00097   -2.3926721   -2.3926721   -1.2343632  0.064210844   -2.3926721     1.158309   475273 
   79000    1.0011712   -2.3924603   -2.3924603   -1.2338892  0.068464381   -2.3924603     1.158571   475261 
   80000    1.0016585   -2.3933032   -2.3933032   -1.2341389  0.062532487   -2.3933032    1.1591643   475249 
   81000    1.0023213   -2.3938842   -2.3938842   -1.2339261  0.066034794   -2.3938842    1.1599581   475238 
   82000    1.0024798   -2.3941174   -2.3941174   -1.2339465  0.073980086   -2.3941174    1.1601708   475226 
   83000    1.0004812   -2.3925518   -2.3925518   -1.2346646  0.070969241   -2.3925518    1.1578871   475214 
   84000     1.002875   -2.3948501   -2.3948501   -1.2341634  0.061891852   -2.3948501    1.1606868   475202 
   85000    1.0022856   -2.3929938   -2.3929938   -1.2329599   0.07201948   -2.3929938    1.1600339   475190 
   86000    1.0036314   -2.3948565   -2.3948565   -1.2332381   0.06843637   -2.3948565    1.1616184   475179 
   87000    1.0026604   -2.3949336   -2.3949336   -1.2344097  0.069409937   -2.3949336    1.1605239   475167 
   88000     1.000839   -2.3936286   -2.3936286   -1.2351836  0.066903074   -2.3936286     1.158445   475155 
   89000    1.0023992   -2.3943997   -2.3943997   -1.2341194   0.06633247   -2.3943997    1.1602802   475143 
   90000    1.0020914   -2.3935623   -2.3935623   -1.2336116   0.06610544   -2.3935623    1.1599507   475132 
   91000   0.99991851   -2.3908536   -2.3908536   -1.2333888  0.072437578   -2.3908536    1.1574648   475120 
   92000     1.000812    -2.392103    -2.392103   -1.2335748  0.073008674    -2.392103    1.1585283   475108 
   93000    1.0037729   -2.3952084   -2.3952084   -1.2332232  0.064211892   -2.3952084    1.1619852   475096 
   94000    1.0018103   -2.3941671   -2.3941671    -1.234427  0.068183146   -2.3941671    1.1597401   475085 
   95000    1.0001101     -2.39213     -2.39213   -1.2343289  0.076524605     -2.39213    1.1578011   475073 
   96000    1.0010394   -2.3927368   -2.3927368   -1.2338306  0.063569588   -2.3927368    1.1589062   475061 
   97000    1.0033126   -2.3936445   -2.3936445   -1.2320772  0.062129889   -2.3936445    1.1615672   475049 
   98000    1.0008708    -2.392077    -2.392077   -1.2333098  0.065256826    -2.392077    1.1587671   475038 
   99000    1.0008455   -2.3920439   -2.3920439   -1.2332768  0.060504316   -2.3920439    1.1587671   475026 
  100000   0.99967761   -2.3909075   -2.3909075   -1.2334633  0.067269302   -2.3909075    1.1574442   475014 
  101000    1.0015947   -2.3919472   -2.3919472   -1.2322541  0.070066782   -2.3919472    1.1596932   475002 
  102000    1.0023287   -2.3929556   -2.3929556   -1.2323833  0.068353972   -2.3929556    1.1605724   474990 
  103000    1.0021219   -2.3936255   -2.3936255   -1.2332658  0.068294335   -2.3936255    1.1603597   474979 
  104000    1.0004099   -2.3915484   -2.3915484   -1.2331418  0.061643237   -2.3915484    1.1584067   474967 
  105000    1.0011533   -2.3933922   -2.3933922   -1.2340955  0.069857541   -2.3933922    1.1592967   474955 
  106000    1.0004787    -2.392008    -2.392008   -1.2334632  0.066560959    -2.392008    1.1585448   474943 
  107000    1.0022296   -2.3932575   -2.3932575   -1.2326582  0.065503974   -2.3932575    1.1605993   474932 
  108000    1.0016747   -2.3940243   -2.3940243   -1.2340383  0.069271195   -2.3940243     1.159986   474920 
  109000    1.0012786    -2.393115    -2.393115   -1.2335584  0.065804669    -2.393115    1.1595566   474908 
  110000    1.0002352   -2.3916681   -2.3916681   -1.2332906  0.066257875   -2.3916681    1.1583776   474896 
  111000   0.99943668   -2.3909877   -2.3909877   -1.2335081  0.065136281   -2.3909877    1.1574796   474885 
  112000    1.0005916   -2.3921722   -2.3921722   -1.2333257  0.062385324   -2.3921722    1.1588464   474873 
  113000    1.0028093   -2.3946382   -2.3946382   -1.2331941  0.066216486   -2.3946382    1.1614442   474861 
  114000     1.001888   -2.3930816   -2.3930816   -1.2326751    0.0657161   -2.3930816    1.1604065   474849 
  115000    1.0036864   -2.3954741   -2.3954741   -1.2329577  0.067769711   -2.3954741    1.1625164   474838 
  116000    1.0023968   -2.3942789   -2.3942789   -1.2332268  0.062388412   -2.3942789    1.1610521   474826 
  117000    1.0005316   -2.3927181   -2.3927181   -1.2337971  0.071511014   -2.3927181    1.1589209   474814 
  118000    1.0000942   -2.3917025   -2.3917025    -1.233259  0.065263163   -2.3917025    1.1584435   474802 
  119000    1.0019709   -2.3938479   -2.3938479   -1.2332012  0.067155752   -2.3938479    1.1606467   474790 
  120000   0.99930371   -2.3912178   -2.3912178   -1.2336338   0.06978922   -2.3912178     1.157584   474779 
  121000    1.0007485   -2.3925887   -2.3925887   -1.2333018  0.068185009   -2.3925887    1.1592869   474767 
  122000   0.99924394   -2.3923022   -2.3923022    -1.234729  0.067903951   -2.3923022    1.1575732   474755 
  123000    1.0004607   -2.3932359   -2.3932359   -1.2342239    0.0631476   -2.3932359    1.1590121   474743 
  124000   0.99836583   -2.3918408   -2.3918408   -1.2352288  0.063228121   -2.3918408     1.156612   474732 
  125000   0.99973338   -2.3934173   -2.3934173   -1.2351917  0.063310544   -2.3934173    1.1582256   474720 
  126000   0.99920264   -2.3925011   -2.3925011    -1.234861  0.069643443   -2.3925011      1.15764   474708 
  127000    1.0012049    -2.393741    -2.393741   -1.2337519  0.064233001    -2.393741    1.1599891   474696 
  128000   0.99944786   -2.3916452   -2.3916452    -1.233665  0.064225125   -2.3916452    1.1579802   474685 
  129000    0.9993338   -2.3914001   -2.3914001   -1.2335228  0.069730127   -2.3914001    1.1578773   474673 
  130000    1.0002462   -2.3931462   -2.3931462   -1.2341824  0.070503633   -2.3931462    1.1589638   474661 
  131000   0.99896912   -2.3914566   -2.3914566   -1.2339433  0.068813671   -2.3914566    1.1575133   474649 
  132000    1.0008102   -2.3923531   -2.3923531   -1.2326797  0.065229541   -2.3923531    1.1596734   474638 
  133000    1.0009018   -2.3933492   -2.3933492   -1.2335403   0.06900362   -2.3933492    1.1598089   474626 
  134000   0.99854656   -2.3894636   -2.3894636   -1.2323546  0.069364361   -2.3894636     1.157109   474614 
  135000    1.0004492   -2.3911549   -2.3911549   -1.2318118  0.071961897   -2.3911549    1.1593431   474602 
  136000    1.0014641   -2.3933244   -2.3933244   -1.2327759  0.063506179   -2.3933244    1.1605485   474590 
  137000    1.0022034   -2.3933481   -2.3933481   -1.2319159  0.064105662   -2.3933481    1.1614322   474579 
  138000    1.0002443   -2.3918167   -2.3918167   -1.2326255  0.066280012   -2.3918167    1.1591912   474567 
  139000   0.99952193   -2.3909902   -2.3909902   -1.2326069   0.06839305   -2.3909902    1.1583833   474555 
  140000   0.99848667   -2.3897019   -2.3897019   -1.2324892  0.064024735   -2.3897019    1.1572127   474543 
  141000   0.99936964   -2.3909767   -2.3909767   -1.2327138  0.065337856   -2.3909767    1.1582629   474532 
  142000    0.9989246   -2.3901814   -2.3901814   -1.2324051  0.066862082   -2.3901814    1.1577764   474520 
  143000    1.0008045   -2.3917496   -2.3917496   -1.2317651   0.07086275   -2.3917496    1.1599845   474508 
  144000    1.0007246   -2.3922196   -2.3922196   -1.2322983  0.062339166   -2.3922196    1.1599213   474496 
  145000   0.99852402   -2.3897385   -2.3897385    -1.232341  0.070354149   -2.3897385    1.1573975   474485 
  146000   0.99913653   -2.3904809   -2.3904809   -1.2323442  0.066277387   -2.3904809    1.1581367   474473 
  147000    1.0006593   -2.3935244   -2.3935244   -1.2335932  0.070803371   -2.3935244    1.1599312   474461 
  148000    1.0019066   -2.3956106   -2.3956106   -1.2342042  0.068166789   -2.3956106    1.1614064   474449 
  149000   0.99877943   -2.3918642   -2.3918642    -1.234056  0.070991121   -2.3918642    1.1578082   474438 
  150000   0.99864941   -2.3925408   -2.3925408    -1.234854  0.067246605   -2.3925408    1.1576868   474426 
  151000   0.99822765   -2.3926525   -2.3926525   -1.2354253  0.067426133   -2.3926525    1.1572271   474414 
  152000   0.99922236   -2.3932312   -2.3932312   -1.2348217  0.067740624   -2.3932312    1.1584096   474402 
  153000   0.99878952   -2.3940612   -2.3940612   -1.2361242  0.062743458   -2.3940612    1.1579371   474390 
  154000   0.99823942   -2.3924219   -2.3924219   -1.2350957  0.067947337   -2.3924219    1.1573261   474379 
  155000   0.99876527   -2.3929994   -2.3929994   -1.2350343  0.061896999   -2.3929994    1.1579651   474367 
  156000    0.9989335   -2.3937443   -2.3937443   -1.2355549  0.063867388   -2.3937443    1.1581894   474355 
  157000    1.0006936    -2.395051    -2.395051   -1.2347916  0.068154406    -2.395051    1.1602594   474343 
  158000    1.0013748   -2.3957874   -2.3957874   -1.2347112  0.064750887   -2.3957874    1.1610763   474332 
  159000    1.0009526   -2.3963911   -2.3963911   -1.2357751  0.059453272   -2.3963911     1.160616   474320 
  160000   0.99963902   -2.3941198   -2.3941198   -1.2349975  0.071118727   -2.3941198    1.1591223   474308 
  161000    1.0009295   -2.3962187   -2.3962187   -1.2355707  0.067774523   -2.3962187     1.160648   474296 
  162000   0.99779444    -2.392382    -2.392382   -1.2353425  0.066555198    -2.392382    1.1570395   474285 
  163000   0.99942424   -2.3946956   -2.3946956   -1.2357369  0.066053541   -2.3946956    1.1589587   474273 
  164000   0.99714462   -2.3921866   -2.3921866   -1.2358421  0.060346813   -2.3921866    1.1563445   474261 
  165000   0.99797234   -2.3927658   -2.3927658   -1.2354322  0.064900572   -2.3927658    1.1573336   474249 
  166000   0.99805531   -2.3938331   -2.3938331   -1.2363763  0.062633295   -2.3938331    1.1574567   474238 
  167000   0.99590558    -2.391389    -2.391389   -1.2363962  0.062340188    -2.391389    1.1549929   474226 
  168000   0.99848671   -2.3936032   -2.3936032   -1.2355876  0.065774104   -2.3936032    1.1580156   474214 
  169000   0.99925209   -2.3938311   -2.3938311   -1.2348984  0.068823124   -2.3938311    1.1589326   474202 
  170000   0.99948829   -2.3953597   -2.3953597   -1.2361238  0.070835706   -2.3953597    1.1592359   474190 
  171000    0.9993939   -2.3949708   -2.3949708   -1.2358175  0.064014238   -2.3949708    1.1591533   474179 
  172000   0.99894148   -2.3952008   -2.3952008    -1.236543  0.066135258   -2.3952008    1.1586579   474167 
  173000   0.99828112   -2.3944484   -2.3944484   -1.2365271   0.06901321   -2.3944484    1.1579213   474155 
  174000     1.001139   -2.3971158   -2.3971158   -1.2358502  0.068410914   -2.3971158    1.1612656   474143 
  175000   0.99989301   -2.3973544   -2.3973544   -1.2375073  0.069799536   -2.3973544    1.1598472   474132 
  176000   0.99795003   -2.3951355   -2.3951355   -1.2375128  0.070604266   -2.3951355    1.1576227   474120 
  177000   0.99849031   -2.3957889   -2.3957889   -1.2375102  0.067707897   -2.3957889    1.1582787   474108 
  178000   0.99757172    -2.394275    -2.394275   -1.2370326  0.065553068    -2.394275    1.1572424   474096 
  179000   0.99939848    -2.395813    -2.395813   -1.2364246  0.071952282    -2.395813    1.1593885   474085 
  180000   0.99790841   -2.3951893   -2.3951893   -1.2375001  0.070005557   -2.3951893    1.1576891   474073 
  181000   0.99762956   -2.3951227   -2.3951227   -1.2377278  0.062123512   -2.3951227    1.1573949   474061 
  182000   0.99829396   -2.3965082   -2.3965082   -1.2383131  0.075924016   -2.3965082    1.1581951   474049 
  183000   0.99788526    -2.394894    -2.394894   -1.2371463  0.067510544    -2.394894    1.1577478   474038 
  184000   0.99797938   -2.3952245   -2.3952245   -1.2373382  0.068640548   -2.3952245    1.1578863   474026 
  185000    1.0011351   -2.3975427   -2.3975427   -1.2359656  0.069225641   -2.3975427     1.161577   474014 
  186000   0.99949609   -2.3952233   -2.3952233   -1.2355186  0.063385937   -2.3952233    1.1597047   474002 
  187000   0.99721225   -2.3922796   -2.3922796   -1.2351955  0.073232337   -2.3922796    1.1570841   473990 
  188000   0.99903859   -2.3945518   -2.3945518   -1.2353217  0.069048483   -2.3945518    1.1592301   473979 
  189000   0.99745688   -2.3929473   -2.3929473   -1.2355231   0.06455968   -2.3929473    1.1574241   473967 
  190000   0.99829215   -2.3938391   -2.3938391   -1.2354165  0.064711172   -2.3938391    1.1584227   473955 
  191000   0.99599144   -2.3911978   -2.3911978   -1.2354156  0.070361257   -2.3911978    1.1557822   473943 
  192000   0.99696013   -2.3922652   -2.3922652   -1.2353321  0.065998059   -2.3922652    1.1569331   473932 
  193000    0.9972516   -2.3926672   -2.3926672   -1.2353665  0.075569733   -2.3926672    1.1573007   473920 
  194000    1.0000345   -2.3948616   -2.3948616   -1.2343019  0.065964693   -2.3948616    1.1605596   473908 
  195000    1.0006513   -2.3952624   -2.3952624   -1.2339575  0.068029423   -2.3952624    1.1613048   473896 
  196000   0.99917378   -2.3938034   -2.3938034   -1.2341864  0.062249334   -2.3938034     1.159617   473885 
  197000   0.99747879   -2.3931291   -2.3931291     -1.23545  0.063846915   -2.3931291    1.1576791   473873 
  198000   0.99718332   -2.3926042   -2.3926042   -1.2352387  0.066672699   -2.3926042    1.1573655   473861 
  199000     0.996991   -2.3930637   -2.3930637   -1.2358921  0.065003774   -2.3930637    1.1571716   473849 
  200000     0.999409   -2.3945166   -2.3945166   -1.2345115  0.066939478   -2.3945166     1.160005   473838 
  201000   0.99839495   -2.3932331   -2.3932331   -1.2343757  0.069695408   -2.3932331    1.1588574   473826 
  202000   0.99743717   -2.3923997   -2.3923997   -1.2346247  0.073086056   -2.3923997     1.157775   473814 
  203000   0.99845228   -2.3927146   -2.3927146   -1.2337319  0.065691107   -2.3927146    1.1589826   473802 
  204000   0.99849266   -2.3936793   -2.3936793   -1.2346204  0.061860109   -2.3936793    1.1590588   473790 
  205000   0.99766001    -2.392759    -2.392759   -1.2346398  0.061613133    -2.392759    1.1581192   473779 
  206000   0.99896678   -2.3954103   -2.3954103   -1.2357448  0.067272305   -2.3954103    1.1596655   473767 
  207000   0.99681838   -2.3926265   -2.3926265   -1.2354256  0.063237035   -2.3926265    1.1572008   473755 
  208000   0.99639761   -2.3913821   -2.3913821   -1.2346405  0.063412125   -2.3913821    1.1567417   473743 
  209000   0.99836848   -2.3930738   -2.3930738   -1.2340172  0.060605438   -2.3930738    1.1590566   473732 
  210000    0.9959507   -2.3900502   -2.3900502   -1.2337712  0.062305361   -2.3900502     1.156279   473720 
  211000    0.9981772    -2.391756    -2.391756   -1.2328627  0.068818307    -2.391756    1.1588932   473708 
  212000   0.99880378   -2.3925478   -2.3925478   -1.2328977  0.064033566   -2.3925478    1.1596501   473696 
  213000   0.99891317   -2.3932655   -2.3932655   -1.2334615  0.070254231   -2.3932655     1.159804   473685 
  214000   0.99744279   -2.3914252   -2.3914252   -1.2332991  0.066507358   -2.3914252    1.1581262   473673 
  215000   0.99626283   -2.3890911   -2.3890911   -1.2323057  0.062743821   -2.3890911    1.1567854   473661 
  216000   0.99695183   -2.3897157   -2.3897157   -1.2321009  0.060756651   -2.3897157    1.1576147   473649 
  217000   0.99669459   -2.3885657   -2.3885657   -1.2312228  0.064393062   -2.3885657    1.1573429   473638 
  218000   0.99817247   -2.3902099   -2.3902099   -1.2311216  0.062561058   -2.3902099    1.1590884   473626 
  219000   0.99732801   -2.3896434   -2.3896434   -1.2315062  0.065786207   -2.3896434    1.1581371   473614 
  220000   0.99739375   -2.3895625   -2.3895625   -1.2313197  0.063715519   -2.3895625    1.1582428   473602 
  221000   0.99626283   -2.3882888   -2.3882888     -1.23133  0.065427287   -2.3882888    1.1569588   473590 
  222000   0.99640291   -2.3880002   -2.3880002   -1.2308518  0.066854914   -2.3880002    1.1571484   473579 
  223000   0.99865766   -2.3898802   -2.3898802    -1.230084   0.06660376   -2.3898802    1.1597963   473567 
  224000   0.99761153   -2.3903006   -2.3903006   -1.2316899  0.062352571   -2.3903006    1.1586107   473555 
  225000   0.99777192   -2.3904303   -2.3904303    -1.231604  0.066596464   -2.3904303    1.1588263   473543 
  226000   0.99743123   -2.3885411   -2.3885411   -1.2300835   0.05970635   -2.3885411    1.1584576   473532 
  227000   0.99851078   -2.3881794   -2.3881794   -1.2284386  0.065771556   -2.3881794    1.1597408   473520 
  228000   0.99732658    -2.387744    -2.387744   -1.2293492  0.067377423    -2.387744    1.1583947   473508 
  229000   0.99803632   -2.3878324   -2.3878324    -1.228584  0.067965535   -2.3878324    1.1592485   473496 
  230000   0.99928131   -2.3888184   -2.3888184   -1.2280969  0.068883043   -2.3888184    1.1607215   473485 
  231000    0.9989442   -2.3899489   -2.3899489   -1.2295895  0.061139553   -2.3899489    1.1603594   473473 
  232000   0.99896923    -2.389893    -2.389893   -1.2294751  0.067395486    -2.389893    1.1604179   473461 
  233000   0.99740039   -2.3878697   -2.3878697   -1.2292449  0.067050923   -2.3878697    1.1586248   473449 
  234000   0.99880472    -2.390265    -2.390265   -1.2299819  0.063186728    -2.390265    1.1602831   473438 
  235000   0.99877283   -2.3912405   -2.3912405    -1.230965    0.0710383   -2.3912405    1.1602755   473426 
  236000   0.99699657   -2.3891947   -2.3891947   -1.2309533  0.070264444   -2.3891947    1.1582414   473414 
  237000    0.9966123   -2.3908223   -2.3908223    -1.232998  0.067419196   -2.3908223    1.1578243   473402 
  238000   0.99661954   -2.3910358   -2.3910358   -1.2331738  0.063788883   -2.3910358    1.1578621   473390 
  239000   0.99610932   -2.3896319   -2.3896319   -1.2323357  0.069950094   -2.3896319    1.1572962   473379 
  240000   0.99689618   -2.3903935   -2.3903935   -1.2321538  0.071956155   -2.3903935    1.1582397   473367 
  241000   0.99812023   -2.3910814   -2.3910814   -1.2313902  0.066416631   -2.3910814    1.1596913   473355 
  242000     0.996559   -2.3902942   -2.3902942   -1.2323875  0.062750307   -2.3902942    1.1579067   473343 
  243000   0.99730314    -2.391695    -2.391695   -1.2328968  0.066137579    -2.391695    1.1587982   473332 
  244000   0.99625685    -2.391286    -2.391286   -1.2336741  0.067990435    -2.391286    1.1576119   473320 
  245000   0.99757695   -2.3914009   -2.3914009   -1.2322258  0.065800967   -2.3914009    1.1591751   473308 
  246000   0.99706345   -2.3911816   -2.3911816   -1.2325738  0.063843307   -2.3911816    1.1586078   473296 
  247000   0.99696762    -2.391342    -2.391342   -1.2328186  0.063961656    -2.391342    1.1585234   473285 
  248000    0.9950206   -2.3903887   -2.3903887   -1.2340985   0.06571168   -2.3903887    1.1562902   473273 
  249000   0.99518959   -2.3900794   -2.3900794   -1.2335635  0.060046983   -2.3900794    1.1565159   473261 
  250000   0.99407758   -2.3896518   -2.3896518   -1.2343989  0.065129718   -2.3896518    1.1552529   473249 
  251000   0.99399347   -2.3903254   -2.3903254   -1.2351433  0.072929159   -2.3903254     1.155182   473238 
  252000   0.99595607   -2.3924292   -2.3924292    -1.234937  0.056455931   -2.3924292    1.1574922   473226 
  253000   0.99690086   -2.3934289   -2.3934289   -1.2348093  0.062042752   -2.3934289    1.1586196   473214 
  254000   0.99726331   -2.3946808   -2.3946808   -1.2356105  0.066631434   -2.3946808    1.1590703   473202 
  255000   0.99557118   -2.3930739   -2.3930739   -1.2359409  0.063209755   -2.3930739     1.157133   473190 
  256000   0.99520855   -2.3938498   -2.3938498   -1.2371115  0.060390976   -2.3938498    1.1567384   473179 
  257000   0.99442933    -2.393585    -2.393585    -1.237723   0.06615779    -2.393585     1.155862   473167 
  258000   0.99586471   -2.3947722   -2.3947722   -1.2372124  0.067186907   -2.3947722    1.1575597   473155 
  259000   0.99706713   -2.3965531   -2.3965531   -1.2375663  0.065940545   -2.3965531    1.1589868   473143 
  260000   0.99557181   -2.3943715   -2.3943715   -1.2370959  0.067680089   -2.3943715    1.1572755   473132 
  261000   0.99680522   -2.3963947   -2.3963947    -1.237656  0.073470149   -2.3963947    1.1587387   473120 
  262000   0.99859978    -2.398905    -2.398905   -1.2380508  0.068441469    -2.398905    1.1608542   473108 
  263000   0.99714257   -2.3976291   -2.3976291   -1.2384395  0.064764082   -2.3976291    1.1591896   473096 
  264000   0.99628344   -2.3963229   -2.3963229   -1.2381051  0.069714391   -2.3963229    1.1582178   473085 
  265000   0.99505228    -2.394195    -2.394195   -1.2373792  0.070810289    -2.394195    1.1568159   473073 
  266000   0.99634523   -2.3961894   -2.3961894    -1.237841  0.066730408   -2.3961894    1.1583484   473061 
  267000   0.99623098    -2.394583    -2.394583    -1.236338  0.066042534    -2.394583    1.1582449   473049 
  268000   0.99725776   -2.3958412   -2.3958412   -1.2363755  0.070320981   -2.3958412    1.1594657   473038 
  269000   0.99712828   -2.3954025   -2.3954025   -1.2360579   0.07189127   -2.3954025    1.1593445   473026 
  270000   0.99671397   -2.3946541   -2.3946541   -1.2357618  0.065936787   -2.3946541    1.1588922   473014 
  271000   0.99649395    -2.395472    -2.395472   -1.2368062  0.064899698    -2.395472    1.1586658   473002 
  272000   0.99537211   -2.3935124   -2.3935124   -1.2361216  0.064926971   -2.3935124    1.1573908   472990 
  273000   0.99616481   -2.3933001   -2.3933001   -1.2349606  0.065371379   -2.3933001    1.1583394   472979 
  274000   0.99644729   -2.3931682   -2.3931682   -1.2344709  0.066450154   -2.3931682    1.1586973   472967 
  275000   0.99636498   -2.3928699   -2.3928699   -1.2342389  0.062904811   -2.3928699     1.158631   472955 
  276000   0.99574681   -2.3919836   -2.3919836   -1.2340421   0.06399212   -2.3919836    1.1579415   472943 
  277000   0.99492804   -2.3918636   -2.3918636   -1.2348473  0.066506322   -2.3918636    1.1570163   472932 
  278000    0.9958337   -2.3930888   -2.3930888   -1.2349899  0.065416239   -2.3930888    1.1580989   472920 
  279000   0.99717938   -2.3944185   -2.3944185   -1.2347252  0.066056784   -2.3944185    1.1596933   472908 
  280000   0.99808071   -2.3953237   -2.3953237   -1.2345528  0.066611776   -2.3953237    1.1607709   472896 
  281000   0.99810195   -2.3971475   -2.3971475   -1.2363248  0.065967104   -2.3971475    1.1608226   472885 
  282000   0.99605807   -2.3939668   -2.3939668   -1.2354919  0.068334653   -2.3939668    1.1584749   472873 
  283000   0.99534707   -2.3929764   -2.3929764   -1.2352991  0.064684995   -2.3929764    1.1576774   472861 
  284000    0.9941053    -2.391134    -2.391134   -1.2348716  0.060829038    -2.391134    1.1562624   472849 
  285000   0.99473311   -2.3921308   -2.3921308   -1.2351112  0.063429455   -2.3921308    1.1570196   472838 
  286000   0.99509609   -2.3933458   -2.3933458   -1.2358746  0.064289371   -2.3933458    1.1574711   472826 
  287000   0.99592632   -2.3930229   -2.3930229   -1.2345566  0.066619446   -2.3930229    1.1584663   472814 
  288000   0.99619683   -2.3939376   -2.3939376   -1.2351273  0.062778762   -2.3939376    1.1588103   472802 
  289000   0.99565349   -2.3935879   -2.3935879   -1.2353802  0.069028141   -2.3935879    1.1582077   472790 
  290000   0.99776316   -2.3951803   -2.3951803   -1.2344915  0.065625613   -2.3951803    1.1606888   472779 
  291000   0.99453822   -2.3903259   -2.3903259   -1.2333593   0.06349512   -2.3903259    1.1569666   472767 
  292000   0.99546259    -2.391405    -2.391405   -1.2333336  0.069486877    -2.391405    1.1580713   472755 
  293000   0.99486087    -2.392189    -2.392189   -1.2347882  0.062480916    -2.392189    1.1574007   472743 
  294000   0.99409968   -2.3909491   -2.3909491    -1.234407  0.064009733   -2.3909491    1.1565421   472732 
  295000   0.99247101   -2.3899488   -2.3899488   -1.2352723  0.059937793   -2.3899488    1.1546766   472720 
  296000   0.99373397   -2.3902159   -2.3902159   -1.2340406   0.06891436   -2.3902159    1.1561753   472708 
  297000   0.99430393   -2.3910874   -2.3910874   -1.2342196  0.064036518   -2.3910874    1.1568678   472696 
  298000   0.99576487   -2.3917668   -2.3917668   -1.2331722  0.066383839   -2.3917668    1.1585945   472685 
  299000   0.99453506   -2.3901047   -2.3901047   -1.2329117  0.070993313   -2.3901047     1.157193   472673 
  300000   0.99587203   -2.3923697   -2.3923697   -1.2335916  0.065217986   -2.3923697    1.1587781   472661 
  301000   0.99667507    -2.393495    -2.393495   -1.2337531  0.067841922    -2.393495    1.1597419   472649 
  302000   0.99568346   -2.3924652   -2.3924652   -1.2338502  0.064544162   -2.3924652     1.158615   472638 
  303000   0.99469733   -2.3904395   -2.3904395   -1.2329426  0.062770048   -2.3904395    1.1574969   472626 
  304000   0.99467182   -2.3906064   -2.3906064   -1.2331097  0.067026434   -2.3906064    1.1574966   472614 
  305000   0.99569619    -2.391947    -2.391947   -1.2332289  0.067326156    -2.391947    1.1587181   472602 
  306000   0.99517733   -2.3914427   -2.3914427    -1.233299  0.064863974   -2.3914427    1.1581437   472590 
  307000   0.99652139   -2.3919995   -2.3919995   -1.2322646  0.067935192   -2.3919995    1.1597348   472579 
  308000   0.99614324   -2.3924057   -2.3924057   -1.2330815  0.071039077   -2.3924057    1.1593242   472567 
  309000    0.9960648   -2.3918512   -2.3918512   -1.2325889  0.071299693   -2.3918512    1.1592623   472555 
  310000   0.99485596   -2.3906281   -2.3906281   -1.2327432  0.071445224   -2.3906281    1.1578849   472543 
  311000   0.99265651   -2.3901535   -2.3901535   -1.2348017   0.06691842   -2.3901535    1.1553519   472532 
  312000   0.99603924   -2.3939566   -2.3939566   -1.2346381  0.064295901   -2.3939566    1.1593185   472520 
  313000   0.99490127   -2.3919922   -2.3919922   -1.2339688  0.072297596   -2.3919922    1.1580234   472508 
  314000   0.99390481    -2.389823    -2.389823   -1.2329301  0.070031587    -2.389823    1.1568929   472496 
  315000   0.99569481   -2.3922762   -2.3922762   -1.2332728  0.066428379   -2.3922762    1.1590034   472485 
  316000   0.99656192   -2.3936183   -2.3936183   -1.2335761  0.068815792   -2.3936183    1.1600422   472473 
  317000    0.9961804   -2.3932724   -2.3932724   -1.2336449  0.067691683   -2.3932724    1.1596276   472461 
  318000   0.99592158   -2.3931215   -2.3931215   -1.2337658  0.074239529   -2.3931215    1.1593557   472449 
  319000   0.99504531   -2.3922071   -2.3922071   -1.2338445  0.064979801   -2.3922071    1.1583626   472438 
  320000   0.99607978   -2.3927665   -2.3927665   -1.2331701  0.064392091   -2.3927665    1.1595963   472426 
  321000   0.99537994   -2.3920452   -2.3920452   -1.2332341  0.071022196   -2.3920452     1.158811   472414 
  322000   0.99347958   -2.3890291   -2.3890291    -1.232401  0.063498333   -2.3890291    1.1566281   472402 
  323000   0.99235952    -2.387406    -2.387406   -1.2320526  0.064345073    -2.387406    1.1553534   472390 
  324000   0.99453382   -2.3902271   -2.3902271   -1.2323153  0.062309248   -2.3902271    1.1579118   472379 
  325000   0.99555175   -2.3908891   -2.3908891   -1.2317627  0.071591516   -2.3908891    1.1591264   472367 
  326000   0.99548144   -2.3917708   -2.3917708   -1.2326968  0.066264801   -2.3917708     1.159074   472355 
  327000   0.99557947   -2.3919813   -2.3919813   -1.2327638  0.071923075   -2.3919813    1.1592176   472343 
  328000    0.9961004   -2.3936123   -2.3936123   -1.2337612  0.067464004   -2.3936123    1.1598511   472332 
  329000   0.99561397   -2.3917102   -2.3917102    -1.232396  0.062258981   -2.3917102    1.1593142   472320 
  330000   0.99563496   -2.3919016   -2.3919016   -1.2325335  0.061515398   -2.3919016    1.1593681   472308 
  331000   0.99426025   -2.3913141   -2.3913141   -1.2335174  0.059023164   -2.3913141    1.1577967   472296 
  332000   0.99159726   -2.3882114   -2.3882114   -1.2334888  0.068615376   -2.3882114    1.1547226   472285 
  333000   0.99486081   -2.3910996   -2.3910996   -1.2325472  0.061008098   -2.3910996    1.1585525   472273 
  334000   0.99533298   -2.3907432   -2.3907432   -1.2316114  0.067713844   -2.3907432    1.1591318   472261 
  335000    0.9938863   -2.3900275   -2.3900275    -1.232551  0.068339274   -2.3900275    1.1574764   472249 
  336000   0.99509175   -2.3921392   -2.3921392   -1.2332319  0.059282699   -2.3921392    1.1589073   472238 
  337000   0.99493442   -2.3918885   -2.3918885    -1.233135  0.067107045   -2.3918885    1.1587535   472226 
  338000   0.99447844   -2.3911409   -2.3911409   -1.2328891  0.068007952   -2.3911409    1.1582519   472214 
  339000   0.99251275   -2.3901188   -2.3901188   -1.2341269  0.063988355   -2.3901188    1.1559919   472202 
  340000    0.9919996   -2.3903201   -2.3903201   -1.2348966  0.068383476   -2.3903201    1.1554235   472190 
  341000   0.99275793   -2.3902224   -2.3902224   -1.2338887  0.071665146   -2.3902224    1.1563337   472179 
  342000   0.99300496   -2.3907678   -2.3907678   -1.2341169  0.056711635   -2.3907678    1.1566509   472167 
  343000    0.9907415   -2.3884655   -2.3884655   -1.2344218  0.066203576   -2.3884655    1.1540437   472155 
  344000   0.99170311   -2.3895882   -2.3895882    -1.234395  0.062040759   -2.3895882    1.1551932   472143 
  345000   0.99179254   -2.3897616   -2.3897616   -1.2344373  0.061382333   -2.3897616    1.1553243   472132 
  346000   0.99344638   -2.3925088   -2.3925088   -1.2352286  0.058804528   -2.3925088    1.1572802   472120 
  347000   0.99179957   -2.3903705   -2.3903705   -1.2349793  0.068113671   -2.3903705    1.1553912   472108 
  348000   0.99292787   -2.3917351   -2.3917351   -1.2350001  0.064751641   -2.3917351     1.156735   472096 
  349000   0.99133232   -2.3904205   -2.3904205   -1.2355174  0.068698889   -2.3904205    1.1549032   472085 
  350000   0.99210141   -2.3910364   -2.3910364   -1.2352079  0.063358029   -2.3910364    1.1558285   472073 
  351000   0.99317332   -2.3924408   -2.3924408   -1.2353341  0.066401992   -2.3924408    1.1571067   472061 
  352000   0.99471182   -2.3937396   -2.3937396   -1.2348109  0.069870388   -2.3937396    1.1589287   472049 
  353000   0.99367884    -2.393748    -2.393748   -1.2359959  0.069832251    -2.393748    1.1577521   472038 
  354000   0.99175967   -2.3920952   -2.3920952   -1.2365497  0.068893673   -2.3920952    1.1555454   472026 
  355000   0.99314662   -2.3945813   -2.3945813   -1.2373904  0.065627993   -2.3945813    1.1571909   472014 
  356000   0.99199257   -2.3943327   -2.3943327   -1.2384571  0.066562888   -2.3943327    1.1558756   472002 
  357000   0.99295745   -2.3945769   -2.3945769   -1.2375476  0.068600427   -2.3945769    1.1570293   471990 
  358000   0.99217579   -2.3948595   -2.3948595   -1.2387141  0.063963483   -2.3948595    1.1561454   471979 
  359000   0.99285933   -2.3961785   -2.3961785   -1.2392071  0.062696674   -2.3961785    1.1569713   471967 
  360000   0.98983021   -2.3933548   -2.3933548    -1.239884  0.068999869   -2.3933548    1.1534708   471955 
  361000   0.99106825   -2.3945938   -2.3945938   -1.2396509  0.065687127   -2.3945938    1.1549429   471943 
  362000   0.99190795   -2.3957851   -2.3957851   -1.2398367  0.067754835   -2.3957851    1.1559484   471932 
  363000   0.99062776     -2.39386     -2.39386   -1.2393741  0.066980735     -2.39386    1.1544858   471920 
  364000   0.99176682   -2.3950092   -2.3950092   -1.2391665  0.066198364   -2.3950092    1.1558427   471908 
  365000    0.9894149   -2.3923136   -2.3923136   -1.2391825  0.063378964   -2.3923136     1.153131   471896 
  366000   0.99133342   -2.3929994   -2.3929994   -1.2376055  0.059232585   -2.3929994    1.1553939   471885 
  367000   0.98998638   -2.3919602   -2.3919602   -1.2381069  0.061759909   -2.3919602    1.1538533   471873 
  368000   0.98959112   -2.3915268   -2.3915268   -1.2381049  0.062632256   -2.3915268    1.1534219   471861 
  369000   0.98992814   -2.3930145   -2.3930145   -1.2391704  0.067954666   -2.3930145    1.1538441   471849 
  370000   0.99203521   -2.3951772   -2.3951772   -1.2388502  0.066178432   -2.3951772     1.156327   471838 
  371000   0.98989169   -2.3936203   -2.3936203   -1.2397624  0.067947924   -2.3936203    1.1538579   471826 
  372000   0.99132235   -2.3947631   -2.3947631   -1.2392082  0.064546685   -2.3947631    1.1555549   471814 
  373000   0.99103136   -2.3960085   -2.3960085   -1.2407634  0.065555309   -2.3960085    1.1552451   471802 
  374000   0.98835254   -2.3927737   -2.3927737    -1.240622  0.067431557   -2.3927737    1.1521517   471790 
  375000   0.99042409    -2.395534    -2.395534   -1.2409405   0.05715295    -2.395534    1.1545935   471779 
  376000   0.98790675    -2.392519    -2.392519   -1.2408309  0.061320971    -2.392519    1.1516881   471767 
  377000   0.99006049   -2.3943317   -2.3943317   -1.2401034  0.062248529   -2.3943317    1.1542283   471755 
  378000   0.98892063   -2.3938558   -2.3938558    -1.240927  0.062080652   -2.3938558    1.1529288   471743 
  379000   0.99249413   -2.3965612   -2.3965612   -1.2394393  0.066708369   -2.3965612    1.1571219   471732 
  380000   0.99207828   -2.3954198   -2.3954198   -1.2387533  0.061690545   -2.3954198    1.1566665   471720 
  381000   0.99256824    -2.395643    -2.395643   -1.2383759  0.065955992    -2.395643    1.1572672   471708 
  382000   0.99337547   -2.3970486   -2.3970486   -1.2388107  0.063759435   -2.3970486    1.1582378   471696 
  383000   0.99144227   -2.3949282   -2.3949282   -1.2389175  0.071461362   -2.3949282    1.1560107   471685 
  384000   0.99145313   -2.3946007   -2.3946007   -1.2385479   0.06896252   -2.3946007    1.1560528   471673 
  385000   0.99009755   -2.3932054   -2.3932054   -1.2387038  0.056428413   -2.3932054    1.1545016   471661 
  386000   0.98864041   -2.3924798   -2.3924798   -1.2396481  0.067717934   -2.3924798    1.1528318   471649 
  387000   0.99051402   -2.3942657   -2.3942657   -1.2392222     0.066021   -2.3942657    1.1550435   471638 
  388000   0.98961759   -2.3936072   -2.3936072   -1.2395797  0.064202471   -2.3936072    1.1540275   471626 
  389000   0.98964473   -2.3941036   -2.3941036    -1.240015  0.067653608   -2.3941036    1.1540885   471614 
  390000   0.98918843   -2.3929938   -2.3929938    -1.239408  0.066360363   -2.3929938    1.1535858   471602 
  391000   0.99070169   -2.3939227   -2.3939227   -1.2385428  0.064434087   -2.3939227    1.1553799   471590 
  392000   0.99089321   -2.3950969   -2.3950969   -1.2394667  0.062792722   -2.3950969    1.1556302   471579 
  393000   0.99045153   -2.3933707   -2.3933707   -1.2382262  0.063436379   -2.3933707    1.1551445   471567 
  394000   0.98802884   -2.3922732   -2.3922732   -1.2399249  0.066034658   -2.3922732    1.1523483   471555 
  395000   0.98966951   -2.3940995   -2.3940995   -1.2398082   0.07314605   -2.3940995    1.1542912   471543 
  396000   0.98920458   -2.3938047   -2.3938047   -1.2400288  0.059090976   -2.3938047    1.1537759   471532 
  397000   0.98870974    -2.393502    -2.393502    -1.240274   0.06087474    -2.393502     1.153228   471520 
  398000    0.9889463   -2.3932507   -2.3932507   -1.2397173  0.063033275   -2.3932507    1.1535333   471508 
  399000   0.98930155   -2.3930702   -2.3930702   -1.2390931   0.06589928   -2.3930702    1.1539771   471496 
  400000   0.99195629    -2.394457    -2.394457   -1.2373563  0.061531317    -2.394457    1.1571007   471485 
  401000   0.98891706   -2.3922787   -2.3922787   -1.2386939  0.072375425   -2.3922787    1.1535849   471473 
  402000   0.98967114   -2.3940414   -2.3940414   -1.2395475  0.066735114   -2.3940414    1.1544939   471461 
  403000   0.99040357     -2.39475     -2.39475   -1.2393723  0.064139792     -2.39475    1.1553777   471449 
  404000     0.991087   -2.3956484   -2.3956484   -1.2394464  0.059503454   -2.3956484    1.1562019   471438 
  405000   0.98893291    -2.393564    -2.393564   -1.2398457  0.067168716    -2.393564    1.1537184   471426 
  406000   0.99109393   -2.3954678   -2.3954678   -1.2391989  0.075804735   -2.3954678    1.1562689   471414 
  407000   0.98943651   -2.3935285   -2.3935285   -1.2391638  0.070364527   -2.3935285    1.1543646   471402 
  408000   0.98937313   -2.3945552   -2.3945552   -1.2402351  0.067877428   -2.3945552    1.1543201   471390 
  409000   0.99047749   -2.3959248   -2.3959248   -1.2402893  0.063813339   -2.3959248    1.1556355   471379 
  410000   0.99094941   -2.3953451   -2.3953451   -1.2391296  0.064703404   -2.3953451    1.1562156   471367 
  411000   0.99024919   -2.3946933   -2.3946933   -1.2392653  0.064422079   -2.3946933     1.155428   471355 
  412000   0.99041844   -2.3946145   -2.3946145   -1.2389596  0.069310753   -2.3946145    1.1556549   471343 
  413000   0.99114142   -2.3959942   -2.3959942   -1.2394688  0.059026315   -2.3959942    1.1565255   471332 
  414000   0.98983731    -2.393519    -2.393519   -1.2384858  0.063215526    -2.393519    1.1550332   471320 
  415000   0.98933452   -2.3935335   -2.3935335   -1.2390577  0.060826595   -2.3935335    1.1544759   471308 
  416000   0.99089517   -2.3957311   -2.3957311   -1.2394046  0.067016351   -2.3957311    1.1563264   471296 
  417000   0.99080466   -2.3963191   -2.3963191   -1.2400713  0.063804075   -2.3963191    1.1562478   471285 
  418000   0.98933133   -2.3946961   -2.3946961   -1.2401382  0.064700324   -2.3946961    1.1545579   471273 
  419000   0.98723264   -2.3922309   -2.3922309   -1.2400929  0.064430796   -2.3922309     1.152138   471261 
  420000   0.98846863   -2.3935356   -2.3935356   -1.2399258  0.065152686   -2.3935356    1.1536098   471249 
  421000   0.98939333   -2.3947549   -2.3947549    -1.240039  0.060784038   -2.3947549     1.154716   471238 
  422000   0.98745419    -2.392849    -2.392849   -1.2403669  0.065652747    -2.392849    1.1524822   471226 
  423000   0.98823193   -2.3945065   -2.3945065   -1.2410872  0.063763952   -2.3945065    1.1534193   471214 
  424000   0.98770665   -2.3950428   -2.3950428   -1.2422073  0.063870792   -2.3950428    1.1528355   471202 
  425000   0.98845129   -2.3970405   -2.3970405   -1.2433064  0.065995954   -2.3970405     1.153734   471190 
  426000   0.99076687   -2.3986372   -2.3986372   -1.2421734  0.071901791   -2.3986372    1.1564638   471179 
  427000   0.98922841    -2.398608    -2.398608   -1.2439105  0.064340237    -2.398608    1.1546975   471167 
  428000    0.9879648   -2.3966389   -2.3966389    -1.243387  0.067659283   -2.3966389    1.1532519   471155 
  429000   0.98778774   -2.3961104   -2.3961104   -1.2430359  0.062730495   -2.3961104    1.1530746   471143 
  430000   0.98684836   -2.3956347   -2.3956347   -1.2436298  0.062080709   -2.3956347    1.1520049   471132 
  431000   0.98567524   -2.3950047   -2.3950047   -1.2443399  0.058710939   -2.3950047    1.1506648   471120 
  432000   0.98758494    -2.397249    -2.397249   -1.2443255  0.067089981    -2.397249    1.1529235   471108 
  433000    0.9874349   -2.3967686   -2.3967686   -1.2439909  0.059856052   -2.3967686    1.1527777   471096 
  434000   0.98671506   -2.3955973   -2.3955973   -1.2436331  0.060472143   -2.3955973    1.1519642   471085 
  435000   0.98697157   -2.3957122   -2.3957122   -1.2434192   0.06560058   -2.3957122     1.152293   471073 
  436000   0.98799379   -2.3971604   -2.3971604   -1.2436446  0.070832717   -2.3971604    1.1535159   471061 
  437000   0.98998327   -2.3988863   -2.3988863   -1.2430183  0.067268869   -2.3988863    1.1558681   471049 
  438000   0.98917153   -2.3975842   -2.3975842   -1.2426369  0.063147916   -2.3975842    1.1549473   471038 
  439000   0.98888918   -2.3970652   -2.3970652   -1.2424181  0.063832296   -2.3970652     1.154647   471026 
  440000   0.98632532   -2.3934837   -2.3934837   -1.2418009  0.058988438   -2.3934837    1.1516828   471014 
  441000   0.98747243    -2.393812    -2.393812   -1.2407605  0.061561161    -2.393812    1.1530516   471002 
  442000   0.98810787   -2.3938018   -2.3938018   -1.2399789  0.069089178   -2.3938018    1.1538229   470990 
  443000   0.98848989    -2.394597    -2.394597   -1.2403011  0.055491141    -2.394597     1.154296   470979 
  444000   0.98878594   -2.3952273   -2.3952273   -1.2405562   0.06681834   -2.3952273    1.1546711   470967 
  445000   0.98934752   -2.3958974   -2.3958974   -1.2405411  0.065551299   -2.3958974    1.1553564   470955 
  446000   0.98836654   -2.3947628   -2.3947628   -1.2405226  0.068201913   -2.3947628    1.1542402   470943 
  447000   0.98680595   -2.3927407   -2.3927407   -1.2402961  0.068759745   -2.3927407    1.1524446   470932 
  448000   0.98756193   -2.3928986   -2.3928986   -1.2395417  0.068702119   -2.3928986    1.1533569   470920 
  449000   0.98525219   -2.3915342   -2.3915342   -1.2408455  0.065325942   -2.3915342    1.1506887   470908 
  450000   0.98706085   -2.3938858   -2.3938858   -1.2410554   0.06258378   -2.3938858    1.1528304   470896 
  451000   0.98871541   -2.3954512   -2.3954512   -1.2406613   0.06768682   -2.3954512    1.1547898   470885 
  452000   0.99016687   -2.3984201   -2.3984201   -1.2419056  0.067562953   -2.3984201    1.1565146   470873 
  453000   0.99116473   -2.3989863   -2.3989863   -1.2412767  0.066369597   -2.3989863    1.1577096   470861 
  454000    0.9887147   -2.3959442   -2.3959442   -1.2410669  0.072352934   -2.3959442    1.1548773   470849 
  455000   0.99054963   -2.3977608   -2.3977608   -1.2407132  0.067878382   -2.3977608    1.1570476   470838 
  456000   0.99012724   -2.3971704   -2.3971704   -1.2405867  0.067073188   -2.3971704    1.1565837   470826 
  457000   0.98820593   -2.3946203   -2.3946203   -1.2402514  0.060059161   -2.3946203    1.1543688   470814 
  458000   0.98688146   -2.3935002   -2.3935002   -1.2406492   0.06408093   -2.3935002     1.152851   470802 
  459000   0.98795666   -2.3948889   -2.3948889   -1.2407525  0.066656277   -2.3948889    1.1541365   470790 
  460000     0.986631   -2.3940522   -2.3940522   -1.2414374  0.059996565   -2.3940522    1.1526148   470779 
  461000     0.988092   -2.3958595   -2.3958595   -1.2415085  0.064184228   -2.3958595     1.154351   470767 
  462000   0.98734146   -2.3941782   -2.3941782   -1.2406746  0.065604555   -2.3941782    1.1535035   470755 
  463000   0.98767413   -2.3961515   -2.3961515   -1.2422299  0.069311288   -2.3961515    1.1539216   470743 
  464000   0.98823472   -2.3956256   -2.3956256   -1.2410221  0.062408652   -2.3956256    1.1546035   470732 
  465000   0.98663969   -2.3942615   -2.3942615   -1.2414921  0.061124889   -2.3942615    1.1527694   470720 
  466000   0.98612068   -2.3935255   -2.3935255   -1.2413331  0.061566142   -2.3935255    1.1521924   470708 
  467000   0.98612029     -2.39367     -2.39367   -1.2414487   0.06053769     -2.39367    1.1522213   470696 
  468000   0.98624335   -2.3940394   -2.3940394   -1.2416474  0.060541815   -2.3940394     1.152392   470685 
  469000   0.98447706   -2.3914845   -2.3914845   -1.2411271   0.06729447   -2.3914845    1.1503575   470673 
  470000   0.98519982   -2.3936413   -2.3936413     -1.24241  0.060120984   -2.3936413    1.1512314   470661 
  471000   0.98596986    -2.394566    -2.394566   -1.2424055  0.062948444    -2.394566    1.1521606   470649 
  472000   0.98825538   -2.3971288   -2.3971288   -1.2422705    0.0653703   -2.3971288    1.1548583   470638 
  473000   0.98526032   -2.3931079   -2.3931079   -1.2417202  0.067876511   -2.3931079    1.1513877   470626 
  474000   0.98667535   -2.3952785   -2.3952785   -1.2422078  0.059901118   -2.3952785    1.1530707   470614 
  475000   0.98716448   -2.3961087   -2.3961087    -1.242437  0.060897757   -2.3961087    1.1536717   470602 
  476000   0.98827111   -2.3975772   -2.3975772   -1.2425827  0.059704533   -2.3975772    1.1549945   470590 
  477000    0.9869464   -2.3967045   -2.3967045   -1.2432313  0.067586212   -2.3967045    1.1534732   470579 
  478000   0.98569413   -2.3969756   -2.3969756   -1.2449366  0.068238086   -2.3969756    1.1520391   470567 
  479000   0.98599564   -2.3967219   -2.3967219   -1.2443011  0.063342642   -2.3967219    1.1524208   470555 
  480000   0.98791037   -2.3976738   -2.3976738   -1.2429856  0.063403175   -2.3976738    1.1546882   470543 
  481000   0.98796295   -2.3968521   -2.3968521   -1.2420755   0.06681965   -2.3968521    1.1547767   470532 
  482000   0.98770541   -2.3979237   -2.3979237   -1.2434186  0.064597922   -2.3979237    1.1545051   470520 
  483000   0.98589247   -2.3959081   -2.3959081   -1.2434928  0.066960351   -2.3959081    1.1524154   470508 
  484000   0.98619596   -2.3955621   -2.3955621   -1.2427625  0.065009693   -2.3955621    1.1527995   470496 
  485000    0.9859493   -2.3960147   -2.3960147   -1.2434766  0.064214167   -2.3960147    1.1525381   470485 
  486000    0.9854889   -2.3970628   -2.3970628   -1.2450335   0.06984857   -2.3970628    1.1520293   470473 
  487000   0.98521737    -2.394775    -2.394775   -1.2430337  0.067968642    -2.394775    1.1517413   470461 
  488000   0.98483933   -2.3964467   -2.3964467    -1.245118   0.06441161   -2.3964467    1.1513287   470449 
  489000   0.98385276   -2.3963124   -2.3963124   -1.2461101  0.061701307   -2.3963124    1.1502023   470438 
  490000   0.98637325   -2.3991604   -2.3991604   -1.2459821  0.064746809   -2.3991604    1.1531783   470426 
  491000   0.98504953    -2.397243    -2.397243   -1.2455829  0.065281677    -2.397243    1.1516601   470414 
  492000   0.98626017   -2.3989225   -2.3989225   -1.2458175  0.062817897   -2.3989225     1.153105   470402 
  493000   0.98481661   -2.3974873   -2.3974873   -1.2460408   0.05935956   -2.3974873    1.1514466   470390 
  494000   0.98631727   -2.3999109   -2.3999109   -1.2466828  0.064288971   -2.3999109    1.1532281   470379 
  495000   0.98665008   -2.3992785   -2.3992785   -1.2456318  0.068398332   -2.3992785    1.1536467   470367 
  496000   0.98572996   -2.3981732   -2.3981732    -1.245573    0.0652614   -2.3981732    1.1526002   470355 
  497000   0.98706956   -2.4007827   -2.4007827   -1.2465866   0.06320336   -2.4007827     1.154196   470343 
  498000   0.98632659   -2.3994645   -2.3994645   -1.2461103  0.068197122   -2.3994645    1.1533542   470332 
  499000   0.98487823   -2.3984339   -2.3984339   -1.2467439  0.061765797   -2.3984339      1.15169   470320 
  500000   0.98567078   -2.3982444   -2.3982444   -1.2455982  0.051519087   -2.3982444    1.1526462   470308 
  501000   0.98403601   -2.3968854   -2.3968854   -1.2461215  0.064689107   -2.3968854    1.1507638   470296 
  502000   0.98479227   -2.3974263   -2.3974263   -1.2457511  0.064268216   -2.3974263    1.1516752   470285 
  503000   0.98445393   -2.3971891   -2.3971891   -1.2458802  0.058661988   -2.3971891    1.1513089   470273 
  504000   0.98379864     -2.39693     -2.39693   -1.2463581  0.066080597     -2.39693    1.1505719   470261 
  505000   0.98597797    -2.398887    -2.398887   -1.2457369  0.060948939    -2.398887    1.1531501   470249 
  506000   0.98473768   -2.3988663   -2.3988663   -1.2471398  0.056260223   -2.3988663    1.1517264   470238 
  507000   0.98461106   -2.3984743   -2.3984743   -1.2468666  0.059282531   -2.3984743    1.1516077   470226 
  508000   0.98503794   -2.3992481   -2.3992481   -1.2471116  0.060781673   -2.3992481    1.1521364   470214 
  509000    0.9837249   -2.3980007   -2.3980007   -1.2473707  0.067335701   -2.3980007      1.15063   470202 
  510000   0.98674575   -2.3999831   -2.3999831   -1.2457903  0.066871884   -2.3999831    1.1541928   470190 
  511000    0.9861896   -2.3991716   -2.3991716   -1.2456023  0.066346085   -2.3991716    1.1535693   470179 
  512000   0.98515489   -2.3979603   -2.3979603   -1.2455719  0.065156426   -2.3979603    1.1523884   470167 
  513000   0.98663768   -2.4003141   -2.4003141   -1.2461618  0.068521979   -2.4003141    1.1541523   470155 
  514000   0.98297681   -2.3973552   -2.3973552    -1.247456  0.065104615   -2.3973552    1.1498993   470143 
  515000   0.98502064   -2.3990728   -2.3990728   -1.2467557  0.063347411   -2.3990728    1.1523171   470132 
  516000   0.98382554   -2.3990017   -2.3990017   -1.2480532  0.059481575   -2.3990017    1.1509484   470120 
  517000   0.98286206   -2.3967395   -2.3967395   -1.2468888  0.070139337   -2.3967395    1.1498506   470108 
  518000   0.98486308   -2.3974453   -2.3974453   -1.2452243  0.069220446   -2.3974453     1.152221   470096 
  519000   0.98600888   -2.3984615   -2.3984615    -1.244873  0.064829589   -2.3984615    1.1535885   470085 
  520000   0.98543189   -2.3990479   -2.3990479    -1.246105  0.065385324   -2.3990479    1.1529429   470073 
  521000   0.98468254   -2.3979557   -2.3979557   -1.2458601  0.068897626   -2.3979557    1.1520956   470061 
  522000    0.9849669   -2.3976431   -2.3976431   -1.2451854  0.068404775   -2.3976431    1.1524577   470049 
  523000   0.98512486   -2.3983726   -2.3983726    -1.245703  0.060308379   -2.3983726    1.1526695   470038 
  524000   0.98528995   -2.3980478   -2.3980478   -1.2451556    0.0637371   -2.3980478    1.1528921   470026 
  525000   0.98429377   -2.3964173   -2.3964173   -1.2446614  0.054266234   -2.3964173    1.1517559   470014 
  526000     0.985952   -2.3981132   -2.3981132   -1.2443875    0.0616403   -2.3981132    1.1537257   470002 
  527000    0.9833004   -2.3956486   -2.3956486   -1.2449963  0.059883594   -2.3956486    1.1506523   469990 
  528000   0.98382666   -2.3960872   -2.3960872   -1.2447922  0.068667802   -2.3960872     1.151295   469979 
  529000   0.98411534   -2.3962471   -2.3962471   -1.2445848  0.066785264   -2.3962471    1.1516623   469967 
  530000   0.98423747   -2.3957207   -2.3957207   -1.2438861  0.062102321   -2.3957207    1.1518346   469955 
  531000   0.98398976   -2.3950674   -2.3950674   -1.2434932  0.063649303   -2.3950674    1.1515741   469943 
  532000   0.98360706   -2.3949611   -2.3949611   -1.2438079   0.05857662   -2.3949611    1.1511532   469932 
  533000   0.98222229   -2.3922323   -2.3922323   -1.2426704  0.060139822   -2.3922323    1.1495619   469920 
  534000   0.98198508   -2.3925497   -2.3925497   -1.2432361   0.06269998   -2.3925497    1.1493136   469908 
  535000   0.98225941   -2.3926267   -2.3926267   -1.2429626  0.063479386   -2.3926267    1.1496641   469896 
  536000   0.98406058   -2.3946492   -2.3946492     -1.24285  0.070375729   -2.3946492    1.1517992   469885 
  537000   0.98341559   -2.3940766   -2.3940766    -1.243003   0.05966982   -2.3940766    1.1510736   469873 
  538000   0.98328206   -2.3932648   -2.3932648   -1.2423181  0.063443772   -2.3932648    1.1509467   469861 
  539000   0.98420402   -2.3943289   -2.3943289   -1.2422736  0.065177654   -2.3943289    1.1520553   469849 
  540000   0.98257077   -2.3922955   -2.3922955   -1.2421251  0.056559435   -2.3922955    1.1501704   469838 
  541000   0.98115533   -2.3916105   -2.3916105   -1.2430676  0.062871719   -2.3916105    1.1485429   469826 
  542000   0.98312453   -2.3931634   -2.3931634   -1.2422859  0.062323832   -2.3931634    1.1508775   469814 
  543000   0.98463105    -2.395423    -2.395423   -1.2427525  0.061473143    -2.395423    1.1526705   469802 
  544000    0.9845232   -2.3956124   -2.3956124   -1.2430387  0.061938341   -2.3956124    1.1525736   469790 
  545000   0.98351697   -2.3939669   -2.3939669   -1.2425443   0.06334978   -2.3939669    1.1514226   469779 
  546000   0.98238125   -2.3933031   -2.3933031   -1.2431807  0.059715993   -2.3933031    1.1501224   469767 
  547000   0.98171221   -2.3934552   -2.3934552   -1.2440867  0.062424085   -2.3934552    1.1493685   469755 
  548000    0.9825468   -2.3930158   -2.3930158   -1.2426408  0.062788474   -2.3930158     1.150375   469743 
  549000   0.98192416   -2.3928668   -2.3928668   -1.2431939   0.06181104   -2.3928668    1.1496729   469732 
  550000   0.98093442   -2.3921202   -2.3921202   -1.2435768  0.066920327   -2.3921202    1.1485434   469720 
  551000   0.98170332   -2.3929966   -2.3929966   -1.2435235  0.067568264   -2.3929966    1.1494731   469708 
  552000   0.98332804   -2.3953269   -2.3953269   -1.2439221  0.067863649   -2.3953269    1.1514049   469696 
  553000    0.9844138   -2.3969588   -2.3969588   -1.2442556  0.059988096   -2.3969588    1.1527032   469685 
  554000   0.98596645   -2.3985195   -2.3985195   -1.2439687  0.066677254   -2.3985195    1.1545508   469673 
  555000    0.9848235   -2.3976947   -2.3976947   -1.2444528  0.064381863   -2.3976947    1.1532419   469661 
  556000   0.98345451   -2.3969972   -2.3969972    -1.245329  0.066114505   -2.3969972    1.1516682   469649 
  557000   0.98432065   -2.3978121   -2.3978121   -1.2451026  0.060528567   -2.3978121    1.1527095   469638 
  558000    0.9839014   -2.3968384   -2.3968384   -1.2445904  0.060784198   -2.3968384     1.152248   469626 
  559000   0.98332586   -2.3973971   -2.3973971   -1.2457937  0.068074242   -2.3973971    1.1516034   469614 
  560000   0.98221442   -2.3959351   -2.3959351    -1.245604  0.063310152   -2.3959351    1.1503311   469602 
  561000   0.98232077   -2.3966201   -2.3966201    -1.246135  0.062347934   -2.3966201    1.1504851   469590 
  562000   0.98249288   -2.3969828   -2.3969828   -1.2462692  0.065561148   -2.3969828    1.1507136   469579 
  563000   0.98280741   -2.3974578   -2.3974578   -1.2463464  0.062668168   -2.3974578    1.1511114   469567 
  564000   0.98264015    -2.397346    -2.397346   -1.2464011  0.060867706    -2.397346    1.1509449   469555 
  565000   0.98289043   -2.3971182   -2.3971182   -1.2458507  0.066689568   -2.3971182    1.1512675   469543 
  566000   0.98237199   -2.3973181   -2.3973181   -1.2466309  0.069521245   -2.3973181    1.1506872   469532 
  567000   0.98443432   -2.3977976   -2.3977976   -1.2446652  0.064117789   -2.3977976    1.1531323   469520 
  568000   0.98353995   -2.3969427   -2.3969427   -1.2448286  0.060492583   -2.3969427    1.1521142   469508 
  569000   0.98363948   -2.3980395   -2.3980395   -1.2457793  0.061809936   -2.3980395    1.1522602   469496 
  570000   0.98243875   -2.3968595   -2.3968595   -1.2459789  0.061125751   -2.3968595    1.1508806   469485 
  571000   0.98236098   -2.3963315   -2.3963315   -1.2455126  0.066650373   -2.3963315    1.1508189   469473 
  572000   0.98253812   -2.3972949   -2.3972949    -1.246239  0.063675515   -2.3972949    1.1510558   469461 
  573000   0.98162789   -2.3972011   -2.3972011   -1.2471823   0.06351743   -2.3972011    1.1500189   469449 
  574000   0.98178745   -2.3967806   -2.3967806   -1.2465478  0.064001135   -2.3967806    1.1502328   469438 
  575000   0.98339576     -2.39677     -2.39677   -1.2446235  0.061192453     -2.39677    1.1521465   469426 
  576000   0.98348549   -2.3967024   -2.3967024   -1.2444213  0.066404119   -2.3967024    1.1522811   469414 
  577000   0.98218607   -2.3951049   -2.3951049   -1.2443169  0.064873865   -2.3951049     1.150788   469402 
  578000   0.98381999   -2.3964736   -2.3964736   -1.2437417  0.064553321   -2.3964736    1.1527319   469390 
  579000   0.98091337   -2.3938123   -2.3938123   -1.2444591  0.065225643   -2.3938123    1.1493532   469379 
  580000   0.98125972    -2.394265    -2.394265   -1.2444766  0.057954175    -2.394265    1.1497884   469367 
  581000   0.98060533     -2.39509     -2.39509    -1.246039  0.065875319     -2.39509     1.149051   469355 
  582000    0.9818043   -2.3963088   -2.3963088   -1.2458235  0.065332776   -2.3963088    1.1504853   469343 
  583000   0.98410039    -2.397689    -2.397689   -1.2444861   0.06028499    -2.397689    1.1532029   469332 
  584000   0.98155463   -2.3960514   -2.3960514   -1.2458023  0.061704209   -2.3960514    1.1502491   469320 
  585000   0.98008517   -2.3945702   -2.3945702   -1.2460137  0.065899951   -2.3945702    1.1485565   469308 
  586000   0.98032011   -2.3947103   -2.3947103   -1.2458491  0.057832339   -2.3947103    1.1488612   469296 
  587000   0.98097028   -2.3956302   -2.3956302   -1.2459801  0.061170818   -2.3956302    1.1496501   469285 
  588000   0.98100603   -2.3953894   -2.3953894    -1.245668  0.064183373   -2.3953894    1.1497214   469273 
  589000   0.98156269   -2.3951716   -2.3951716   -1.2447684  0.064139937   -2.3951716    1.1504032   469261 
  590000   0.98234503   -2.3965496   -2.3965496      -1.2452  0.061988381   -2.3965496    1.1513496   469249 
  591000   0.98127333   -2.3965251   -2.3965251   -1.2464047  0.058824681   -2.3965251    1.1501204   469238 
  592000    0.9808749   -2.3939082   -2.3939082   -1.2442254  0.064522338   -2.3939082    1.1496829   469226 
  593000   0.98129886   -2.3951345   -2.3951345   -1.2449253  0.059554465   -2.3951345    1.1502092   469214 
  594000    0.9818336   -2.3940634   -2.3940634    -1.243198  0.063190091   -2.3940634    1.1508654   469202 
  595000   0.98214723   -2.3939552   -2.3939552   -1.2426927  0.060161965   -2.3939552    1.1512625   469190 
  596000   0.98188721   -2.3937644   -2.3937644   -1.2427797  0.062856667   -2.3937644    1.1509847   469179 
  597000   0.98310878    -2.395386    -2.395386   -1.2429399  0.064347413    -2.395386    1.1524461   469167 
  598000     0.982308   -2.3949332   -2.3949332   -1.2433964  0.062391136   -2.3949332    1.1515368   469155 
  599000   0.98177329   -2.3950049   -2.3950049   -1.2440654  0.063217658   -2.3950049    1.1509394   469143 
  600000   0.98211043   -2.3965756   -2.3965756   -1.2452139  0.072289825   -2.3965756    1.1513617   469132 
  601000    0.9818241   -2.3958179   -2.3958179   -1.2447624  0.069044567   -2.3958179    1.1510554   469120 
  602000   0.98373957   -2.3978487   -2.3978487   -1.2445181  0.061613232   -2.3978487    1.1533306   469108 
  603000   0.98085962   -2.3958726   -2.3958726    -1.245889  0.066477267   -2.3958726    1.1499836   469096 
  604000   0.98206976   -2.3973735   -2.3973735   -1.2459441  0.066967712   -2.3973735    1.1514293   469085 
  605000   0.98038058   -2.3952965   -2.3952965   -1.2458182   0.06084151   -2.3952965    1.1494783   469073 
  606000   0.98168434   -2.3971392   -2.3971392   -1.2461028  0.066042349   -2.3971392    1.1510364   469061 
  607000   0.98122915   -2.3972881   -2.3972881    -1.246756   0.06585431   -2.3972881    1.1505321   469049 
  608000   0.98153784   -2.3973579   -2.3973579   -1.2464369  0.064503499   -2.3973579     1.150921   469038 
  609000   0.98121385   -2.3964358   -2.3964358   -1.2458652  0.065768543   -2.3964358    1.1505705   469026 
  610000   0.98117989   -2.3973583   -2.3973583   -1.2467981   0.06332629   -2.3973583    1.1505602   469014 
  611000   0.98143643   -2.3979877   -2.3979877   -1.2470973  0.061257757   -2.3979877    1.1508904   469002 
  612000    0.9826069   -2.3999471   -2.3999471   -1.2476546    0.0579971   -2.3999471    1.1522925   468990 
  613000   0.98442504   -2.4016487   -2.4016487    -1.247197  0.064458184   -2.4016487    1.1544517   468979 
  614000   0.98036516   -2.3962053   -2.3962053   -1.2464853   0.06172652   -2.3962053      1.14972   468967 
  615000   0.98273073   -2.3982891   -2.3982891   -1.2457654  0.064668505   -2.3982891    1.1525237   468955 
  616000   0.98294582   -2.3984904   -2.3984904   -1.2456849  0.062083083   -2.3984904    1.1528055   468943 
  617000   0.98350143   -2.3992913   -2.3992913   -1.2458071  0.061591709   -2.3992913    1.1534841   468932 
  618000    0.9811474    -2.396782    -2.396782   -1.2460293  0.062796274    -2.396782    1.1507527   468920 
  619000   0.98199557   -2.3982216   -2.3982216   -1.2464447  0.065568523   -2.3982216     1.151777   468908 
  620000   0.98251511    -2.397296    -2.397296   -1.2448802  0.073012702    -2.397296    1.1524158   468896 
  621000    0.9821272     -2.39613     -2.39613   -1.2441421  0.067183623     -2.39613    1.1519879   468885 
  622000    0.9815295   -2.3952487   -2.3952487   -1.2439325  0.065901249   -2.3952487    1.1513163   468873 
  623000   0.98021708   -2.3947721   -2.3947721   -1.2449659  0.061330066   -2.3947721    1.1498062   468861 
  624000   0.98281612   -2.3978879   -2.3978879   -1.2450034  0.059207498   -2.3978879    1.1528844   468849 
  625000   0.98220657   -2.3974679   -2.3974679   -1.2452715  0.066514693   -2.3974679    1.1521964   468838 
  626000   0.98192505   -2.3981273   -2.3981273   -1.2462316  0.062793566   -2.3981273    1.1518957   468826 
  627000   0.98109544   -2.3958338   -2.3958338   -1.2448818  0.069609665   -2.3958338    1.1509519   468814 
  628000   0.98151145   -2.3976518   -2.3976518   -1.2461824  0.063415512   -2.3976518    1.1514694   468802 
  629000   0.98238357    -2.398516    -2.398516    -1.245994  0.062173221    -2.398516    1.1525221   468790 
  630000   0.98043028   -2.3962058   -2.3962058   -1.2459483   0.06029962   -2.3962058    1.1502575   468779 
  631000   0.97966421   -2.3948332   -2.3948332   -1.2454451  0.064182789   -2.3948332    1.1493881   468767 
  632000    0.9811117   -2.3964985   -2.3964985   -1.2453826  0.058731775   -2.3964985    1.1511159   468755 
  633000   0.97915124   -2.3942386   -2.3942386   -1.2453935  0.067884524   -2.3942386    1.1488451   468743 
  634000   0.98245435   -2.3979011   -2.3979011   -1.2451533  0.057054822   -2.3979011    1.1527477   468732 
  635000   0.98053588   -2.3966847   -2.3966847   -1.2461585  0.068727502   -2.3966847    1.1505262   468720 
  636000   0.98085315   -2.3977278   -2.3977278   -1.2467999  0.060806072   -2.3977278    1.1509279   468708 
  637000   0.97986377   -2.3964527   -2.3964527   -1.2466563  0.064046534   -2.3964527    1.1497964   468696 
  638000   0.97964869   -2.3962799   -2.3962799   -1.2467089  0.066844873   -2.3962799     1.149571   468685 
  639000     0.980079   -2.3962326   -2.3962326   -1.2461272  0.059722026   -2.3962326    1.1501054   468673 
  640000   0.97955626   -2.3949894   -2.3949894    -1.245468  0.057170632   -2.3949894    1.1495214   468661 
  641000   0.97934753    -2.394866    -2.394866   -1.2455601  0.067737236    -2.394866    1.1493059   468649 
  642000   0.97934437   -2.3952198   -2.3952198   -1.2458906  0.066411704   -2.3952198    1.1493292   468638 
  643000   0.97987916   -2.3958733   -2.3958733    -1.245887   0.06420278   -2.3958733    1.1499862   468626 
  644000    0.9811678   -2.3981948   -2.3981948   -1.2466667  0.060158612   -2.3981948    1.1515281   468614 
  645000   0.97952172   -2.3958982   -2.3958982   -1.2462726  0.065225061   -2.3958982    1.1496256   468602 
  646000   0.98090653   -2.3979271   -2.3979271   -1.2466467  0.062544445   -2.3979271    1.1512804   468590 
  647000   0.98155439   -2.3979141   -2.3979141   -1.2458462  0.058084995   -2.3979141    1.1520678   468579 
  648000   0.97915057   -2.3951553   -2.3951553   -1.2458795  0.066305293   -2.3951553    1.1492759   468567 
  649000   0.97949551   -2.3953325   -2.3953325   -1.2456223  0.062978116   -2.3953325    1.1497102   468555 
  650000   0.98029383   -2.3967294   -2.3967294   -1.2460527  0.061676161   -2.3967294    1.1506767   468543 
[...]
 9833000   0.68410421   -1.9333866   -1.9333866  -0.88973901  0.067342649   -1.9333866    1.0436475   360508 
 9834000   0.68270972   -1.9328308   -1.9328308  -0.89127594   0.06295816   -1.9328308    1.0415548   360496 
 9835000   0.68292804   -1.9336474   -1.9336474  -0.89172769  0.062518467   -1.9336474    1.0419197   360485 
 9836000   0.68308311   -1.9331449   -1.9331449  -0.89095396  0.066807563   -1.9331449     1.042191   360473 
 9837000   0.68310671   -1.9334854   -1.9334854  -0.89122371  0.059105986   -1.9334854    1.0422617   360461 
 9838000   0.68275726    -1.933666    -1.933666   -0.8919028  0.065031162    -1.933666    1.0417632   360449 
 9839000    0.6827169   -1.9317586   -1.9317586  -0.89002516  0.060922075   -1.9317586    1.0417334   360438 
 9840000   0.68205119   -1.9317638   -1.9317638   -0.8910115  0.067309371   -1.9317638    1.0407523   360426 
 9841000   0.68110919   -1.9297998   -1.9297998  -0.89045038  0.062102024   -1.9297998    1.0393494   360414 
 9842000    0.6824538   -1.9306149   -1.9306149  -0.88917896   0.06323786   -1.9306149    1.0414359   360402 
 9843000   0.68161496   -1.9302115   -1.9302115  -0.89002101  0.066391219   -1.9302115    1.0401905   360390 
 9844000   0.68057533   -1.9298116   -1.9298116  -0.89117593  0.063000138   -1.9298116    1.0386357   360379 
 9845000   0.68108903   -1.9314756   -1.9314756  -0.89202133  0.059699609   -1.9314756    1.0394542   360367 
 9846000   0.68280891   -1.9324897   -1.9324897  -0.89037594  0.059551481   -1.9324897    1.0421138   360355 
 9847000   0.68293079   -1.9328414   -1.9328414  -0.89050697  0.057223241   -1.9328414    1.0423345   360343 
 9848000   0.68282577   -1.9338223   -1.9338223  -0.89161629  0.065919522   -1.9338223     1.042206   360332 
 9849000   0.68273364    -1.934417    -1.934417  -0.89231693  0.061647144    -1.934417    1.0421001   360320 
 9850000   0.68415356   -1.9356339   -1.9356339  -0.89133174  0.057434017   -1.9356339    1.0443022   360308 
 9851000   0.68187073   -1.9327521   -1.9327521  -0.89189979   0.06663947   -1.9327521    1.0408523   360296 
 9852000   0.68235824   -1.9336237   -1.9336237  -0.89199546  0.061338587   -1.9336237    1.0416283   360285 
 9853000   0.68203651   -1.9315083   -1.9315083  -0.89033646  0.061997116   -1.9315083    1.0411718   360273 
 9854000   0.68130765   -1.9303666   -1.9303666  -0.89027276  0.061072917   -1.9303666    1.0400938   360261 
 9855000   0.68178963   -1.9307806   -1.9307806  -0.88991626   0.06223095   -1.9307806    1.0408643   360249 
 9856000   0.68238509   -1.9288071   -1.9288071  -0.88700191  0.070078412   -1.9288071    1.0418052   360238 
 9857000   0.68293963   -1.9293966   -1.9293966  -0.88671004  0.063802537   -1.9293966    1.0426865   360226 
 9858000   0.68087927   -1.9274539   -1.9274539   -0.8878784  0.061918151   -1.9274539    1.0395755   360214 
 9859000   0.68100549   -1.9276243   -1.9276243  -0.88782142  0.060440874   -1.9276243    1.0398028   360202 
 9860000   0.67999427   -1.9266677   -1.9266677  -0.88837429  0.059319507   -1.9266677    1.0382934   360190 
 9861000   0.68028286   -1.9265941   -1.9265941   -0.8878283   0.05894393   -1.9265941    1.0387658   360179 
 9862000   0.68096884    -1.926224    -1.926224  -0.88637612  0.061191278    -1.926224    1.0398479   360167 
 9863000   0.67976693   -1.9244522   -1.9244522  -0.88640504  0.059628521   -1.9244522    1.0380472   360155 
 9864000    0.6812475   -1.9275896   -1.9275896   -0.8872469  0.058810133   -1.9275896    1.0403428   360143 
 9865000   0.68209815   -1.9303525   -1.9303525  -0.88867889  0.061287792   -1.9303525    1.0416736   360132 
 9866000   0.68322649    -1.931094    -1.931094  -0.88766251  0.063971521    -1.931094    1.0434315   360120 
 9867000   0.68279479   -1.9305736   -1.9305736  -0.88776661  0.065209119   -1.9305736     1.042807   360108 
 9868000   0.68157789    -1.929987    -1.929987   -0.8890038  0.058584778    -1.929987    1.0409831   360096 
 9869000   0.68153293   -1.9299939   -1.9299939  -0.88904765  0.065006324   -1.9299939    1.0409463   360085 
 9870000   0.68252461   -1.9313441   -1.9313441  -0.88884842  0.060321078   -1.9313441    1.0424957   360073 
 9871000    0.6826069   -1.9316254   -1.9316254  -0.88896924  0.064701504   -1.9316254    1.0426561   360061 
 9872000   0.68278875   -1.9324232   -1.9324232  -0.88945453   0.06332221   -1.9324232    1.0429686   360049 
 9873000   0.68280408   -1.9317797   -1.9317797  -0.88875581  0.062371609   -1.9317797    1.0430239   360038 
 9874000   0.68177613   -1.9295305   -1.9295305  -0.88804212  0.064520803   -1.9295305    1.0414884   360026 
 9875000    0.6798181   -1.9272492   -1.9272492  -0.88871736  0.058075414   -1.9272492    1.0385319   360014 
 9876000   0.68053349   -1.9274422   -1.9274422  -0.88778282   0.05774733   -1.9274422    1.0396594   360002 
 9877000   0.68029029   -1.9255854   -1.9255854  -0.88626289   0.06259259   -1.9255854    1.0393225   359990 
 9878000   0.68218576   -1.9282857   -1.9282857  -0.88603546  0.062879417   -1.9282857    1.0422502   359979 
 9879000    0.6808997   -1.9275698   -1.9275698  -0.88724979  0.064827442   -1.9275698      1.04032   359967 
 9880000   0.68132236   -1.9273607   -1.9273607  -0.88636024  0.061745395   -1.9273607    1.0410005   359955 
 9881000   0.68099743   -1.9270059   -1.9270059  -0.88646723  0.058392555   -1.9270059    1.0405387   359943 
 9882000   0.67984106   -1.9254673   -1.9254673  -0.88666376  0.059475465   -1.9254673    1.0388036   359932 
 9883000   0.68029297   -1.9274578   -1.9274578  -0.88792906  0.061704436   -1.9274578    1.0395288   359920 
 9884000   0.68173954   -1.9288812   -1.9288812  -0.88710727   0.05873819   -1.9288812    1.0417739   359908 
 9885000   0.68050301   -1.9287197   -1.9287197  -0.88880062  0.057217915   -1.9287197     1.039919   359896 
 9886000   0.68083629   -1.9282226   -1.9282226  -0.88776241  0.066345044   -1.9282226    1.0404602   359885 
 9887000   0.68231699    -1.930181    -1.930181  -0.88742321  0.065346337    -1.930181    1.0427577   359873 
 9888000   0.68039994   -1.9290711   -1.9290711  -0.88920846  0.057967842   -1.9290711    1.0398627   359861 
 9889000   0.68095474    -1.929466    -1.929466  -0.88872068  0.061543043    -1.929466    1.0407453   359849 
 9890000   0.68019969   -1.9298537   -1.9298537  -0.89023063  0.063422817   -1.9298537    1.0396231   359838 
 9891000   0.68218672   -1.9309011   -1.9309011  -0.88820628  0.064981563   -1.9309011    1.0426948   359826 
 9892000    0.6811307   -1.9296791   -1.9296791  -0.88856362  0.064604454   -1.9296791    1.0411155   359814 
 9893000   0.68117044   -1.9284022   -1.9284022  -0.88719126  0.059785925   -1.9284022    1.0412109   359802 
 9894000   0.68071038   -1.9278111   -1.9278111  -0.88726871  0.058562174   -1.9278111    1.0405424   359790 
 9895000   0.68099843   -1.9280926   -1.9280926  -0.88707802  0.063999645   -1.9280926    1.0410146   359779 
 9896000   0.67972938   -1.9259356   -1.9259356   -0.8868263  0.063619049   -1.9259356    1.0391093   359767 
 9897000   0.67996789    -1.926866    -1.926866  -0.88735743  0.064207332    -1.926866    1.0395086   359755 
 9898000   0.67885102   -1.9241672   -1.9241672  -0.88633145  0.058266805   -1.9241672    1.0378357   359743 
 9899000   0.68026825   -1.9268764   -1.9268764  -0.88684217  0.057464788   -1.9268764    1.0400342   359732 
 9900000   0.67985481   -1.9277251   -1.9277251  -0.88828834  0.059785503   -1.9277251    1.0394368   359720 
 9901000   0.68091922   -1.9284469   -1.9284469  -0.88734802  0.067549827   -1.9284469    1.0410989   359708 
 9902000   0.68077183   -1.9278725   -1.9278725  -0.88696416  0.068152482   -1.9278725    1.0409083   359696 
 9903000   0.68102183   -1.9288958   -1.9288958  -0.88757337  0.062829731   -1.9288958    1.0413224   359685 
 9904000   0.67853536   -1.9262005   -1.9262005  -0.88864541  0.058151488   -1.9262005     1.037555   359673 
 9905000   0.67628998   -1.9245645   -1.9245645  -0.89040838  0.058344692   -1.9245645    1.0341561   359661 
 9906000    0.6780737   -1.9258869   -1.9258869  -0.88896861   0.05893325   -1.9258869    1.0369183   359649 
 9907000   0.67913946   -1.9276962   -1.9276962  -0.88911639  0.065569795   -1.9276962    1.0385798   359638 
 9908000   0.67978483   -1.9275396   -1.9275396  -0.88793811  0.057167763   -1.9275396    1.0396015   359626 
 9909000   0.68092293   -1.9296075   -1.9296075  -0.88823073  0.051241713   -1.9296075    1.0413767   359614 
 9910000   0.68066549   -1.9310196   -1.9310196  -0.89000186  0.060016381   -1.9310196    1.0410178   359602 
 9911000   0.68004714   -1.9295362   -1.9295362  -0.88942944  0.057163042   -1.9295362    1.0401067   359590 
 9912000   0.67917686   -1.9271748   -1.9271748  -0.88836732  0.057867668   -1.9271748    1.0388075   359579 
 9913000    0.6794069    -1.928776    -1.928776  -0.88958199  0.064441302    -1.928776     1.039194   359567 
 9914000   0.67976259   -1.9292858   -1.9292858  -0.88951303  0.058882172   -1.9292858    1.0397728   359555 
 9915000   0.67881433   -1.9268484   -1.9268484  -0.88849151  0.064613651   -1.9268484    1.0383569   359543 
 9916000   0.67769748   -1.9264155   -1.9264155  -0.88973527  0.060128846   -1.9264155    1.0366802   359532 
 9917000   0.67937112   -1.9280534   -1.9280534   -0.8887783  0.061902682   -1.9280534    1.0392751   359520 
 9918000   0.67915493   -1.9263805   -1.9263805  -0.88740142  0.063862582   -1.9263805    1.0389791   359508 
 9919000   0.67775986   -1.9249146   -1.9249146  -0.88803512  0.062742263   -1.9249146    1.0368795   359496 
 9920000   0.67973122   -1.9277603   -1.9277603  -0.88783312   0.06738354   -1.9277603    1.0399272   359485 
 9921000   0.67991268   -1.9271019   -1.9271019  -0.88686232  0.060165964   -1.9271019    1.0402396   359473 
 9922000   0.68066176   -1.9291353   -1.9291353  -0.88771492  0.057178105   -1.9291353    1.0414204   359461 
 9923000   0.67730349   -1.9244827   -1.9244827  -0.88816593  0.062365501   -1.9244827    1.0363168   359449 
 9924000   0.67895332   -1.9238776   -1.9238776  -0.88500469  0.059715328   -1.9238776    1.0388729   359438 
 9925000   0.67861701   -1.9240672   -1.9240672  -0.88567425  0.059529131   -1.9240672     1.038393   359426 
 9926000   0.67869076   -1.9239492   -1.9239492  -0.88540869  0.065085058   -1.9239492    1.0385405   359414 
 9927000   0.67680957   -1.9206472   -1.9206472  -0.88495075  0.061277919   -1.9206472    1.0356965   359402 
 9928000   0.67709062   -1.9203751   -1.9203751  -0.88421392  0.059450079   -1.9203751    1.0361612   359390 
 9929000   0.67803015   -1.9212098   -1.9212098  -0.88357906   0.05876327   -1.9212098    1.0376307   359379 
 9930000   0.67898447   -1.9226342   -1.9226342  -0.88350834  0.062472895   -1.9226342    1.0391259   359367 
 9931000   0.68006866    -1.924064    -1.924064  -0.88324417  0.065900067    -1.924064    1.0408199   359355 
 9932000   0.68016357   -1.9257641   -1.9257641  -0.88476425  0.064432305   -1.9257641    1.0409999   359343 
 9933000   0.68133305   -1.9272849   -1.9272849   -0.8844632  0.062861739   -1.9272849    1.0428217   359332 
 9934000   0.68042963   -1.9256915   -1.9256915  -0.88421773  0.065968614   -1.9256915    1.0414738   359320 
 9935000   0.67896854   -1.9233465   -1.9233465  -0.88407446      0.05947   -1.9233465    1.0392721   359308 
 9936000    0.6784479   -1.9217399   -1.9217399     -0.88323  0.060434848   -1.9217399    1.0385099   359296 
 9937000   0.67792715   -1.9215558   -1.9215558  -0.88381128  0.060539461   -1.9215558    1.0377445   359285 
 9938000   0.67749101   -1.9209022   -1.9209022  -0.88379065  0.063065426   -1.9209022    1.0371115   359273 
 9939000   0.67904896   -1.9218931   -1.9218931  -0.88236189  0.058788142   -1.9218931    1.0395312   359261 
 9940000   0.67889606   -1.9201561   -1.9201561  -0.88082431   0.06468586   -1.9201561    1.0393318   359249 
 9941000   0.67861534   -1.9206594   -1.9206594  -0.88172552  0.064318413   -1.9206594    1.0389339   359238 
 9942000   0.67817349   -1.9204922   -1.9204922  -0.88220009   0.06733402   -1.9204922    1.0382921   359226 
 9943000   0.67802281   -1.9202238   -1.9202238  -0.88212768  0.059279953   -1.9202238    1.0380961   359214 
 9944000   0.67843719   -1.9201933   -1.9201933  -0.88142811  0.062362213   -1.9201933    1.0387652   359202 
 9945000   0.67734209   -1.9207773   -1.9207773  -0.88365418  0.055421952   -1.9207773    1.0371231   359190 
 9946000    0.6789552   -1.9223801   -1.9223801  -0.88275516  0.067915178   -1.9223801    1.0396249   359179 
 9947000   0.67998969   -1.9225455   -1.9225455  -0.88130179  0.062031841   -1.9225455    1.0412437   359167 
 9948000   0.67861159   -1.9207536   -1.9207536  -0.88158537  0.062372017   -1.9207536    1.0391682   359155 
 9949000   0.67979687   -1.9219195   -1.9219195  -0.88090147  0.063363094   -1.9219195     1.041018   359143 
 9950000   0.67905771   -1.9217641   -1.9217641  -0.88184611  0.060889607   -1.9217641     1.039918   359132 
 9951000   0.67985543   -1.9231403   -1.9231403  -0.88196589  0.057898867   -1.9231403    1.0411744   359120 
 9952000   0.67926791   -1.9219454   -1.9219454  -0.88163604  0.061149236   -1.9219454    1.0403094   359108 
 9953000   0.67865633   -1.9223945   -1.9223945  -0.88298704  0.063852764   -1.9223945    1.0394075   359096 
 9954000   0.67692198   -1.9189833   -1.9189833  -0.88220034  0.059454906   -1.9189833     1.036783   359085 
 9955000   0.67874182   -1.9205384   -1.9205384  -0.88093338  0.067840668   -1.9205384     1.039605   359073 
 9956000   0.67933089   -1.9204991   -1.9204991  -0.87995705  0.062753128   -1.9204991     1.040542   359061 
 9957000    0.6794815   -1.9197272   -1.9197272  -0.87891968  0.061949707   -1.9197272    1.0408075   359049 
 9958000   0.67843557   -1.9173973   -1.9173973   -0.8781601  0.063393023   -1.9173973    1.0392372   359038 
 9959000    0.6791302   -1.9177912   -1.9177912  -0.87745515  0.061728922   -1.9177912     1.040336   359026 
 9960000   0.67921282   -1.9180562   -1.9180562  -0.87755877  0.055048482   -1.9180562    1.0404974   359014 
 9961000    0.6770909   -1.9149383   -1.9149383  -0.87765689  0.061357431   -1.9149383    1.0372814   359002 
 9962000   0.67842101   -1.9163824   -1.9163824  -0.87702854   0.06240353   -1.9163824    1.0393539   358990 
 9963000   0.67766448   -1.9150043   -1.9150043   -0.8767776  0.057479278   -1.9150043    1.0382267   358979 
 9964000   0.68018552   -1.9183259   -1.9183259  -0.87620204  0.059598674   -1.9183259    1.0421239   358967 
 9965000   0.68006779   -1.9178009   -1.9178009  -0.87582258  0.064555451   -1.9178009    1.0419784   358955 
 9966000   0.67908786   -1.9177763   -1.9177763  -0.87726454  0.062707091   -1.9177763    1.0405117   358943 
 9967000    0.6768113   -1.9141114   -1.9141114  -0.87705604  0.062484667   -1.9141114    1.0370553   358932 
 9968000   0.67697009   -1.9155724   -1.9155724  -0.87823906  0.057636101   -1.9155724    1.0373333   358920 
 9969000   0.67737114   -1.9162641   -1.9162641  -0.87828157  0.062182821   -1.9162641    1.0379825   358908 
 9970000   0.67885291   -1.9169167   -1.9169167  -0.87662871  0.063658502   -1.9169167     1.040288   358896 
 9971000   0.67926987   -1.9194289   -1.9194289  -0.87847006  0.057271047   -1.9194289    1.0409588   358885 
 9972000   0.67888009    -1.918339    -1.918339  -0.87794277  0.062860826    -1.918339    1.0403963   358873 
 9973000   0.67777732   -1.9184562   -1.9184562  -0.87971521  0.057479041   -1.9184562     1.038741   358861 
 9974000   0.67809537   -1.9190713   -1.9190713  -0.87980817  0.063266038   -1.9190713    1.0392632   358849 
 9975000   0.67821452   -1.9193086   -1.9193086  -0.87983092   0.06466583   -1.9193086    1.0394777   358838 
 9976000   0.67955314   -1.9215099   -1.9215099  -0.87994571  0.060206328   -1.9215099    1.0415642   358826 
 9977000   0.67819442   -1.9179704   -1.9179704  -0.87845401  0.066246538   -1.9179704    1.0395164   358814 
 9978000   0.67887005   -1.9189474   -1.9189474  -0.87836065  0.063006677   -1.9189474    1.0405868   358802 
 9979000   0.67767783   -1.9170629   -1.9170629  -0.87826882  0.062913099   -1.9170629     1.038794   358790 
 9980000   0.67797648   -1.9178722   -1.9178722   -0.8785885  0.056910682   -1.9178722    1.0392837   358779 
 9981000   0.67867887   -1.9181595   -1.9181595  -0.87776426  0.059717771   -1.9181595    1.0403952   358767 
 9982000   0.67829054   -1.9188038   -1.9188038  -0.87896914  0.061314553   -1.9188038    1.0398347   358755 
 9983000   0.67846835   -1.9179857   -1.9179857   -0.8778436  0.059469884   -1.9179857    1.0401421   358743 
 9984000   0.67802849   -1.9179472   -1.9179472  -0.87844763  0.059632098   -1.9179472    1.0394996   358732 
 9985000    0.6762953    -1.914921    -1.914921   -0.8780439  0.062965405    -1.914921    1.0368771   358720 
 9986000   0.67904475   -1.9185279   -1.9185279  -0.87740064  0.063227414   -1.9185279    1.0411273   358708 
 9987000    0.6786254    -1.918492    -1.918492  -0.87797289  0.060095563    -1.918492    1.0405191   358696 
 9988000   0.67657948   -1.9173428   -1.9173428  -0.87992879  0.060218141   -1.9173428     1.037414   358685 
 9989000   0.67739015   -1.9181802   -1.9181802  -0.87948845  0.059701663   -1.9181802    1.0386918   358673 
 9990000   0.67677249   -1.9180531   -1.9180531  -0.88027373  0.063161642   -1.9180531    1.0377794   358661 
 9991000   0.67791794   -1.9189076   -1.9189076  -0.87933693  0.062709507   -1.9189076    1.0395706   358649 
 9992000   0.67716602   -1.9173553   -1.9173553  -0.87890585  0.062736778   -1.9173553    1.0384494   358638 
 9993000    0.6769219   -1.9172085   -1.9172085  -0.87909872  0.058413917   -1.9172085    1.0381098   358626 
 9994000   0.67680757    -1.917199    -1.917199  -0.87922976  0.056898936    -1.917199    1.0379692   358614 
 9995000   0.67780968   -1.9186403   -1.9186403  -0.87909947   0.06381651   -1.9186403    1.0395409   358602 
 9996000   0.67739606   -1.9190367   -1.9190367  -0.88009545  0.061177343   -1.9190367    1.0389413   358590 
 9997000   0.67634436   -1.9194515   -1.9194515  -0.88209141  0.063712317   -1.9194515    1.0373601   358579 
 9998000   0.67596643   -1.9196218   -1.9196218  -0.88280669  0.056239335   -1.9196218    1.0368151   358567 
 9999000   0.67568278   -1.9205392   -1.9205392  -0.88412453  0.065091124   -1.9205392    1.0364147   358555 
10000000   0.67728277   -1.9219205   -1.9219205   -0.8830168  0.056730494   -1.9219205    1.0389037   358543 
Loop time of 14775.4 on 288 procs for 10000000 steps with 358543 atoms

Performance: 292377.367 tau/day, 676.799 timesteps/s
95.7% CPU use with 288 MPI tasks x 1 OpenMP threads

MPI task timing breakdown:
Section |  min time  |  avg time  |  max time  |%varavg|  %CPU | %total
-----------------------------------------------------------------------
Pair    | 558.44     | 2895.3     | 4411.3     |2619.8 |  96.3 | 19.60
Bond    | 6.3541     | 6.6745     | 7.0344     |   4.8 | 100.0 |  0.05
Neigh   | 1213.3     | 2692.6     | 3232.5     | 870.7 |  99.0 | 18.22
Comm    | 2950.8     | 4908       | 8459.9     |2406.2 |  94.8 | 33.22
Output  | 771.61     | 774.63     | 779.92     |  11.8 |  92.3 |  5.24
Modify  | 2448.3     | 3300.7     | 6511.2     |1153.4 |  94.7 | 22.34
Other   |            | 197.4      |            |       |       |  1.34

Nlocal:        1244.94 ave        2212 max         615 min
Histogram: 12 20 24 107 85 15 11 5 2 7
Nghost:        3498.68 ave        6086 max        1086 min
Histogram: 3 39 18 52 33 44 45 43 9 2
Neighs:        20641.5 ave       39310 max        3395 min
Histogram: 84 28 16 11 9 9 11 10 50 60
FullNghs:      41283.0 ave       77629 max        7265 min
Histogram: 85 27 19 9 4 10 9 11 57 57

Total # of neighbors = 11889512
Ave neighs/atom = 33.160631
Ave special neighs/atom = 0.0000000
Neighbor list builds = 1058824
Dangerous builds = 931765

Total wall time: 4:06:21
