LAMMPS (24 Dec 2020)
OMP_NUM_THREADS environment is not set. Defaulting to 1 thread. (src/comm.cpp:94)
  using 1 OpenMP thread(s) per MPI task
#Read the equilibrated lj fluid and add nanocubes

units           lj
atom_style      full
atom_modify     map array first cubes
dimension       3
boundary        p p f
pair_style      lj/cut/opt 2.5

variable        sigma           equal 1.0
variable        epsilon         equal 1.0
read_restart	restart.dat.10000000
Reading restart file ...
  restart file = 24 Dec 2020, LAMMPS = 24 Dec 2020
WARNING: Restart file used different # of processors: 288 vs. 768 (src/read_restart.cpp:697)
  restoring atom style full from restart
  orthogonal box = (0.0000000 0.0000000 0.0000000) to (120.00000 120.00000 240.00000)
  6 by 8 by 16 MPI processor grid
  restoring pair style lj/cut/opt from restart
  1553347 atoms
Finding 1-2 1-3 1-4 neighbors ...
  special bond factors lj:    0        0        0       
  special bond factors coul:  0        0        0       
     0 = max # of 1-2 neighbors
     0 = max # of 1-3 neighbors
     0 = max # of 1-4 neighbors
     1 = max # of special neighbors
  special bonds CPU = 9.806 seconds
  read_restart CPU = 11.127 seconds

group		solvent type 1
1553347 atoms in group solvent

read_data	data_dull_490.cubes group cubes add append
Reading data file ...
  orthogonal box = (0.0000000 0.0000000 0.0000000) to (120.00000 120.00000 240.00000)
  6 by 8 by 16 MPI processor grid
  reading atoms ...
  362110 atoms
  reading velocities ...
  362110 velocities
Finding 1-2 1-3 1-4 neighbors ...
  special bond factors lj:    0        0        0       
  special bond factors coul:  0        0        0       
     0 = max # of 1-2 neighbors
     0 = max # of 1-3 neighbors
     0 = max # of 1-4 neighbors
     1 = max # of special neighbors
  special bonds CPU = 0.364 seconds
  read_data CPU = 2.843 seconds

group 		hull  type 2
136220 atoms in group hull
group 		dummy type 3
225890 atoms in group dummy

neighbor      0.4 bin
neigh_modify  exclude molecule/intra cubes


pair_modify   shift yes

pair_coeff    1 1 1.0 1.0 #solvent
pair_coeff    2 2 1.0 1.0 1.12 #np
pair_coeff    3 3 0.0 0.0 0.0 #dummy
pair_coeff    2 3 0.0 0.0 0.0 #np dummy
pair_coeff    1 2 ${sol} 1.0  #np solvent
pair_coeff    1 2 .675 1.0  
pair_coeff    1 3 0.0 0.0 2.5 #dummy solvent

# delete solvent where the cubes are
delete_atoms  overlap 1.0 solvent cubes
System init for delete_atoms ...
Unused restart file peratom fix info:
  fix style: STORE, fix ID: bin1_COMPUTE_STORE
Neighbor list info ...
  update every 1 steps, delay 10 steps, check yes
  max neighbors/atom: 2000, page size: 100000
  master list distance cutoff = 2.9
  ghost atom cutoff = 2.9
  binsize = 1.45, bins = 83 83 166
  2 neighbor lists, perpetual/occasional/extra = 1 1 0
  (1) command delete_atoms, occasional
      attributes: full, newton on
      pair build: full/bin
      stencil: full/bin/3d
      bin: standard
  (2) pair lj/cut/opt, perpetual
      attributes: half, newton on
      pair build: half/bin/newton
      stencil: half/bin/3d/newton
      bin: standard
WARNING: Delete_atoms cutoff > minimum neighbor cutoff (src/delete_atoms.cpp:307)
WARNING: Ignoring 'compress yes' for molecular system (src/delete_atoms.cpp:125)
Deleted 269436 atoms, new total = 1646021

pair_coeff    1 1 1.0 1.0 #solvent
pair_coeff    2 2 1.0 1.0 1.12 #np
pair_coeff    3 3 0.0 0.0 0.0 #dummy
pair_coeff    2 3 0.0 0.0 0.0 #np dummy
pair_coeff    1 2 ${sol} 1.0  #np solvent
pair_coeff    1 2 .675 1.0  
pair_coeff    1 3 0.0 0.0 0.0 #dummy solvent


comm_modify   mode multi cutoff/multi 1 2.5 cutoff/multi 2 2.5 cutoff/multi 3 5.51

reset_timestep 	0

balance 	1.05 shift z 10 1.05
Balancing ...
Neighbor list info ...
  update every 1 steps, delay 10 steps, check yes
  max neighbors/atom: 2000, page size: 100000
  master list distance cutoff = 2.9
  ghost atom cutoff = 5.51
  binsize = 1.45, bins = 83 83 166
  1 neighbor lists, perpetual/occasional/extra = 1 0 0
  (1) pair lj/cut/opt, perpetual
      attributes: half, newton on
      pair build: half/bin/newton
      stencil: half/bin/3d/newton
      bin: standard
 rebalancing time: 0.012 seconds
  iteration count = 4
  initial/final maximal load/proc = 3145.0000 3055.0000
  initial/final imbalance factor  = 1.4673932 1.4254010
  x cuts: 0.0000000 0.16666667 0.33333333 0.50000000 0.66666667 0.83333333 1.0000000
  y cuts: 0.0000000 0.12500000 0.25000000 0.37500000 0.50000000 0.62500000 0.75000000 0.87500000 1.0000000
  z cuts: 0.0000000 0.050781250 0.097656250 0.14453125 0.19921875 0.24218750 0.28906250 0.33593750 0.38281250 0.44531250 0.49609375 0.53515625 0.57421875 0.63671875 0.67187500 0.73437500 1.0000000

####################### WALLS ###########################

variable       epsilonWall equal 2*${epsilon}
variable       epsilonWall equal 2*1
variable       repulsive   equal   0.7147*${sigma}
variable       repulsive   equal   0.7147*1
variable       full	   equal   3*${sigma}
variable       full	   equal   3*1
region         lowWall block EDGE EDGE EDGE EDGE EDGE 2

fix            topWall all wall/lj93 zhi EDGE 	       ${epsilonWall} ${sigma} ${repulsive} units box
fix            topWall all wall/lj93 zhi EDGE 	       2 ${sigma} ${repulsive} units box
fix            topWall all wall/lj93 zhi EDGE 	       2 1 ${repulsive} units box
fix            topWall all wall/lj93 zhi EDGE 	       2 1 0.7147 units box
fix            lowSol solvent wall/lj93 zlo EDGE                ${epsilonWall} ${sigma} ${full} units box
fix            lowSol solvent wall/lj93 zlo EDGE                2 ${sigma} ${full} units box
fix            lowSol solvent wall/lj93 zlo EDGE                2 1 ${full} units box
fix            lowSol solvent wall/lj93 zlo EDGE                2 1 3 units box
fix 	       lowCub cubes wall/lj93 zlo EDGE                ${epsilonWall} ${sigma} ${repulsive} units box
fix 	       lowCub cubes wall/lj93 zlo EDGE                2 ${sigma} ${repulsive} units box
fix 	       lowCub cubes wall/lj93 zlo EDGE                2 1 ${repulsive} units box
fix 	       lowCub cubes wall/lj93 zlo EDGE                2 1 0.7147 units box


###################### COMPUTES ##########################

compute        bin1 solvent chunk/atom bin/1d z lower 1.0 units box
compute        bin3 solvent chunk/atom bin/3d x lower 5.0 y lower 5.0 z lower 5.0 units box

compute 	pe solvent 	   pe/atom
compute 	pe2 all 	   pe/atom

######################  FIXES ############################


fix             peclet solvent ave/chunk 10 10 100000 bin1 density/number norm                  none ave one file density.profile

fix              temp solvent ave/chunk 10 10 100000 bin1 temp norm                  none ave one file temp.profile

fix 		 dens solvent ave/chunk 10 10 500000 bin3 density/number norm 		 none ave one file dens3.profile

fix 		pe solvent ave/chunk 1 1 500000 bin3 c_pe norm none ave one file pe3.profile
fix             1 cubes rigid/nve/small molecule
  create bodies CPU = 0.037 seconds
  490 rigid bodies with 362110 atoms
  5.5002725 = max distance from body owner to body atom

fix             2 solvent nve# temp ${temp} ${temp} 10


## Thermostat
region          regthermo block EDGE EDGE EDGE EDGE 0 15
group           thermo dynamic solvent region regthermo every 1000
dynamic group thermo defined
fix             3 thermo langevin ${temp} ${temp} 10 156453
fix             3 thermo langevin 1.0 ${temp} 10 156453
fix             3 thermo langevin 1.0 1.0 10 156453


#### Load balancing

fix             bal all balance 1000 1.05 shift z 10 1.05

############### Diagnostics and computes ###################


compute        	com cubes          rigid/local   1 mol x y z
compute        	quat cubes         rigid/local   1 mol quatw quati quatj quatk

compute 	cc2 cubes 	   chunk/atom 	 molecule
compute 	msd cubes 	   msd/chunk 	 cc2

fix 		msd all ave/time  1 1 10000 c_msd[*] file dump.msd ave one mode vector

dump            1 all custom 500000 dump.lammpstrj id mol type x y z vx vy vz c_pe2
dump		sol  solvent custom 500000 dump.soltrj id x y z vx vy vz c_pe
dump		cubetrj cubes custom 500000 cubes.lammpstrj id mol type x y z vx vy vz
#dump            com cubes local 100000 dump.*.xyz c_com[*]
#dump	        xyz hull xyz 100000 cubes.xyz
#dump            quat cubes      local 100000 dump.*.quat c_quat[*]
dump		order cubes 	local 500000 dump.*.order c_com[*] c_quat[*]
#dump		mol cubes molfile 10000 mol.xyz xyz


dump            2 all image 500000 image.*.png type type zoom 1.5 size 1280 720
dump_modify     2 pad 8
dump		image cubes image 500000 image_cubes.*.png type type zoom 1.5 size 1280 720
dump_modify	image pad 8
dump            3 all movie 10000 movie.avi type type zoom 1.5 size 1280 720
dump		4 cubes movie 10000 movie_cubes.avi type type size 1280 720


thermo          1000
thermo_style    custom step temp epair evdwl etotal press pe ke atoms

restart         1000000 restart.dat
timestep        0.005
timer           full
New timer settings: style=full  mode=nosync  timeout=off

run 		10000000
Per MPI rank memory allocation (min/avg/max) = 15.51 | 20.78 | 22.55 Mbytes
Step Temp E_pair E_vdwl TotEng Press PotEng KinEng Atoms 
       0    1.0081728   -2.5009042   -2.5009042   -1.3204291 -0.032193553   -2.5009042    1.1804751  1646021 
    1000    1.0052364   -2.4979623   -2.4979623   -1.3209256  0.068289576   -2.4979623    1.1770368  1646021 
    2000    1.0046975   -2.4974977   -2.4974977   -1.3210919   0.06672581   -2.4974977    1.1764058  1646021 
    3000    1.0047834   -2.4976143   -2.4976143    -1.321108  0.068463653   -2.4976143    1.1765063  1646021 
    4000     1.004462   -2.4976161   -2.4976161   -1.3214861  0.063054783   -2.4976161      1.17613  1646021 
    5000    1.0036428   -2.4965311   -2.4965311   -1.3213602  0.066344798   -2.4965311    1.1751709  1646021 
    6000    1.0031542   -2.4962473   -2.4962473   -1.3216485   0.06459166   -2.4962473    1.1745988  1646021 
    7000    1.0024983   -2.4960348   -2.4960348   -1.3222041  0.064686822   -2.4960348    1.1738308  1646021 
    8000    1.0021472   -2.4956173   -2.4956173   -1.3221976  0.060926172   -2.4956173    1.1734197  1646021 
    9000    1.0026015   -2.4958164   -2.4958164   -1.3218649  0.064598748   -2.4958164    1.1739516  1646021 
   10000    1.0027307   -2.4958492   -2.4958492   -1.3217464  0.062673373   -2.4958492    1.1741028  1646021 
   11000     1.002086   -2.4951553   -2.4951553   -1.3218073  0.061046981   -2.4951553     1.173348  1646021 
   12000    1.0019763   -2.4950958   -2.4950958   -1.3218763  0.062348832   -2.4950958    1.1732196  1646021 
   13000    1.0011854   -2.4942545   -2.4942545    -1.321961  0.062694048   -2.4942545    1.1722934  1646021 
   14000    1.0017351   -2.4945813   -2.4945813   -1.3216442  0.060500861   -2.4945813    1.1729372  1646021 
   15000    1.0019415   -2.4952151   -2.4952151   -1.3220363  0.060377017   -2.4952151    1.1731788  1646021 
   16000    1.0014641    -2.494472    -2.494472   -1.3218522  0.054812546    -2.494472    1.1726198  1646021 
   17000    1.0016969   -2.4949088   -2.4949088   -1.3220165  0.060979792   -2.4949088    1.1728923  1646021 
   18000    1.0017813   -2.4952334   -2.4952334   -1.3222422  0.060565884   -2.4952334    1.1729912  1646021 
   19000    1.0019707   -2.4953067   -2.4953067   -1.3220938  0.063122238   -2.4953067     1.173213  1646021 
   20000    1.0021535   -2.4956021   -2.4956021   -1.3221751  0.060633495   -2.4956021     1.173427  1646021 
   21000    1.0021229   -2.4956665   -2.4956665   -1.3222753  0.063267827   -2.4956665    1.1733912  1646021 
   22000    1.0014873   -2.4949309   -2.4949309    -1.322284  0.061595285   -2.4949309     1.172647  1646021 
   23000    1.0011991   -2.4944797   -2.4944797   -1.3221703  0.064107715   -2.4944797    1.1723094  1646021 
   24000    1.0016907   -2.4951327   -2.4951327   -1.3222475  0.061753281   -2.4951327    1.1728852  1646021 
   25000    1.0027505   -2.4958945   -2.4958945   -1.3217684  0.061903742   -2.4958945    1.1741261  1646021 
   26000    1.0026697   -2.4956432   -2.4956432   -1.3216117  0.068601255   -2.4956432    1.1740315  1646021 
   27000      1.00265   -2.4955699   -2.4955699   -1.3215616   0.06039182   -2.4955699    1.1740084  1646021 
   28000    1.0032887   -2.4960289   -2.4960289   -1.3212726  0.062316131   -2.4960289    1.1747563  1646021 
   29000    1.0026627   -2.4957303   -2.4957303    -1.321707  0.059862323   -2.4957303    1.1740233  1646021 
   30000    1.0030629   -2.4958844   -2.4958844   -1.3213926  0.064586289   -2.4958844    1.1744918  1646021 
   31000    1.0027393   -2.4955423   -2.4955423   -1.3214294  0.062735927   -2.4955423    1.1741129  1646021 
   32000    1.0030797   -2.4957272   -2.4957272   -1.3212157  0.063888095   -2.4957272    1.1745116  1646021 
   33000     1.002795   -2.4956525   -2.4956525   -1.3214744  0.063656364   -2.4956525    1.1741781  1646021 
   34000    1.0020739   -2.4948355   -2.4948355   -1.3215016  0.062612675   -2.4948355    1.1733338  1646021 
   35000    1.0029816    -2.496203    -2.496203   -1.3218064   0.06247342    -2.496203    1.1743966  1646021 
   36000    1.0026108   -2.4959463   -2.4959463   -1.3219838  0.064405688   -2.4959463    1.1739625  1646021 
   37000    1.0032725   -2.4965155   -2.4965155   -1.3217782  0.067120413   -2.4965155    1.1747373  1646021 
   38000    1.0032489   -2.4961504   -2.4961504   -1.3214408  0.062749886   -2.4961504    1.1747096  1646021 
   39000    1.0033549   -2.4963738   -2.4963738     -1.32154  0.062849634   -2.4963738    1.1748338  1646021 
   40000    1.0028252   -2.4966075   -2.4966075    -1.322394  0.063291702   -2.4966075    1.1742135  1646021 
   41000    1.0037791   -2.4978334   -2.4978334    -1.322503  0.062409234   -2.4978334    1.1753304  1646021 
   42000     1.003788   -2.4977408   -2.4977408      -1.3224  0.065082055   -2.4977408    1.1753409  1646021 
   43000    1.0034176   -2.4972511   -2.4972511   -1.3223439  0.062214862   -2.4972511    1.1749072  1646021 
   44000     1.002716   -2.4964565   -2.4964565   -1.3223708  0.064003553   -2.4964565    1.1740857  1646021 
   45000    1.0030954   -2.4974401   -2.4974401   -1.3229102  0.063705218   -2.4974401    1.1745299  1646021 
   46000     1.002849   -2.4972206   -2.4972206   -1.3229792  0.066833978   -2.4972206    1.1742414  1646021 
   47000    1.0041493   -2.4983885   -2.4983885   -1.3226246  0.064092702   -2.4983885    1.1757639  1646021 
   48000    1.0044258   -2.4986624   -2.4986624   -1.3225747  0.064857409   -2.4986624    1.1760877  1646021 
   49000    1.0041271   -2.4983004   -2.4983004   -1.3225625  0.063995365   -2.4983004     1.175738  1646021 
   50000    1.0043126    -2.498636    -2.498636   -1.3226809   0.06432374    -2.498636    1.1759551  1646021 
   51000    1.0027362   -2.4970553   -2.4970553    -1.322946  0.064212081   -2.4970553    1.1741093  1646021 
   52000    1.0036406   -2.4983654   -2.4983654   -1.3231971  0.062855355   -2.4983654    1.1751683  1646021 
   53000    1.0037233   -2.4989827   -2.4989827   -1.3237177  0.064338038   -2.4989827    1.1752651  1646021 
   54000    1.0025819   -2.4981573   -2.4981573   -1.3242286  0.064999092   -2.4981573    1.1739287  1646021 
   55000    1.0027506   -2.4983052   -2.4983052   -1.3241789  0.065319833   -2.4983052    1.1741262  1646021 
   56000    1.0026242   -2.4987536   -2.4987536   -1.3247754  0.064414214   -2.4987536    1.1739782  1646021 
   57000    1.0024634   -2.4984316   -2.4984316   -1.3246417  0.057352171   -2.4984316    1.1737899  1646021 
   58000    1.0027338   -2.4984286   -2.4984286   -1.3243221  0.064854006   -2.4984286    1.1741065  1646021 
   59000    1.0024066   -2.4980065   -2.4980065   -1.3242831  0.061397722   -2.4980065    1.1737233  1646021 
   60000    1.0034138   -2.4997165   -2.4997165   -1.3248138  0.063103678   -2.4997165    1.1749027  1646021 
   61000    1.0024739   -2.4985365   -2.4985365   -1.3247343  0.063339402   -2.4985365    1.1738021  1646021 
   62000    1.0024919   -2.4978154   -2.4978154   -1.3239921  0.064862378   -2.4978154    1.1738233  1646021 
   63000    1.0033997   -2.4987777   -2.4987777   -1.3238915  0.063088139   -2.4987777    1.1748862  1646021 
   64000    1.0031893   -2.4987942   -2.4987942   -1.3241543  0.061978517   -2.4987942    1.1746399  1646021 
   65000    1.0029339   -2.4987704   -2.4987704   -1.3244296  0.061370094   -2.4987704    1.1743408  1646021 
   66000    1.0025463   -2.4981873   -2.4981873   -1.3243003  0.063804716   -2.4981873     1.173887  1646021 
   67000    1.0027278   -2.4986324   -2.4986324   -1.3245329  0.064903615   -2.4986324    1.1740995  1646021 
   68000    1.0017343   -2.4971436   -2.4971436   -1.3242074  0.065955602   -2.4971436    1.1729362  1646021 
   69000    1.0017346   -2.4972817   -2.4972817   -1.3243452    0.0652338   -2.4972817    1.1729365  1646021 
   70000    1.0038623   -2.4993186   -2.4993186   -1.3238907  0.066862973   -2.4993186    1.1754279  1646021 
   71000    1.0034449   -2.4988205   -2.4988205   -1.3238814   0.06419705   -2.4988205    1.1749391  1646021 
   72000    1.0028558   -2.4978185   -2.4978185   -1.3235692  0.065843938   -2.4978185    1.1742493  1646021 
   73000    1.0029282   -2.4980398   -2.4980398   -1.3237057  0.069525715   -2.4980398    1.1743341  1646021 
   74000    1.0028633   -2.4983743   -2.4983743   -1.3241162  0.065369907   -2.4983743    1.1742582  1646021 
   75000    1.0028938   -2.4980347   -2.4980347   -1.3237408  0.066083128   -2.4980347    1.1742939  1646021 
   76000    1.0031751   -2.4981429   -2.4981429   -1.3235198  0.065201189   -2.4981429    1.1746232  1646021 
   77000     1.003807   -2.4990422   -2.4990422   -1.3236791  0.067565053   -2.4990422    1.1753631  1646021 
   78000    1.0028354   -2.4975851   -2.4975851   -1.3233597  0.069653347   -2.4975851    1.1742255  1646021 
   79000    1.0030101   -2.4982135   -2.4982135   -1.3237835  0.062643118   -2.4982135      1.17443  1646021 
   80000    1.0027994   -2.4982221   -2.4982221   -1.3240388    0.0660293   -2.4982221    1.1741833  1646021 
   81000     1.002622   -2.4976036   -2.4976036    -1.323628  0.065030625   -2.4976036    1.1739756  1646021 
   82000    1.0024037   -2.4975901   -2.4975901   -1.3238701  0.065279983   -2.4975901      1.17372  1646021 
   83000    1.0032987   -2.4987428   -2.4987428   -1.3239748  0.063961815   -2.4987428    1.1747679  1646021 
   84000    1.0032247   -2.4987192   -2.4987192   -1.3240379  0.065813562   -2.4987192    1.1746813  1646021 
   85000    1.0029872   -2.4989486   -2.4989486   -1.3245455  0.063696938   -2.4989486    1.1744032  1646021 
   86000    1.0032365   -2.4986847   -2.4986847   -1.3239895  0.062879677   -2.4986847    1.1746952  1646021 
   87000    1.0028668   -2.4982424   -2.4982424   -1.3239801  0.064211688   -2.4982424    1.1742622  1646021 
   88000    1.0027534    -2.498197    -2.498197   -1.3240676  0.060986387    -2.498197    1.1741295  1646021 
   89000     1.002207   -2.4974757   -2.4974757    -1.323986  0.065685367   -2.4974757    1.1734897  1646021 
   90000    1.0011127   -2.4967529   -2.4967529   -1.3245446  0.060251716   -2.4967529    1.1722083  1646021 
   91000    1.0022603   -2.4976501   -2.4976501    -1.324098  0.063692074   -2.4976501    1.1735521  1646021 
   92000    1.0022961   -2.4977475   -2.4977475   -1.3241536  0.061101708   -2.4977475     1.173594  1646021 
   93000    1.0027002   -2.4979037   -2.4979037   -1.3238366  0.062990852   -2.4979037    1.1740671  1646021 
   94000    1.0023757   -2.4971742   -2.4971742    -1.323487  0.064119928   -2.4971742    1.1736872  1646021 
   95000    1.0018855   -2.4970517   -2.4970517   -1.3239385  0.061166957   -2.4970517    1.1731132  1646021 
   96000    1.0027531   -2.4975177   -2.4975177   -1.3233887  0.064197795   -2.4975177    1.1741291  1646021 
   97000    1.0024612    -2.497097    -2.497097   -1.3233097  0.064050874    -2.497097    1.1737873  1646021 
   98000    1.0019307   -2.4971685   -2.4971685   -1.3240023  0.062389261   -2.4971685    1.1731661  1646021 
   99000    1.0027982   -2.4981509   -2.4981509    -1.323969  0.063446981   -2.4981509    1.1741819  1646021 
  100000    1.0032602   -2.4989117   -2.4989117   -1.3241888  0.062770503   -2.4989117    1.1747228  1646021 
  101000    1.0026159   -2.4978734   -2.4978734   -1.3239049   0.06231404   -2.4978734    1.1739684  1646021 
  102000    1.0015132   -2.4971368   -2.4971368   -1.3244596  0.061555636   -2.4971368    1.1726772  1646021 
  103000    1.0022184   -2.4974974   -2.4974974   -1.3239944    0.0644242   -2.4974974     1.173503  1646021 
  104000    1.0015869   -2.4965958   -2.4965958   -1.3238322  0.062522583   -2.4965958    1.1727635  1646021 
  105000    1.0020722   -2.4967235   -2.4967235   -1.3233917  0.063392993   -2.4967235    1.1733318  1646021 
  106000    1.0015398   -2.4962188   -2.4962188   -1.3235103  0.064039188   -2.4962188    1.1727085  1646021 
  107000    1.0020857   -2.4967346   -2.4967346    -1.323387  0.064831851   -2.4967346    1.1733476  1646021 
  108000    1.0024936   -2.4980551   -2.4980551   -1.3242299  0.062147364   -2.4980551    1.1738253  1646021 
  109000    1.0030277   -2.4981919   -2.4981919   -1.3237413  0.063704333   -2.4981919    1.1744507  1646021 
  110000    1.0020598   -2.4968906   -2.4968906   -1.3235733  0.063142723   -2.4968906    1.1733173  1646021 
  111000    1.0025128   -2.4976128   -2.4976128    -1.323765   0.06167971   -2.4976128    1.1738478  1646021 
  112000      1.00264   -2.4976908   -2.4976908   -1.3236942  0.065988036   -2.4976908    1.1739966  1646021 
  113000    1.0028971    -2.498017    -2.498017   -1.3237193  0.064780612    -2.498017    1.1742977  1646021 
  114000    1.0025276   -2.4979084   -2.4979084   -1.3240433  0.065783217   -2.4979084     1.173865  1646021 
  115000    1.0024306   -2.4977806   -2.4977806   -1.3240291  0.064846359   -2.4977806    1.1737515  1646021 
  116000    1.0030638   -2.4981904   -2.4981904   -1.3236975  0.058797126   -2.4981904    1.1744929  1646021 
  117000    1.0029138   -2.4979679   -2.4979679   -1.3236506  0.062244213   -2.4979679    1.1743173  1646021 
  118000    1.0027919   -2.4980152   -2.4980152   -1.3238407   0.06404078   -2.4980152    1.1741745  1646021 
  119000    1.0028452   -2.4979937   -2.4979937   -1.3237568  0.065650376   -2.4979937     1.174237  1646021 
  120000    1.0024281   -2.4977821   -2.4977821   -1.3240336  0.064004487   -2.4977821    1.1737485  1646021 
  121000    1.0025696   -2.4979822   -2.4979822    -1.324068  0.064417184   -2.4979822    1.1739142  1646021 
  122000    1.0040011   -2.4992032   -2.4992032   -1.3236128  0.062358202   -2.4992032    1.1755904  1646021 
  123000    1.0021247   -2.4974086   -2.4974086   -1.3240152  0.071923109   -2.4974086    1.1733933  1646021 
  124000    1.0031201   -2.4985915   -2.4985915   -1.3240327  0.064350923   -2.4985915    1.1745588  1646021 
  125000    1.0032527   -2.4986615   -2.4986615   -1.3239474  0.067656377   -2.4986615    1.1747141  1646021 
  126000    1.0030459   -2.4986394   -2.4986394   -1.3241675  0.063828672   -2.4986394    1.1744719  1646021 
  127000    1.0030811   -2.4986002   -2.4986002    -1.324087  0.064830564   -2.4986002    1.1745132  1646021 
  128000     1.003537   -2.4991567   -2.4991567   -1.3241097  0.067640956   -2.4991567     1.175047  1646021 
  129000    1.0019743   -2.4972934   -2.4972934   -1.3240761  0.063807596   -2.4972934    1.1732172  1646021 
  130000    1.0030662   -2.4987166   -2.4987166   -1.3242209  0.064025015   -2.4987166    1.1744957  1646021 
  131000    1.0035053    -2.499079    -2.499079   -1.3240691  0.066534465    -2.499079    1.1750099  1646021 
  132000    1.0037684   -2.4993525   -2.4993525   -1.3240346  0.060163003   -2.4993525    1.1753179  1646021 
  133000    1.0031545   -2.4985939   -2.4985939   -1.3239949  0.064622614   -2.4985939     1.174599  1646021 
  134000    1.0021466   -2.4982049   -2.4982049   -1.3247859  0.066367764   -2.4982049     1.173419  1646021 
  135000    1.0031622   -2.4989406   -2.4989406   -1.3243325  0.065186783   -2.4989406    1.1746081  1646021 
  136000    1.0021715   -2.4975894   -2.4975894   -1.3241414  0.065841918   -2.4975894    1.1734481  1646021 
  137000    1.0032078   -2.4992216   -2.4992216   -1.3245601  0.062076722   -2.4992216    1.1746615  1646021 
  138000    1.0026188   -2.4983397   -2.4983397   -1.3243679  0.066154888   -2.4983397    1.1739718  1646021 
  139000    1.0026383   -2.4985875   -2.4985875   -1.3245928  0.064538157   -2.4985875    1.1739947  1646021 
  140000    1.0029531   -2.4983964   -2.4983964   -1.3240331  0.066019349   -2.4983964    1.1743633  1646021 
  141000    1.0031046   -2.4988244   -2.4988244   -1.3242838  0.064385706   -2.4988244    1.1745407  1646021 
  142000    1.0030688   -2.4983472   -2.4983472   -1.3238485  0.064558641   -2.4983472    1.1744988  1646021 
  143000    1.0025935   -2.4978527   -2.4978527   -1.3239105  0.065384152   -2.4978527    1.1739422  1646021 
  144000    1.0028065   -2.4982406   -2.4982406    -1.324049  0.062796572   -2.4982406    1.1741916  1646021 
  145000    1.0019366     -2.49727     -2.49727   -1.3240969  0.064656108     -2.49727    1.1731731  1646021 
  146000    1.0026313   -2.4979107   -2.4979107   -1.3239243  0.066210746   -2.4979107    1.1739865  1646021 
  147000    1.0027454   -2.4985872   -2.4985872   -1.3244672  0.063773779   -2.4985872      1.17412  1646021 
  148000    1.0026175   -2.4983102   -2.4983102   -1.3243399  0.061573762   -2.4983102    1.1739703  1646021 
  149000    1.0030727   -2.4988563   -2.4988563    -1.324353  0.061792984   -2.4988563    1.1745033  1646021 
  150000      1.00168   -2.4981902   -2.4981902   -1.3253176  0.062952557   -2.4981902    1.1728726  1646021 
  151000    1.0013251   -2.4978049   -2.4978049   -1.3253478  0.066987463   -2.4978049    1.1724571  1646021 
  152000    1.0023175   -2.4985154   -2.4985154   -1.3248963  0.060605362   -2.4985154    1.1736191  1646021 
  153000    1.0023353   -2.4988853   -2.4988853   -1.3252455   0.05845396   -2.4988853    1.1736399  1646021 
  154000    1.0021447   -2.4990624   -2.4990624   -1.3256457  0.067121885   -2.4990624    1.1734167  1646021 
  155000    1.0017159   -2.4986959   -2.4986959   -1.3257812  0.063324625   -2.4986959    1.1729147  1646021 
  156000     1.001133   -2.4980057   -2.4980057   -1.3257736  0.063614025   -2.4980057    1.1722321  1646021 
  157000    1.0012634   -2.4978128   -2.4978128   -1.3254281  0.062392343   -2.4978128    1.1723847  1646021 
  158000    1.0027517   -2.4992079   -2.4992079   -1.3250805   0.05967605   -2.4992079    1.1741274  1646021 
  159000    1.0025136   -2.4991587   -2.4991587     -1.32531  0.061147277   -2.4991587    1.1738487  1646021 
  160000    1.0019082   -2.4981857   -2.4981857   -1.3250459  0.064429576   -2.4981857    1.1731398  1646021 
  161000    1.0017654   -2.4985593   -2.4985593   -1.3255867  0.060734244   -2.4985593    1.1729726  1646021 
  162000    1.0024928   -2.4991827   -2.4991827   -1.3253584  0.061615673   -2.4991827    1.1738244  1646021 
  163000     1.002504   -2.4989568   -2.4989568   -1.3251194  0.062321213   -2.4989568    1.1738374  1646021 
  164000    1.0019428   -2.4982457   -2.4982457   -1.3250655  0.065738423   -2.4982457    1.1731803  1646021 
  165000    1.0022272   -2.4985405   -2.4985405   -1.3250272  0.065433552   -2.4985405    1.1735134  1646021 
  166000    1.0028003   -2.4990038   -2.4990038   -1.3248195  0.062680118   -2.4990038    1.1741843  1646021 
  167000    1.0024912   -2.4983722   -2.4983722   -1.3245497  0.063682572   -2.4983722    1.1738225  1646021 
  168000    1.0020675   -2.4981592   -2.4981592   -1.3248329  0.063561983   -2.4981592    1.1733263  1646021 
  169000    1.0024805   -2.4981424   -2.4981424   -1.3243325  0.065995492   -2.4981424    1.1738099  1646021 
  170000    1.0027743    -2.498341    -2.498341   -1.3241871  0.066891001    -2.498341    1.1741539  1646021 
  171000    1.0033435   -2.4987912   -2.4987912   -1.3239708  0.066386243   -2.4987912    1.1748204  1646021 
  172000     1.003387   -2.4992424   -2.4992424   -1.3243711  0.064691605   -2.4992424    1.1748713  1646021 
  173000    1.0039662   -2.4993133   -2.4993133   -1.3237637  0.065076733   -2.4993133    1.1755496  1646021 
  174000     1.003537   -2.4987432   -2.4987432   -1.3236963    0.0638998   -2.4987432    1.1750469  1646021 
  175000    1.0043208   -2.4997057   -2.4997057    -1.323741  0.065385683   -2.4997057    1.1759647  1646021 
  176000    1.0039846     -2.49935     -2.49935   -1.3237789  0.063982563     -2.49935    1.1755711  1646021 
  177000    1.0038425   -2.4991389   -2.4991389   -1.3237343    0.0628312   -2.4991389    1.1754046  1646021 
  178000    1.0037776   -2.4990541   -2.4990541   -1.3237254  0.062318391   -2.4990541    1.1753287  1646021 
  179000    1.0030598   -2.4983808   -2.4983808   -1.3238926  0.064002344   -2.4983808    1.1744883  1646021 
  180000    1.0034843   -2.4986745   -2.4986745   -1.3236892  0.069087161   -2.4986745    1.1749853  1646021 
  181000    1.0037008    -2.498611    -2.498611   -1.3233722  0.065206282    -2.498611    1.1752388  1646021 
  182000    1.0037567   -2.4995978   -2.4995978   -1.3242936  0.065839975   -2.4995978    1.1753042  1646021 
  183000    1.0032245   -2.4990128   -2.4990128   -1.3243318  0.059579988   -2.4990128     1.174681  1646021 
  184000    1.0030692   -2.4989219   -2.4989219   -1.3244228  0.064285682   -2.4989219    1.1744992  1646021 
  185000     1.003668    -2.499664    -2.499664   -1.3244637   0.06760953    -2.499664    1.1752004  1646021 
  186000    1.0031089    -2.498997    -2.498997   -1.3244513  0.065508395    -2.498997    1.1745457  1646021 
  187000    1.0040905   -2.5005144   -2.5005144   -1.3248194   0.06028084   -2.5005144     1.175695  1646021 
  188000    1.0032206    -2.498861    -2.498861   -1.3241845  0.065253451    -2.498861    1.1746764  1646021 
  189000    1.0037378   -2.4995222   -2.4995222   -1.3242401  0.062207538   -2.4995222    1.1752821  1646021 
  190000    1.0030198   -2.4988884   -2.4988884   -1.3244471  0.066278233   -2.4988884    1.1744414  1646021 
  191000    1.0032197   -2.4992218   -2.4992218   -1.3245463   0.06284083   -2.4992218    1.1746755  1646021 
  192000    1.0040917   -2.4996276   -2.4996276   -1.3239312  0.065246778   -2.4996276    1.1756965  1646021 
  193000    1.0026124   -2.4984878   -2.4984878   -1.3245234  0.063982194   -2.4984878    1.1739643  1646021 
  194000     1.003405   -2.4997222   -2.4997222   -1.3248297  0.062433167   -2.4997222    1.1748924  1646021 
  195000    1.0033353   -2.4995403   -2.4995403   -1.3247296  0.062392163   -2.4995403    1.1748108  1646021 
  196000    1.0026148   -2.4986906   -2.4986906   -1.3247235  0.067680147   -2.4986906    1.1739671  1646021 
  197000    1.0027532   -2.4991143   -2.4991143   -1.3249851  0.061624089   -2.4991143    1.1741292  1646021 
  198000    1.0031637   -2.4995089   -2.4995089    -1.324899  0.064229058   -2.4995089    1.1746099  1646021 
  199000     1.003539   -2.4998884   -2.4998884    -1.324839  0.065817742   -2.4998884    1.1750493  1646021 
  200000    1.0023465   -2.4986506   -2.4986506   -1.3249977  0.067339838   -2.4986506    1.1736529  1646021 
  201000    1.0022655   -2.4989718   -2.4989718   -1.3254136  0.062796363   -2.4989718    1.1735582  1646021 
  202000    1.0030664    -2.499688    -2.499688   -1.3251921  0.063543107    -2.499688    1.1744959  1646021 
  203000    1.0038457   -2.5002925   -2.5002925   -1.3248841  0.063783511   -2.5002925    1.1754085  1646021 
  204000    1.0034386   -2.4993278   -2.4993278    -1.324396  0.061711862   -2.4993278    1.1749318  1646021 
  205000    1.0031215   -2.4987034   -2.4987034    -1.324143  0.065449393   -2.4987034    1.1745604  1646021 
  206000    1.0029801   -2.4984849   -2.4984849   -1.3240899  0.064188357   -2.4984849    1.1743949  1646021 
  207000    1.0027912   -2.4981612   -2.4981612   -1.3239874  0.065123171   -2.4981612    1.1741738  1646021 
  208000    1.0035219    -2.498794    -2.498794   -1.3237647  0.066579847    -2.498794    1.1750293  1646021 
  209000     1.003028   -2.4981113   -2.4981113   -1.3236603  0.066744608   -2.4981113     1.174451  1646021 
  210000    1.0039162   -2.4993571   -2.4993571   -1.3238661  0.063658754   -2.4993571     1.175491  1646021 
  211000    1.0024076    -2.497958    -2.497958   -1.3242335  0.063016749    -2.497958    1.1737245  1646021 
  212000    1.0040617   -2.4996248   -2.4996248   -1.3239636  0.061962989   -2.4996248    1.1756613  1646021 
  213000    1.0036661   -2.4991993   -2.4991993   -1.3240012  0.062736896   -2.4991993    1.1751982  1646021 
  214000    1.0027518   -2.4985297   -2.4985297   -1.3244021  0.065259059   -2.4985297    1.1741276  1646021 
  215000    1.0023324   -2.4979159   -2.4979159   -1.3242794  0.064606635   -2.4979159    1.1736365  1646021 
  216000    1.0027611   -2.4989461   -2.4989461   -1.3248077  0.061964232   -2.4989461    1.1741384  1646021 
  217000    1.0023911   -2.4986176   -2.4986176   -1.3249124  0.063351683   -2.4986176    1.1737052  1646021 
  218000    1.0023786    -2.499215    -2.499215   -1.3255244  0.060951305    -2.499215    1.1736906  1646021 
  219000    1.0026391   -2.4987677   -2.4987677   -1.3247721  0.060847313   -2.4987677    1.1739956  1646021 
  220000    1.0024643    -2.498142    -2.498142   -1.3243511  0.063525519    -2.498142    1.1737909  1646021 
  221000    1.0020179   -2.4974397   -2.4974397   -1.3241714  0.066877203   -2.4974397    1.1732683  1646021 
  222000    1.0028252   -2.4979092   -2.4979092   -1.3236957  0.063994866   -2.4979092    1.1742135  1646021 
  223000    1.0032787   -2.4986846   -2.4986846   -1.3239401  0.062619965   -2.4986846    1.1747445  1646021 
  224000    1.0026535   -2.4982383   -2.4982383   -1.3242258  0.064687245   -2.4982383    1.1740125  1646021 
  225000    1.0023579   -2.4983994   -2.4983994    -1.324733   0.06529865   -2.4983994    1.1736663  1646021 
  226000    1.0018446    -2.497875    -2.497875   -1.3248096  0.064265444    -2.497875    1.1730653  1646021 
  227000    1.0025791   -2.4985721   -2.4985721   -1.3246468  0.064978212   -2.4985721    1.1739253  1646021 
  228000    1.0025447     -2.49855     -2.49855    -1.324665     0.062254     -2.49855    1.1738851  1646021 
  229000    1.0023407   -2.4983594   -2.4983594   -1.3247132   0.06495282   -2.4983594    1.1736462  1646021 
  230000    1.0025017   -2.4986926   -2.4986926   -1.3248579  0.058168495   -2.4986926    1.1738347  1646021 
  231000    1.0022298   -2.4982489   -2.4982489   -1.3247325   0.06194996   -2.4982489    1.1735164  1646021 
  232000    1.0022539   -2.4984746   -2.4984746     -1.32493  0.059795131   -2.4984746    1.1735446  1646021 
  233000    1.0015661   -2.4978979   -2.4978979   -1.3251588  0.065330002   -2.4978979    1.1727392  1646021 
  234000    1.0020855   -2.4981301   -2.4981301   -1.3247827  0.064989199   -2.4981301    1.1733474  1646021 
  235000    1.0025059   -2.4984418   -2.4984418   -1.3246022  0.066172724   -2.4984418    1.1738396  1646021 
  236000    1.0035657   -2.4996968   -2.4996968   -1.3246163  0.061698842   -2.4996968    1.1750805  1646021 
  237000    1.0032168   -2.4987374   -2.4987374   -1.3240654  0.063454492   -2.4987374     1.174672  1646021 
  238000    1.0029946   -2.4980042   -2.4980042   -1.3235924  0.064347885   -2.4980042    1.1744118  1646021 
  239000    1.0026022   -2.4980774   -2.4980774    -1.324125   0.06515344   -2.4980774    1.1739524  1646021 
  240000    1.0029268   -2.4989048   -2.4989048   -1.3245724   0.06557645   -2.4989048    1.1743325  1646021 
  241000    1.0026965   -2.4988488   -2.4988488   -1.3247859  0.066332134   -2.4988488    1.1740629  1646021 
  242000     1.002936   -2.4991663   -2.4991663   -1.3248231  0.064212239   -2.4991663    1.1743432  1646021 
  243000    1.0027236   -2.4989755   -2.4989755   -1.3248809   0.06373688   -2.4989755    1.1740946  1646021 
  244000    1.0032258   -2.4995665   -2.4995665   -1.3248839  0.062299455   -2.4995665    1.1746826  1646021 
  245000    1.0030895   -2.4991308   -2.4991308   -1.3246079  0.067296977   -2.4991308     1.174523  1646021 
  246000    1.0034123   -2.5000469   -2.5000469   -1.3251459  0.064850358   -2.5000469    1.1749009  1646021 
  247000    1.0021488   -2.4991506   -2.4991506    -1.325729  0.062751771   -2.4991506    1.1734216  1646021 
  248000    1.0028028   -2.4995607   -2.4995607   -1.3253734  0.064129522   -2.4995607    1.1741873  1646021 
  249000    1.0030811   -2.4999169   -2.4999169   -1.3254038  0.063446458   -2.4999169    1.1745131  1646021 
  250000    1.0031864   -2.5000138   -2.5000138   -1.3253773  0.060872285   -2.5000138    1.1746365  1646021 
  251000     1.003594   -2.5004707   -2.5004707   -1.3253571  0.064173022   -2.5004707    1.1751137  1646021 
  252000    1.0031729   -2.5001051   -2.5001051   -1.3254845  0.067009137   -2.5001051    1.1746206  1646021 
  253000    1.0042758   -2.5006496   -2.5006496   -1.3247376  0.062828441   -2.5006496    1.1759121  1646021 
  254000    1.0029208    -2.499205    -2.499205   -1.3248796  0.065604677    -2.499205    1.1743254  1646021 
  255000    1.0037848   -2.4997443   -2.4997443   -1.3244072  0.066174646   -2.4997443    1.1753372  1646021 
  256000    1.0033643   -2.4993171   -2.4993171   -1.3244724  0.066059662   -2.4993171    1.1748448  1646021 
  257000    1.0040015   -2.5002834   -2.5002834   -1.3246926  0.064230093   -2.5002834    1.1755909  1646021 
  258000     1.002848   -2.4987279   -2.4987279   -1.3244876  0.064462286   -2.4987279    1.1742403  1646021 
  259000    1.0045344   -2.5011584   -2.5011584   -1.3249436  0.063153843   -2.5011584    1.1762148  1646021 
  260000    1.0027625    -2.498982    -2.498982   -1.3248419  0.067369833    -2.498982    1.1741401  1646021 
  261000    1.0038564   -2.4998956   -2.4998956   -1.3244746  0.066596733   -2.4998956     1.175421  1646021 
  262000    1.0038022   -2.5004767   -2.5004767   -1.3251193  0.064948898   -2.5004767    1.1753575  1646021 
  263000    1.0033348   -2.4997328   -2.4997328   -1.3249226  0.063975852   -2.4997328    1.1748102  1646021 
  264000    1.0033813   -2.4994684   -2.4994684   -1.3246038  0.066337521   -2.4994684    1.1748647  1646021 
  265000    1.0039829   -2.5004591   -2.5004591     -1.32489  0.063413521   -2.5004591    1.1755691  1646021 
  266000      1.00442   -2.5008075   -2.5008075   -1.3247266   0.06519005   -2.5008075    1.1760808  1646021 
  267000    1.0034497   -2.4993318   -2.4993318    -1.324387  0.065702854   -2.4993318    1.1749448  1646021 
  268000    1.0028946   -2.4990577   -2.4990577   -1.3247629  0.065271548   -2.4990577    1.1742948  1646021 
  269000    1.0036943   -2.4996203   -2.4996203   -1.3243892  0.066318847   -2.4996203    1.1752311  1646021 
  270000    1.0034246   -2.4991034   -2.4991034   -1.3241881  0.062458106   -2.4991034    1.1749153  1646021 
  271000    1.0030344   -2.4988042   -2.4988042   -1.3243457  0.063699966   -2.4988042    1.1744585  1646021 
  272000    1.0026063   -2.4981832   -2.4981832    -1.324226  0.069989148   -2.4981832    1.1739572  1646021 
  273000      1.00305   -2.4984792   -2.4984792   -1.3240025  0.065015255   -2.4984792    1.1744767  1646021 
  274000     1.002368   -2.4976581   -2.4976581     -1.32398  0.063813406   -2.4976581    1.1736782  1646021 
  275000    1.0029857   -2.4988278   -2.4988278   -1.3244264   0.06568199   -2.4988278    1.1744014  1646021 
  276000    1.0033109   -2.4992982   -2.4992982    -1.324516  0.062320884   -2.4992982    1.1747822  1646021 
  277000    1.0034474   -2.4995361   -2.4995361   -1.3245941  0.059559998   -2.4995361    1.1749421  1646021 
  278000    1.0025724   -2.4983442   -2.4983442   -1.3244267  0.064518537   -2.4983442    1.1739175  1646021 
  279000    1.0029096   -2.4988718   -2.4988718   -1.3245594  0.063928921   -2.4988718    1.1743124  1646021 
  280000    1.0029294   -2.4987835   -2.4987835    -1.324448  0.063568849   -2.4987835    1.1743355  1646021 
  281000    1.0020585   -2.4974631   -2.4974631   -1.3241473  0.062230032   -2.4974631    1.1733158  1646021 
  282000    1.0021245   -2.4975962   -2.4975962   -1.3242032  0.064312365   -2.4975962     1.173393  1646021 
  283000    1.0022874   -2.4979204   -2.4979204   -1.3243366  0.062701027   -2.4979204    1.1735838  1646021 
  284000    1.0021551   -2.4972976   -2.4972976   -1.3238687  0.062496245   -2.4972976    1.1734289  1646021 
  285000    1.0017034   -2.4968634   -2.4968634   -1.3239634  0.061225829   -2.4968634       1.1729  1646021 
  286000    1.0027636   -2.4979701   -2.4979701   -1.3238287  0.063387252   -2.4979701    1.1741414  1646021 
  287000    1.0027384   -2.4978047   -2.4978047   -1.3236928  0.061975782   -2.4978047    1.1741119  1646021 
  288000    1.0023065   -2.4971777   -2.4971777   -1.3235715  0.063824683   -2.4971777    1.1736061  1646021 
  289000    1.0026901   -2.4975963   -2.4975963    -1.323541  0.061383661   -2.4975963    1.1740553  1646021 
  290000    1.0022565   -2.4959759   -2.4959759   -1.3224282  0.062040481   -2.4959759    1.1735477  1646021 
  291000    1.0021442   -2.4963641   -2.4963641   -1.3229479  0.065112794   -2.4963641    1.1734162  1646021 
  292000     1.003048   -2.4974992   -2.4974992   -1.3230247  0.063781123   -2.4974992    1.1744744  1646021 
  293000    1.0032431   -2.4977244   -2.4977244   -1.3230216  0.061527689   -2.4977244    1.1747028  1646021 
  294000    1.0021822   -2.4969806   -2.4969806     -1.32352  0.064870988   -2.4969806    1.1734606  1646021 
  295000    1.0030582   -2.4975809   -2.4975809   -1.3230945  0.060141095   -2.4975809    1.1744864  1646021 
  296000    1.0024929   -2.4971977   -2.4971977   -1.3233733  0.062541814   -2.4971977    1.1738244  1646021 
  297000    1.0029068   -2.4973983   -2.4973983   -1.3230892  0.064319571   -2.4973983     1.174309  1646021 
  298000    1.0028913   -2.4980163   -2.4980163   -1.3237253  0.059815193   -2.4980163    1.1742909  1646021 
  299000    1.0017747   -2.4968898   -2.4968898   -1.3239062   0.06472141   -2.4968898    1.1729835  1646021 
  300000    1.0022103   -2.4972602   -2.4972602   -1.3237667  0.064908791   -2.4972602    1.1734935  1646021 
  301000    1.0024254   -2.4975732   -2.4975732   -1.3238279  0.061937195   -2.4975732    1.1737454  1646021 
  302000    1.0021737   -2.4975662   -2.4975662   -1.3241156   0.06147899   -2.4975662    1.1734506  1646021 
  303000    1.0017562   -2.4972232   -2.4972232   -1.3242613  0.061922672   -2.4972232    1.1729619  1646021 
  304000    1.0023301   -2.4973922   -2.4973922   -1.3237584  0.063813926   -2.4973922    1.1736338  1646021 
  305000    1.0014386   -2.4962372   -2.4962372   -1.3236473  0.059908245   -2.4962372    1.1725899  1646021 
  306000    1.0016215    -2.496732    -2.496732   -1.3239279  0.062574132    -2.496732     1.172804  1646021 
  307000    1.0020897   -2.4967972   -2.4967972   -1.3234449  0.061133993   -2.4967972    1.1733523  1646021 
  308000     1.002732   -2.4975395   -2.4975395   -1.3234351  0.064690231   -2.4975395    1.1741044  1646021 
  309000     1.002097   -2.4970803   -2.4970803   -1.3237194  0.061468369   -2.4970803    1.1733609  1646021 
  310000    1.0021525   -2.4972447   -2.4972447   -1.3238188   0.06326261   -2.4972447    1.1734259  1646021 
  311000    1.0013928   -2.4968777   -2.4968777   -1.3243414  0.062263676   -2.4968777    1.1725363  1646021 
  312000    1.0032209   -2.4986575   -2.4986575   -1.3239806  0.062669724   -2.4986575    1.1746769  1646021 
  313000    1.0023392   -2.4974866   -2.4974866   -1.3238422  0.065379109   -2.4974866    1.1736445  1646021 
  314000    1.0037338    -2.498698    -2.498698   -1.3234206  0.064998327    -2.498698    1.1752774  1646021 
  315000    1.0029845   -2.4982493   -2.4982493   -1.3238492  0.065650496   -2.4982493    1.1744001  1646021 
  316000     1.003425   -2.4986092   -2.4986092   -1.3236933  0.064452489   -2.4986092    1.1749158  1646021 
  317000    1.0030973   -2.4982545   -2.4982545   -1.3237224  0.063659262   -2.4982545    1.1745321  1646021 
  318000    1.0037643   -2.4985442   -2.4985442   -1.3232311  0.064286236   -2.4985442    1.1753131  1646021 
  319000    1.0035325   -2.4982558   -2.4982558   -1.3232141  0.066985257   -2.4982558    1.1750417  1646021 
  320000    1.0036269   -2.4985052   -2.4985052   -1.3233529  0.066792032   -2.4985052    1.1751522  1646021 
  321000    1.0035612   -2.4980769   -2.4980769   -1.3230016  0.063195977   -2.4980769    1.1750753  1646021 
  322000     1.003075   -2.4980644   -2.4980644   -1.3235584  0.067501949   -2.4980644     1.174506  1646021 
  323000    1.0036549   -2.4981588   -2.4981588   -1.3229737  0.068340363   -2.4981588     1.175185  1646021 
  324000    1.0034064   -2.4983375   -2.4983375   -1.3234434  0.063135382   -2.4983375    1.1748941  1646021 
  325000    1.0032794   -2.4984681   -2.4984681   -1.3237227  0.063880921   -2.4984681    1.1747453  1646021 
  326000     1.003412   -2.4987448   -2.4987448   -1.3238442  0.065672455   -2.4987448    1.1749006  1646021 
  327000    1.0028589   -2.4982146   -2.4982146   -1.3239617  0.065943262   -2.4982146    1.1742529  1646021 
  328000    1.0034685   -2.4991865   -2.4991865   -1.3242198  0.065958986   -2.4991865    1.1749667  1646021 
  329000    1.0031434   -2.4987738   -2.4987738   -1.3241877  0.066136786   -2.4987738    1.1745861  1646021 
  330000    1.0036344   -2.4996341   -2.4996341   -1.3244731  0.063300621   -2.4996341     1.175161  1646021 
  331000    1.0036998   -2.4998602   -2.4998602   -1.3246226  0.064837083   -2.4998602    1.1752375  1646021 
  332000    1.0037693   -2.5003284   -2.5003284   -1.3250095  0.063953399   -2.5003284    1.1753189  1646021 
  333000    1.0022063   -2.4984526   -2.4984526   -1.3249637  0.066159144   -2.4984526    1.1734889  1646021 
  334000    1.0018404     -2.49847     -2.49847   -1.3254096  0.063746918     -2.49847    1.1730605  1646021 
  335000    1.0032653   -2.4998324   -2.4998324   -1.3251036  0.062230952   -2.4998324    1.1747288  1646021 
  336000    1.0033454   -2.4995338   -2.4995338   -1.3247111  0.065570502   -2.4995338    1.1748227  1646021 
  337000    1.0030568   -2.4992604   -2.4992604   -1.3247757  0.066861188   -2.4992604    1.1744846  1646021 
  338000    1.0024834   -2.4985873   -2.4985873    -1.324774  0.065304219   -2.4985873    1.1738133  1646021 
  339000    1.0038148   -2.5003415   -2.5003415   -1.3249693  0.061887605   -2.5003415    1.1753722  1646021 
  340000     1.002156     -2.49837     -2.49837   -1.3249401  0.067690329     -2.49837    1.1734299  1646021 
  341000    1.0027275   -2.4987548   -2.4987548   -1.3246556  0.065376909   -2.4987548    1.1740992  1646021 
  342000     1.002897     -2.49905     -2.49905   -1.3247524  0.063630712     -2.49905    1.1742976  1646021 
  343000    1.0030309   -2.4992962   -2.4992962   -1.3248418   0.06450854   -2.4992962    1.1744544  1646021 
  344000     1.002717   -2.4984799   -2.4984799   -1.3243931  0.065122552   -2.4984799    1.1740868  1646021 
  345000    1.0025119   -2.4983233   -2.4983233   -1.3244766  0.066124884   -2.4983233    1.1738467  1646021 
  346000    1.0030315   -2.4986271   -2.4986271   -1.3241721   0.06535379   -2.4986271     1.174455  1646021 
  347000    1.0015142     -2.49753     -2.49753   -1.3248516  0.063450941     -2.49753    1.1726784  1646021 
  348000    1.0022917   -2.4983521   -2.4983521   -1.3247633  0.066756467   -2.4983521    1.1735888  1646021 
  349000    1.0034679   -2.4995865   -2.4995865   -1.3246204  0.062316046   -2.4995865    1.1749661  1646021 
  350000    1.0028067   -2.4987538   -2.4987538    -1.324562  0.065752954   -2.4987538    1.1741919  1646021 
  351000     1.003884   -2.4992713   -2.4992713   -1.3238179  0.065496958   -2.4992713    1.1754533  1646021 
  352000    1.0029433   -2.4987226   -2.4987226   -1.3243708  0.065086536   -2.4987226    1.1743518  1646021 
  353000    1.0025297   -2.4978152   -2.4978152   -1.3239476  0.065140074   -2.4978152    1.1738675  1646021 
  354000    1.0032584   -2.4984299   -2.4984299   -1.3237092  0.063048031   -2.4984299    1.1747207  1646021 
  355000    1.0037973   -2.4989938   -2.4989938   -1.3236421  0.064982486   -2.4989938    1.1753517  1646021 
  356000    1.0035028   -2.4987309   -2.4987309    -1.323724   0.06278121   -2.4987309     1.175007  1646021 
  357000    1.0028086    -2.498399    -2.498399    -1.324205  0.064392056    -2.498399     1.174194  1646021 
  358000    1.0025722   -2.4978616   -2.4978616   -1.3239443  0.064226732   -2.4978616    1.1739173  1646021 
  359000    1.0029412   -2.4978783   -2.4978783    -1.323529  0.060789424   -2.4978783    1.1743493  1646021 
  360000    1.0027434   -2.4977252   -2.4977252   -1.3236074  0.062924599   -2.4977252    1.1741177  1646021 
  361000    1.0033591   -2.4983355   -2.4983355   -1.3234968  0.061228346   -2.4983355    1.1748387  1646021 
  362000    1.0037888   -2.4990236   -2.4990236   -1.3236818  0.059899176   -2.4990236    1.1753418  1646021 
  363000    1.0033683   -2.4983328   -2.4983328   -1.3234834  0.063028892   -2.4983328    1.1748494  1646021 
  364000    1.0026937   -2.4970626   -2.4970626    -1.323003  0.064432506   -2.4970626    1.1740596  1646021 
  365000    1.0027801   -2.4977476   -2.4977476   -1.3235869  0.064356874   -2.4977476    1.1741607  1646021 
  366000    1.0030344   -2.4975276   -2.4975276   -1.3230691  0.064291367   -2.4975276    1.1744585  1646021 
  367000    1.0021757   -2.4967942   -2.4967942   -1.3233411  0.062840907   -2.4967942     1.173453  1646021 
  368000    1.0035464   -2.4983791   -2.4983791   -1.3233211  0.064065005   -2.4983791     1.175058  1646021 
  369000    1.0024472   -2.4970031   -2.4970031   -1.3232322   0.06201598   -2.4970031    1.1737709  1646021 
  370000    1.0014594   -2.4964057   -2.4964057   -1.3237914  0.062166499   -2.4964057    1.1726143  1646021 
  371000    1.0030993     -2.49817     -2.49817   -1.3236355  0.062442771     -2.49817    1.1745345  1646021 
  372000    1.0010672   -2.4961873   -2.4961873   -1.3240322  0.069556739   -2.4961873    1.1721551  1646021 
  373000    1.0012137   -2.4966263   -2.4966263   -1.3242996   0.06126201   -2.4966263    1.1723266  1646021 
  374000    1.0019297   -2.4967273   -2.4967273   -1.3235623  0.064030316   -2.4967273     1.173165  1646021 
  375000    1.0027152   -2.4978465   -2.4978465   -1.3237619  0.061077196   -2.4978465    1.1740847  1646021 
  376000    1.0021253   -2.4970685   -2.4970685   -1.3236745  0.061803483   -2.4970685    1.1733939  1646021 
  377000    1.0010259   -2.4962758   -2.4962758   -1.3241691  0.065033804   -2.4962758    1.1721067  1646021 
  378000    1.0024966   -2.4974025   -2.4974025   -1.3235738  0.062738074   -2.4974025    1.1738287  1646021 
  379000    1.0025371   -2.4971655   -2.4971655   -1.3232893  0.058515796   -2.4971655    1.1738762  1646021 
  380000     1.003116   -2.4982686   -2.4982686   -1.3237146  0.059366966   -2.4982686     1.174554  1646021 
  381000    1.0022436   -2.4970745   -2.4970745   -1.3235419  0.061371494   -2.4970745    1.1735325  1646021 
  382000    1.0033268   -2.4981773   -2.4981773   -1.3233764  0.062153514   -2.4981773    1.1748009  1646021 
  383000    1.0029407   -2.4978759   -2.4978759   -1.3235271  0.064141267   -2.4978759    1.1743488  1646021 
  384000    1.0033675   -2.4983956   -2.4983956   -1.3235471  0.061220062   -2.4983956    1.1748485  1646021 
  385000    1.0021369   -2.4976434   -2.4976434   -1.3242358  0.059895471   -2.4976434    1.1734076  1646021 
  386000    1.0018977   -2.4970523   -2.4970523   -1.3239248  0.065749201   -2.4970523    1.1731276  1646021 
  387000    1.0033607    -2.498162    -2.498162   -1.3233214  0.061370916    -2.498162    1.1748406  1646021 
  388000    1.0032185   -2.4976594   -2.4976594   -1.3229854  0.062060174   -2.4976594     1.174674  1646021 
  389000    1.0033712   -2.4976997   -2.4976997   -1.3228468  0.064968293   -2.4976997    1.1748529  1646021 
  390000    1.0035402   -2.4978673   -2.4978673   -1.3228166  0.064335532   -2.4978673    1.1750507  1646021 
  391000    1.0042979     -2.49891     -2.49891   -1.3229721  0.066594495     -2.49891    1.1759379  1646021 
  392000    1.0033958   -2.4976138   -2.4976138   -1.3227322  0.066341752   -2.4976138    1.1748816  1646021 
  393000    1.0049188   -2.4995122   -2.4995122   -1.3228473  0.061308334   -2.4995122     1.176665  1646021 
  394000    1.0036506   -2.4978398   -2.4978398   -1.3226598  0.067231476   -2.4978398      1.17518  1646021 
  395000    1.0036287   -2.4976352   -2.4976352   -1.3224809  0.064724676   -2.4976352    1.1751544  1646021 
  396000    1.0044372   -2.4985986   -2.4985986   -1.3224976  0.065993494   -2.4985986     1.176101  1646021 
  397000    1.0042211   -2.4984069   -2.4984069   -1.3225589  0.065144008   -2.4984069     1.175848  1646021 
  398000     1.004474   -2.4985886   -2.4985886   -1.3224444  0.066144007   -2.4985886    1.1761441  1646021 
  399000    1.0045086   -2.4989038   -2.4989038   -1.3227191  0.065005928   -2.4989038    1.1761847  1646021 
  400000    1.0040618   -2.4987486   -2.4987486   -1.3230872  0.066513533   -2.4987486    1.1756614  1646021 
  401000    1.0032013   -2.4974587   -2.4974587   -1.3228047  0.068219841   -2.4974587    1.1746539  1646021 
  402000    1.0033708   -2.4981699   -2.4981699   -1.3233175  0.065931082   -2.4981699    1.1748524  1646021 
  403000    1.0035258   -2.4990919   -2.4990919    -1.324058  0.065587269   -2.4990919    1.1750338  1646021 
  404000     1.003408   -2.4987085   -2.4987085   -1.3238126  0.066312243   -2.4987085    1.1748959  1646021 
  405000    1.0034897    -2.498628    -2.498628   -1.3236364  0.063251852    -2.498628    1.1749915  1646021 
  406000    1.0031669   -2.4981424   -2.4981424   -1.3235288  0.062382583   -2.4981424    1.1746136  1646021 
  407000    1.0045153   -2.5002027   -2.5002027   -1.3240103  0.060662162   -2.5002027    1.1761924  1646021 
  408000    1.0032425   -2.4987593   -2.4987593   -1.3240571  0.063584741   -2.4987593    1.1747021  1646021 
  409000    1.0027343   -2.4982629   -2.4982629   -1.3241557  0.059863134   -2.4982629    1.1741071  1646021 
  410000    1.0031067   -2.4984253   -2.4984253   -1.3238822  0.062764704   -2.4984253    1.1745431  1646021 
  411000    1.0020855    -2.497425    -2.497425   -1.3240775  0.065983041    -2.497425    1.1733474  1646021 
  412000    1.0024945   -2.4979847   -2.4979847   -1.3241584  0.063357692   -2.4979847    1.1738263  1646021 
  413000    1.0035612   -2.4990204   -2.4990204    -1.323945  0.062488177   -2.4990204    1.1750753  1646021 
  414000    1.0028074   -2.4980896   -2.4980896    -1.323897  0.067175811   -2.4980896    1.1741927  1646021 
  415000    1.0035239   -2.4988692   -2.4988692   -1.3238375  0.064894658   -2.4988692    1.1750316  1646021 
  416000    1.0028399   -2.4978894   -2.4978894   -1.3236587   0.06363974   -2.4978894    1.1742307  1646021 
  417000    1.0025916   -2.4974999   -2.4974999   -1.3235599  0.062522853   -2.4974999      1.17394  1646021 
  418000    1.0035991   -2.4982338   -2.4982338   -1.3231142  0.064535946   -2.4982338    1.1751196  1646021 
  419000     1.003171   -2.4977254   -2.4977254    -1.323107  0.066243324   -2.4977254    1.1746184  1646021 
  420000    1.0030487   -2.4976792   -2.4976792    -1.323204  0.060648443   -2.4976792    1.1744752  1646021 
  421000    1.0028581   -2.4977449   -2.4977449   -1.3234928  0.064739892   -2.4977449    1.1742521  1646021 
  422000    1.0032004   -2.4982685   -2.4982685   -1.3236156  0.066012571   -2.4982685    1.1746529  1646021 
  423000    1.0027905   -2.4976306   -2.4976306   -1.3234577  0.065399632   -2.4976306    1.1741729  1646021 
  424000    1.0017195   -2.4968205   -2.4968205   -1.3239016  0.064460877   -2.4968205    1.1729188  1646021 
  425000    1.0026628   -2.4975156   -2.4975156   -1.3234922  0.064329203   -2.4975156    1.1740234  1646021 
  426000    1.0023617   -2.4972986   -2.4972986   -1.3236278   0.06313473   -2.4972986    1.1736708  1646021 
  427000     1.002787   -2.4971518   -2.4971518    -1.322983    0.0645825   -2.4971518    1.1741688  1646021 
  428000    1.0023735    -2.497101    -2.497101   -1.3234164  0.064581914    -2.497101    1.1736847  1646021 
  429000    1.0023815   -2.4970208   -2.4970208   -1.3233268  0.063157837   -2.4970208     1.173694  1646021 
  430000    1.0032138   -2.4978682   -2.4978682   -1.3231997  0.061132036   -2.4978682    1.1746686  1646021 
  431000    1.0031933   -2.4976539   -2.4976539   -1.3230094  0.063902907   -2.4976539    1.1746445  1646021 
  432000    1.0035807   -2.4981473   -2.4981473   -1.3230493  0.065840965   -2.4981473    1.1750981  1646021 
  433000    1.0023031   -2.4969946   -2.4969946   -1.3233924  0.062969925   -2.4969946    1.1736022  1646021 
  434000    1.0018837   -2.4969204   -2.4969204   -1.3238093  0.064136158   -2.4969204    1.1731111  1646021 
  435000    1.0025194   -2.4977845   -2.4977845   -1.3239291  0.064066426   -2.4977845    1.1738554  1646021 
  436000    1.0027773   -2.4978443   -2.4978443   -1.3236869  0.061067597   -2.4978443    1.1741574  1646021 
  437000    1.0024731   -2.4978006   -2.4978006   -1.3239994  0.061483173   -2.4978006    1.1738012  1646021 
  438000    1.0024402   -2.4973991   -2.4973991   -1.3236364  0.064228013   -2.4973991    1.1737627  1646021 
  439000    1.0032389   -2.4985948   -2.4985948   -1.3238969  0.061998698   -2.4985948    1.1746979  1646021 
  440000    1.0029746   -2.4980188   -2.4980188   -1.3236304  0.063557302   -2.4980188    1.1743884  1646021 
  441000     1.002368   -2.4975662   -2.4975662   -1.3238881  0.066609623   -2.4975662    1.1736781  1646021 
  442000    1.0022866   -2.4979861   -2.4979861   -1.3244032   0.06566995   -2.4979861    1.1735829  1646021 
  443000    1.0031202   -2.4987828   -2.4987828   -1.3242239  0.063425257   -2.4987828     1.174559  1646021 
  444000    1.0017892   -2.4976495   -2.4976495    -1.324649  0.060945808   -2.4976495    1.1730005  1646021 
  445000    1.0020931   -2.4979303   -2.4979303    -1.324574  0.063938504   -2.4979303    1.1733563  1646021 
  446000    1.0028098   -2.4985752   -2.4985752   -1.3243797  0.064148019   -2.4985752    1.1741955  1646021 
  447000    1.0019256   -2.4977989   -2.4977989   -1.3246388  0.067212172   -2.4977989    1.1731602  1646021 
  448000    1.0031447   -2.4992234   -2.4992234   -1.3246358  0.064040308   -2.4992234    1.1745876  1646021 
  449000    1.0028139    -2.498685    -2.498685   -1.3244848  0.062510129    -2.498685    1.1742003  1646021 
  450000    1.0026531   -2.4980713   -2.4980713   -1.3240593  0.063584894   -2.4980713     1.174012  1646021 
  451000    1.0028383   -2.4989891   -2.4989891   -1.3247602   0.06501335   -2.4989891    1.1742289  1646021 
  452000     1.002416   -2.4983112   -2.4983112   -1.3245768  0.062489669   -2.4983112    1.1737344  1646021 
  453000    1.0030537   -2.4984672   -2.4984672   -1.3239861  0.063671383   -2.4984672    1.1744811  1646021 
  454000    1.0027421   -2.4980491   -2.4980491   -1.3239329  0.063369822   -2.4980491    1.1741162  1646021 
  455000    1.0028815   -2.4987003   -2.4987003   -1.3244208  0.065785959   -2.4987003    1.1742795  1646021 
  456000    1.0020853   -2.4973795   -2.4973795   -1.3240323  0.065682533   -2.4973795    1.1733472  1646021 
  457000     1.003113   -2.4980918   -2.4980918   -1.3235413  0.063918577   -2.4980918    1.1745505  1646021 
  458000    1.0034932    -2.498483    -2.498483   -1.3234873  0.066375161    -2.498483    1.1749956  1646021 
  459000    1.0034672   -2.4984146   -2.4984146   -1.3234493  0.062229041   -2.4984146    1.1749653  1646021 
  460000    1.0040156   -2.4992928   -2.4992928   -1.3236854  0.066071202   -2.4992928    1.1756074  1646021 
  461000    1.0039055   -2.4995988   -2.4995988   -1.3241204  0.065048631   -2.4995988    1.1754784  1646021 
  462000    1.0045718   -2.4999595   -2.4999595   -1.3237009  0.065283757   -2.4999595    1.1762586  1646021 
  463000    1.0050269   -2.5003097   -2.5003097   -1.3235182  0.066560381   -2.5003097    1.1767915  1646021 
  464000    1.0041734   -2.4996745   -2.4996745   -1.3238824  0.067835266   -2.4996745    1.1757921  1646021 
  465000    1.0043754   -2.5000971   -2.5000971   -1.3240684  0.066256265   -2.5000971    1.1760286  1646021 
  466000    1.0033572   -2.4988402   -2.4988402   -1.3240038  0.066230763   -2.4988402    1.1748364  1646021 
  467000    1.0032448   -2.4985808   -2.4985808   -1.3238759   0.06469127   -2.4985808    1.1747049  1646021 
  468000     1.003545   -2.4989838   -2.4989838   -1.3239274  0.063356791   -2.4989838    1.1750563  1646021 
  469000     1.003114   -2.4977907   -2.4977907   -1.3232391  0.067590475   -2.4977907    1.1745516  1646021 
  470000    1.0039865   -2.4994177   -2.4994177   -1.3238444  0.064950613   -2.4994177    1.1755733  1646021 
  471000    1.0023179   -2.4976196   -2.4976196   -1.3240002   0.06661501   -2.4976196    1.1736195  1646021 
  472000    1.0034235   -2.4986666   -2.4986666   -1.3237525  0.067514102   -2.4986666    1.1749141  1646021 
  473000     1.002693   -2.4981119   -2.4981119   -1.3240531  0.065079557   -2.4981119    1.1740588  1646021 
  474000     1.002961   -2.4989968   -2.4989968   -1.3246243  0.062499022   -2.4989968    1.1743725  1646021 
  475000    1.0030948   -2.4987476   -2.4987476   -1.3242184  0.063909122   -2.4987476    1.1745292  1646021 
  476000    1.0032505   -2.4986479   -2.4986479   -1.3239363  0.064186633   -2.4986479    1.1747115  1646021 
  477000    1.0029082   -2.4988304   -2.4988304   -1.3245197  0.062078621   -2.4988304    1.1743107  1646021 
  478000    1.0024374   -2.4981856   -2.4981856   -1.3244262  0.067099136   -2.4981856    1.1737594  1646021 
  479000    1.0028453   -2.4984687   -2.4984687   -1.3242316  0.061315004   -2.4984687    1.1742371  1646021 
  480000    1.0028236   -2.4993976   -2.4993976   -1.3251859  0.062756851   -2.4993976    1.1742116  1646021 
  481000     1.001513    -2.497298    -2.497298   -1.3246209  0.065784982    -2.497298    1.1726771  1646021 
  482000    1.0021346   -2.4980235   -2.4980235   -1.3246187  0.064282356   -2.4980235    1.1734049  1646021 
  483000    1.0024241   -2.4989311   -2.4989311   -1.3251872  0.062021972   -2.4989311    1.1737438  1646021 
  484000    1.0021251   -2.4985107   -2.4985107    -1.325117  0.063777793   -2.4985107    1.1733937  1646021 
  485000     1.002949   -2.4995138   -2.4995138   -1.3251553  0.062583654   -2.4995138    1.1743584  1646021 
  486000    1.0021049   -2.4982641   -2.4982641   -1.3248939  0.062882772   -2.4982641    1.1733701  1646021 
  487000     1.001768   -2.4979301   -2.4979301   -1.3249544  0.067309295   -2.4979301    1.1729757  1646021 
  488000    1.0023375   -2.4982488   -2.4982488   -1.3246064   0.06582053   -2.4982488    1.1736424  1646021 
  489000    1.0024502   -2.4982379   -2.4982379   -1.3244634  0.064986588   -2.4982379    1.1737745  1646021 
  490000    1.0021041   -2.4976519   -2.4976519   -1.3242827  0.064248446   -2.4976519    1.1733692  1646021 
  491000    1.0032893   -2.4985806   -2.4985806   -1.3238237  0.064063362   -2.4985806    1.1747569  1646021 
  492000    1.0028718   -2.4987366   -2.4987366   -1.3244685  0.067087128   -2.4987366    1.1742681  1646021 
  493000    1.0032267   -2.4991239   -2.4991239   -1.3244403  0.064717404   -2.4991239    1.1746836  1646021 
  494000    1.0030488    -2.498823    -2.498823   -1.3243477  0.064107225    -2.498823    1.1744753  1646021 
  495000    1.0022934   -2.4983946   -2.4983946   -1.3248038  0.061484176   -2.4983946    1.1735908  1646021 
  496000    1.0022675   -2.4978364   -2.4978364    -1.324276  0.064228922   -2.4978364    1.1735605  1646021 
  497000    1.0021281   -2.4972705   -2.4972705   -1.3238732  0.061770263   -2.4972705    1.1733972  1646021 
  498000    1.0022732   -2.4975582   -2.4975582    -1.323991  0.065832054   -2.4975582    1.1735672  1646021 
  499000    1.0032771   -2.4985668   -2.4985668   -1.3238242  0.065017005   -2.4985668    1.1747426  1646021 
  500000     1.003189   -2.4982095   -2.4982095     -1.32357  0.063017993   -2.4982095    1.1746395  1646021 
  501000    1.0028182   -2.4977057   -2.4977057   -1.3235004   0.06265518   -2.4977057    1.1742053  1646021 
  502000     1.002926   -2.4977782   -2.4977782   -1.3234467   0.06589172   -2.4977782    1.1743315  1646021 
  503000    1.0035833   -2.4982373   -2.4982373   -1.3231361  0.061109207   -2.4982373    1.1751012  1646021 
  504000    1.0028721   -2.4974458   -2.4974458   -1.3231774  0.068395209   -2.4974458    1.1742684  1646021 
  505000    1.0033914   -2.4975114   -2.4975114   -1.3226349  0.065649786   -2.4975114    1.1748765  1646021 
  506000    1.0038451    -2.498549    -2.498549   -1.3231413  0.065301542    -2.498549    1.1754077  1646021 
  507000    1.0037627   -2.4982463   -2.4982463   -1.3229351   0.06353783   -2.4982463    1.1753112  1646021 
  508000    1.0035077   -2.4976385   -2.4976385   -1.3226258  0.064647827   -2.4976385    1.1750127  1646021 
  509000     1.003395   -2.4974338   -2.4974338   -1.3225531  0.062971465   -2.4974338    1.1748807  1646021 
  510000    1.0035883    -2.497471    -2.497471   -1.3223639  0.063001195    -2.497471     1.175107  1646021 
  511000     1.003861   -2.4977011   -2.4977011   -1.3222748  0.061496288   -2.4977011    1.1754263  1646021 
  512000    1.0035921   -2.4972579   -2.4972579   -1.3221464  0.062473601   -2.4972579    1.1751115  1646021 
  513000    1.0038719   -2.4974187   -2.4974187   -1.3219796  0.063907451   -2.4974187    1.1754391  1646021 
  514000    1.0037392   -2.4974073   -2.4974073   -1.3221236  0.065466164   -2.4974073    1.1752837  1646021 
  515000     1.002598   -2.4966321   -2.4966321   -1.3226846  0.064762729   -2.4966321    1.1739475  1646021 
  516000    1.0026241     -2.49721     -2.49721   -1.3232319  0.062988592     -2.49721    1.1739781  1646021 
  517000    1.0022199   -2.4966714   -2.4966714   -1.3231666    0.0613276   -2.4966714    1.1735048  1646021 
  518000    1.0032391   -2.4980093   -2.4980093   -1.3233111   0.06485986   -2.4980093    1.1746982  1646021 
  519000    1.0029124    -2.497429    -2.497429   -1.3231133  0.066870017    -2.497429    1.1743156  1646021 
  520000    1.0025629   -2.4972153   -2.4972153    -1.323309  0.065450288   -2.4972153    1.1739064  1646021 
  521000    1.0026207   -2.4974846   -2.4974846   -1.3235105  0.062588862   -2.4974846    1.1739741  1646021 
  522000    1.0022244   -2.4970854   -2.4970854   -1.3235753  0.062650814   -2.4970854    1.1735101  1646021 
  523000    1.0022587   -2.4969998   -2.4969998   -1.3234496  0.061392676   -2.4969998    1.1735502  1646021 
  524000    1.0018341   -2.4964052   -2.4964052   -1.3233522  0.064521942   -2.4964052    1.1730531  1646021 
  525000    1.0018735   -2.4974823   -2.4974823   -1.3243831  0.063570396   -2.4974823    1.1730992  1646021 
  526000    1.0021438   -2.4975994   -2.4975994   -1.3241837  0.065393635   -2.4975994    1.1734157  1646021 
  527000     1.003298   -2.4984201   -2.4984201    -1.323653   0.06359206   -2.4984201    1.1747671  1646021 
  528000    1.0029559   -2.4973208   -2.4973208   -1.3229543  0.065069559   -2.4973208    1.1743665  1646021 
  529000    1.0029984   -2.4972497   -2.4972497   -1.3228334  0.065056445   -2.4972497    1.1744163  1646021 
  530000    1.0029726   -2.4975142   -2.4975142    -1.323128  0.064043805   -2.4975142    1.1743861  1646021 
  531000    1.0034534   -2.4980236   -2.4980236   -1.3230745  0.063203328   -2.4980236    1.1749491  1646021 
  532000    1.0022712   -2.4970381   -2.4970381   -1.3234733  0.065068909   -2.4970381    1.1735648  1646021 
  533000    1.0036445   -2.4990365   -2.4990365   -1.3238636  0.064637908   -2.4990365    1.1751729  1646021 
  534000    1.0031815   -2.4983141   -2.4983141   -1.3236834  0.062359989   -2.4983141    1.1746307  1646021 
  535000     1.003299   -2.4985418   -2.4985418   -1.3237734   0.06429199   -2.4985418    1.1747683  1646021 
  536000    1.0030613   -2.4984965   -2.4984965   -1.3240065  0.064847471   -2.4984965      1.17449  1646021 
  537000    1.0021166   -2.4977074   -2.4977074   -1.3243236  0.065161484   -2.4977074    1.1733838  1646021 
  538000    1.0029115   -2.4982475   -2.4982475   -1.3239329   0.06346824   -2.4982475    1.1743146  1646021 
  539000    1.0027113   -2.4980626   -2.4980626   -1.3239825  0.062927451   -2.4980626    1.1740801  1646021 
  540000    1.0025554   -2.4979846   -2.4979846   -1.3240871  0.065520709   -2.4979846    1.1738976  1646021 
  541000    1.0037068   -2.4990867   -2.4990867    -1.323841  0.064583797   -2.4990867    1.1752458  1646021 
  542000      1.00278   -2.4983081   -2.4983081   -1.3241475  0.064250348   -2.4983081    1.1741605  1646021 
  543000    1.0017368   -2.4969862   -2.4969862   -1.3240471  0.065594449   -2.4969862    1.1729391  1646021 
  544000    1.0024082   -2.4982473   -2.4982473    -1.324522  0.061772525   -2.4982473    1.1737253  1646021 
  545000    1.0032311   -2.4991443   -2.4991443   -1.3244555  0.060123517   -2.4991443    1.1746888  1646021 
  546000    1.0028132   -2.4980597   -2.4980597   -1.3238602  0.065914574   -2.4980597    1.1741995  1646021 
  547000    1.0034015   -2.4986987   -2.4986987   -1.3238104  0.066225577   -2.4986987    1.1748883  1646021 
  548000    1.0032343    -2.498637    -2.498637   -1.3239445   0.06759078    -2.498637    1.1746925  1646021 
  549000    1.0036003   -2.4991471   -2.4991471    -1.324026  0.066911783   -2.4991471    1.1751211  1646021 
  550000    1.0039961   -2.4997697   -2.4997697   -1.3241852  0.065017016   -2.4997697    1.1755845  1646021 
  551000    1.0036324   -2.4992888   -2.4992888     -1.32413  0.069163691   -2.4992888    1.1751587  1646021 
  552000    1.0043379   -2.5006404   -2.5006404   -1.3246557  0.062430023   -2.5006404    1.1759848  1646021 
  553000    1.0033641   -2.4989636   -2.4989636   -1.3241191    0.0670359   -2.4989636    1.1748446  1646021 
  554000    1.0031408   -2.4987845   -2.4987845   -1.3242014  0.061886197   -2.4987845    1.1745831  1646021 
  555000    1.0039689   -2.5000136   -2.5000136   -1.3244609  0.063933893   -2.5000136    1.1755527  1646021 
  556000    1.0033573   -2.4992207   -2.4992207   -1.3243842  0.071573744   -2.4992207    1.1748365  1646021 
  557000    1.0044353   -2.5002157   -2.5002157   -1.3241169  0.068960584   -2.5002157    1.1760988  1646021 
  558000    1.0043037   -2.4998458   -2.4998458    -1.323901  0.065339729   -2.4998458    1.1759447  1646021 
  559000    1.0038404   -2.4993733   -2.4993733    -1.323971  0.067517135   -2.4993733    1.1754022  1646021 
  560000    1.0029905   -2.4986012   -2.4986012   -1.3241941  0.070193688   -2.4986012     1.174407  1646021 
  561000    1.0040508   -2.4997659   -2.4997659   -1.3241173  0.065813507   -2.4997659    1.1756486  1646021 
  562000    1.0038836   -2.4995903   -2.4995903   -1.3241374  0.063224039   -2.4995903    1.1754529  1646021 
  563000     1.003816   -2.4996459   -2.4996459   -1.3242723  0.064637579   -2.4996459    1.1753736  1646021 
  564000    1.0036078   -2.4991577   -2.4991577   -1.3240279  0.068081072   -2.4991577    1.1751298  1646021 
  565000    1.0044615   -2.5007346   -2.5007346   -1.3246051  0.066882988   -2.5007346    1.1761295  1646021 
  566000    1.0033794   -2.4995461   -2.4995461   -1.3246836   0.06614075   -2.4995461    1.1748625  1646021 
  567000    1.0033419   -2.4991552   -2.4991552   -1.3243368  0.067772297   -2.4991552    1.1748185  1646021 
  568000    1.0046538   -2.5002399   -2.5002399   -1.3238852   0.06162774   -2.5002399    1.1763547  1646021 
  569000    1.0036107   -2.4987226   -2.4987226   -1.3235894  0.061304608   -2.4987226    1.1751332  1646021 
  570000    1.0037648   -2.4991239   -2.4991239   -1.3238102  0.066566766   -2.4991239    1.1753137  1646021 
  571000    1.0033958   -2.4989124   -2.4989124   -1.3240308  0.066457623   -2.4989124    1.1748816  1646021 
  572000    1.0030647   -2.4989081   -2.4989081   -1.3244141  0.069026436   -2.4989081     1.174494  1646021 
  573000    1.0036032   -2.4999478   -2.4999478   -1.3248233  0.063433062   -2.4999478    1.1751245  1646021 
  574000    1.0036134   -2.4994767   -2.4994767   -1.3243403  0.064182714   -2.4994767    1.1751364  1646021 
  575000    1.0047967   -2.5009807   -2.5009807   -1.3244588  0.068598366   -2.5009807     1.176522  1646021 
  576000    1.0035175   -2.4994793   -2.4994793   -1.3244552    0.0713195   -2.4994793    1.1750241  1646021 
  577000    1.0043422    -2.500607    -2.500607   -1.3246173  0.065321584    -2.500607    1.1759897  1646021 
  578000    1.0036327   -2.4999382   -2.4999382   -1.3247792  0.066794676   -2.4999382     1.175159  1646021 
  579000    1.0040097   -2.5001243   -2.5001243   -1.3245239  0.064805078   -2.5001243    1.1756005  1646021 
  580000     1.004352    -2.500724    -2.500724   -1.3247227  0.068401267    -2.500724    1.1760013  1646021 
  581000    1.0039236   -2.5003577   -2.5003577    -1.324858  0.065048881   -2.5003577    1.1754997  1646021 
  582000    1.0034813   -2.4998094   -2.4998094   -1.3248277  0.061116981   -2.4998094    1.1749817  1646021 
  583000    1.0030726   -2.4987589   -2.4987589   -1.3242557  0.068337721   -2.4987589    1.1745032  1646021 
  584000    1.0026666   -2.4980021   -2.4980021   -1.3239743  0.069320102   -2.4980021    1.1740278  1646021 
  585000    1.0033902   -2.4987973   -2.4987973   -1.3239223  0.065712075   -2.4987973     1.174875  1646021 
  586000    1.0029597   -2.4984778   -2.4984778   -1.3241068  0.064538797   -2.4984778     1.174371  1646021 
  587000    1.0032631   -2.4988202   -2.4988202   -1.3240939  0.065477674   -2.4988202    1.1747263  1646021 
  588000    1.0026146   -2.4981178   -2.4981178   -1.3241509   0.06388545   -2.4981178    1.1739669  1646021 
  589000    1.0026032   -2.4980148   -2.4980148   -1.3240612  0.065138517   -2.4980148    1.1739536  1646021 
  590000    1.0030774   -2.4987478   -2.4987478    -1.324239  0.066419099   -2.4987478    1.1745088  1646021 
  591000    1.0031905   -2.4985834   -2.4985834   -1.3239422  0.065609796   -2.4985834    1.1746412  1646021 
  592000    1.0035738   -2.4985984   -2.4985984   -1.3235084  0.070224456   -2.4985984      1.17509  1646021 
  593000    1.0034251   -2.4984915   -2.4984915   -1.3235755  0.069724801   -2.4984915     1.174916  1646021 
  594000    1.0031298   -2.4983747   -2.4983747   -1.3238045  0.067039519   -2.4983747    1.1745702  1646021 
  595000    1.0046671   -2.4993927   -2.4993927   -1.3230225  0.067153665   -2.4993927    1.1763702  1646021 
  596000    1.0039125   -2.4985067   -2.4985067   -1.3230201  0.065716207   -2.4985067    1.1754867  1646021 
  597000    1.0043951   -2.4990949   -2.4990949   -1.3230432  0.064198608   -2.4990949    1.1760517  1646021 
  598000    1.0040618   -2.4984726   -2.4984726   -1.3228112  0.068250587   -2.4984726    1.1756614  1646021 
  599000      1.00414   -2.4986989   -2.4986989   -1.3229459  0.067927327   -2.4986989    1.1757531  1646021 
  600000    1.0038049   -2.4985803   -2.4985803   -1.3232197  0.065357528   -2.4985803    1.1753606  1646021 
  601000    1.0026624   -2.4974181   -2.4974181   -1.3233953  0.066003562   -2.4974181    1.1740229  1646021 
  602000    1.0031608   -2.4976067   -2.4976067   -1.3230002  0.066633901   -2.4976067    1.1746065  1646021 
  603000    1.0032439   -2.4976312   -2.4976312   -1.3229275  0.067303436   -2.4976312    1.1747037  1646021 
  604000    1.0031353   -2.4976728   -2.4976728   -1.3230962  0.063669941   -2.4976728    1.1745766  1646021 
  605000    1.0025749   -2.4968977   -2.4968977   -1.3229773  0.063040848   -2.4968977    1.1739204  1646021 
  606000    1.0027696   -2.4970724   -2.4970724   -1.3229241  0.064491362   -2.4970724    1.1741484  1646021 
  607000    1.0034922   -2.4975165   -2.4975165   -1.3225219   0.06425458   -2.4975165    1.1749945  1646021 
  608000    1.0037364   -2.4980731   -2.4980731   -1.3227927  0.063441316   -2.4980731    1.1752804  1646021 
  609000    1.0029031   -2.4971094   -2.4971094   -1.3228047  0.063915883   -2.4971094    1.1743047  1646021 
  610000    1.0030658   -2.4972908   -2.4972908   -1.3227956  0.064411056   -2.4972908    1.1744952  1646021 
  611000    1.0028167   -2.4969316   -2.4969316    -1.322728   0.06592694   -2.4969316    1.1742036  1646021 
  612000    1.0032179   -2.4973472   -2.4973472   -1.3226739  0.064468802   -2.4973472    1.1746733  1646021 
  613000     1.003262   -2.4981358   -2.4981358   -1.3234108  0.064376303   -2.4981358     1.174725  1646021 
  614000    1.0031344   -2.4974195   -2.4974195   -1.3228439  0.066707199   -2.4974195    1.1745756  1646021 
  615000    1.0038762   -2.4987013   -2.4987013   -1.3232571  0.062462442   -2.4987013    1.1754442  1646021 
  616000    1.0027365   -2.4973725   -2.4973725   -1.3232628  0.061893833   -2.4973725    1.1741097  1646021 
  617000    1.0032708   -2.4975569   -2.4975569   -1.3228217   0.06633044   -2.4975569    1.1747352  1646021 
  618000    1.0029395   -2.4975748   -2.4975748   -1.3232274   0.06203031   -2.4975748    1.1743473  1646021 
  619000    1.0022556   -2.4972518   -2.4972518   -1.3237051   0.06496317   -2.4972518    1.1735466  1646021 
  620000    1.0024233   -2.4976223   -2.4976223   -1.3238794  0.059961869   -2.4976223     1.173743  1646021 
  621000    1.0036331   -2.4985118   -2.4985118   -1.3233524  0.061973959   -2.4985118    1.1751594  1646021 
  622000    1.0033119   -2.4982286   -2.4982286   -1.3234452  0.060592791   -2.4982286    1.1747834  1646021 
  623000    1.0024401    -2.497315    -2.497315   -1.3235524   0.06606923    -2.497315    1.1737626  1646021 
  624000    1.0023763   -2.4973709   -2.4973709   -1.3236829  0.066890669   -2.4973709    1.1736879  1646021 
  625000    1.0026096   -2.4974289   -2.4974289   -1.3234679  0.069993848   -2.4974289     1.173961  1646021 
  626000    1.0033017   -2.4983115   -2.4983115     -1.32354  0.063531267   -2.4983115    1.1747715  1646021 
  627000    1.0024908   -2.4970789   -2.4970789   -1.3232569  0.065562338   -2.4970789    1.1738219  1646021 
  628000    1.0029683   -2.4976792   -2.4976792    -1.323298  0.063980715   -2.4976792    1.1743811  1646021 
  629000    1.0035122   -2.4984869   -2.4984869    -1.323469  0.061547421   -2.4984869    1.1750179  1646021 
  630000     1.003635   -2.4982403   -2.4982403   -1.3230786  0.062922239   -2.4982403    1.1751617  1646021 
  631000    1.0034103   -2.4982689   -2.4982689   -1.3233703  0.067330389   -2.4982689    1.1748986  1646021 
  632000     1.003515   -2.4985092   -2.4985092    -1.323488  0.065688873   -2.4985092    1.1750213  1646021 
  633000    1.0025476   -2.4974675   -2.4974675    -1.323579  0.066216812   -2.4974675    1.1738885  1646021 
  634000    1.0031306   -2.4985466   -2.4985466   -1.3239755  0.065796729   -2.4985466    1.1745711  1646021 
  635000    1.0031473   -2.4980877   -2.4980877    -1.323497  0.065765269   -2.4980877    1.1745907  1646021 
  636000    1.0031377   -2.4986076   -2.4986076   -1.3240282  0.069277395   -2.4986076    1.1745794  1646021 
  637000    1.0027288    -2.498631    -2.498631   -1.3245303   0.06664544    -2.498631    1.1741006  1646021 
  638000     1.003986   -2.4995272   -2.4995272   -1.3239544  0.063610884   -2.4995272    1.1755727  1646021 
  639000    1.0039037   -2.4991701   -2.4991701   -1.3236937   0.06832525   -2.4991701    1.1754764  1646021 
  640000    1.0037939   -2.4993926   -2.4993926   -1.3240448  0.068891905   -2.4993926    1.1753478  1646021 
  641000    1.0054177   -2.5008509   -2.5008509   -1.3236018  0.066523456   -2.5008509    1.1772491  1646021 
  642000    1.0035998   -2.4994524   -2.4994524   -1.3243319  0.065262852   -2.4994524    1.1751205  1646021 
[...]
 9832000    1.0084953   -2.4740445   -2.4740445   -1.2931919  0.070262587   -2.4740445    1.1808526  1646021 
 9833000    1.0085952   -2.4737289   -2.4737289   -1.2927592  0.069376822   -2.4737289    1.1809697  1646021 
 9834000     1.009425   -2.4742719   -2.4742719   -1.2923306  0.069279905   -2.4742719    1.1819412  1646021 
 9835000    1.0086773   -2.4735163   -2.4735163   -1.2924506  0.073594575   -2.4735163    1.1810658  1646021 
 9836000    1.0085281   -2.4738002   -2.4738002   -1.2929091  0.068503559   -2.4738002    1.1808911  1646021 
 9837000    1.0098881   -2.4747812   -2.4747812   -1.2922977  0.066531923   -2.4747812    1.1824835  1646021 
 9838000    1.0093176   -2.4740388   -2.4740388   -1.2922233  0.070712743   -2.4740388    1.1818155  1646021 
 9839000    1.0089218   -2.4737031   -2.4737031   -1.2923511  0.071350205   -2.4737031     1.181352  1646021 
 9840000    1.0092738   -2.4744002   -2.4744002    -1.292636  0.069364075   -2.4744002    1.1817642  1646021 
 9841000       1.0082   -2.4728429   -2.4728429    -1.292336   0.07043556   -2.4728429    1.1805069  1646021 
 9842000    1.0089948   -2.4737379   -2.4737379   -1.2923004    0.0726795   -2.4737379    1.1814375  1646021 
 9843000     1.009199   -2.4737602   -2.4737602   -1.2920836  0.068480617   -2.4737602    1.1816766  1646021 
 9844000    1.0080264   -2.4726262   -2.4726262   -1.2923225  0.074361265   -2.4726262    1.1803036  1646021 
 9845000    1.0084705    -2.473075    -2.473075   -1.2922514  0.069311805    -2.473075    1.1808236  1646021 
 9846000    1.0081723   -2.4728174   -2.4728174    -1.292343   0.07076166   -2.4728174    1.1804744  1646021 
 9847000    1.0079351   -2.4727626   -2.4727626   -1.2925659  0.068865562   -2.4727626    1.1801967  1646021 
 9848000    1.0088585    -2.473586    -2.473586   -1.2923081    0.0714995    -2.473586    1.1812779  1646021 
 9849000    1.0087523    -2.473673    -2.473673   -1.2925194  0.071871672    -2.473673    1.1811535  1646021 
 9850000    1.0083573   -2.4731971   -2.4731971   -1.2925061  0.072884812   -2.4731971     1.180691  1646021 
 9851000    1.0083948   -2.4732083   -2.4732083   -1.2924733  0.069281684   -2.4732083    1.1807349  1646021 
 9852000    1.0080839   -2.4729259   -2.4729259    -1.292555   0.06656467   -2.4729259    1.1803709  1646021 
 9853000    1.0090934    -2.473636    -2.473636    -1.292083   0.06999263    -2.473636     1.181553  1646021 
 9854000    1.0085857   -2.4727303   -2.4727303   -1.2917718  0.071444131   -2.4727303    1.1809585  1646021 
 9855000    1.0095376   -2.4734879   -2.4734879   -1.2914148  0.067900472   -2.4734879    1.1820731  1646021 
 9856000    1.0095843   -2.4734676   -2.4734676   -1.2913398  0.071514686   -2.4734676    1.1821278  1646021 
 9857000    1.0094559    -2.473139    -2.473139   -1.2911616  0.069719332    -2.473139    1.1819774  1646021 
 9858000    1.0092064   -2.4728571   -2.4728571   -1.2911718  0.070946215   -2.4728571    1.1816852  1646021 
 9859000     1.009222   -2.4731464   -2.4731464   -1.2914428  0.067223086   -2.4731464    1.1817036  1646021 
 9860000    1.0090066    -2.472817    -2.472817   -1.2913656  0.070140014    -2.472817    1.1814514  1646021 
 9861000     1.007941   -2.4719472   -2.4719472   -1.2917436   0.06722558   -2.4719472    1.1802036  1646021 
 9862000    1.0089139   -2.4729453   -2.4729453   -1.2916024  0.068904514   -2.4729453    1.1813429  1646021 
 9863000    1.0090671    -2.472831    -2.472831   -1.2913088  0.067480254    -2.472831    1.1815222  1646021 
 9864000    1.0090146   -2.4727151   -2.4727151   -1.2912544  0.071729736   -2.4727151    1.1814607  1646021 
 9865000    1.0086571   -2.4717302   -2.4717302   -1.2906881  0.067748991   -2.4717302    1.1810421  1646021 
 9866000    1.0097845   -2.4731765   -2.4731765   -1.2908143    0.0695119   -2.4731765    1.1823622  1646021 
 9867000    1.0088944   -2.4722651   -2.4722651   -1.2909451  0.073668379   -2.4722651      1.18132  1646021 
 9868000    1.0091984   -2.4726867   -2.4726867   -1.2910108  0.067959062   -2.4726867    1.1816759  1646021 
 9869000    1.0090633   -2.4726754   -2.4726754   -1.2911577  0.070434678   -2.4726754    1.1815177  1646021 
 9870000    1.0094192   -2.4730349   -2.4730349   -1.2911004  0.065490833   -2.4730349    1.1819345  1646021 
 9871000    1.0090899   -2.4728139   -2.4728139    -1.291265  0.067702302   -2.4728139    1.1815489  1646021 
 9872000    1.0092808   -2.4732564   -2.4732564   -1.2914839  0.070929739   -2.4732564    1.1817725  1646021 
 9873000    1.0093236   -2.4729342   -2.4729342   -1.2911117  0.068379979   -2.4729342    1.1818225  1646021 
 9874000    1.0089402   -2.4725006   -2.4725006   -1.2911269  0.066736952   -2.4725006    1.1813737  1646021 
 9875000    1.0090947   -2.4729496   -2.4729496   -1.2913951  0.069372792   -2.4729496    1.1815545  1646021 
 9876000    1.0097711   -2.4739165   -2.4739165     -1.29157  0.070392304   -2.4739165    1.1823465  1646021 
 9877000    1.0082269   -2.4725584   -2.4725584     -1.29202  0.070955288   -2.4725584    1.1805384  1646021 
 9878000    1.0092248    -2.473306    -2.473306   -1.2915992  0.074007889    -2.473306    1.1817068  1646021 
 9879000    1.0101885   -2.4736789   -2.4736789   -1.2908437  0.068422815   -2.4736789    1.1828352  1646021 
 9880000    1.0083726   -2.4725522   -2.4725522   -1.2918432  0.071075623   -2.4725522     1.180709  1646021 
 9881000    1.0085052   -2.4725267   -2.4725267   -1.2916624  0.072412062   -2.4725267    1.1808643  1646021 
 9882000    1.0088467   -2.4729229   -2.4729229   -1.2916587  0.074241656   -2.4729229    1.1812641  1646021 
 9883000    1.0088652   -2.4721769   -2.4721769   -1.2908912  0.069828524   -2.4721769    1.1812857  1646021 
 9884000    1.0082145   -2.4716282   -2.4716282   -1.2911043  0.071261159   -2.4716282    1.1805239  1646021 
 9885000     1.009186   -2.4728781   -2.4728781   -1.2912167  0.069730188   -2.4728781    1.1816614  1646021 
 9886000    1.0090547   -2.4730887   -2.4730887   -1.2915811  0.068539086   -2.4730887    1.1815077  1646021 
 9887000    1.0087994   -2.4725705   -2.4725705   -1.2913618  0.073508595   -2.4725705    1.1812087  1646021 
 9888000    1.0074327   -2.4714511   -2.4714511   -1.2918427  0.071060048   -2.4714511    1.1796085  1646021 
 9889000    1.0087487   -2.4731006   -2.4731006   -1.2919512  0.070655594   -2.4731006    1.1811494  1646021 
 9890000    1.0087735   -2.4728288   -2.4728288   -1.2916504   0.07002206   -2.4728288    1.1811784  1646021 
 9891000    1.0094831   -2.4733986   -2.4733986   -1.2913893  0.068235111   -2.4733986    1.1820093  1646021 
 9892000    1.0092315   -2.4733634   -2.4733634   -1.2916487  0.069733517   -2.4733634    1.1817147  1646021 
 9893000    1.0094012   -2.4734717   -2.4734717   -1.2915583  0.070912424   -2.4734717    1.1819134  1646021 
 9894000    1.0094543   -2.4735557   -2.4735557   -1.2915801  0.073613072   -2.4735557    1.1819756  1646021 
 9895000    1.0091462   -2.4730337   -2.4730337   -1.2914189   0.07399674   -2.4730337    1.1816148  1646021 
 9896000    1.0087164   -2.4727498   -2.4727498   -1.2916382  0.069223223   -2.4727498    1.1811115  1646021 
 9897000    1.0094223   -2.4734125   -2.4734125   -1.2914743  0.071929966   -2.4734125    1.1819381  1646021 
 9898000    1.0087578   -2.4728419   -2.4728419   -1.2916819  0.070885195   -2.4728419      1.18116  1646021 
 9899000    1.0091273   -2.4730905   -2.4730905   -1.2914977  0.070909567   -2.4730905    1.1815927  1646021 
 9900000    1.0093057   -2.4734986   -2.4734986    -1.291697  0.070222158   -2.4734986    1.1818016  1646021 
 9901000    1.0090079   -2.4727852   -2.4727852   -1.2913323  0.071789736   -2.4727852    1.1814529  1646021 
 9902000    1.0090561   -2.4727605   -2.4727605   -1.2912512  0.070521609   -2.4727605    1.1815093  1646021 
 9903000    1.0088165   -2.4731113   -2.4731113   -1.2918825  0.067138449   -2.4731113    1.1812288  1646021 
 9904000    1.0087928   -2.4730546   -2.4730546   -1.2918536  0.072420474   -2.4730546     1.181201  1646021 
 9905000    1.0083155   -2.4732098   -2.4732098   -1.2925677  0.067608894   -2.4732098    1.1806421  1646021 
 9906000    1.0086529   -2.4734099   -2.4734099   -1.2923727  0.066485648   -2.4734099    1.1810372  1646021 
 9907000    1.0085609   -2.4730849   -2.4730849   -1.2921555  0.067764191   -2.4730849    1.1809295  1646021 
 9908000    1.0086398   -2.4734474   -2.4734474   -1.2924255  0.067822554   -2.4734474    1.1810219  1646021 
 9909000    1.0091108   -2.4733114   -2.4733114    -1.291738  0.068230812   -2.4733114    1.1815734  1646021 
 9910000    1.0091751    -2.473784    -2.473784   -1.2921354  0.072117729    -2.473784    1.1816486  1646021 
 9911000    1.0072867   -2.4722727   -2.4722727   -1.2928352  0.072703053   -2.4722727    1.1794375  1646021 
 9912000    1.0086718   -2.4739777   -2.4739777   -1.2929184  0.067634987   -2.4739777    1.1810593  1646021 
 9913000    1.0077408   -2.4728762   -2.4728762    -1.292907  0.066418065   -2.4728762    1.1799692  1646021 
 9914000    1.0083065   -2.4732187   -2.4732187    -1.292587  0.066256212   -2.4732187    1.1806316  1646021 
 9915000    1.0082418   -2.4730926   -2.4730926   -1.2925368  0.068014294   -2.4730926    1.1805558  1646021 
 9916000    1.0081031   -2.4731139   -2.4731139   -1.2927205  0.067291012   -2.4731139    1.1803934  1646021 
 9917000    1.0084055   -2.4734855   -2.4734855    -1.292738  0.066609463   -2.4734855    1.1807475  1646021 
 9918000    1.0082373   -2.4729359   -2.4729359   -1.2923853  0.072880766   -2.4729359    1.1805506  1646021 
 9919000    1.0094664   -2.4745991   -2.4745991   -1.2926094  0.069347596   -2.4745991    1.1819898  1646021 
 9920000    1.0085717   -2.4737186   -2.4737186   -1.2927765  0.066308203   -2.4737186    1.1809421  1646021 
 9921000     1.008728   -2.4742218   -2.4742218   -1.2930967  0.067764947   -2.4742218    1.1811251  1646021 
 9922000    1.0082954   -2.4737032   -2.4737032   -1.2930846  0.071134987   -2.4737032    1.1806186  1646021 
 9923000    1.0090693    -2.474319    -2.474319   -1.2927942  0.066888133    -2.474319    1.1815247  1646021 
 9924000    1.0079034   -2.4730731   -2.4730731   -1.2929134  0.068124612   -2.4730731    1.1801596  1646021 
 9925000     1.008245   -2.4734059   -2.4734059   -1.2928464  0.069550528   -2.4734059    1.1805595  1646021 
 9926000    1.0092255   -2.4741336   -2.4741336   -1.2924259  0.066247449   -2.4741336    1.1817077  1646021 
 9927000    1.0078515   -2.4732142   -2.4732142   -1.2931153  0.071486653   -2.4732142    1.1800989  1646021 
 9928000    1.0095326   -2.4753345   -2.4753345   -1.2932673  0.067819402   -2.4753345    1.1820673  1646021 
 9929000    1.0086395   -2.4745731   -2.4745731   -1.2935516  0.068257517   -2.4745731    1.1810215  1646021 
 9930000    1.0085232   -2.4748326   -2.4748326   -1.2939473  0.067715165   -2.4748326    1.1808853  1646021 
 9931000    1.0093809   -2.4748931   -2.4748931   -1.2930034  0.069148592   -2.4748931    1.1818896  1646021 
 9932000    1.0096018   -2.4754145   -2.4754145   -1.2932662  0.067434719   -2.4754145    1.1821482  1646021 
 9933000    1.0100319   -2.4757992   -2.4757992   -1.2931474  0.070196741   -2.4757992    1.1826518  1646021 
 9934000    1.0092758    -2.475064    -2.475064   -1.2932974  0.071164982    -2.475064    1.1817666  1646021 
 9935000    1.0087935   -2.4745866   -2.4745866   -1.2933847  0.072827448   -2.4745866    1.1812019  1646021 
 9936000    1.0086658   -2.4746426   -2.4746426   -1.2935903  0.071806798   -2.4746426    1.1810523  1646021 
 9937000    1.0088571   -2.4748627   -2.4748627   -1.2935864  0.068489524   -2.4748627    1.1812763  1646021 
 9938000    1.0090177   -2.4749303   -2.4749303    -1.293466  0.070034595   -2.4749303    1.1814644  1646021 
 9939000    1.0094371   -2.4747976   -2.4747976   -1.2928422  0.070403357   -2.4747976    1.1819554  1646021 
 9940000    1.0089941   -2.4745083   -2.4745083   -1.2930716  0.066472078   -2.4745083    1.1814368  1646021 
 9941000    1.0090512   -2.4743652   -2.4743652   -1.2928616  0.071325306   -2.4743652    1.1815035  1646021 
 9942000    1.0088388   -2.4742055   -2.4742055   -1.2929506  0.068114983   -2.4742055    1.1812549  1646021 
 9943000    1.0089098   -2.4748282   -2.4748282   -1.2934902  0.069694103   -2.4748282     1.181338  1646021 
 9944000    1.0089284   -2.4744337   -2.4744337   -1.2930739  0.072938885   -2.4744337    1.1813598  1646021 
 9945000    1.0094328   -2.4747341   -2.4747341   -1.2927837  0.066891131   -2.4747341    1.1819504  1646021 
 9946000    1.0084312   -2.4735829   -2.4735829   -1.2928053  0.069980527   -2.4735829    1.1807776  1646021 
 9947000     1.009657   -2.4750107   -2.4750107   -1.2927978  0.070656343   -2.4750107    1.1822129  1646021 
 9948000    1.0089151   -2.4741712   -2.4741712   -1.2928271  0.072696172   -2.4741712    1.1813442  1646021 
 9949000    1.0092196   -2.4747308   -2.4747308   -1.2930301  0.068133458   -2.4747308    1.1817007  1646021 
 9950000    1.0092447   -2.4743617   -2.4743617   -1.2926315  0.068777197   -2.4743617    1.1817301  1646021 
 9951000    1.0084418   -2.4733985   -2.4733985   -1.2926084  0.072191505   -2.4733985    1.1807901  1646021 
 9952000    1.0089874    -2.474619    -2.474619   -1.2931902  0.066857789    -2.474619    1.1814289  1646021 
 9953000    1.0094436   -2.4751044   -2.4751044   -1.2931414  0.069024693   -2.4751044     1.181963  1646021 
 9954000    1.0096047   -2.4747481   -2.4747481   -1.2925964  0.067137455   -2.4747481    1.1821517  1646021 
 9955000    1.0089794   -2.4736597   -2.4736597   -1.2922403  0.068398171   -2.4736597    1.1814195  1646021 
 9956000    1.0086024   -2.4731628   -2.4731628   -1.2921848  0.070912033   -2.4731628     1.180978  1646021 
 9957000    1.0074621   -2.4719978   -2.4719978   -1.2923549  0.069868597   -2.4719978    1.1796429  1646021 
 9958000    1.0083315   -2.4730281   -2.4730281   -1.2923673  0.067712948   -2.4730281    1.1806608  1646021 
 9959000    1.0080211   -2.4729333   -2.4729333   -1.2926359  0.068470962   -2.4729333    1.1802974  1646021 
 9960000    1.0084679   -2.4731449   -2.4731449   -1.2923243  0.066027335   -2.4731449    1.1808206  1646021 
 9961000    1.0091332   -2.4743724   -2.4743724   -1.2927728  0.069245087   -2.4743724    1.1815996  1646021 
 9962000    1.0084807   -2.4734009   -2.4734009   -1.2925653  0.066203021   -2.4734009    1.1808356  1646021 
 9963000    1.0088184    -2.473741    -2.473741     -1.29251  0.067479766    -2.473741     1.181231  1646021 
 9964000    1.0078362   -2.4722357   -2.4722357   -1.2921547  0.070305244   -2.4722357    1.1800809  1646021 
 9965000    1.0080963   -2.4728657   -2.4728657   -1.2924801  0.072633492   -2.4728657    1.1803855  1646021 
 9966000    1.0073953   -2.4720348   -2.4720348   -1.2924702  0.069638252   -2.4720348    1.1795646  1646021 
 9967000     1.008802   -2.4729725   -2.4729725   -1.2917607  0.066880213   -2.4729725    1.1812118  1646021 
 9968000     1.009022   -2.4730335   -2.4730335   -1.2915641  0.068649776   -2.4730335    1.1814694  1646021 
 9969000    1.0092792   -2.4727478   -2.4727478   -1.2909773  0.066172468   -2.4727478    1.1817705  1646021 
 9970000    1.0094424   -2.4730463   -2.4730463   -1.2910847  0.066762833   -2.4730463    1.1819616  1646021 
 9971000    1.0089986   -2.4727603   -2.4727603   -1.2913183   0.06416661   -2.4727603     1.181442  1646021 
 9972000    1.0086013   -2.4723037   -2.4723037   -1.2913268  0.066717477   -2.4723037    1.1809768  1646021 
 9973000    1.0084964   -2.4721841   -2.4721841   -1.2913301  0.067131228   -2.4721841     1.180854  1646021 
 9974000    1.0085045   -2.4723471   -2.4723471   -1.2914837  0.069245184   -2.4723471    1.1808634  1646021 
 9975000     1.008386   -2.4721896   -2.4721896   -1.2914649  0.068184171   -2.4721896    1.1807246  1646021 
 9976000    1.0081643   -2.4724027   -2.4724027   -1.2919376   0.06675377   -2.4724027    1.1804652  1646021 
 9977000    1.0078601   -2.4721131   -2.4721131   -1.2920042  0.065372769   -2.4721131    1.1801089  1646021 
 9978000    1.0089844   -2.4734681   -2.4734681   -1.2920427  0.065273878   -2.4734681    1.1814254  1646021 
 9979000    1.0078588   -2.4723222   -2.4723222   -1.2922148  0.066539598   -2.4723222    1.1801074  1646021 
 9980000    1.0076199   -2.4714507   -2.4714507   -1.2916231  0.070929865   -2.4714507    1.1798276  1646021 
 9981000    1.0076961   -2.4713699   -2.4713699    -1.291453  0.068766745   -2.4713699    1.1799169  1646021 
 9982000    1.0084411   -2.4724247   -2.4724247   -1.2916355  0.070551775   -2.4724247    1.1807892  1646021 
 9983000    1.0083383   -2.4721454   -2.4721454   -1.2914765  0.069891495   -2.4721454    1.1806689  1646021 
 9984000    1.0082994   -2.4721399   -2.4721399   -1.2915165  0.072259603   -2.4721399    1.1806233  1646021 
 9985000    1.0077684   -2.4718669   -2.4718669   -1.2918653  0.071138015   -2.4718669    1.1800016  1646021 
 9986000    1.0086301   -2.4724509   -2.4724509   -1.2914404  0.070450024   -2.4724509    1.1810105  1646021 
 9987000    1.0084786   -2.4721035   -2.4721035   -1.2912704  0.067847591   -2.4721035    1.1808331  1646021 
 9988000    1.0086345   -2.4720838   -2.4720838   -1.2910681  0.069959097   -2.4720838    1.1810157  1646021 
 9989000    1.0092565   -2.4734924   -2.4734924   -1.2917485  0.063101866   -2.4734924    1.1817439  1646021 
 9990000    1.0082757   -2.4720895   -2.4720895    -1.291494  0.066377134   -2.4720895    1.1805955  1646021 
 9991000    1.0082155   -2.4721873   -2.4721873   -1.2916623  0.068414936   -2.4721873     1.180525  1646021 
 9992000    1.0087066   -2.4729052   -2.4729052   -1.2918051  0.070756613   -2.4729052    1.1811001  1646021 
 9993000    1.0084709   -2.4728247   -2.4728247   -1.2920006  0.070962687   -2.4728247    1.1808241  1646021 
 9994000    1.0085571   -2.4730244   -2.4730244   -1.2920994  0.066018877   -2.4730244     1.180925  1646021 
 9995000    1.0083664   -2.4728838   -2.4728838   -1.2921821  0.069378198   -2.4728838    1.1807018  1646021 
 9996000    1.0090321   -2.4732805   -2.4732805   -1.2917992  0.073102664   -2.4732805    1.1814812  1646021 
 9997000    1.0078037   -2.4717296   -2.4717296   -1.2916868  0.068499293   -2.4717296    1.1800428  1646021 
 9998000     1.008764   -2.4728198   -2.4728198   -1.2916525  0.067405871   -2.4728198    1.1811673  1646021 
 9999000    1.0082242   -2.4722085   -2.4722085   -1.2916733  0.067236196   -2.4722085    1.1805352  1646021 
10000000    1.0084445   -2.4724812   -2.4724812    -1.291688  0.070087614   -2.4724812    1.1807932  1646021 
Loop time of 19773 on 768 procs for 10000000 steps with 1646021 atoms

Performance: 218479.844 tau/day, 505.740 timesteps/s
88.7% CPU use with 768 MPI tasks x 1 OpenMP threads

MPI task timing breakdown:
Section |  min time  |  avg time  |  max time  |%varavg|  %CPU | %total
-----------------------------------------------------------------------
Pair    | 1574.6     | 4823.5     | 7951.8     |1365.8 |  90.6 | 24.39
Bond    | 6.2461     | 6.8139     | 8.3063     |  10.8 | 100.0 |  0.03
Neigh   | 1635.3     | 4019.1     | 5648.5     | 983.9 |  98.7 | 20.33
Comm    | 2680.6     | 5610.3     | 11987      |2069.6 |  85.6 | 28.37
Output  | 500.12     | 501.66     | 503.3      |   2.5 |  75.8 |  2.54
Modify  | 2269.5     | 4392.7     | 5727.5     |1295.8 |  84.6 | 22.22
Other   |            | 418.9      |            |       |       |  2.12

Nlocal:        2143.26 ave        2591 max        1630 min
Histogram: 1 2 10 95 194 244 156 52 10 4
Nghost:        4147.37 ave        6058 max        1875 min
Histogram: 9 41 47 28 100 215 208 107 11 2
Neighs:        45887.9 ave       67869 max       11456 min
Histogram: 42 6 4 13 74 191 195 151 65 27

Total # of neighbors = 35241930
Ave neighs/atom = 21.410377
Ave special neighs/atom = 0.0000000
Neighbor list builds = 1000000
Dangerous builds = 990000

Total wall time: 5:29:50
