LAMMPS (3 Mar 2020)
  using 1 OpenMP thread(s) per MPI task
# Simple rigid body system


units		lj
atom_style	full
dimension 	3
boundary	p p f
pair_style	lj/cut 4.4

variable 	sigma		equal 1.0
variable 	epsilon 	equal 1.0

read_restart	restart.dat.1500000
Reading restart file ...
  restart file = 3 Mar 2020, LAMMPS = 3 Mar 2020
  restoring atom style full from restart
  orthogonal box = (0 0 0) to (80 80 160)
  2 by 2 by 8 MPI processor grid
  restoring pair style lj/cut from restart
  489200 atoms
Finding 1-2 1-3 1-4 neighbors ...
  special bond factors lj:   0          0          0         
  special bond factors coul: 0          0          0         
  0 = max # of 1-2 neighbors
  0 = max # of 1-3 neighbors
  0 = max # of 1-4 neighbors
  1 = max # of special neighbors
  special bonds CPU = 0.356476 secs
  read_restart CPU = 1.7278 secs

mass		1 1.0
group		solvent type 1
489200 atoms in group solvent

#read_data	data.vac add append

neighbor 	0.4 bin
pair_coeff	1 1 1.0 1.0
pair_modify 	shift yes

balance 	1.05 shift z 10 1.05
Balancing ...
Neighbor list info ...
  update every 1 steps, delay 10 steps, check yes
  max neighbors/atom: 2000, page size: 100000
  master list distance cutoff = 4.8
  ghost atom cutoff = 4.8
  binsize = 2.4, bins = 34 34 67
  1 neighbor lists, perpetual/occasional/extra = 1 0 0
  (1) pair lj/cut, perpetual
      attributes: half, newton on
      pair build: half/bin/newton
      stencil: half/bin/3d/newton
      bin: standard
  rebalancing time: 0.0884798 seconds
  iteration count = 4
  initial/final max load/proc = 22856 18291
  initial/final imbalance factor = 1.49508 1.19647
  x cuts: 0 0.5 1
  y cuts: 0 0.5 1
  z cuts: 0 0.0859375 0.164062 0.257812 0.359375 0.421875 0.515625 0.617188 1

####################### WALLS ###########################

variable       epsilonWall equal 2*${epsilon}
variable       epsilonWall equal 2*1

variable       cutoffTop   equal   0.7147*${sigma}
variable       cutoffTop   equal   0.7147*1

variable       cutoffLow   equal   3*${sigma}
variable       cutoffLow   equal   3*1

fix            topWall all wall/lj93 zhi EDGE                ${epsilonWall} ${sigma} ${cutoffTop} units box
fix            topWall all wall/lj93 zhi EDGE                2 ${sigma} ${cutoffTop} units box
fix            topWall all wall/lj93 zhi EDGE                2 1 ${cutoffTop} units box
fix            topWall all wall/lj93 zhi EDGE                2 1 0.7147 units box

fix            lowWall all wall/lj93 zlo EDGE                ${epsilonWall} ${sigma} ${cutoffLow} units box
fix            lowWall all wall/lj93 zlo EDGE                2 ${sigma} ${cutoffLow} units box
fix            lowWall all wall/lj93 zlo EDGE                2 1 ${cutoffLow} units box
fix            lowWall all wall/lj93 zlo EDGE                2 1 3 units box



######################	FIXES ############################


#fix		1 cube rigid/nvt/small molecule temp 1.0 1.0 0.25

fix 		2 solvent nve


## Thermostat


region		regthermo block EDGE EDGE EDGE EDGE 0 20

group 		thermo dynamic solvent region regthermo every 1000
dynamic group thermo defined

fix 		3 thermo langevin 1.0 1.0 0.1 156453


## Evaporation


region		regevap	block	EDGE EDGE EDGE EDGE 140 160

fix 		evap solvent evaporate 50 1 regevap 156753


#### Load balancing

fix 		bal all balance 1000 1.05 shift z 10 1.05


############### Diagnostics and computes ###################
#compute 	com cube	  rigid/local	1 mol x y z
#compute 	quat cube	  rigid/local	1 mol quatw quati quatj quatk

thermo 		1000
thermo_style 	custom step temp epair evdwl etotal press pe ke vol

dump		1 all custom 100000 dump.lammpstrj id mol type x y z
dump 		2 all image 10000 image.*.png type type

dump_modify 	2 pad 8

dump 		3 all movie 5000 movie.avi type type
#dump 		com cube local 1000 dump.*.xyz c_com[*]
#dump		quat cube      local 1000 dump.*.quat c_quat[*]


restart 	500000 restart.dat
timestep 	0.0025
timer 		full
New timer settings: style=full  mode=nosync  timeout=off


run		10000000
Setting up Verlet run ...
  Unit style    : lj
  Current step  : 1500000
  Time step     : 0.0025
Per MPI rank memory allocation (min/avg/max) = 26.04 | 32.81 | 34.79 Mbytes
Step Temp E_pair E_vdwl TotEng Press PotEng KinEng Volume 
 1500000   0.98874046   -4.6489852   -4.6489852   -3.1658775    0.0632267   -4.6489852    1.4831077      1024000 
 1501000   0.98706251   -4.6505733   -4.6505733   -3.1699221  0.055659645   -4.6505733    1.4806513      1024000 
 1502000   0.98545061   -4.6491106   -4.6491106   -3.1708168  0.060653221   -4.6491106    1.4782938      1024000 
 1503000   0.98669669   -4.6486393   -4.6486393   -3.1684157  0.059710817   -4.6486393    1.4802236      1024000 
 1504000   0.98673081   -4.6494983   -4.6494983    -3.169163  0.056370983   -4.6494983    1.4803353      1024000 
 1505000   0.98507589   -4.6473889   -4.6473889    -3.169476  0.066395038   -4.6473889    1.4779129      1024000 
 1506000   0.98718583   -4.6482526   -4.6482526   -3.1671135  0.060600731   -4.6482526     1.481139      1024000 
 1507000   0.98571841   -4.6486709   -4.6486709   -3.1696731  0.060392428   -4.6486709    1.4789979      1024000 
 1508000    0.9866379   -4.6505978   -4.6505978   -3.1701598  0.063134473   -4.6505978     1.480438      1024000 
 1509000   0.98772734   -4.6527012   -4.6527012   -3.1705678  0.056735141   -4.6527012    1.4821333      1024000 
 1510000   0.98644207   -4.6537434   -4.6537434   -3.1734781  0.058038169   -4.6537434    1.4802653      1024000 
 1511000   0.98552439   -4.6518292   -4.6518292   -3.1728805  0.062392119   -4.6518292    1.4789487      1024000 
 1512000   0.98745536   -4.6533711   -4.6533711    -3.171464  0.060057945   -4.6533711     1.481907      1024000 
 1513000   0.98460369   -4.6514143   -4.6514143   -3.1737264  0.063810494   -4.6514143    1.4776879      1024000 
 1514000   0.98490844   -4.6505613   -4.6505613   -3.1723556  0.060473637   -4.6505613    1.4782057      1024000 
 1515000   0.98714956   -4.6519544   -4.6519544   -3.1703244  0.063978371   -4.6519544    1.4816299      1024000 
 1516000     0.986413    -4.652715    -4.652715     -3.17213  0.064990537    -4.652715     1.480585      1024000 
 1517000   0.98699532   -4.6531362   -4.6531362   -3.1716166  0.068801266   -4.6531362    1.4815196      1024000 
 1518000   0.98619423   -4.6523492   -4.6523492   -3.1719715  0.068264841   -4.6523492    1.4803777      1024000 
 1519000   0.98836772   -4.6551422   -4.6551422   -3.1714411  0.063405664   -4.6551422    1.4837011      1024000 
 1520000   0.98786832   -4.6559362   -4.6559362   -3.1729241   0.06636258   -4.6559362    1.4830121      1024000 
 1521000   0.98663554   -4.6551947   -4.6551947   -3.1739727  0.068108578   -4.6551947     1.481222      1024000 
 1522000   0.98812264   -4.6564449   -4.6564449   -3.1729297  0.068252653   -4.6564449    1.4835152      1024000 
 1523000   0.98845333   -4.6544623   -4.6544623   -3.1703898  0.062947948   -4.6544623    1.4840725      1024000 
 1524000   0.98714239   -4.6542086   -4.6542086   -3.1720437  0.065521037   -4.6542086    1.4821649      1024000 
 1525000   0.98682807   -4.6540883   -4.6540883   -3.1723347  0.063856834   -4.6540883    1.4817535      1024000 
 1526000   0.98494045   -4.6516284   -4.6516284   -3.1726487  0.065980899   -4.6516284    1.4789798      1024000 
 1527000   0.98518034   -4.6530486   -4.6530486   -3.1736481  0.061788768   -4.6530486    1.4794005      1024000 
 1528000   0.98533284   -4.6541706   -4.6541706   -3.1744806  0.059021435   -4.6541706    1.4796901      1024000 
 1529000   0.98201202   -4.6504911   -4.6504911   -3.1757276  0.067263267   -4.6504911    1.4747635      1024000 
 1530000   0.98500882   -4.6553729   -4.6553729   -3.1760483   0.06587749   -4.6553729    1.4793246      1024000 
 1531000   0.98395517   -4.6536349   -4.6536349   -3.1758322  0.068783539   -4.6536349    1.4778027      1024000 
 1532000   0.98502399   -4.6544132   -4.6544132   -3.1749447  0.063235427   -4.6544132    1.4794685      1024000 
 1533000   0.98430098   -4.6532255   -4.6532255   -3.1747824  0.063125067   -4.6532255    1.4784431      1024000 
 1534000   0.98452008   -4.6534495   -4.6534495   -3.1746168  0.059978793   -4.6534495    1.4788327      1024000 
 1535000   0.98496632   -4.6554144   -4.6554144   -3.1758508  0.057927199   -4.6554144    1.4795636      1024000 
 1536000   0.98368409   -4.6529424   -4.6529424   -3.1752445  0.061028426   -4.6529424     1.477698      1024000 
 1537000   0.98529377    -4.655695    -4.655695   -3.1755183  0.057115799    -4.655695    1.4801767      1024000 
 1538000   0.98368295   -4.6538376   -4.6538376   -3.1760204  0.060156097   -4.6538376    1.4778173      1024000 
 1539000   0.98484976   -4.6556301   -4.6556301   -3.1759993  0.055013739   -4.6556301    1.4796308      1024000 
 1540000   0.98352285    -4.652852    -4.652852   -3.1751542  0.063344984    -4.652852    1.4776978      1024000 
 1541000   0.98450225   -4.6554911   -4.6554911   -3.1762613  0.061992538   -4.6554911    1.4792299      1024000 
 1542000   0.98448419   -4.6540269   -4.6540269   -3.1747637  0.059788089   -4.6540269    1.4792633      1024000 
 1543000    0.9825216     -4.65204     -4.65204   -3.1756652  0.065101863     -4.65204    1.4763748      1024000 
 1544000   0.98325024   -4.6543912   -4.6543912    -3.176861   0.06647697   -4.6543912    1.4775302      1024000 
 1545000    0.9829558   -4.6538193   -4.6538193    -3.176671  0.063350664   -4.6538193    1.4771483      1024000 
 1546000   0.98270886   -4.6540605   -4.6540605   -3.1772229  0.060537954   -4.6540605    1.4768377      1024000 
 1547000   0.98402105   -4.6531921   -4.6531921   -3.1743219  0.067115636   -4.6531921    1.4788702      1024000 
 1548000    0.9835691   -4.6556303   -4.6556303   -3.1773788  0.063797079   -4.6556303    1.4782515      1024000 
 1549000   0.98389836   -4.6553817   -4.6553817   -3.1765748  0.060545519   -4.6553817     1.478807      1024000 
 1550000   0.98491171    -4.655848    -4.655848   -3.1754573  0.060935587    -4.655848    1.4803907      1024000 
 1551000   0.98311619   -4.6539428   -4.6539428   -3.1761904   0.06459853   -4.6539428    1.4777524      1024000 
 1552000   0.98378565   -4.6569436   -4.6569436   -3.1781243  0.060578388   -4.6569436    1.4788193      1024000 
 1553000   0.98261292   -4.6549899   -4.6549899   -3.1778729  0.062334327   -4.6549899     1.477117      1024000 
 1554000    0.9834192   -4.6549226   -4.6549226    -3.176533  0.069955683   -4.6549226    1.4783896      1024000 
 1555000   0.98411585    -4.656192    -4.656192   -3.1766945  0.065345539    -4.656192    1.4794975      1024000 
 1556000   0.98576998   -4.6591605   -4.6591605   -3.1771154  0.059933526   -4.6591605     1.482045      1024000 
 1557000    0.9840824   -4.6571401   -4.6571401   -3.1775716  0.066539322   -4.6571401    1.4795685      1024000 
 1558000    0.9843363   -4.6586452   -4.6586452   -3.1786344  0.062877664   -4.6586452    1.4800109      1024000 
 1559000    0.9848953   -4.6587829   -4.6587829   -3.1778709  0.063074124   -4.6587829     1.480912      1024000 
 1560000   0.98411657   -4.6587613   -4.6587613   -3.1789595  0.060448652   -4.6587613    1.4798018      1024000 
 1561000   0.98336942   -4.6583268   -4.6583268   -3.1795879  0.060382825   -4.6583268    1.4787389      1024000 
 1562000   0.98205494   -4.6556807   -4.6556807   -3.1788579  0.064894098   -4.6556807    1.4768228      1024000 
 1563000   0.98366951   -4.6564069   -4.6564069   -3.1770955  0.062610583   -4.6564069    1.4793114      1024000 
 1564000   0.98299827   -4.6576985   -4.6576985   -3.1793359  0.062512184   -4.6576985    1.4783626      1024000 
 1565000   0.98409272   -4.6569517   -4.6569517   -3.1768825  0.066519458   -4.6569517    1.4800692      1024000 
 1566000   0.98377371   -4.6582105   -4.6582105   -3.1785604  0.055717428   -4.6582105    1.4796501      1024000 
 1567000   0.98398056   -4.6569256   -4.6569256   -3.1769037  0.062387823   -4.6569256    1.4800219      1024000 
 1568000   0.98260986   -4.6563802   -4.6563802   -3.1783595  0.065471703   -4.6563802    1.4780208      1024000 
 1569000   0.98383748   -4.6590981   -4.6590981   -3.1791701  0.061903149   -4.6590981     1.479928      1024000 
 1570000   0.98254349   -4.6591323   -4.6591323   -3.1810902  0.066033833   -4.6591323    1.4780421      1024000 
 1571000   0.98076258   -4.6567405   -4.6567405    -3.181317  0.062195186   -4.6567405    1.4754236      1024000 
 1572000   0.98132907   -4.6574079   -4.6574079   -3.1810716  0.058867427   -4.6574079    1.4763363      1024000 
 1573000   0.98190243   -4.6587895   -4.6587895     -3.18153   0.05624104   -4.6587895    1.4772595      1024000 
 1574000   0.98178311   -4.6591254   -4.6591254   -3.1819849  0.053711252   -4.6591254    1.4771405      1024000 
 1575000   0.98052805   -4.6573696   -4.6573696   -3.1820569  0.059477973   -4.6573696    1.4753127      1024000 
 1576000   0.98052563   -4.6560904   -4.6560904   -3.1807208  0.062513878   -4.6560904    1.4753696      1024000 
 1577000   0.98263267   -4.6600347   -4.6600347   -3.1814341  0.057009523   -4.6600347    1.4786006      1024000 
 1578000   0.98272516   -4.6597398   -4.6597398   -3.1809393  0.059392686   -4.6597398    1.4788004      1024000 
 1579000   0.98276187   -4.6606989   -4.6606989   -3.1817826  0.055589026   -4.6606989    1.4789163      1024000 
 1580000   0.98048158   -4.6577813   -4.6577813    -3.182236   0.06730093   -4.6577813    1.4755453      1024000 
 1581000   0.98264838   -4.6597507   -4.6597507   -3.1808839  0.058121133   -4.6597507    1.4788669      1024000 
 1582000   0.98325899    -4.660322    -4.660322   -3.1804755  0.058634173    -4.660322    1.4798465      1024000 
 1583000   0.98317524   -4.6604102   -4.6604102    -3.180629   0.06602748   -4.6604102    1.4797812      1024000 
 1584000   0.98168279   -4.6602005   -4.6602005    -3.182605  0.059895491   -4.6602005    1.4775955      1024000 
 1585000   0.98284606   -4.6615083   -4.6615083   -3.1821012  0.062078948   -4.6615083    1.4794071      1024000 
 1586000   0.98079392   -4.6596919   -4.6596919   -3.1833132  0.062201165   -4.6596919    1.4763787      1024000 
 1587000     0.981578   -4.6612901   -4.6612901   -3.1836704  0.060885235   -4.6612901    1.4776196      1024000 
 1588000   0.98128289   -4.6593308   -4.6593308   -3.1820948  0.063199564   -4.6593308     1.477236      1024000 
 1589000   0.98242193   -4.6627631   -4.6627631   -3.1837517  0.059873772   -4.6627631    1.4790114      1024000 
 1590000   0.98171113   -4.6617729   -4.6617729   -3.1837709  0.061825448   -4.6617729     1.478002      1024000 
 1591000   0.98166788   -4.6624127   -4.6624127   -3.1844152  0.065618477   -4.6624127    1.4779975      1024000 
 1592000   0.98138791   -4.6620006   -4.6620006    -3.184364  0.060999385   -4.6620006    1.4776366      1024000 
 1593000   0.98299061   -4.6631541   -4.6631541   -3.1830437    0.0622412   -4.6631541    1.4801105      1024000 
 1594000   0.98119382   -4.6635053   -4.6635053   -3.1860396  0.064006217   -4.6635053    1.4774656      1024000 
 1595000   0.98292057   -4.6633684   -4.6633684   -3.1832419  0.063357308   -4.6633684    1.4801265      1024000 
 1596000   0.98176074   -4.6639948   -4.6639948   -3.1855541  0.062146113   -4.6639948    1.4784406      1024000 
 1597000   0.98134156   -4.6616451   -4.6616451    -3.183775  0.063961742   -4.6616451    1.4778701      1024000 
 1598000   0.98112201   -4.6630987   -4.6630987   -3.1854986  0.060695686   -4.6630987    1.4776001      1024000 
 1599000   0.98093028   -4.6625307   -4.6625307   -3.1851588  0.065280947   -4.6625307     1.477372      1024000 
 1600000   0.98076227   -4.6614312   -4.6614312   -3.1842516  0.069675181   -4.6614312    1.4771796      1024000 
 1601000   0.98228011    -4.663854    -4.663854   -3.1843276  0.063688184    -4.663854    1.4795264      1024000 
 1602000   0.98206426   -4.6627095   -4.6627095   -3.1834475  0.065828319   -4.6627095     1.479262      1024000 
 1603000   0.98058722   -4.6616651   -4.6616651   -3.1845672   0.06044169   -4.6616651    1.4770978      1024000 
 1604000   0.98240911   -4.6615439   -4.6615439    -3.181641  0.064594077   -4.6615439     1.479903      1024000 
 1605000   0.98229141   -4.6620922   -4.6620922   -3.1823058  0.061798781   -4.6620922    1.4797864      1024000 
 1606000   0.98248293   -4.6625773   -4.6625773   -3.1824416  0.061714899   -4.6625773    1.4801357      1024000 
 1607000   0.98257771   -4.6637109   -4.6637109   -3.1833716  0.055977427   -4.6637109    1.4803393      1024000 
 1608000   0.98005735   -4.6629344   -4.6629344   -3.1863317  0.056583396   -4.6629344    1.4766028      1024000 
 1609000   0.98011605   -4.6619696   -4.6619696   -3.1852177  0.060707769   -4.6619696    1.4767519      1024000 
 1610000   0.98063271   -4.6632762   -4.6632762   -3.1856852  0.058030197   -4.6632762     1.477591      1024000 
 1611000   0.98158618   -4.6631653   -4.6631653   -3.1840769  0.055110035   -4.6631653    1.4790884      1024000 
 1612000   0.98040185   -4.6630827   -4.6630827   -3.1857182  0.057689685   -4.6630827    1.4773645      1024000 
 1613000   0.97935161   -4.6620012   -4.6620012   -3.1861587  0.055869794   -4.6620012    1.4758425      1024000 
 1614000   0.98037026   -4.6612511   -4.6612511   -3.1838129  0.065879203   -4.6612511    1.4774382      1024000 
 1615000   0.98110548   -4.6634231   -4.6634231   -3.1848161  0.057559045   -4.6634231     1.478607      1024000 
 1616000   0.97982348    -4.661809    -4.661809   -3.1850735  0.060342076    -4.661809    1.4767355      1024000 
 1617000   0.97926978   -4.6632761   -4.6632761   -3.1873144   0.05461779   -4.6632761    1.4759617      1024000 
 1618000   0.97926771   -4.6621476   -4.6621476   -3.1861284  0.058132784   -4.6621476    1.4760192      1024000 
 1619000   0.97887998   -4.6613182   -4.6613182   -3.1858228  0.057255411   -4.6613182    1.4754954      1024000 
 1620000   0.97927864   -4.6596889   -4.6596889   -3.1835319  0.063214847   -4.6596889    1.4761569      1024000 
 1621000   0.97924607   -4.6622926   -4.6622926   -3.1861241  0.055456746   -4.6622926    1.4761685      1024000 
 1622000   0.97834728   -4.6615428   -4.6615428   -3.1866686  0.058430077   -4.6615428    1.4748742      1024000 
 1623000   0.98020194   -4.6650219   -4.6650219    -3.187291  0.057461256   -4.6650219    1.4777309      1024000 
 1624000   0.97936956   -4.6640081   -4.6640081   -3.1874715  0.058674876   -4.6640081    1.4765366      1024000 
 1625000   0.97997325   -4.6635324   -4.6635324   -3.1860249   0.06270133   -4.6635324    1.4775075      1024000 
 1626000   0.98080199   -4.6646267   -4.6646267   -3.1858089  0.062134821   -4.6646267    1.4788178      1024000 
 1627000   0.98035788   -4.6647692   -4.6647692   -3.1865603  0.062869519   -4.6647692    1.4782089      1024000 
 1628000   0.98074527   -4.6658835   -4.6658835   -3.1870297  0.058393972   -4.6658835    1.4788538      1024000 
 1629000   0.97908511   -4.6632259   -4.6632259   -3.1868148  0.064521185   -4.6632259    1.4764111      1024000 
 1630000   0.97942275   -4.6633017   -4.6633017   -3.1863207  0.063782555   -4.6633017     1.476981      1024000 
 1631000   0.97864005   -4.6642122   -4.6642122   -3.1883509   0.05741764   -4.6642122    1.4758613      1024000 
 1632000   0.97935544   -4.6626781   -4.6626781   -3.1856772  0.064348409   -4.6626781    1.4770009      1024000 
 1633000   0.97951393   -4.6637031   -4.6637031   -3.1864025  0.064064981   -4.6637031    1.4773006      1024000 
 1634000   0.98001994   -4.6634704   -4.6634704   -3.1853459  0.064899985   -4.6634704    1.4781246      1024000 
 1635000   0.97925177   -4.6650378   -4.6650378   -3.1880111  0.062983189   -4.6650378    1.4770267      1024000 
 1636000   0.97871032   -4.6628218   -4.6628218   -3.1865511  0.062839575   -4.6628218    1.4762707      1024000 
 1637000   0.97904415   -4.6649723   -4.6649723   -3.1881374  0.061896754   -4.6649723     1.476835      1024000 
 1638000   0.97946068   -4.6643283   -4.6643283   -3.1868043  0.064159407   -4.6643283     1.477524      1024000 
 1639000     0.979213    -4.664681    -4.664681   -3.1874699  0.060861843    -4.664681    1.4772111      1024000 
 1640000   0.97819112   -4.6643863   -4.6643863   -3.1886561  0.062586512   -4.6643863    1.4757302      1024000 
 1641000    0.9782334   -4.6642965   -4.6642965   -3.1884418  0.058813512   -4.6642965    1.4758547      1024000 
 1642000   0.97855526   -4.6653002   -4.6653002   -3.1888993  0.061631854   -4.6653002     1.476401      1024000 
 1643000   0.97779755   -4.6638678   -4.6638678   -3.1885493  0.060427633   -4.6638678    1.4753184      1024000 
 1644000   0.97859913   -4.6650342   -4.6650342   -3.1884456  0.059072787   -4.6650342    1.4765886      1024000 
 1645000   0.97951651   -4.6665478   -4.6665478   -3.1885142  0.054462928   -4.6665478    1.4780336      1024000 
 1646000   0.97726487   -4.6631139   -4.6631139   -3.1884173   0.06251795   -4.6631139    1.4746967      1024000 
 1647000   0.97871921   -4.6657837   -4.6657837   -3.1888317  0.053876521   -4.6657837     1.476952      1024000 
 1648000   0.97729118   -4.6648857   -4.6648857    -3.190028  0.060783194   -4.6648857    1.4748577      1024000 
 1649000    0.9790185   -4.6649156   -4.6649156   -3.1873904  0.061250834   -4.6649156    1.4775252      1024000 
 1650000   0.97772729    -4.665182    -4.665182   -3.1895448  0.062372602    -4.665182    1.4756372      1024000 
 1651000    0.9792456   -4.6669926   -4.6669926   -3.1890031  0.060423089   -4.6669926    1.4779895      1024000 
 1652000   0.97679954   -4.6648254   -4.6648254   -3.1904671  0.062175145   -4.6648254    1.4743583      1024000 
 1653000   0.97929493   -4.6658045   -4.6658045   -3.1876189  0.056115806   -4.6658045    1.4781856      1024000 
 1654000   0.97761391   -4.6640915   -4.6640915   -3.1883825  0.060118266   -4.6640915    1.4757089      1024000 
 1655000   0.97660167   -4.6621595   -4.6621595   -3.1879179  0.065431638   -4.6621595    1.4742416      1024000 
 1656000    0.9790354   -4.6657941   -4.6657941   -3.1878178  0.054855933   -4.6657941    1.4779763      1024000 
 1657000   0.97715032   -4.6646397   -4.6646397   -3.1894485  0.062179958   -4.6646397    1.4751912      1024000 
 1658000   0.97790588   -4.6646571   -4.6646571   -3.1882645  0.063836025   -4.6646571    1.4763926      1024000 
 1659000   0.97842584   -4.6663845   -4.6663845   -3.1891461  0.062678332   -4.6663845    1.4772384      1024000 
 1660000    0.9780403   -4.6655402   -4.6655402   -3.1888231  0.063437706   -4.6655402    1.4767171      1024000 
 1661000   0.97837744    -4.667181    -4.667181   -3.1898941  0.061252286    -4.667181    1.4772869      1024000 
 1662000   0.97849572   -4.6656913   -4.6656913    -3.188165  0.066009059   -4.6656913    1.4775263      1024000 
 1663000   0.97716423   -4.6652692   -4.6652692   -3.1896927  0.062644366   -4.6652692    1.4755765      1024000 
 1664000   0.98032418   -4.6681829   -4.6681829   -3.1877738  0.055335373   -4.6681829    1.4804091      1024000 
 1665000   0.97747484   -4.6648367   -4.6648367   -3.1886697  0.068565564   -4.6648367     1.476167      1024000 
 1666000   0.97792988   -4.6646388   -4.6646388   -3.1877238  0.065415854   -4.6646388     1.476915      1024000 
 1667000   0.97822425   -4.6666899   -4.6666899   -3.1892694  0.064279032   -4.6666899    1.4774204      1024000 
 1668000    0.9778652   -4.6644069   -4.6644069    -3.187468  0.066523934   -4.6644069    1.4769389      1024000 
 1669000    0.9767417   -4.6662284   -4.6662284   -3.1909256  0.053490993   -4.6662284    1.4753028      1024000 
 1670000   0.97669115   -4.6653408   -4.6653408   -3.1900536  0.058313304   -4.6653408    1.4752872      1024000 
 1671000   0.97630237   -4.6644792   -4.6644792   -3.1897185  0.060542866   -4.6644792    1.4747606      1024000 
 1672000   0.97595196   -4.6664467   -4.6664467   -3.1921547  0.056770569   -4.6664467     1.474292      1024000 
 1673000   0.97748312   -4.6654259   -4.6654259   -3.1887601   0.05837403   -4.6654259    1.4766658      1024000 
 1674000   0.97699845   -4.6654534   -4.6654534    -3.189459  0.061110328   -4.6654534    1.4759944      1024000 
 1675000   0.97593822   -4.6635914   -4.6635914    -3.189138   0.06330059   -4.6635914    1.4744534      1024000 
 1676000    0.9763521    -4.665588    -4.665588   -3.1904486  0.062881496    -4.665588    1.4751394      1024000 
 1677000   0.97635369   -4.6669353   -4.6669353   -3.1917327  0.053972727   -4.6669353    1.4752026      1024000 
 1678000   0.97466437   -4.6648474   -4.6648474   -3.1921366   0.05758822   -4.6648474    1.4727108      1024000 
 1679000   0.97482701   -4.6655293   -4.6655293   -3.1925121  0.058249657   -4.6655293    1.4730172      1024000 
 1680000   0.97530335   -4.6659638   -4.6659638   -3.1921661  0.053492591   -4.6659638    1.4737976      1024000 
 1681000   0.97436945   -4.6661709   -4.6661709   -3.1937238  0.054063349   -4.6661709    1.4724471      1024000 
 1682000   0.97474219   -4.6644247   -4.6644247   -3.1913537  0.062294414   -4.6644247     1.473071      1024000 
 1683000   0.97467857   -4.6669708   -4.6669708   -3.1939352  0.054802145   -4.6669708    1.4730355      1024000 
 1684000   0.97454428   -4.6671334   -4.6671334   -3.1942401   0.05571162   -4.6671334    1.4728933      1024000 
 1685000   0.97456257   -4.6658005   -4.6658005   -3.1928189  0.061707301   -4.6658005    1.4729816      1024000 
 1686000   0.97531325   -4.6690681   -4.6690681   -3.1948912  0.062317865   -4.6690681    1.4741769      1024000 
 1687000    0.9751599   -4.6676353   -4.6676353   -3.1936295  0.066690589   -4.6676353    1.4740058      1024000 
 1688000   0.97525249   -4.6682574   -4.6682574   -3.1940509  0.066199302   -4.6682574    1.4742065      1024000 
 1689000   0.97768512   -4.6716199   -4.6716199   -3.1936753  0.059069805   -4.6716199    1.4779446      1024000 
 1690000   0.97659092   -4.6710325   -4.6710325   -3.1946811  0.064634451   -4.6710325    1.4763514      1024000 
 1691000   0.97457099   -4.6696589   -4.6696589   -3.1963004  0.064947673   -4.6696589    1.4733585      1024000 
 1692000   0.97721776   -4.6707125   -4.6707125   -3.1932918  0.063926826   -4.6707125    1.4774207      1024000 
 1693000   0.97530923   -4.6697184   -4.6697184   -3.1951223  0.064787704   -4.6697184    1.4745961      1024000 
 1694000   0.97562012   -4.6713283   -4.6713283   -3.1962014  0.063844665   -4.6713283    1.4751269      1024000 
 1695000   0.97522027   -4.6700591   -4.6700591    -3.195476  0.067521201   -4.6700591    1.4745831      1024000 
 1696000   0.97634807   -4.6708939   -4.6708939   -3.1945447  0.067807504   -4.6708939    1.4763492      1024000 
 1697000   0.97447235   -4.6698551   -4.6698551   -3.1962815  0.067201067   -4.6698551    1.4735737      1024000 
 1698000   0.97588219   -4.6738647   -4.6738647   -3.1980983  0.057763796   -4.6738647    1.4757664      1024000 
 1699000   0.97543981   -4.6721119   -4.6721119   -3.1969537  0.071914935   -4.6721119    1.4751582      1024000 
 1700000   0.97472989   -4.6723983   -4.6723983    -3.198253  0.066067293   -4.6723983    1.4741454      1024000 
 1701000   0.97702683   -4.6745311   -4.6745311    -3.196851  0.065808727   -4.6745311    1.4776801      1024000 
 1702000   0.97553972   -4.6727968   -4.6727968   -3.1973051   0.06600738   -4.6727968    1.4754918      1024000 
 1703000   0.97436418   -4.6722806   -4.6722806   -3.1985061  0.062835516   -4.6722806    1.4737745      1024000 
 1704000   0.97500692   -4.6720174   -4.6720174   -3.1972099  0.065700389   -4.6720174    1.4748075      1024000 
 1705000   0.97496349   -4.6714776   -4.6714776   -3.1966749  0.062874826   -4.6714776    1.4748026      1024000 
 1706000   0.97457753   -4.6723726   -4.6723726   -3.1980931  0.063001213   -4.6723726    1.4742796      1024000 
 1707000   0.97560988   -4.6737752   -4.6737752   -3.1978731  0.064367397   -4.6737752    1.4759021      1024000 
 1708000   0.97333822   -4.6709865   -4.6709865   -3.1984603  0.066288362   -4.6709865    1.4725262      1024000 
 1709000   0.97332095   -4.6715927   -4.6715927   -3.1990318   0.06029192   -4.6715927    1.4725608      1024000 
 1710000   0.97299693   -4.6722683   -4.6722683    -3.200137  0.058711783   -4.6722683    1.4721313      1024000 
 1711000   0.97335721   -4.6726358   -4.6726358   -3.1998987  0.058047868   -4.6726358    1.4727371      1024000 
 1712000   0.97480248   -4.6741581   -4.6741581   -3.1991733  0.057656823   -4.6741581    1.4749847      1024000 
 1713000   0.97360673   -4.6716894   -4.6716894   -3.1984532  0.059754133   -4.6716894    1.4732362      1024000 
 1714000   0.97225086   -4.6705128   -4.6705128   -3.1992676  0.067054178   -4.6705128    1.4712452      1024000 
 1715000    0.9741243   -4.6747434   -4.6747434   -3.2006024  0.055906751   -4.6747434     1.474141      1024000 
 1716000    0.9733505   -4.6726635   -4.6726635   -3.1996327  0.062983048   -4.6726635    1.4730307      1024000 
 1717000   0.97342941   -4.6721959   -4.6721959    -3.198985  0.062675024   -4.6721959    1.4732109      1024000 
 1718000   0.97400279   -4.6709659   -4.6709659   -3.1968264  0.062006087   -4.6709659    1.4741395      1024000 
 1719000   0.97371248   -4.6728216   -4.6728216   -3.1990607  0.061457478   -4.6728216    1.4737609      1024000 
 1720000   0.97255043   -4.6710939   -4.6710939   -3.1990311  0.068725803   -4.6710939    1.4720628      1024000 
 1721000    0.9729916   -4.6720375   -4.6720375   -3.1992462  0.059776805   -4.6720375    1.4727913      1024000 
 1722000    0.9730974    -4.671919    -4.671919   -3.1989067  0.061474827    -4.671919    1.4730122      1024000 
 1723000   0.97332752    -4.673392    -4.673392   -3.1999706  0.054671435    -4.673392    1.4734214      1024000 
 1724000   0.97232965   -4.6734527   -4.6734527   -3.2014812  0.063126564   -4.6734527    1.4719715      1024000 
 1725000   0.97356909   -4.6744052   -4.6744052   -3.2004965  0.058008949   -4.6744052    1.4739087      1024000 
 1726000   0.97292844   -4.6755497   -4.6755497   -3.2025501  0.058925227   -4.6755497    1.4729996      1024000 
 1727000     0.973001   -4.6744844   -4.6744844   -3.2013142  0.061275516   -4.6744844    1.4731702      1024000 
 1728000   0.97265067   -4.6744644   -4.6744644   -3.2017639  0.062407405   -4.6744644    1.4727006      1024000 
 1729000   0.97398261    -4.676123    -4.676123   -3.2013449  0.058470711    -4.676123    1.4747781      1024000 
 1730000   0.97070577   -4.6727599   -4.6727599   -3.2028828  0.063150608   -4.6727599    1.4698771      1024000 
 1731000   0.97387875   -4.6750502   -4.6750502   -3.2003076  0.057098682   -4.6750502    1.4747426      1024000 
 1732000   0.97479907   -4.6740458   -4.6740458   -3.1978486  0.064524619   -4.6740458    1.4761972      1024000 
 1733000   0.97395449   -4.6747068   -4.6747068   -3.1997278  0.067303929   -4.6747068     1.474979      1024000 
 1734000   0.97397452   -4.6754148   -4.6754148   -3.2003445  0.064413468   -4.6754148    1.4750703      1024000 
 1735000   0.97417888   -4.6759275   -4.6759275   -3.2004868  0.063262679   -4.6759275    1.4754407      1024000 
 1736000    0.9748009   -4.6756896   -4.6756896   -3.1992459  0.065668162   -4.6756896    1.4764437      1024000 
 1737000   0.97238907   -4.6749057   -4.6749057   -3.2020542  0.061850338   -4.6749057    1.4728515      1024000 
 1738000   0.97414912   -4.6755882   -4.6755882   -3.2000099   0.06280656   -4.6755882    1.4755783      1024000 
 1739000   0.97372196   -4.6756799   -4.6756799   -3.2006877   0.06446197   -4.6756799    1.4749922      1024000 
 1740000   0.97375525   -4.6755307   -4.6755307   -3.2004272  0.063947473   -4.6755307    1.4751035      1024000 
 1741000   0.97350408   -4.6758119   -4.6758119    -3.201028  0.066829248   -4.6758119    1.4747839      1024000 
 1742000    0.9733899   -4.6752766   -4.6752766   -3.2006048  0.064818716   -4.6752766    1.4746718      1024000 
 1743000    0.9735948    -4.676437    -4.676437   -3.2013938  0.059901826    -4.676437    1.4750432      1024000 
 1744000    0.9726072   -4.6738619   -4.6738619   -3.2002541  0.064089715   -4.6738619    1.4736077      1024000 
 1745000   0.97125224   -4.6733581   -4.6733581   -3.2017425  0.067645982   -4.6733581    1.4716156      1024000 
 1746000    0.9708711   -4.6733964   -4.6733964   -3.2022975  0.059824593   -4.6733964    1.4710989      1024000 
 1747000   0.97201897   -4.6747563   -4.6747563   -3.2018573   0.05427157   -4.6747563     1.472899      1024000 
 1748000   0.97166701   -4.6735613   -4.6735613   -3.2011348  0.061251524   -4.6735613    1.4724265      1024000 
 1749000   0.97195707   -4.6741722   -4.6741722   -3.2012453  0.059947832   -4.6741722    1.4729269      1024000 
 1750000   0.97051229   -4.6737026   -4.6737026   -3.2029045   0.06016085   -4.6737026    1.4707981      1024000 
 1751000   0.97191983   -4.6740629   -4.6740629   -3.2010708  0.060479596   -4.6740629    1.4729921      1024000 
 1752000   0.97075796   -4.6747105   -4.6747105   -3.2034185  0.059289893   -4.6747105     1.471292      1024000 
 1753000   0.97206207    -4.675261    -4.675261   -3.2019316  0.057460533    -4.675261    1.4733294      1024000 
 1754000   0.97193234   -4.6764074   -4.6764074   -3.2032138  0.056607182   -4.6764074    1.4731936      1024000 
 1755000    0.9709076   -4.6740873   -4.6740873   -3.2023861  0.059470803   -4.6740873    1.4717012      1024000 
 1756000   0.97127397   -4.6749689   -4.6749689   -3.2026516  0.052383808   -4.6749689    1.4723174      1024000 
 1757000    0.9702529    -4.676103    -4.676103   -3.2052727  0.055233526    -4.676103    1.4708303      1024000 
 1758000   0.97027277   -4.6744783   -4.6744783   -3.2035571  0.056286963   -4.6744783    1.4709212      1024000 
 1759000   0.97151774   -4.6748384   -4.6748384    -3.201969  0.059106475   -4.6748384    1.4728694      1024000 
 1760000   0.96970245   -4.6725853   -4.6725853   -3.2024072  0.060345749   -4.6725853    1.4701781      1024000 
 1761000   0.97073554   -4.6731535   -4.6731535   -3.2013483  0.067311586   -4.6731535    1.4718052      1024000 
 1762000   0.97191236   -4.6747838   -4.6747838   -3.2011334  0.067142076   -4.6747838    1.4736504      1024000 
 1763000   0.97213554   -4.6758135   -4.6758135   -3.2017638  0.062253204   -4.6758135    1.4740497      1024000 
 1764000   0.97380538   -4.6773015   -4.6773015   -3.2006589  0.064979121   -4.6773015    1.4766427      1024000 
 1765000   0.97366459   -4.6790207   -4.6790207   -3.2025305  0.059502916   -4.6790207    1.4764902      1024000 
 1766000   0.97470274   -4.6780435   -4.6780435    -3.199918  0.064139784   -4.6780435    1.4781256      1024000 
 1767000   0.97189808    -4.676406    -4.676406   -3.2024727  0.067503169    -4.676406    1.4739333      1024000 
 1768000   0.97287413   -4.6790994   -4.6790994    -3.203625  0.060126001   -4.6790994    1.4754745      1024000 
 1769000   0.97154369   -4.6755037   -4.6755037   -3.2019861  0.064734571   -4.6755037    1.4735176      1024000 
 1770000   0.97247894   -4.6774605   -4.6774605   -3.2024634  0.056736333   -4.6774605    1.4749971      1024000 
 1771000   0.97052267   -4.6763873   -4.6763873   -3.2042965  0.062750738   -4.6763873    1.4720908      1024000 
 1772000   0.97097492   -4.6782324   -4.6782324   -3.2053948  0.060003031   -4.6782324    1.4728376      1024000 
 1773000    0.9707439   -4.6763163   -4.6763163   -3.2037682  0.063874611   -4.6763163    1.4725481      1024000 
 1774000   0.97103608   -4.6787929   -4.6787929   -3.2057407  0.058412113   -4.6787929    1.4730522      1024000 
 1775000   0.96888717   -4.6787336   -4.6787336   -3.2088804  0.054861392   -4.6787336    1.4698531      1024000 
 1776000   0.97043905   -4.6786222   -4.6786222   -3.2063539  0.058342209   -4.6786222    1.4722683      1024000 
 1777000   0.97076095   -4.6798169   -4.6798169   -3.2069994  0.058814533   -4.6798169    1.4728175      1024000 
 1778000   0.97058992   -4.6780127   -4.6780127   -3.2053938    0.0646465   -4.6780127    1.4726189      1024000 
 1779000   0.97020473   -4.6785981   -4.6785981   -3.2065027  0.063524709   -4.6785981    1.4720954      1024000 
 1780000   0.97007689   -4.6801884   -4.6801884   -3.2082261  0.057955444   -4.6801884    1.4719623      1024000 
 1781000    0.9695893   -4.6771555   -4.6771555   -3.2058722   0.06674153   -4.6771555    1.4712833      1024000 
 1782000   0.97039869     -4.67832     -4.67832   -3.2057476  0.057737834     -4.67832    1.4725724      1024000 
 1783000    0.9678825   -4.6768562   -4.6768562   -3.2080413  0.059064225   -4.6768562    1.4688148      1024000 
 1784000   0.96983628   -4.6781738   -4.6781738   -3.2063331  0.063848725   -4.6781738    1.4718407      1024000 
 1785000   0.97004518   -4.6806756   -4.6806756    -3.208457  0.059862146   -4.6806756    1.4722186      1024000 
 1786000   0.97015441   -4.6805729   -4.6805729   -3.2081276  0.061603822   -4.6805729    1.4724453      1024000 
 1787000   0.96979742   -4.6819601   -4.6819601   -3.2099958  0.056852661   -4.6819601    1.4719644      1024000 
 1788000   0.97124569   -4.6819304   -4.6819304   -3.2077069  0.062976968   -4.6819304    1.4742235      1024000 
 1789000   0.97128552   -4.6828502   -4.6828502   -3.2085052  0.060798069   -4.6828502     1.474345      1024000 
 1790000    0.9705355   -4.6797848   -4.6797848   -3.2065174  0.061350876   -4.6797848    1.4732675      1024000 
 1791000   0.97068835   -4.6816146   -4.6816146   -3.2080541  0.065167497   -4.6816146    1.4735605      1024000 
 1792000   0.96970922   -4.6830832   -4.6830832   -3.2109482  0.059258928   -4.6830832     1.472135      1024000 
 1793000   0.96891881   -4.6816411   -4.6816411   -3.2106452  0.062550337   -4.6816411    1.4709959      1024000 
 1794000   0.96910039   -4.6823735   -4.6823735    -3.211041  0.064119014   -4.6823735    1.4713325      1024000 
 1795000   0.96981092    -4.682808    -4.682808   -3.2103359  0.063566721    -4.682808    1.4724722      1024000 
 1796000   0.97005173    -4.682523    -4.682523   -3.2096242  0.065255707    -4.682523    1.4728988      1024000 
 1797000    0.9724413   -4.6863183   -4.6863183   -3.2097302  0.060410149   -4.6863183    1.4765881      1024000 
 1798000   0.97055202   -4.6825122   -4.6825122   -3.2087319  0.065989338   -4.6825122    1.4737803      1024000 
 1799000   0.96959287   -4.6814023   -4.6814023   -3.2090175   0.06967854   -4.6814023    1.4723848      1024000 
 1800000   0.97119245   -4.6850799   -4.6850799    -3.210205  0.062823094   -4.6850799    1.4748749      1024000 
 1801000    0.9691197   -4.6830878   -4.6830878   -3.2112997  0.063546028   -4.6830878    1.4717881      1024000 
 1802000   0.97036291   -4.6827377   -4.6827377   -3.2090005  0.065514572   -4.6827377    1.4737372      1024000 
 1803000    0.9686891   -4.6836735   -4.6836735   -3.2124175  0.057594766   -4.6836735     1.471256      1024000 
 1804000   0.96863566   -4.6816446   -4.6816446   -3.2104089  0.059538768   -4.6816446    1.4712357      1024000 
 1805000    0.9669826   -4.6807648   -4.6807648   -3.2119791  0.066148497   -4.6807648    1.4687857      1024000 
 1806000   0.96853961    -4.681537    -4.681537   -3.2103254  0.057571677    -4.681537    1.4712116      1024000 
 1807000   0.96937982   -4.6838184   -4.6838184   -3.2112696  0.049418955   -4.6838184    1.4725489      1024000 
 1808000   0.96507928    -4.678924    -4.678924   -3.2128472  0.063735429    -4.678924    1.4660768      1024000 
 1809000    0.9671685   -4.6808977   -4.6808977   -3.2115863  0.060111154   -4.6808977    1.4693114      1024000 
 1810000   0.96636704   -4.6803195   -4.6803195   -3.2121649  0.058019403   -4.6803195    1.4681546      1024000 
 1811000   0.96670111   -4.6812497   -4.6812497   -3.2125268  0.060463033   -4.6812497     1.468723      1024000 
 1812000   0.96736809   -4.6810751   -4.6810751   -3.2112779  0.061810789   -4.6810751    1.4697972      1024000 
 1813000   0.96682253   -4.6829908   -4.6829908   -3.2139617  0.059018712   -4.6829908    1.4690291      1024000 
 1814000   0.96876486   -4.6862355   -4.6862355   -3.2141942  0.053641544   -4.6862355    1.4720413      1024000 
 1815000    0.9668649   -4.6826928   -4.6826928   -3.2134776  0.063040725   -4.6826928    1.4692152      1024000 
 1816000   0.96828482   -4.6821696   -4.6821696   -3.2107358  0.062627402   -4.6821696    1.4714338      1024000 
 1817000   0.96885555   -4.6818909   -4.6818909   -3.2095288  0.064326916   -4.6818909    1.4723621      1024000 
 1818000   0.96854788   -4.6830574   -4.6830574   -3.2111019  0.060487477   -4.6830574    1.4719555      1024000 
 1819000   0.96760274   -4.6831705   -4.6831705   -3.2125905   0.06029317   -4.6831705      1.47058      1024000 
 1820000   0.96568891   -4.6801826   -4.6801826   -3.2124504  0.068789144   -4.6801826    1.4677321      1024000 
 1821000   0.96683988   -4.6829018   -4.6829018   -3.2133594   0.05971573   -4.6829018    1.4695423      1024000 
 1822000   0.96789369   -4.6830019   -4.6830019   -3.2117969  0.061446355   -4.6830019     1.471205      1024000 
 1823000   0.96746153   -4.6813262   -4.6813262   -3.2107171  0.062496041   -4.6813262    1.4706091      1024000 
 1824000   0.96700197   -4.6836817   -4.6836817   -3.2137102  0.055324214   -4.6836817    1.4699714      1024000 
 1825000   0.96748699   -4.6820493   -4.6820493   -3.2112796  0.063024679   -4.6820493    1.4707696      1024000 
 1826000   0.96712623   -4.6832845   -4.6832845   -3.2130024  0.062679837   -4.6832845    1.4702821      1024000 
 1827000     0.965643   -4.6811798   -4.6811798   -3.2130918  0.066099659   -4.6811798    1.4680881      1024000 
 1828000   0.96697088   -4.6818622   -4.6818622   -3.2116945  0.064791758   -4.6818622    1.4701678      1024000 
 1829000   0.96761138   -4.6839414   -4.6839414   -3.2127389  0.064501603   -4.6839414    1.4712026      1024000 
 1830000   0.96725072   -4.6830766   -4.6830766   -3.2123614  0.062132328   -4.6830766    1.4707151      1024000 
 1831000   0.96847604   -4.6840754   -4.6840754   -3.2114361  0.059330077   -4.6840754    1.4726393      1024000 
 1832000   0.96723063   -4.6824336   -4.6824336   -3.2116271  0.062487185   -4.6824336    1.4708065      1024000 
 1833000   0.96715827   -4.6817319   -4.6817319   -3.2109745  0.071260642   -4.6817319    1.4707574      1024000 
 1834000   0.96721575   -4.6836181   -4.6836181   -3.2127123  0.058330598   -4.6836181    1.4709058      1024000 
 1835000   0.96730472   -4.6834452   -4.6834452   -3.2123431  0.061750361   -4.6834452    1.4711021      1024000 
 1836000   0.96732484   -4.6832923   -4.6832923   -3.2120986  0.065379167   -4.6832923    1.4711937      1024000 
 1837000    0.9671808   -4.6808187   -4.6808187   -3.2097831  0.069655242   -4.6808187    1.4710356      1024000 
 1838000   0.96741381   -4.6830371   -4.6830371   -3.2115861  0.059014939   -4.6830371     1.471451      1024000 
 1839000   0.96831694   -4.6833121   -4.6833121   -3.2104264  0.055528506   -4.6833121    1.4728857      1024000 
 1840000   0.96555616   -4.6802902   -4.6802902    -3.211543   0.06228656   -4.6802902    1.4687472      1024000 
 1841000   0.96563416   -4.6808369   -4.6808369   -3.2119101  0.060059815   -4.6808369    1.4689268      1024000 
 1842000    0.9648046   -4.6809964   -4.6809964   -3.2132707  0.060549487   -4.6809964    1.4677257      1024000 
 1843000   0.96558791   -4.6809663   -4.6809663   -3.2119881  0.060562578   -4.6809663    1.4689782      1024000 
 1844000   0.96683871   -4.6821712   -4.6821712   -3.2112291  0.059369573   -4.6821712    1.4709421      1024000 
 1845000    0.9658853   -4.6810736   -4.6810736    -3.211521  0.059412019   -4.6810736    1.4695525      1024000 
 1846000   0.96555999   -4.6813901   -4.6813901   -3.2122716  0.056958189   -4.6813901    1.4691185      1024000 
 1847000   0.96586004   -4.6824595   -4.6824595   -3.2128235  0.054288792   -4.6824595     1.469636      1024000 
 1848000   0.96493995   -4.6821361   -4.6821361   -3.2138393  0.056378296   -4.6821361    1.4682969      1024000 
 1849000   0.96489192    -4.682233    -4.682233   -3.2139483  0.054921178    -4.682233    1.4682847      1024000 
 1850000   0.96378569   -4.6823898   -4.6823898   -3.2157277  0.052302844   -4.6823898    1.4666622      1024000 
 1851000   0.96449673   -4.6822942   -4.6822942   -3.2144891  0.051003497   -4.6822942    1.4678051      1024000 
 1852000   0.96413062   -4.6794237   -4.6794237   -3.2121149  0.060619974   -4.6794237    1.4673088      1024000 
 1853000   0.96592095   -4.6819632   -4.6819632   -3.2118687  0.061040213   -4.6819632    1.4700945      1024000 
 1854000   0.96460677   -4.6826311   -4.6826311   -3.2144758    0.0577214   -4.6826311    1.4681552      1024000 
 1855000   0.96596997   -4.6822466   -4.6822466   -3.2119556  0.060164588   -4.6822466    1.4702911      1024000 
 1856000    0.9657601   -4.6842151   -4.6842151   -3.2141825  0.057843732   -4.6842151    1.4700326      1024000 
 1857000   0.96586178   -4.6844663   -4.6844663    -3.214218  0.056408713   -4.6844663    1.4702484      1024000 
 1858000    0.9660337   -4.6831783   -4.6831783   -3.2126072  0.059019027   -4.6831783    1.4705711      1024000 
 1859000   0.96700874   -4.6858759   -4.6858759   -3.2137594  0.061084779   -4.6858759    1.4721164      1024000 
 1860000   0.96519133   -4.6835641   -4.6835641   -3.2141534  0.063107496   -4.6835641    1.4694107      1024000 
 1861000    0.9669475   -4.6832043   -4.6832043   -3.2110589  0.068222616   -4.6832043    1.4721454      1024000 
 1862000   0.96683831   -4.6839414   -4.6839414   -3.2119012  0.064506766   -4.6839414    1.4720402      1024000 
 1863000   0.96807423   -4.6840413   -4.6840413   -3.2100582   0.06490771   -4.6840413    1.4739831      1024000 
 1864000   0.96746133   -4.6849377   -4.6849377   -3.2118267   0.06690085   -4.6849377     1.473111      1024000 
 1865000   0.96657359   -4.6854693   -4.6854693   -3.2136489  0.065229975   -4.6854693    1.4718204      1024000 
 1866000   0.96635518   -4.6849686   -4.6849686   -3.2134197   0.06284239   -4.6849686    1.4715489      1024000 
 1867000   0.96449622   -4.6843469   -4.6843469   -3.2155679  0.062965916   -4.6843469    1.4687791      1024000 
 1868000   0.96606151   -4.6838094   -4.6838094   -3.2125856  0.067657505   -4.6838094    1.4712238      1024000 
 1869000   0.96731002   -4.6868976   -4.6868976   -3.2137112  0.059209475   -4.6868976    1.4731863      1024000 
 1870000   0.96657257   -4.6865379   -4.6865379   -3.2144136  0.059267013   -4.6865379    1.4721243      1024000 
 1871000   0.96508917   -4.6845773   -4.6845773   -3.2146512  0.064753651   -4.6845773    1.4699261      1024000 
 1872000   0.96515457   -4.6845122   -4.6845122   -3.2144255   0.06401324   -4.6845122    1.4700867      1024000 
 1873000   0.96676067   -4.6856751   -4.6856751   -3.2130809  0.056825855   -4.6856751    1.4725942      1024000 
 1874000   0.96557357   -4.6838849   -4.6838849   -3.2130378  0.060719801   -4.6838849     1.470847      1024000 
 1875000   0.96469271   -4.6854255   -4.6854255   -3.2158593  0.057243738   -4.6854255    1.4695663      1024000 
 1876000   0.96539756   -4.6862652   -4.6862652   -3.2155642  0.054311408   -4.6862652    1.4707011      1024000 
 1877000   0.96577758   -4.6871194   -4.6871194   -3.2157784  0.049956842   -4.6871194    1.4713411      1024000 
 1878000   0.96588019   -4.6849557   -4.6849557   -3.2133972  0.054611586   -4.6849557    1.4715585      1024000 
 1879000    0.9639692   -4.6835994   -4.6835994   -3.2148914  0.054299226   -4.6835994     1.468708      1024000 
 1880000   0.96266244   -4.6819402   -4.6819402   -3.2151623  0.055090865   -4.6819402    1.4667779      1024000 
 1881000   0.96383254   -4.6842549   -4.6842549   -3.2156331  0.050740489   -4.6842549    1.4686218      1024000 
 1882000   0.96320804   -4.6836117   -4.6836117   -3.2158805    0.0513443   -4.6836117    1.4677312      1024000 
 1883000   0.96419231    -4.684081    -4.684081    -3.214789  0.059968652    -4.684081     1.469292      1024000 
 1884000   0.96481949   -4.6847626   -4.6847626   -3.2144538  0.059856408   -4.6847626    1.4703088      1024000 
 1885000   0.96381026   -4.6846024   -4.6846024   -3.2157705  0.054195873   -4.6846024    1.4688318      1024000 
 1886000   0.96365396    -4.685136    -4.685136   -3.2164813  0.056140396    -4.685136    1.4686546      1024000 
 1887000   0.96313682    -4.683666    -4.683666   -3.2157385  0.061446075    -4.683666    1.4679275      1024000 
 1888000   0.96456364   -4.6857855   -4.6857855   -3.2156223  0.060760937   -4.6857855    1.4701632      1024000 
 1889000   0.96413941   -4.6845317   -4.6845317    -3.214954  0.061804185   -4.6845317    1.4695776      1024000 
 1890000   0.96295743   -4.6854453   -4.6854453   -3.2176084  0.060917405   -4.6854453     1.467837      1024000 
 1891000   0.96301872   -4.6846661   -4.6846661   -3.2166747  0.061322567   -4.6846661    1.4679914      1024000 
 1892000   0.96386989   -4.6855959   -4.6855959    -3.216246  0.052437323   -4.6855959    1.4693499      1024000 
 1893000   0.96264136   -4.6844945   -4.6844945   -3.2169565  0.060951441   -4.6844945    1.4675381      1024000 
 1894000   0.96473545   -4.6881862   -4.6881862   -3.2173946  0.056801454   -4.6881862    1.4707916      1024000 
 1895000   0.96378798   -4.6877458   -4.6877458   -3.2183376  0.061208544   -4.6877458    1.4694082      1024000 
 1896000   0.96413509   -4.6868556   -4.6868556   -3.2168571  0.064876675   -4.6868556    1.4699985      1024000 
 1897000   0.96514183   -4.6896959   -4.6896959   -3.2181013  0.058127297   -4.6896959    1.4715946      1024000 
 1898000   0.96502694   -4.6881464   -4.6881464   -3.2166658  0.061770344   -4.6881464    1.4714806      1024000 
 1899000   0.96478092   -4.6893022   -4.6893022   -3.2181356  0.064909503   -4.6893022    1.4711666      1024000 
 1900000   0.96383172   -4.6889984   -4.6889984   -3.2192181  0.067175878   -4.6889984    1.4697803      1024000 
 1901000   0.96600823   -4.6920742   -4.6920742   -3.2189136  0.066494378   -4.6920742    1.4731606      1024000 
 1902000   0.96588828   -4.6903736   -4.6903736   -3.2173347  0.064209815   -4.6903736    1.4730388      1024000 
 1903000   0.96408807   -4.6897986   -4.6897986   -3.2194441  0.063856305   -4.6897986    1.4703545      1024000 
 1904000    0.9652484   -4.6904697   -4.6904697   -3.2182843  0.064333922   -4.6904697    1.4721854      1024000 
 1905000   0.96332132   -4.6895371   -4.6895371   -3.2202298  0.064879515   -4.6895371    1.4693073      1024000 
 1906000   0.96220269   -4.6887869   -4.6887869   -3.2211248  0.068148936   -4.6887869    1.4676621      1024000 
 1907000   0.96328474   -4.6894548   -4.6894548   -3.2200812  0.060101054   -4.6894548    1.4693737      1024000 
 1908000   0.96265319    -4.687157    -4.687157   -3.2186856  0.068145872    -4.687157    1.4684714      1024000 
 1909000   0.96302126   -4.6872685   -4.6872685   -3.2181746  0.063169947   -4.6872685    1.4690939      1024000 
 1910000   0.96311617    -4.687947    -4.687947   -3.2186472  0.065445979    -4.687947    1.4692998      1024000 
 1911000    0.9657199   -4.6905771   -4.6905771   -3.2172438  0.056695453   -4.6905771    1.4733332      1024000 
 1912000   0.96233505   -4.6874273   -4.6874273   -3.2191971  0.063526252   -4.6874273    1.4682302      1024000 
 1913000    0.9636039   -4.6889911   -4.6889911   -3.2187639  0.061474901   -4.6889911    1.4702273      1024000 
 1914000   0.96252023   -4.6871056   -4.6871056   -3.2184707  0.066377246   -4.6871056    1.4686349      1024000 
 1915000   0.96315293   -4.6886761   -4.6886761   -3.2190146    0.0607706   -4.6886761    1.4696614      1024000 
 1916000   0.95960979   -4.6847668   -4.6847668   -3.2204509  0.060643185   -4.6847668    1.4643159      1024000 
 1917000   0.96049813   -4.6863564   -4.6863564    -3.220624  0.052914486   -4.6863564    1.4657324      1024000 
 1918000   0.96283385   -4.6873498   -4.6873498    -3.217992  0.049771129   -4.6873498    1.4693579      1024000 
 1919000   0.96170174   -4.6859089   -4.6859089   -3.2182177  0.053189553   -4.6859089    1.4676912      1024000 
 1920000   0.96047152   -4.6852429   -4.6852429   -3.2193682  0.053125726   -4.6852429    1.4658747      1024000 
 1921000   0.96026613   -4.6839772   -4.6839772    -3.218355    0.0574036   -4.6839772    1.4656222      1024000 
 1922000   0.96038437   -4.6847173   -4.6847173   -3.2188537  0.060871138   -4.6847173    1.4658637      1024000 
 1923000   0.96160063   -4.6867926   -4.6867926   -3.2190115  0.054437773   -4.6867926    1.4677811      1024000 
 1924000   0.96190306   -4.6859901   -4.6859901   -3.2176862  0.060211232   -4.6859901    1.4683038      1024000 
 1925000   0.96275053   -4.6875986   -4.6875986     -3.21794  0.056358832   -4.6875986    1.4696586      1024000 
 1926000   0.96029546   -4.6864323   -4.6864323   -3.2204604  0.060882652   -4.6864323    1.4659719      1024000 
 1927000   0.96288495   -4.6879783   -4.6879783   -3.2179922  0.055418296   -4.6879783    1.4699861      1024000 
 1928000   0.96122514   -4.6874391   -4.6874391   -3.2199259  0.060403789   -4.6874391    1.4675132      1024000 
 1929000   0.96096312   -4.6862382   -4.6862382    -3.219064  0.058178815   -4.6862382    1.4671743      1024000 
 1930000    0.9607105   -4.6871842   -4.6871842   -3.2203346  0.049201575   -4.6871842    1.4668496      1024000 
 1931000   0.96032308   -4.6871004   -4.6871004   -3.2207813  0.054853911   -4.6871004    1.4663191      1024000 
 1932000   0.96051897   -4.6854561   -4.6854561   -3.2187769    0.0574833   -4.6854561    1.4666793      1024000 
 1933000   0.96031854   -4.6858847   -4.6858847   -3.2194505    0.0560311   -4.6858847    1.4664342      1024000 
 1934000   0.96011391   -4.6868034   -4.6868034   -3.2206206  0.056729167   -4.6868034    1.4661828      1024000 
 1935000    0.9613034   -4.6881263   -4.6881263    -3.220066  0.056858675   -4.6881263    1.4680603      1024000 
 1936000   0.96138066   -4.6885199   -4.6885199   -3.2202804  0.065687089   -4.6885199    1.4682394      1024000 
 1937000   0.96098198   -4.6893065   -4.6893065   -3.2216149  0.061457684   -4.6893065    1.4676917      1024000 
 1938000   0.96146682   -4.6902659   -4.6902659   -3.2217727  0.057227872   -4.6902659    1.4684933      1024000 
 1939000   0.96002921   -4.6901252   -4.6901252   -3.2237666   0.05904418   -4.6901252    1.4663586      1024000 
 1940000   0.96144274   -4.6911365   -4.6911365   -3.2225577  0.060820035   -4.6911365    1.4685788      1024000 
 1941000   0.96239249   -4.6915181   -4.6915181   -3.2214274  0.055378578   -4.6915181    1.4700907      1024000 
 1942000   0.96316589   -4.6938469   -4.6938469   -3.2225136  0.053349471   -4.6938469    1.4713333      1024000 
 1943000   0.96124847   -4.6910331   -4.6910331   -3.2225677  0.062784317   -4.6910331    1.4684654      1024000 
 1944000   0.96003123   -4.6907705   -4.6907705   -3.2241035   0.06265444   -4.6907705     1.466667      1024000 
 1945000   0.96137054   -4.6928461   -4.6928461   -3.2240719  0.059101179   -4.6928461    1.4687742      1024000 
 1946000   0.95991697    -4.690898    -4.690898   -3.2242835  0.060961019    -4.690898    1.4666145      1024000 
 1947000   0.96279111   -4.6947148   -4.6947148   -3.2236477  0.056016467   -4.6947148    1.4710671      1024000 
 1948000   0.96195998   -4.6925258   -4.6925258   -3.2226675  0.065012688   -4.6925258    1.4698584      1024000 
 1949000   0.96138806   -4.6936777   -4.6936777    -3.224632  0.062785209   -4.6936777    1.4690457      1024000 
 1950000   0.96034527   -4.6931278   -4.6931278   -3.2256144  0.067735312   -4.6931278    1.4675134      1024000 
 1951000   0.96219727   -4.6937412   -4.6937412   -3.2233366  0.064791807   -4.6937412    1.4704047      1024000 
 1952000   0.96145363   -4.6944005   -4.6944005   -3.2250711  0.061100612   -4.6944005    1.4693295      1024000 
 1953000   0.96137553   -4.6940317   -4.6940317   -3.2247604  0.060357827   -4.6940317    1.4692713      1024000 
 1954000   0.96071499   -4.6930943   -4.6930943   -3.2247713  0.062482445   -4.6930943     1.468323      1024000 
 1955000   0.96206869   -4.6943541   -4.6943541   -3.2239009  0.054132922   -4.6943541    1.4704532      1024000 
 1956000   0.95979363   -4.6937051   -4.6937051   -3.2266681  0.057626671   -4.6937051     1.467037      1024000 
 1957000   0.95846099   -4.6911299   -4.6911299   -3.2260688  0.060982594   -4.6911299    1.4650611      1024000 
 1958000    0.9598791   -4.6928122   -4.6928122   -3.2255223  0.060128262   -4.6928122    1.4672899      1024000 
 1959000    0.9595301   -4.6921103   -4.6921103   -3.2252928  0.061188565   -4.6921103    1.4668175      1024000 
 1960000   0.95847881   -4.6912489   -4.6912489   -3.2259774  0.059254625   -4.6912489    1.4652715      1024000 
 1961000   0.95961566   -4.6915657   -4.6915657   -3.2244951  0.058322914   -4.6915657    1.4670706      1024000 
 1962000   0.95812862   -4.6898595   -4.6898595   -3.2250013  0.062174333   -4.6898595    1.4648582      1024000 
 1963000   0.96043443   -4.6913768   -4.6913768   -3.2229321  0.059486918   -4.6913768    1.4684447      1024000 
 1964000   0.95934621   -4.6898275   -4.6898275   -3.2229855  0.064600683   -4.6898275     1.466842      1024000 
 1965000    0.9600481   -4.6927566   -4.6927566   -3.2247802  0.060438089   -4.6927566    1.4679764      1024000 
 1966000   0.95993932    -4.692522    -4.692522   -3.2246508  0.057541027    -4.692522    1.4678712      1024000 
 1967000   0.95930403   -4.6917764   -4.6917764   -3.2248155  0.061113949   -4.6917764    1.4669609      1024000 
 1968000   0.95940124   -4.6922716   -4.6922716   -3.2251009  0.057261316   -4.6922716    1.4671707      1024000 
 1969000    0.9592127   -4.6907958   -4.6907958   -3.2238523  0.060105349   -4.6907958    1.4669435      1024000 
 1970000   0.95957556   -4.6932224   -4.6932224   -3.2256627   0.05718637   -4.6932224    1.4675596      1024000 
 1971000   0.95999568   -4.6925558   -4.6925558   -3.2242925  0.055416006   -4.6925558    1.4682634      1024000 
 1972000   0.95915776   -4.6913098   -4.6913098   -3.2242669  0.063332188   -4.6913098    1.4670429      1024000 
 1973000   0.95833399    -4.692102    -4.692102   -3.2262579  0.057785832    -4.692102    1.4658441      1024000 
 1974000   0.95928662   -4.6931209   -4.6931209   -3.2257585  0.060189729   -4.6931209    1.4673624      1024000 
 1975000   0.95936858   -4.6936285   -4.6936285   -3.2260796  0.059679378   -4.6936285    1.4675489      1024000 
 1976000    0.9594587   -4.6941707   -4.6941707   -3.2264227  0.055005435   -4.6941707     1.467748      1024000 
 1977000   0.95829154   -4.6923187   -4.6923187   -3.2262951  0.058223351   -4.6923187    1.4660236      1024000 
 1978000   0.95942277   -4.6941568   -4.6941568   -3.2263413  0.053181914   -4.6941568    1.4678154      1024000 
 1979000   0.95945143   -4.6939139   -4.6939139   -3.2259934   0.05443082   -4.6939139    1.4679205      1024000 
 1980000   0.95779781    -4.693274    -4.693274   -3.2278223  0.059437516    -4.693274    1.4654516      1024000 
 1981000   0.96007418    -4.695894    -4.695894   -3.2268982  0.055377915    -4.695894    1.4689958      1024000 
 1982000   0.95781512   -4.6931391   -4.6931391   -3.2275387  0.060990105   -4.6931391    1.4656003      1024000 
 1983000   0.95695577   -4.6928303   -4.6928303   -3.2284838  0.061773787   -4.6928303    1.4643465      1024000 
 1984000   0.95952299    -4.697112    -4.697112   -3.2287759  0.053886551    -4.697112    1.4683361      1024000 
 1985000   0.95857453   -4.6950109   -4.6950109    -3.228065   0.05333116   -4.6950109    1.4669459      1024000 
 1986000   0.95839922   -4.6943862   -4.6943862   -3.2276474  0.055520944   -4.6943862    1.4667388      1024000 
 1987000   0.95747629   -4.6952255   -4.6952255   -3.2298381   0.06110813   -4.6952255    1.4653874      1024000 
 1988000   0.95910122   -4.6961652   -4.6961652   -3.2282297  0.055977717   -4.6961652    1.4679356      1024000 
 1989000    0.9582813   -4.6950342   -4.6950342   -3.2282923  0.061199619   -4.6950342    1.4667419      1024000 
 1990000   0.95835892   -4.6936252   -4.6936252   -3.2267034  0.062393725   -4.6936252    1.4669218      1024000 
 1991000    0.9571092   -4.6940265   -4.6940265   -3.2289564  0.059681032   -4.6940265    1.4650701      1024000 
 1992000   0.95904119   -4.6955062   -4.6955062   -3.2274175   0.06141596   -4.6955062    1.4680887      1024000 
 1993000   0.95844239    -4.696885    -4.696885   -3.2296517  0.064057515    -4.696885    1.4672333      1024000 
 1994000   0.95830269    -4.696868    -4.696868   -3.2297874  0.061583651    -4.696868    1.4670806      1024000 
 1995000   0.95737017   -4.6950614   -4.6950614   -3.2293472  0.063304101   -4.6950614    1.4657142      1024000 
 1996000   0.95975583   -4.6960696   -4.6960696   -3.2266417  0.065026454   -4.6960696    1.4694279      1024000 
 1997000   0.95969173   -4.6973496   -4.6973496   -3.2279586  0.061808322   -4.6973496     1.469391      1024000 
 1998000   0.95939699   -4.6975716   -4.6975716   -3.2285705  0.060696025   -4.6975716    1.4690011      1024000 
 1999000   0.96072787   -4.6974186   -4.6974186   -3.2263184  0.061373493   -4.6974186    1.4711003      1024000 
 2000000   0.95819372   -4.6965593   -4.6965593   -3.2292782  0.063072505   -4.6965593    1.4672811      1024000 
 2001000   0.95779143   -4.6956566   -4.6956566   -3.2289303  0.065826601   -4.6956566    1.4667263      1024000 
 2002000   0.95847441   -4.6979368   -4.6979368   -3.2301033  0.057320141   -4.6979368    1.4678335      1024000 
 2003000   0.95874864   -4.6958815   -4.6958815   -3.2275668   0.06187038   -4.6958815    1.4683147      1024000 
 2004000   0.95784272   -4.6985519   -4.6985519   -3.2315634  0.056348374   -4.6985519    1.4669885      1024000 
 2005000   0.95863945   -4.6994435   -4.6994435   -3.2311734  0.051120508   -4.6994435    1.4682701      1024000 
 2006000   0.95650192   -4.6953922   -4.6953922   -3.2303348  0.059942018   -4.6953922    1.4650574      1024000 
 2007000   0.95527023   -4.6941524   -4.6941524   -3.2309205  0.062494634   -4.6941524    1.4632319      1024000 
 2008000   0.95841379   -4.6980124   -4.6980124   -3.2299041  0.053216125   -4.6980124    1.4681083      1024000 
 2009000   0.95834856   -4.6979007   -4.6979007    -3.229831  0.061469023   -4.6979007    1.4680697      1024000 
 2010000   0.95815459   -4.6971801   -4.6971801   -3.2293463  0.059431889   -4.6971801    1.4678338      1024000 
 2011000   0.95727624   -4.6978039   -4.6978039   -3.2312544  0.056601026   -4.6978039    1.4665495      1024000 
 2012000   0.95665605   -4.6964514   -4.6964514   -3.2307908  0.064765315   -4.6964514    1.4656606      1024000 
 2013000   0.95823599   -4.6988087   -4.6988087   -3.2306663  0.058221065   -4.6988087    1.4681424      1024000 
 2014000   0.95766974    -4.697289    -4.697289   -3.2299529  0.061637322    -4.697289    1.4673361      1024000 
 2015000   0.95596233   -4.6958363   -4.6958363   -3.2310551  0.056066131   -4.6958363    1.4647812      1024000 
 2016000   0.95625685    -4.695913    -4.695913   -3.2306193  0.056159534    -4.695913    1.4652937      1024000 
 2017000   0.95579994   -4.6943467   -4.6943467    -3.229692  0.063559176   -4.6943467    1.4646547      1024000 
 2018000   0.95740427   -4.6981721   -4.6981721   -3.2309977  0.055393966   -4.6981721    1.4671745      1024000 
 2019000   0.95827605   -4.6962319   -4.6962319   -3.2276602  0.060529973   -4.6962319    1.4685718      1024000 
 2020000   0.95582814   -4.6951302   -4.6951302   -3.2302487  0.066673872   -4.6951302    1.4648815      1024000 
 2021000   0.95604699   -4.6962083   -4.6962083   -3.2309302  0.059913162   -4.6962083    1.4652781      1024000 
 2022000   0.95636372   -4.6971049   -4.6971049   -3.2312801  0.058267744   -4.6971049    1.4658248      1024000 
 2023000   0.95661153   -4.6969663   -4.6969663   -3.2307005   0.05749621   -4.6969663    1.4662658      1024000 
 2024000   0.95618834   -4.6949803   -4.6949803   -3.2293019  0.056165809   -4.6949803    1.4656784      1024000 
 2025000   0.95648153   -4.6951975   -4.6951975   -3.2290084  0.055710961   -4.6951975    1.4661891      1024000 
 2026000   0.95683788   -4.6953441   -4.6953441   -3.2285475  0.058164606   -4.6953441    1.4667966      1024000 
 2027000   0.95463593   -4.6948333   -4.6948333    -3.231351  0.059915699   -4.6948333    1.4634822      1024000 
 2028000   0.95582483   -4.6968616   -4.6968616   -3.2314955  0.060258108   -4.6968616    1.4653661      1024000 
 2029000   0.95685149   -4.6966872   -4.6966872   -3.2296858  0.056932215   -4.6966872    1.4670013      1024000 
 2030000   0.95558825   -4.6974983   -4.6974983   -3.2323725  0.059734614   -4.6974983    1.4651258      1024000 
 2031000   0.95571019   -4.6987339   -4.6987339   -3.2333599  0.056613015   -4.6987339     1.465374      1024000 
 2032000    0.9548386   -4.6970053   -4.6970053   -3.2329065  0.061218197   -4.6970053    1.4640988      1024000 
 2033000   0.95591568   -4.6988136   -4.6988136   -3.2330019  0.055032413   -4.6988136    1.4658116      1024000 
 2034000   0.95554144   -4.6970919   -4.6970919   -3.2317929  0.061895021   -4.6970919     1.465299      1024000 
 2035000   0.95500995     -4.69824     -4.69824   -3.2336948  0.059870868     -4.69824    1.4645452      1024000 
 2036000   0.95571257   -4.6980429   -4.6980429    -3.232359  0.060229998   -4.6980429    1.4656839      1024000 
 2037000   0.95782436   -4.6980174   -4.6980174   -3.2290334  0.062866395   -4.6980174     1.468984      1024000 
 2038000   0.95749658   -4.7010799   -4.7010799   -3.2325372  0.050115538   -4.7010799    1.4685427      1024000 
 2039000   0.95663604   -4.6997237   -4.6997237   -3.2324396  0.060682147   -4.6997237    1.4672842      1024000 
 2040000   0.95627872   -4.6996058   -4.6996058   -3.2328084  0.065474874   -4.6996058    1.4667974      1024000 
 2041000   0.95725081   -4.7001405   -4.7001405   -3.2317907  0.061025315   -4.7001405    1.4683499      1024000 
 2042000   0.95730866   -4.6996959   -4.6996959   -3.2311959  0.066898736   -4.6996959       1.4685      1024000 
 2043000    0.9577932   -4.7018487   -4.7018487    -3.232544  0.057799357   -4.7018487    1.4693047      1024000 
 2044000   0.95674505   -4.6995486   -4.6995486   -3.2317905  0.062458196   -4.6995486    1.4677582      1024000 
 2045000   0.95437011   -4.6972867   -4.6972867   -3.2331107  0.063771699   -4.6972867    1.4641759      1024000 
 2046000   0.95715299   -4.6987348   -4.6987348    -3.230228  0.061345097   -4.6987348    1.4685068      1024000 
 2047000   0.95563449   -4.7006334   -4.7006334   -3.2343951  0.066263697   -4.7006334    1.4662383      1024000 
 2048000   0.95635794    -4.700851    -4.700851   -3.2334413  0.057991878    -4.700851    1.4674097      1024000 
 2049000   0.95593734   -4.7009486   -4.7009486   -3.2341229  0.055979874   -4.7009486    1.4668257      1024000 
 2050000   0.95577799   -4.7021169   -4.7021169   -3.2354744  0.055225526   -4.7021169    1.4666425      1024000 
 2051000   0.95449302   -4.6997184   -4.6997184   -3.2349864   0.05650498   -4.6997184     1.464732      1024000 
 2052000   0.95365173   -4.6983001   -4.6983001   -3.2347979  0.058504125   -4.6983001    1.4635022      1024000 
 2053000   0.95281076   -4.6969657   -4.6969657   -3.2346929  0.064133376   -4.6969657    1.4622728      1024000 
 2054000   0.95509722   -4.6984696   -4.6984696   -3.2326265  0.056150565   -4.6984696    1.4658431      1024000 
 2055000   0.95326514   -4.6965107   -4.6965107   -3.2334182   0.06118072   -4.6965107    1.4630925      1024000 
 2056000   0.95283339   -4.6965884   -4.6965884   -3.2340973  0.057012439   -4.6965884     1.462491      1024000 
 2057000   0.95373416   -4.6985465   -4.6985465   -3.2346116  0.056760048   -4.6985465    1.4639348      1024000 
 2058000   0.95365061   -4.6971254   -4.6971254   -3.2332575  0.058007722   -4.6971254    1.4638678      1024000 
 2059000   0.95344079    -4.698958    -4.698958    -3.235351   0.05775991    -4.698958     1.463607      1024000 
 2060000   0.95368739   -4.6998224   -4.6998224   -3.2357756  0.057406107   -4.6998224    1.4640468      1024000 
 2061000   0.95289432   -4.6987072   -4.6987072   -3.2358166  0.058538057   -4.6987072    1.4628905      1024000 
 2062000   0.95267009   -4.6991954   -4.6991954   -3.2365879  0.061129939   -4.6991954    1.4626075      1024000 
 2063000   0.95337127   -4.6992435   -4.6992435   -3.2354982  0.054306402   -4.6992435    1.4637452      1024000 
 2064000   0.95288779   -4.6980957   -4.6980957   -3.2350315  0.055111828   -4.6980957    1.4630642      1024000 
 2065000   0.95261481   -4.6975997   -4.6975997   -3.2348934  0.061549714   -4.6975997    1.4627063      1024000 
 2066000   0.95304117   -4.6976646   -4.6976646   -3.2342425  0.062550241   -4.6976646    1.4634222      1024000 
 2067000   0.95436057   -4.7025599   -4.7025599   -3.2370504  0.053413528   -4.7025599    1.4655095      1024000 
 2068000   0.95249149   -4.6995083   -4.6995083   -3.2368078  0.062693918   -4.6995083    1.4627005      1024000 
 2069000   0.95419231   -4.7005998   -4.7005998   -3.2352261  0.060315467   -4.7005998    1.4653738      1024000 
 2070000   0.95513719   -4.7010589   -4.7010589   -3.2341727  0.063127631   -4.7010589    1.4668862      1024000 
 2071000   0.95606256   -4.7021088   -4.7021088   -3.2337399  0.067598604   -4.7021088    1.4683689      1024000 
 2072000   0.95594026   -4.7013266   -4.7013266   -3.2330841  0.069722784   -4.7013266    1.4682425      1024000 
 2073000    0.9542498   -4.7007286   -4.7007286   -3.2350212  0.065947772   -4.7007286    1.4657074      1024000 
 2074000   0.95556973   -4.7012562   -4.7012562     -3.23346  0.066825722   -4.7012562    1.4677963      1024000 
 2075000   0.95589247   -4.7026927   -4.7026927   -3.2343392  0.066533553   -4.7026927    1.4683535      1024000 
 2076000   0.95541616   -4.7026678   -4.7026678   -3.2349845  0.060026517   -4.7026678    1.4676833      1024000 
 2077000     0.953734   -4.7005761   -4.7005761   -3.2354156  0.064926323   -4.7005761    1.4651605      1024000 
 2078000   0.95333287   -4.7008545   -4.7008545   -3.2362489  0.059692163   -4.7008545    1.4646056      1024000 
 2079000   0.95401878   -4.7025445   -4.7025445   -3.2368237  0.054190447   -4.7025445    1.4657208      1024000 
 2080000   0.95199667   -4.7002268   -4.7002268   -3.2375515  0.059840428   -4.7002268    1.4626753      1024000 
 2081000    0.9509935   -4.6986851   -4.6986851   -3.2374899  0.061622828   -4.6986851    1.4611952      1024000 
 2082000   0.95310323   -4.7019962   -4.7019962   -3.2374981   0.05393408   -4.7019962    1.4644981      1024000 
 2083000   0.95292467   -4.7009836   -4.7009836   -3.2366985  0.056121419   -4.7009836    1.4642851      1024000 
 2084000   0.95242539    -4.700409    -4.700409   -3.2368299  0.057689627    -4.700409    1.4635792      1024000 
 2085000   0.95135981   -4.6992438   -4.6992438   -3.2372409  0.057068123   -4.6992438    1.4620029      1024000 
 2086000   0.95386889   -4.7002606   -4.7002606   -3.2343405  0.061198599   -4.7002606    1.4659202      1024000 
 2087000   0.95130739   -4.6979199   -4.6979199    -3.235875  0.060339168   -4.6979199    1.4620449      1024000 
 2088000   0.95242104   -4.6990134   -4.6990134   -3.2351957  0.061801656   -4.6990134    1.4638177      1024000 
 2089000    0.9519034   -4.6993266   -4.6993266   -3.2362432  0.051744534   -4.6993266    1.4630834      1024000 
 2090000   0.95238751   -4.7001057   -4.7001057   -3.2362168  0.057011867   -4.7001057    1.4638888      1024000 
 2091000   0.95115054    -4.698388    -4.698388   -3.2363392  0.055858143    -4.698388    1.4620488      1024000 
 2092000   0.95182029   -4.6998491   -4.6998491   -3.2367095  0.057781966   -4.6998491    1.4631396      1024000 
 2093000   0.95112093   -4.6993372   -4.6993372   -3.2372114  0.058933905   -4.6993372    1.4621258      1024000 
 2094000   0.95017309   -4.6980779   -4.6980779   -3.2373481  0.059102118   -4.6980779    1.4607299      1024000 
 2095000   0.95222643   -4.6988688   -4.6988688   -3.2349209  0.059751843   -4.6988688    1.4639479      1024000 
 2096000   0.95078118   -4.6994134   -4.6994134   -3.2376262  0.057859641   -4.6994134    1.4617872      1024000 
 2097000   0.95215373   -4.6991049   -4.6991049   -3.2351461  0.060704025   -4.6991049    1.4639588      1024000 
 2098000   0.95299193    -4.701662    -4.701662   -3.2363531  0.057786393    -4.701662     1.465309      1024000 
 2099000    0.9519948    -4.702048    -4.702048   -3.2382109  0.056264323    -4.702048    1.4638371      1024000 
 2100000   0.95241435   -4.7014282   -4.7014282   -3.2368846  0.056851013   -4.7014282    1.4645436      1024000 
 2101000   0.95210836   -4.7019918   -4.7019918   -3.2378573  0.057973823   -4.7019918    1.4641345      1024000 
 2102000   0.95102593   -4.6993565   -4.6993565   -3.2368253  0.063119094   -4.6993565    1.4625312      1024000 
 2103000   0.95082489   -4.6979118   -4.6979118   -3.2356284  0.064083118   -4.6979118    1.4622834      1024000 
 2104000   0.95266683   -4.7010052   -4.7010052   -3.2358277  0.058080062   -4.7010052    1.4651775      1024000 
 2105000   0.95268764   -4.6997023   -4.6997023   -3.2344313  0.065639049   -4.6997023    1.4652709      1024000 
 2106000   0.95198125   -4.7024011   -4.7024011   -3.2381552  0.058775859   -4.7024011    1.4642459      1024000 
 2107000   0.95229423   -4.7025618   -4.7025618   -3.2377732  0.062687305   -4.7025618    1.4647887      1024000 
 2108000   0.95289947   -4.7042944   -4.7042944   -3.2385133  0.062721938   -4.7042944    1.4657811      1024000 
 2109000   0.95264101   -4.7034019   -4.7034019   -3.2379569  0.061114424   -4.7034019    1.4654449      1024000 
 2110000   0.95070652   -4.7005507   -4.7005507   -3.2380203  0.066342632   -4.7005507    1.4625304      1024000 
 2111000     0.951461   -4.7021472   -4.7021472   -3.2383948  0.060979772   -4.7021472    1.4637525      1024000 
 2112000   0.95158121   -4.7010797   -4.7010797   -3.2370809   0.05974965   -4.7010797    1.4639988      1024000 
 2113000   0.95160511   -4.7031846   -4.7031846   -3.2390877  0.053153001   -4.7031846     1.464097      1024000 
 2114000   0.95109855   -4.7014133   -4.7014133   -3.2380343   0.06429186   -4.7014133     1.463379      1024000 
 2115000   0.95101828   -4.7012365   -4.7012365   -3.2379197  0.066632281   -4.7012365    1.4633168      1024000 
 2116000   0.95071349   -4.7014076   -4.7014076   -3.2384984  0.060868106   -4.7014076    1.4629092      1024000 
 2117000   0.95180758   -4.7023679   -4.7023679   -3.2377138  0.067208384   -4.7023679    1.4646541      1024000 
 2118000   0.95293821   -4.7055844   -4.7055844   -3.2391289  0.060356286   -4.7055844    1.4664555      1024000 
 2119000   0.95146624   -4.7022008   -4.7022008   -3.2379491  0.072562427   -4.7022008    1.4642517      1024000 
 2120000   0.95276715   -4.7050385   -4.7050385   -3.2387233  0.059533444   -4.7050385    1.4663152      1024000 
 2121000   0.95267556   -4.7042325   -4.7042325   -3.2379967  0.059435999   -4.7042325    1.4662358      1024000 
 2122000   0.95206638   -4.7043127   -4.7043127   -3.2389531  0.057582392   -4.7043127    1.4653597      1024000 
 2123000   0.95005688   -4.7011021   -4.7011021   -3.2387739  0.057960554   -4.7011021    1.4623281      1024000 
 2124000   0.95096525   -4.7036303   -4.7036303   -3.2398426  0.050926041   -4.7036303    1.4637877      1024000 
 2125000   0.95050445   -4.7025392   -4.7025392   -3.2393994  0.056320538   -4.7025392    1.4631398      1024000 
 2126000   0.94979306   -4.7010895   -4.7010895   -3.2389834  0.065702466   -4.7010895    1.4621061      1024000 
 2127000   0.95056274   -4.7020639   -4.7020639   -3.2387116  0.055136627   -4.7020639    1.4633523      1024000 
 2128000   0.95004279   -4.7037663   -4.7037663    -3.241153  0.054124621   -4.7037663    1.4626132      1024000 
 2129000   0.94954449   -4.7021134   -4.7021134   -3.2402059  0.057881359   -4.7021134    1.4619074      1024000 
 2130000   0.95083964   -4.7030784   -4.7030784   -3.2391155  0.055416787   -4.7030784    1.4639629      1024000 
 2131000   0.94877198   -4.7025573   -4.7025573   -3.2417166  0.051157405   -4.7025573    1.4608407      1024000 
 2132000   0.94973329   -4.7019584   -4.7019584   -3.2395762  0.057889925   -4.7019584    1.4623822      1024000 
 2133000   0.94828181    -4.701651    -4.701651   -3.2414425  0.054780874    -4.701651    1.4602085      1024000 
 2134000   0.95009515   -4.7032001   -4.7032001   -3.2401379  0.055713259   -4.7032001    1.4630622      1024000 
 2135000   0.94959703   -4.7016985   -4.7016985    -3.239342  0.059033421   -4.7016985    1.4623565      1024000 
 2136000     0.949069   -4.7027218   -4.7027218   -3.2411171  0.058179498   -4.7027218    1.4616047      1024000 
 2137000    0.9484945   -4.7016168   -4.7016168   -3.2408355   0.05942987   -4.7016168    1.4607813      1024000 
 2138000   0.94908934   -4.7030618   -4.7030618   -3.2413031  0.058362353   -4.7030618    1.4617587      1024000 
 2139000   0.94873299   -4.7018117   -4.7018117   -3.2405405  0.055593944   -4.7018117    1.4612712      1024000 
 2140000   0.95024697   -4.7019109   -4.7019109   -3.2382463  0.058428388   -4.7019109    1.4636646      1024000 
 2141000    0.9496784   -4.7019779   -4.7019779   -3.2391277  0.057521637   -4.7019779    1.4628502      1024000 
 2142000   0.95047548   -4.7055007   -4.7055007   -3.2413612  0.055052602   -4.7055007    1.4641395      1024000 
 2143000   0.95018873   -4.7049877   -4.7049877   -3.2412285  0.060118165   -4.7049877    1.4637592      1024000 
 2144000   0.94966629   -4.7064284   -4.7064284   -3.2434126  0.058570012   -4.7064284    1.4630158      1024000 
 2145000   0.94968867   -4.7060189   -4.7060189   -3.2429071  0.057146553   -4.7060189    1.4631117      1024000 
 2146000   0.94777414   -4.7063769   -4.7063769   -3.2461534  0.054794954   -4.7063769    1.4602235      1024000 
 2147000   0.94939847   -4.7061093   -4.7061093   -3.2433218  0.055047083   -4.7061093    1.4627875      1024000 
 2148000   0.94842929   -4.7052092   -4.7052092   -3.2438536  0.056056214   -4.7052092    1.4613556      1024000 
 2149000   0.94903367   -4.7067145   -4.7067145   -3.2443663  0.061190019   -4.7067145    1.4623483      1024000 
 2150000   0.94922827    -4.707179    -4.707179   -3.2444695  0.056305774    -4.707179    1.4627095      1024000 
 2151000   0.94852536   -4.7062263   -4.7062263   -3.2445385   0.06295129   -4.7062263    1.4616878      1024000 
 2152000   0.94862151   -4.7066859   -4.7066859   -3.2447885  0.058745112   -4.7066859    1.4618973      1024000 
 2153000    0.9489767   -4.7082103   -4.7082103   -3.2457042  0.059021674   -4.7082103    1.4625061      1024000 
 2154000   0.94875065   -4.7072413   -4.7072413   -3.2450221  0.060411832   -4.7072413    1.4622192      1024000 
 2155000   0.94952366   -4.7070589   -4.7070589   -3.2435868  0.060035916   -4.7070589     1.463472      1024000 
 2156000   0.94850206   -4.7071756   -4.7071756   -3.2452167   0.06219237   -4.7071756    1.4619589      1024000 
 2157000   0.94778579   -4.7071134   -4.7071134   -3.2461972  0.057054037   -4.7071134    1.4609163      1024000 
 2158000   0.94883735   -4.7070472   -4.7070472   -3.2444487  0.060806265   -4.7070472    1.4625986      1024000 
 2159000   0.94802147    -4.707133    -4.707133   -3.2457307  0.059932794    -4.707133    1.4614023      1024000 
 2160000   0.94925931   -4.7084484   -4.7084484   -3.2450764  0.054742645   -4.7084484     1.463372      1024000 
 2161000   0.94839677   -4.7056631   -4.7056631   -3.2435594  0.060661473   -4.7056631    1.4621037      1024000 
 2162000   0.94627585   -4.7060271   -4.7060271   -3.2471319  0.056767098   -4.7060271    1.4588953      1024000 
 2163000   0.94746105   -4.7076072   -4.7076072   -3.2468233  0.055655626   -4.7076072    1.4607839      1024000 
[...]
 8535000   0.69160692   -4.6678972   -4.6678972   -3.2116558  0.062916386   -4.6678972    1.4562414      1024000 
 8536000   0.69387763   -4.6725082   -4.6725082   -3.2114018  0.056446802   -4.6725082    1.4611064      1024000 
 8537000   0.69396279    -4.669392    -4.669392   -3.2080224  0.060456015    -4.669392    1.4613696      1024000 
 8538000   0.69365116   -4.6709932   -4.6709932    -3.210196  0.055642167   -4.6709932    1.4607972      1024000 
 8539000   0.69371816   -4.6679241   -4.6679241    -3.206902  0.058895833   -4.6679241    1.4610222      1024000 
 8540000    0.6925055   -4.6666436   -4.6666436   -3.2080916  0.059871971   -4.6666436    1.4585519      1024000 
 8541000   0.69338761   -4.6688857   -4.6688857   -3.2083921   0.05470808   -4.6688857    1.4604937      1024000 
 8542000   0.69219613    -4.667779    -4.667779   -3.2097112  0.052939752    -4.667779    1.4580678      1024000 
 8543000   0.69346131   -4.6710331   -4.6710331   -3.2102165  0.053336637   -4.6710331    1.4608166      1024000 
 8544000   0.69247236   -4.6648583   -4.6648583   -3.2060412  0.059325048   -4.6648583    1.4588171      1024000 
 8545000   0.69142828   -4.6660917   -4.6660917   -3.2093905  0.056633147   -4.6660917    1.4567012      1024000 
 8546000   0.69208091   -4.6694961   -4.6694961   -3.2113362  0.050170984   -4.6694961    1.4581599      1024000 
 8547000   0.69167551   -4.6664201   -4.6664201   -3.2090306  0.054492694   -4.6664201    1.4573895      1024000 
 8548000    0.6911305   -4.6675612   -4.6675612   -3.2112365  0.050335518   -4.6675612    1.4563247      1024000 
 8549000   0.69107123   -4.6668951   -4.6668951   -3.2106116  0.054370878   -4.6668951    1.4562835      1024000 
 8550000   0.69253206    -4.667568    -4.667568   -3.2081224   0.05739548    -4.667568    1.4594457      1024000 
 8551000   0.69207628   -4.6688986   -4.6688986   -3.2103297  0.053290595   -4.6688986    1.4585689      1024000 
 8552000   0.69276873   -4.6683456   -4.6683456   -3.2082334  0.055599658   -4.6683456    1.4601122      1024000 
 8553000   0.69230775   -4.6677993   -4.6677993   -3.2085749  0.056866758   -4.6677993    1.4592244      1024000 
 8554000   0.69278431   -4.6682834   -4.6682834   -3.2079706  0.054574516   -4.6682834    1.4603128      1024000 
 8555000   0.69127902   -4.6672293   -4.6672293   -3.2100058  0.056364019   -4.6672293    1.4572235      1024000 
 8556000    0.6914966   -4.6666521   -4.6666521   -3.2088862  0.057857429   -4.6666521    1.4577659      1024000 
 8557000   0.69073629   -4.6687684   -4.6687684   -3.2125216  0.056638929   -4.6687684    1.4562468      1024000 
 8558000   0.69330598   -4.6712965   -4.6712965   -3.2095482   0.05912341   -4.6712965    1.4617483      1024000 
 8559000   0.69137486   -4.6697483   -4.6697483   -3.2119878  0.054316583   -4.6697483    1.4577606      1024000 
 8560000   0.69268804   -4.6726899   -4.6726899   -3.2120766  0.057158995   -4.6726899    1.4606134      1024000 
 8561000   0.69239144    -4.670264    -4.670264   -3.2101921  0.059300126    -4.670264    1.4600718      1024000 
 8562000   0.69287673   -4.6702506   -4.6702506   -3.2090714  0.056811315   -4.6702506    1.4611792      1024000 
 8563000   0.69097628   -4.6694967   -4.6694967   -3.2122416  0.059635871   -4.6694967    1.4572552      1024000 
 8564000   0.69126488   -4.6706355   -4.6706355   -3.2126879   0.05857255   -4.6706355    1.4579476      1024000 
 8565000   0.69080068   -4.6714903   -4.6714903    -3.214438  0.057911545   -4.6714903    1.4570523      1024000 
 8566000   0.69175201   -4.6705073   -4.6705073   -3.2113645  0.057278845   -4.6705073    1.4591428      1024000 
 8567000    0.6907961    -4.672282    -4.672282   -3.2150718  0.056196654    -4.672282    1.4572102      1024000 
 8568000   0.69168563   -4.6730704   -4.6730704   -3.2138998  0.058996695   -4.6730704    1.4591705      1024000 
 8569000   0.69087569   -4.6700297   -4.6700297    -3.212484  0.060159925   -4.6700297    1.4575457      1024000 
 8570000   0.69125064   -4.6708646   -4.6708646    -3.212444  0.059241637   -4.6708646    1.4584206      1024000 
 8571000   0.69076057   -4.6717386   -4.6717386   -3.2142682  0.059139998   -4.6717386    1.4574704      1024000 
 8572000   0.69220636   -4.6754333   -4.6754333   -3.2148283  0.059256998   -4.6754333     1.460605      1024000 
 8573000   0.69242907   -4.6735338   -4.6735338   -3.2123749  0.058554491   -4.6735338    1.4611589      1024000 
 8574000   0.69225695   -4.6735982   -4.6735982   -3.2127185  0.057055351   -4.6735982    1.4608798      1024000 
 8575000   0.69055732   -4.6720225   -4.6720225   -3.2146457   0.05411882   -4.6720225    1.4573768      1024000 
 8576000   0.69129682   -4.6711014   -4.6711014     -3.21208  0.059686236   -4.6711014    1.4590214      1024000 
 8577000   0.69007637   -4.6694348   -4.6694348   -3.2129054  0.057483102   -4.6694348    1.4565294      1024000 
 8578000   0.69021114   -4.6688361   -4.6688361   -3.2119384  0.059480768   -4.6688361    1.4568977      1024000 
 8579000    0.6900865    -4.670023    -4.670023   -3.2133047   0.06288484    -4.670023    1.4567184      1024000 
 8580000   0.69108438   -4.6699914   -4.6699914   -3.2110827  0.059708704   -4.6699914    1.4589087      1024000 
 8581000   0.69088453   -4.6710946   -4.6710946   -3.2125238  0.060408792   -4.6710946    1.4585708      1024000 
 8582000   0.69104474   -4.6705839   -4.6705839    -3.211591  0.058398966   -4.6705839     1.458993      1024000 
 8583000   0.69044999   -4.6693788   -4.6693788   -3.2115576  0.056438744   -4.6693788    1.4578212      1024000 
 8584000   0.69015078    -4.669934    -4.669934   -3.2126608  0.055770806    -4.669934    1.4572733      1024000 
 8585000   0.68901463   -4.6666384   -4.6666384   -3.2116804  0.056042331   -4.6666384     1.454958      1024000 
 8586000   0.69031802    -4.670709    -4.670709   -3.2129148  0.053100464    -4.670709    1.4577942      1024000 
 8587000   0.68976943   -4.6685095   -4.6685095     -3.21179  0.057888269   -4.6685095    1.4567195      1024000 
 8588000   0.69140288   -4.6702389   -4.6702389   -3.2099856  0.061713485   -4.6702389    1.4602533      1024000 
 8589000   0.68980451   -4.6697861   -4.6697861   -3.2128247  0.065219506   -4.6697861    1.4569614      1024000 
 8590000   0.69049354   -4.6700682   -4.6700682   -3.2115676  0.059859624   -4.6700682    1.4585006      1024000 
 8591000   0.69003269   -4.6704074   -4.6704074   -3.2127962  0.057559058   -4.6704074    1.4576111      1024000 
 8592000   0.69044748   -4.6708797   -4.6708797   -3.2123084  0.056413557   -4.6708797    1.4585713      1024000 
 8593000   0.68885696   -4.6690083   -4.6690083   -3.2137132  0.060317169   -4.6690083    1.4552951      1024000 
 8594000   0.69025477   -4.6706391   -4.6706391   -3.2123069   0.05760382   -4.6706391    1.4583321      1024000 
 8595000   0.68994851   -4.6705587   -4.6705587   -3.2127896  0.061314912   -4.6705587     1.457769      1024000 
 8596000   0.69008974   -4.6726674   -4.6726674   -3.2145161  0.055885056   -4.6726674    1.4581514      1024000 
 8597000   0.69045798    -4.670339    -4.670339   -3.2113255  0.056943186    -4.670339    1.4590135      1024000 
 8598000   0.69008123   -4.6707767   -4.6707767   -3.2124753   0.05784404   -4.6707767    1.4583014      1024000 
 8599000   0.69022685    -4.671429    -4.671429   -3.2127359  0.058705371    -4.671429    1.4586931      1024000 
 8600000   0.68849017   -4.6701746   -4.6701746   -3.2150679  0.061408646   -4.6701746    1.4551067      1024000 
 8601000   0.69010836   -4.6716579   -4.6716579   -3.2130472  0.056076361   -4.6716579    1.4586108      1024000 
 8602000   0.69018874   -4.6700583   -4.6700583   -3.2111936  0.063260995   -4.6700583    1.4588647      1024000 
 8603000   0.69069619   -4.6715622   -4.6715622   -3.2115408  0.063648495   -4.6715622    1.4600214      1024000 
 8604000   0.69129322   -4.6705199   -4.6705199   -3.2091523  0.061631305   -4.6705199    1.4613676      1024000 
 8605000   0.68962823   -4.6682188   -4.6682188    -3.210287  0.065243237   -4.6682188    1.4579319      1024000 
 8606000   0.69146941   -4.6718148   -4.6718148   -3.2099063   0.05615573   -4.6718148    1.4619085      1024000 
 8607000    0.6901184   -4.6691108   -4.6691108   -3.2099745  0.059814482   -4.6691108    1.4591363      1024000 
 8608000   0.69041773   -4.6681673   -4.6681673    -3.208314  0.060520327   -4.6681673    1.4598533      1024000 
 8609000    0.6899574   -4.6674338   -4.6674338   -3.2084698  0.064480906   -4.6674338    1.4589641      1024000 
 8610000   0.68954482   -4.6705043   -4.6705043   -3.2123287  0.059092911   -4.6705043    1.4581757      1024000 
 8611000   0.69084825   -4.6699499   -4.6699499   -3.2089337  0.060629214   -4.6699499    1.4610162      1024000 
 8612000   0.69042487   -4.6702348   -4.6702348   -3.2100298  0.057897873   -4.6702348     1.460205      1024000 
 8613000   0.69054078   -4.6695924   -4.6695924   -3.2090581  0.055811746   -4.6695924    1.4605344      1024000 
 8614000   0.68843126     -4.66832     -4.66832   -3.2121634  0.057580833     -4.66832    1.4561565      1024000 
 8615000   0.69016006    -4.666727    -4.666727   -3.2068296  0.058928344    -4.666727    1.4598974      1024000 
 8616000   0.69084898   -4.6702575   -4.6702575   -3.2088185  0.056577637   -4.6702575     1.461439      1024000 
 8617000   0.68905989   -4.6665586   -4.6665586   -3.2088203  0.061747061   -4.6665586    1.4577383      1024000 
 8618000   0.69048497   -4.6700804   -4.6700804    -3.209243  0.052452127   -4.6700804    1.4608374      1024000 
 8619000    0.6894155   -4.6692365   -4.6692365   -3.2105776  0.055505474   -4.6692365    1.4586588      1024000 
 8620000   0.68895283   -4.6690432   -4.6690432   -3.2112792  0.055315023   -4.6690432     1.457764      1024000 
 8621000   0.68886852   -4.6674929   -4.6674929   -3.2098233  0.057800527   -4.6674929    1.4576697      1024000 
 8622000   0.68832411   -4.6664742   -4.6664742   -3.2098726  0.056416068   -4.6664742    1.4566017      1024000 
 8623000   0.68893341   -4.6685208   -4.6685208   -3.2105457  0.057113683   -4.6685208    1.4579751      1024000 
 8624000   0.68954457   -4.6683737   -4.6683737    -3.209021  0.057720939   -4.6683737    1.4593527      1024000 
 8625000   0.69086873   -4.6675729   -4.6675729   -3.2053335  0.059378987   -4.6675729    1.4622395      1024000 
 8626000   0.68983915   -4.6679162   -4.6679162   -3.2077716  0.060527385   -4.6679162    1.4601446      1024000 
 8627000   0.69019381   -4.6686889   -4.6686889   -3.2077093  0.053972839   -4.6686889    1.4609796      1024000 
 8628000   0.68924359   -4.6667007   -4.6667007   -3.2076483  0.055334126   -4.6667007    1.4590524      1024000 
 8629000   0.69124123   -4.6708509   -4.6708509   -3.2074853  0.054828222   -4.6708509    1.4633656      1024000 
 8630000   0.68889124   -4.6689273   -4.6689273   -3.2104525  0.055676084   -4.6689273    1.4584748      1024000 
 8631000   0.68978833   -4.6690833   -4.6690833    -3.208625  0.053754463   -4.6690833    1.4604583      1024000 
 8632000   0.68874851   -4.6686246   -4.6686246   -3.2102837  0.057171705   -4.6686246    1.4583409      1024000 
 8633000    0.6895158   -4.6696086   -4.6696086   -3.2095588    0.0571193   -4.6696086    1.4600498      1024000 
 8634000   0.68923069   -4.6691238   -4.6691238   -3.2095935   0.06064344   -4.6691238    1.4595303      1024000 
 8635000   0.68983492    -4.669157    -4.669157   -3.2082629   0.05822031    -4.669157    1.4608942      1024000 
 8636000   0.68887276   -4.6692724   -4.6692724   -3.2103317  0.057435299   -4.6692724    1.4589408      1024000 
 8637000   0.68967401   -4.6712617   -4.6712617   -3.2105397  0.059575778   -4.6712617     1.460722      1024000 
 8638000   0.69086556    -4.670546    -4.670546   -3.2072158  0.060021278    -4.670546    1.4633302      1024000 
 8639000   0.68811619   -4.6688551   -4.6688551   -3.2112643  0.059682529   -4.6688551    1.4575909      1024000 
 8640000   0.68911185   -4.6679136   -4.6679136   -3.2081294  0.060444094   -4.6679136    1.4597842      1024000 
 8641000   0.68907169   -4.6680663   -4.6680663   -3.2082829  0.061816831   -4.6680663    1.4597834      1024000 
 8642000   0.68977939   -4.6687926   -4.6687926   -3.2074255  0.064240406   -4.6687926     1.461367      1024000 
 8643000   0.68914538   -4.6693718   -4.6693718   -3.2092636  0.058745485   -4.6693718    1.4601081      1024000 
 8644000   0.68915545   -4.6687416   -4.6687416   -3.2085278   0.05268819   -4.6687416    1.4602138      1024000 
 8645000   0.68916239   -4.6660959   -4.6660959   -3.2057831   0.05496664   -4.6660959    1.4603128      1024000 
 8646000   0.68780183   -4.6649168   -4.6649168   -3.2074028  0.053933474   -4.6649168     1.457514      1024000 
 8647000   0.68796998   -4.6660314   -4.6660314   -3.2080768  0.053626625   -4.6660314    1.4579545      1024000 
 8648000   0.68764385   -4.6647248   -4.6647248   -3.2073772  0.055501312   -4.6647248    1.4573476      1024000 
 8649000   0.68820303   -4.6656595   -4.6656595   -3.2070426  0.058068997   -4.6656595    1.4586169      1024000 
 8650000   0.68785586   -4.6644186   -4.6644186   -3.2064533  0.057608684   -4.6644186    1.4579653      1024000 
 8651000   0.68779828   -4.6630552   -4.6630552   -3.2051277   0.05945957   -4.6630552    1.4579275      1024000 
 8652000   0.68778918   -4.6622711   -4.6622711   -3.2042787  0.060355932   -4.6622711    1.4579925      1024000 
 8653000    0.6871983   -4.6625008   -4.6625008   -3.2056767  0.054635732   -4.6625008    1.4568241      1024000 
 8654000   0.68806154   -4.6635199   -4.6635199   -3.2047816  0.053502896   -4.6635199    1.4587384      1024000 
 8655000   0.68801304   -4.6624343   -4.6624343   -3.2037144   0.05552454   -4.6624343    1.4587198      1024000 
 8656000    0.6873448   -4.6627516   -4.6627516   -3.2053644  0.057093113   -4.6627516    1.4573873      1024000 
 8657000   0.68889215   -4.6639358   -4.6639358   -3.2031833  0.055232774   -4.6639358    1.4607526      1024000 
 8658000   0.68805264   -4.6629153   -4.6629153   -3.2038586  0.059857098   -4.6629153    1.4590567      1024000 
 8659000   0.68828576   -4.6639615   -4.6639615   -3.2043261  0.056034451   -4.6639615    1.4596354      1024000 
 8660000   0.68920488   -4.6656382   -4.6656382   -3.2039691  0.053184732   -4.6656382    1.4616691      1024000 
 8661000   0.68840531   -4.6640395   -4.6640395   -3.2039818  0.057129012   -4.6640395    1.4600578      1024000 
 8662000   0.68826415   -4.6628241   -4.6628241   -3.2029813  0.056374458   -4.6628241    1.4598428      1024000 
 8663000   0.68759414   -4.6623537   -4.6623537   -3.2038478  0.058568594   -4.6623537     1.458506      1024000 
 8664000   0.68738991   -4.6603801   -4.6603801    -3.202223  0.057811426   -4.6603801     1.458157      1024000 
 8665000   0.68816599   -4.6627952   -4.6627952   -3.2029075  0.056346407   -4.6627952    1.4598877      1024000 
 8666000   0.68837582   -4.6631709   -4.6631709   -3.2027536  0.054800027   -4.6631709    1.4604173      1024000 
 8667000   0.68622692   -4.6604107   -4.6604107   -3.2044681  0.057620078   -4.6604107    1.4559425      1024000 
 8668000   0.68713332   -4.6609342   -4.6609342   -3.2029843  0.057220222   -4.6609342    1.4579499      1024000 
 8669000   0.68764265   -4.6639762   -4.6639762   -3.2048612  0.056508252   -4.6639762     1.459115      1024000 
 8670000   0.68874991   -4.6639422   -4.6639422   -3.2023932  0.053000496   -4.6639422     1.461549      1024000 
 8671000    0.6864365   -4.6622525   -4.6622525   -3.2055284  0.053688869   -4.6622525    1.4567241      1024000 
 8672000   0.68726923   -4.6630589   -4.6630589   -3.2044832   0.05592863   -4.6630589    1.4585757      1024000 
 8673000   0.68772858   -4.6609726   -4.6609726   -3.2013376   0.05937042   -4.6609726     1.459635      1024000 
 8674000   0.68812781   -4.6630024   -4.6630024   -3.2024356  0.058185138   -4.6630024    1.4605668      1024000 
 8675000   0.68765172   -4.6610534   -4.6610534   -3.2014127  0.060966503   -4.6610534    1.4596407      1024000 
 8676000   0.68849472   -4.6630895   -4.6630895   -3.2015748  0.055010802   -4.6630895    1.4615147      1024000 
 8677000   0.68767246   -4.6612244   -4.6612244   -3.2013707  0.055714696   -4.6612244    1.4598537      1024000 
 8678000   0.68923206   -4.6635909   -4.6635909   -3.2003417  0.058435438   -4.6635909    1.4632492      1024000 
 8679000    0.6876533   -4.6619004   -4.6619004   -3.2019185  0.060723819   -4.6619004    1.4599819      1024000 
 8680000   0.68698641   -4.6617087   -4.6617087   -3.2030582   0.06033332   -4.6617087    1.4586505      1024000 
 8681000   0.68669495   -4.6605586   -4.6605586   -3.2024427   0.05793339   -4.6605586     1.458116      1024000 
 8682000   0.68669472   -4.6630956   -4.6630956   -3.2048957  0.054970731   -4.6630956    1.4581999      1024000 
 8683000   0.68684358   -4.6623865   -4.6623865   -3.2037861  0.052232956   -4.6623865    1.4586004      1024000 
 8684000   0.68702042   -4.6638899   -4.6638899   -3.2048295  0.055270457   -4.6638899    1.4590604      1024000 
 8685000   0.68697513   -4.6625006   -4.6625006   -3.2034519  0.056008163   -4.6625006    1.4590487      1024000 
 8686000   0.68663101   -4.6651186   -4.6651186   -3.2067164  0.053117524   -4.6651186    1.4584022      1024000 
 8687000   0.68647525    -4.662014    -4.662014   -3.2038582  0.057689162    -4.662014    1.4581558      1024000 
 8688000   0.68719001    -4.661181    -4.661181   -3.2014225  0.063355369    -4.661181    1.4597586      1024000 
 8689000   0.68756825    -4.664054    -4.664054   -3.2034073  0.054411739    -4.664054    1.4606466      1024000 
 8690000   0.68787421   -4.6642913   -4.6642913   -3.2029101  0.053420179   -4.6642913    1.4613812      1024000 
 8691000   0.68700474   -4.6618534   -4.6618534   -3.2022349  0.059450369   -4.6618534    1.4596185      1024000 
 8692000    0.6872339   -4.6617437   -4.6617437   -3.2015538  0.060157833   -4.6617437      1.46019      1024000 
 8693000   0.68639056   -4.6616862   -4.6616862   -3.2032036  0.057904893   -4.6616862    1.4584826      1024000 
 8694000   0.68777398   -4.6614004   -4.6614004   -3.1998936  0.058356302   -4.6614004    1.4615068      1024000 
 8695000    0.6878441   -4.6629504   -4.6629504   -3.2012099  0.055162214   -4.6629504    1.4617404      1024000 
 8696000   0.68617556   -4.6608613   -4.6608613   -3.2025822  0.056132763   -4.6608613    1.4582791      1024000 
 8697000   0.68629284   -4.6606378   -4.6606378    -3.202025  0.061168734   -4.6606378    1.4586128      1024000 
 8698000   0.68679602   -4.6620663   -4.6620663   -3.2022995  0.054271454   -4.6620663    1.4597668      1024000 
 8699000   0.68731562    -4.661588    -4.661588   -3.2006321  0.052788752    -4.661588    1.4609558      1024000 
 8700000   0.68668018   -4.6608123   -4.6608123   -3.2011226  0.056508815   -4.6608123    1.4596897      1024000 
 8701000   0.68687855   -4.6620284   -4.6620284   -3.2018324  0.057835612   -4.6620284     1.460196      1024000 
 8702000   0.68680994   -4.6617193   -4.6617193   -3.2015846  0.054979245   -4.6617193    1.4601347      1024000 
 8703000   0.68572223   -4.6612837   -4.6612837    -3.203377  0.057624575   -4.6612837    1.4579068      1024000 
 8704000   0.68541436   -4.6619824   -4.6619824   -3.2046457  0.055448295   -4.6619824    1.4573367      1024000 
 8705000   0.68770041   -4.6645536   -4.6645536   -3.2022715  0.053847162   -4.6645536     1.462282      1024000 
 8706000   0.68615567   -4.6627726   -4.6627726   -3.2036906  0.051702702   -4.6627726     1.459082      1024000 
 8707000   0.68618827   -4.6645691   -4.6645691   -3.2053332  0.054677067   -4.6645691    1.4592358      1024000 
 8708000   0.68503353   -4.6612942   -4.6612942   -3.2044296   0.06117002   -4.6612942    1.4568646      1024000 
 8709000   0.68519566   -4.6650283   -4.6650283   -3.2077344  0.055973461   -4.6650283    1.4572939      1024000 
