LAMMPS (24 Dec 2020)
OMP_NUM_THREADS environment is not set. Defaulting to 1 thread. (src/comm.cpp:94)
  using 1 OpenMP thread(s) per MPI task
#Read the equilibrated lj fluid and add nanocubes

units           lj
atom_style      full
#atom_modify     map array first cubes
dimension       3
boundary        p p f
pair_style      lj/smooth/linear 2.0

variable        sigma           equal 1.0
variable        epsilon         equal 1.0
read_restart	restart.dat.5000000
Reading restart file ...
  restart file = 24 Dec 2020, LAMMPS = 24 Dec 2020
WARNING: Restart file used different # of processors: 288 vs. 336 (src/read_restart.cpp:697)
  restoring atom style full from restart
  orthogonal box = (0.0000000 0.0000000 0.0000000) to (80.000000 80.000000 160.00000)
  6 by 4 by 14 MPI processor grid
  restoring pair style lj/smooth/linear from restart
  421013 atoms
Finding 1-2 1-3 1-4 neighbors ...
  special bond factors lj:    0        0        0       
  special bond factors coul:  0        0        0       
     0 = max # of 1-2 neighbors
     0 = max # of 1-3 neighbors
     0 = max # of 1-4 neighbors
     1 = max # of special neighbors
  special bonds CPU = 2.790 seconds
  read_restart CPU = 3.228 seconds

group		solvent type 1
311285 atoms in group solvent
group 		hull  type 2
42816 atoms in group hull
group 		dummy type 3
66912 atoms in group dummy

neighbor      0.4 bin
neigh_modify  exclude molecule/intra cubes


pair_modify   shift yes

pair_coeff    1 1 1.0 1.0 #solvent
pair_coeff    2 2 1.0 1.0 1.12 #np
pair_coeff    3 3 0.0 0.0 0.0 #dummy
pair_coeff    2 3 0.0 0.0 0.0 #np dummy
pair_coeff    1 2 ${eps} ${sig} ${nscut} #np solvent
pair_coeff    1 2 1.0 ${sig} ${nscut} 
pair_coeff    1 2 1.0 1.0 ${nscut} 
pair_coeff    1 2 1.0 1.0 4.0 
pair_coeff    1 3 0.0 0.0 0.0 #dummy solvent


comm_modify   mode multi cutoff/multi 1 2.0 cutoff/multi 2 2.0 cutoff/multi 3 6.95

reset_timestep 	0

balance 	1.05 shift z 10 1.05
Balancing ...
Unused restart file global fix info:
  fix style: STORE, fix ID: msd_COMPUTE_STORE
Unused restart file peratom fix info:
  fix style: STORE, fix ID: bin1_COMPUTE_STORE
Neighbor list info ...
  update every 1 steps, delay 10 steps, check yes
  max neighbors/atom: 2000, page size: 100000
  master list distance cutoff = 4.4
  ghost atom cutoff = 6.95
  binsize = 2.2, bins = 37 37 73
  1 neighbor lists, perpetual/occasional/extra = 1 0 0
  (1) pair lj/smooth/linear, perpetual
      attributes: half, newton on
      pair build: half/bin/newton
      stencil: half/bin/3d/newton
      bin: standard
 rebalancing time: 0.069 seconds
  iteration count = 5
  initial/final maximal load/proc = 2713.0000 2690.0000
  initial/final imbalance factor  = 2.1651778 2.1468221
  x cuts: 0.0000000 0.16666667 0.33333333 0.50000000 0.66666667 0.83333333 1.0000000
  y cuts: 0.0000000 0.25000000 0.50000000 0.75000000 1.0000000
  z cuts: 0.0000000 0.046875000 0.087053571 0.12946429 0.16517857 0.20312500 0.23437500 0.27678571 0.31250000 0.36607143 0.39062500 0.43973214 0.49553571 0.60491071 1.0000000

####################### WALLS ###########################

variable       epsilonWall equal 2*${epsilon}
variable       epsilonWall equal 2*1
variable       repulsive   equal   0.7147*${sigma}
variable       repulsive   equal   0.7147*1
variable       full	   equal   3*${sigma}
variable       full	   equal   3*1
#region         lowWall block EDGE EDGE EDGE EDGE EDGE 2

fix            topWall all wall/lj93 zhi EDGE 	       ${epsilonWall} ${sigma} ${repulsive} units box
fix            topWall all wall/lj93 zhi EDGE 	       2 ${sigma} ${repulsive} units box
fix            topWall all wall/lj93 zhi EDGE 	       2 1 ${repulsive} units box
fix            topWall all wall/lj93 zhi EDGE 	       2 1 0.7147 units box
fix            lowSol solvent wall/lj93 zlo EDGE                ${epsilonWall} ${sigma} ${full} units box
fix            lowSol solvent wall/lj93 zlo EDGE                2 ${sigma} ${full} units box
fix            lowSol solvent wall/lj93 zlo EDGE                2 1 ${full} units box
fix            lowSol solvent wall/lj93 zlo EDGE                2 1 3 units box
fix 	       lowCub cubes wall/lj93 zlo EDGE                ${epsilonWall} ${sigma} ${repulsive} units box
fix 	       lowCub cubes wall/lj93 zlo EDGE                2 ${sigma} ${repulsive} units box
fix 	       lowCub cubes wall/lj93 zlo EDGE                2 1 ${repulsive} units box
fix 	       lowCub cubes wall/lj93 zlo EDGE                2 1 0.7147 units box


###################### COMPUTES ##########################

compute        bin1 solvent chunk/atom bin/1d z lower 1.0 units box


######################  FIXES ############################


fix             peclet solvent ave/chunk 100 1 10000 bin1 density/number norm                  none ave one file density.profile

fix              temp solvent ave/chunk 100 1 10000 bin1 temp norm                  none ave one file temp.profile

fix             1 cubes rigid/nve/small molecule
  create bodies CPU = 0.042 seconds
  96 rigid bodies with 109728 atoms
  6.9282032 = max distance from body owner to body atom

fix             2 solvent nve


## Thermostat
region          regthermo block EDGE EDGE EDGE EDGE 0 15
group           thermo dynamic solvent region regthermo every 1000
dynamic group thermo defined
fix             3 thermo langevin ${temp} ${temp} 10 156453
fix             3 thermo langevin 0.6 ${temp} 10 156453
fix             3 thermo langevin 0.6 0.6 10 156453

## Evaporation
region		regevap block EDGE EDGE EDGE EDGE 140 EDGE
fix		4 solvent evaporate ${evap} 1 regevap 156415
fix		4 solvent evaporate 185 1 regevap 156415


#### Load balancing

fix             bal all balance 1000 1.05 shift z 10 1.05

############### Diagnostics and computes ###################

compute          cluster all cluster/atom 1.5
compute          cc1 all chunk/atom c_cluster compress yes
compute          size all property/chunk cc1 count
compute          myChunk all temp/chunk cc1 temp
fix              tempe all ave/time 5000 1 5000 c_myChunk file tmp.out mode scalar
compute          comChunk all com/chunk cc1
fix              com all ave/time 10000 1 10000 c_size c_comChunk[*] file com.xyz mode vector


compute        	com cubes          rigid/local   1 mol x y z
compute        	quat cubes         rigid/local   1 mol quatw quati quatj quatk

compute 	cc2 cubes 	   chunk/atom 	 molecule
compute 	msd cubes 	   msd/chunk 	 cc2

fix 		msd all ave/time  1 1 10000 c_msd[*] file dump.msd ave one mode vector

dump            1 all custom 100000 dump.lammpstrj id mol type x y z c_cluster c_cc1
dump		hulltrj hull custom 100000 hull.lammpstrj id mol type x y z
dump		cubestrj cubes custom 100000 cubes.lammpstrj id mol type x y z

dump            com cubes local 100000 dump.*.xyz c_com[*]
dump	        xyz cubes xyz 100000 cubes.*.xyz
dump            quat cubes      local 100000 dump.*.quat c_quat[*]


dump            2 all image 10000 image.*.png type type zoom 1.5 size 1280 720
dump_modify     2 pad 8
dump		image cubes image 10000 image_cubes.*.png type type zoom 1.5 size 1280 720
dump_modify	image pad 8
dump            3 all movie 5000 movie.avi type type zoom 1.5 size 1280 720
dump		4 cubes movie 5000 movie_cubes.avi type type zoom 1.5 size 1280 720


thermo          10000
thermo_style    custom step temp epair evdwl etotal press pe ke atoms

restart         1000000 restart.dat
timestep        0.005
timer           full
New timer settings: style=full  mode=nosync  timeout=off

run 		30000000
Neighbor list info ...
  update every 1 steps, delay 10 steps, check yes
  max neighbors/atom: 2000, page size: 100000
  master list distance cutoff = 4.4
  ghost atom cutoff = 6.95
  binsize = 2.2, bins = 37 37 73
  2 neighbor lists, perpetual/occasional/extra = 1 1 0
  (1) pair lj/smooth/linear, perpetual
      attributes: half, newton on
      pair build: half/bin/newton
      stencil: half/bin/3d/newton
      bin: standard
  (2) compute cluster/atom, occasional
      attributes: full, newton on
      pair build: full/bin
      stencil: full/bin/3d
      bin: standard
Per MPI rank memory allocation (min/avg/max) = 29.18 | 36.14 | 40.38 Mbytes
Step Temp E_pair E_vdwl TotEng Press PotEng KinEng Atoms 
       0   0.60606446   -2.0976693   -2.0976693   -1.4250967  0.021504502   -2.0976693   0.67257258   421013 
   10000   0.60380059   -2.0965345   -2.0965345   -1.4263882  0.026285123   -2.0965345   0.67014624   420959 
   20000   0.60493901   -2.0976487   -2.0976487   -1.4261528  0.026554637   -2.0976487   0.67149588   420905 
   30000   0.60480823   -2.0986169   -2.0986169     -1.42718  0.038090331   -2.0986169   0.67143686   420851 
   40000    0.6044721   -2.0997744   -2.0997744   -1.4286246  0.032026237   -2.0997744   0.67114981   420797 
   50000   0.60437005    -2.099134    -2.099134   -1.4280114  0.042004358    -2.099134   0.67112263   420743 
   60000   0.60250486    -2.097646    -2.097646   -1.4285087  0.029704467    -2.097646   0.66913731   420689 
   70000   0.60416128   -2.0991865   -2.0991865   -1.4281235   0.03832477   -2.0991865   0.67106306   420635 
   80000   0.60395337   -2.0993936   -2.0993936   -1.4284753  0.041357353   -2.0993936   0.67091825   420581 
   90000   0.60394862   -2.1000792   -2.1000792   -1.4290801  0.038400135   -2.1000792   0.67099913   420527 
  100000   0.60358502   -2.1011182   -2.1011182   -1.4304369  0.034973995   -2.1011182   0.67068128   420473 
  110000   0.60285415   -2.1008756   -2.1008756   -1.4309204  0.030062349   -2.1008756    0.6699552   420419 
  120000   0.60292884     -2.10168     -2.10168   -1.4315557  0.036483992     -2.10168   0.67012429   420365 
  130000     0.603423   -2.1018221   -2.1018221   -1.4310624  0.035529558   -2.1018221   0.67075968   420311 
  140000   0.60414218   -2.1005742   -2.1005742   -1.4289288  0.039390419   -2.1005742   0.67164541   420257 
  150000   0.60384714   -2.1020105   -2.1020105   -1.4306068   0.03543647   -2.1020105   0.67140368   420203 
  160000   0.60397922   -2.1025896   -2.1025896   -1.4309527  0.036265134   -2.1025896   0.67163684   420149 
  170000     0.601993   -2.1010197   -2.1010197   -1.4315055  0.039409687   -2.1010197   0.66951418   420095 
  180000   0.60349222   -2.1028578   -2.1028578   -1.4315899  0.036617815   -2.1028578   0.67126784   420041 
  190000   0.60170953   -2.1021464   -2.1021464   -1.4327738  0.031791514   -2.1021464   0.66937259   419986 
  200000   0.60222084   -2.1024298   -2.1024298   -1.4324022  0.036465783   -2.1024298   0.67002754   419932 
  210000   0.60172699    -2.102882    -2.102882   -1.4333178  0.036753666    -2.102882    0.6695642   419878 
  220000   0.60205908   -2.1015275   -2.1015275   -1.4315076  0.038730484   -2.1015275   0.67001989   419824 
  230000   0.60263865   -2.1027707   -2.1027707   -1.4320196   0.03747681   -2.1027707   0.67075116   419770 
  240000   0.60182756   -2.1015803   -2.1015803   -1.4316458  0.035450647   -2.1015803   0.66993458   419716 
  250000   0.60094252   -2.1008632   -2.1008632   -1.4318277   0.02905017   -2.1008632   0.66903546   419662 
  260000   0.60115446   -2.1015679   -2.1015679   -1.4322103  0.038090729   -2.1015679   0.66935754   419608 
  270000   0.60078816   -2.1019746   -2.1019746   -1.4329388  0.040465326   -2.1019746   0.66903579   419554 
  280000   0.60133508   -2.1029858   -2.1029858   -1.4332548  0.039566321   -2.1029858   0.66973104   419500 
  290000   0.60106102   -2.1032745   -2.1032745   -1.4337625   0.04026068   -2.1032745   0.66951199   419446 
  300000   0.60054898    -2.104567    -2.104567   -1.4355392   0.03599666    -2.104567   0.66902776   419392 
  310000   0.60066847   -2.1045979   -2.1045979   -1.4353509  0.038636134   -2.1045979   0.66924705   419338 
  320000   0.60101316   -2.1038015   -2.1038015   -1.4340842  0.036227343   -2.1038015   0.66971733   419284 
  330000    0.6000074   -2.1050997   -2.1050997    -1.436417   0.03692414   -2.1050997   0.66868272   419230 
  340000   0.60087207   -2.1055016   -2.1055016    -1.435769   0.03139531   -2.1055016   0.66973263   419176 
  350000    0.6001349   -2.1050298   -2.1050298   -1.4360326  0.036405233   -2.1050298   0.66899716   419122 
  360000   0.60012694   -2.1065728   -2.1065728   -1.4374983  0.032719507   -2.1065728   0.66907448   419068 
  370000   0.59992349   -2.1058062   -2.1058062   -1.4368708  0.030695125   -2.1058062   0.66893546   419013 
  380000   0.59982785   -2.1036351   -2.1036351   -1.4347201  0.041064926   -2.1036351   0.66891503   418959 
  390000   0.60024405   -2.1051216   -2.1051216   -1.4356561  0.034394528   -2.1051216   0.66946545   418905 
  400000   0.60022182   -2.1058908   -2.1058908   -1.4363638  0.033573773   -2.1058908   0.66952697   418851 
  410000   0.60143228   -2.1087264   -2.1087264   -1.4377628  0.032142442   -2.1087264   0.67096369   418797 
  420000   0.60018465   -2.1078181   -2.1078181   -1.4381599  0.037924994   -2.1078181   0.66965817   418743 
  430000   0.59991233   -2.1054497   -2.1054497    -1.436009  0.033418537   -2.1054497   0.66944066   418689 
  440000   0.59999916   -2.1051931   -2.1051931   -1.4355692  0.033352974   -2.1051931   0.66962392   418635 
  450000   0.59937336   -2.1076802   -2.1076802   -1.4386684   0.03021402   -2.1076802   0.66901179   418581 
  460000   0.59721955   -2.1056621   -2.1056621   -1.4389684  0.031281634   -2.1056621   0.66669375   418527 
  470000    0.5987669   -2.1057596   -2.1057596   -1.4372523  0.036855774   -2.1057596   0.66850735   418473 
  480000   0.59929105   -2.1072393   -2.1072393   -1.4380604  0.035504172   -2.1072393   0.66917891   418419 
  490000    0.5974285   -2.1046255   -2.1046255   -1.4374402  0.039116137   -2.1046255   0.66718525   418365 
  500000   0.59834029   -2.1059288   -2.1059288    -1.437639  0.031811515   -2.1059288   0.66828976   418311 
  510000   0.59944432   -2.1090183   -2.1090183    -1.439409  0.035485042   -2.1090183    0.6696093   418257 
  520000   0.59837065   -2.1071891   -2.1071891   -1.4386929   0.03374511   -2.1071891   0.66849627   418203 
  530000   0.59912306   -2.1078163   -2.1078163    -1.438393  0.024024413   -2.1078163    0.6694233   418149 
  540000   0.59625533   -2.1057857   -2.1057857   -1.4394806  0.032710663   -2.1057857   0.66630511   418095 
  550000   0.59821965   -2.1078168   -2.1078168   -1.4392302  0.033561228   -2.1078168   0.66858656   418041 
  560000   0.59639793   -2.1058872   -2.1058872    -1.439249   0.03523981   -2.1058872   0.66663827   417986 
  570000   0.59766511   -2.1075128   -2.1075128   -1.4393718  0.036167154   -2.1075128     0.668141   417932 
  580000      0.59723   -2.1071959   -2.1071959   -1.4394551  0.031519497   -2.1071959   0.66774086   417878 
  590000   0.59752305   -2.1075306   -2.1075306   -1.4393758  0.035722565   -2.1075306   0.66815485   417824 
  600000   0.59655031   -2.1067013   -2.1067013   -1.4395479  0.040647364   -2.1067013   0.66715335   417770 
  610000   0.59665892   -2.1070134   -2.1070134   -1.4396523  0.030338461   -2.1070134   0.66736108   417716 
  620000   0.59656489    -2.106103    -2.106103   -1.4387608  0.028312209    -2.106103   0.66734218   417662 
  630000   0.59802436   -2.1079907   -2.1079907   -1.4389294  0.024546468   -2.1079907    0.6690613   417608 
  640000   0.59720449   -2.1086106   -2.1086106   -1.4403801  0.026323757   -2.1086106   0.66823045   417554 
  650000   0.59735643   -2.1090213   -2.1090213   -1.4405344  0.031845401   -2.1090213   0.66848691   417500 
  660000   0.59664381   -2.1083718   -2.1083718   -1.4405959  0.025921373   -2.1083718   0.66777581   417446 
  670000   0.59539153   -2.1080876   -2.1080876   -1.4416272  0.033265595   -2.1080876   0.66646044   417392 
  680000   0.59550131   -2.1095627   -2.1095627   -1.4428931   0.02955127   -2.1095627   0.66666958   417338 
  690000   0.59694227   -2.1117639   -2.1117639   -1.4433946  0.035927794   -2.1117639   0.66836923   417284 
  700000   0.59503687   -2.1094225   -2.1094225   -1.4431004  0.036600321   -2.1094225   0.66632206   417230 
  710000   0.59521095   -2.1087841   -2.1087841   -1.4421809  0.035519024   -2.1087841   0.66660327   417176 
  720000   0.59506223   -2.1069894   -2.1069894   -1.4404664  0.030721113   -2.1069894   0.66652299   417122 
  730000   0.59506748   -2.1075254   -2.1075254   -1.4409102  0.038209427   -2.1075254   0.66661517   417068 
  740000   0.59479522    -2.109429    -2.109429   -1.4430309  0.030729076    -2.109429   0.66639806   417013 
  750000   0.59571476   -2.1106363   -2.1106363   -1.4431215  0.034907148   -2.1106363   0.66751473   416959 
  760000   0.59562277   -2.1082524   -2.1082524   -1.4407543  0.034666745   -2.1082524    0.6674981   416905 
  770000   0.59508631   -2.1086432   -2.1086432   -1.4416599    0.0361836   -2.1086432    0.6669833   416851 
  780000   0.59552797   -2.1094512   -2.1094512   -1.4418864  0.029154827   -2.1094512    0.6675648   416797 
  790000   0.59413432   -2.1065338   -2.1065338   -1.4404449  0.025754913   -2.1065338   0.66608886   416743 
  800000   0.59656126   -2.1107355   -2.1107355   -1.4418391  0.035839502   -2.1107355    0.6688964   416689 
  810000   0.59408127   -2.1103739   -2.1103739   -1.4441719  0.033017157   -2.1103739   0.66620204   416635 
  820000   0.59292906   -2.1112919   -2.1112919   -1.4462957  0.027220745   -2.1112919   0.66499614   416581 
  830000   0.59498493   -2.1124341   -2.1124341   -1.4450457  0.030384628   -2.1124341    0.6673884   416527 
  840000   0.59316721   -2.1099574   -2.1099574   -1.4445216  0.031622195   -2.1099574   0.66543576   416473 
  850000   0.59404316   -2.1120671   -2.1120671   -1.4455623  0.029239472   -2.1120671   0.66650484   416419 
  860000   0.59468734   -2.1142663   -2.1142663   -1.4469522  0.043679265   -2.1142663   0.66731414   416365 
  870000   0.59456746   -2.1119962   -2.1119962     -1.44473  0.040795149   -2.1119962   0.66726615   416311 
  880000   0.59520784   -2.1136088   -2.1136088   -1.4455373  0.034743153   -2.1136088   0.66807149   416257 
  890000   0.59374844   -2.1123876   -2.1123876   -1.4458677  0.030966979   -2.1123876   0.66651991   416203 
  900000   0.59372402    -2.113825    -2.113825    -1.447246  0.031295637    -2.113825   0.66657897   416149 
  910000   0.59319853   -2.1132247   -2.1132247   -1.4471493  0.040075156   -2.1132247   0.66607544   416095 
  920000   0.59467239   -2.1155095   -2.1155095   -1.4476924  0.028293243   -2.1155095   0.66781703   416041 
  930000   0.59273795    -2.113035    -2.113035   -1.4473023  0.030818943    -2.113035   0.66573266   415986 
  940000   0.59321668   -2.1136683   -2.1136683   -1.4473114  0.030497393   -2.1136683   0.66635685   415932 
  950000    0.5911489   -2.1129623   -2.1129623    -1.448842  0.035006563   -2.1129623   0.66412035   415878 
  960000   0.59233366    -2.115981    -2.115981   -1.4504432  0.034066521    -2.115981   0.66553777   415824 
  970000   0.59115061   -2.1165167   -2.1165167   -1.4522219  0.036861163   -2.1165167   0.66429479   415770 
  980000   0.59327762   -2.1169801   -2.1169801   -1.4502085  0.033674274   -2.1169801   0.66677157   415716 
  990000   0.59044708   -2.1159957   -2.1159957   -1.4523191  0.034675413   -2.1159957   0.66367659   415662 
 1000000   0.58992776   -2.1161253   -2.1161253   -1.4529463  0.038854444   -2.1161253   0.66317903   415608 
 1010000   0.59066861   -2.1172096   -2.1172096   -1.4531114  0.036844004   -2.1172096   0.66409816   415554 
 1020000   0.59133558   -2.1190794   -2.1190794   -1.4541449  0.032723171   -2.1190794   0.66493444   415500 
 1030000   0.58989415   -2.1157392   -2.1157392   -1.4523393  0.036594032   -2.1157392   0.66339983   415446 
 1040000   0.59040213   -2.1165365   -2.1165365   -1.4524791  0.023726402   -2.1165365   0.66405742   415392 
 1050000     0.591862   -2.1186053   -2.1186053   -1.4528194  0.036771504   -2.1186053   0.66578597   415338 
 1060000   0.59264295   -2.1197343   -2.1197343   -1.4529831  0.035437823   -2.1197343   0.66675115   415284 
 1070000   0.59117405   -2.1181731   -2.1181731   -1.4529881  0.023847992   -2.1181731   0.66518506   415230 
 1080000   0.59004206   -2.1177105   -2.1177105   -1.4537128  0.031817326   -2.1177105    0.6639977   415176 
 1090000   0.59124112   -2.1188093   -2.1188093   -1.4533757  0.037877176   -2.1188093    0.6654336   415122 
 1100000   0.58977979   -2.1167362   -2.1167362   -1.4528609   0.03898139   -2.1167362   0.66387525   415068 
 1110000   0.59167305   -2.1164515   -2.1164515   -1.4503568  0.037897001   -2.1164515   0.66609464   415013 
 1120000   0.59001806   -2.1154513   -2.1154513   -1.4511334  0.034979121   -2.1154513   0.66431792   414959 
 1130000   0.58987205   -2.1156244   -2.1156244   -1.4513845  0.038320415   -2.1156244   0.66423996   414905 
 1140000    0.5914582   -2.1185592   -2.1185592   -1.4524464  0.027710306   -2.1185592   0.66611278   414851 
 1150000   0.59057849   -2.1173019   -2.1173019   -1.4520932  0.032578434   -2.1173019   0.66520862   414797 
 1160000   0.59212459   -2.1206813   -2.1206813   -1.4536443  0.028095954   -2.1206813   0.66703693   414743 
 1170000   0.59026382   -2.1198581   -2.1198581   -1.4548308  0.033596517   -2.1198581   0.66502733   414689 
 1180000   0.58855307   -2.1179732   -2.1179732   -1.4547869  0.040335567   -2.1179732   0.66318626   414635 
 1190000   0.59001889   -2.1196494   -2.1196494   -1.4547248  0.033934951   -2.1196494   0.66492455   414581 
 1200000   0.58871907   -2.1184022   -2.1184022   -1.4548561  0.028178272   -2.1184022   0.66354614   414527 
 1210000   0.58902266   -2.1185799   -2.1185799   -1.4546051  0.031069141   -2.1185799   0.66397481   414473 
 1220000   0.58940535   -2.1185855   -2.1185855   -1.4540928  0.034547007   -2.1185855   0.66449277   414419 
 1230000   0.58950674   -2.1188095   -2.1188095   -1.4541158  0.038337603   -2.1188095   0.66469369   414365 
 1240000   0.58915089    -2.117494    -2.117494    -1.453115  0.032911771    -2.117494   0.66437904   414311 
 1250000    0.5892177   -2.1190502   -2.1190502   -1.4545092  0.028023604   -2.1190502   0.66454099   414257 
 1260000   0.58861312   -2.1183971   -2.1183971   -1.4544514  0.030571711   -2.1183971   0.66394567   414203 
 1270000   0.58881165   -2.1179371   -2.1179371   -1.4536809  0.027653821   -2.1179371   0.66425621   414149 
 1280000   0.58896988   -2.1185758   -2.1185758   -1.4540544  0.030027249   -2.1185758   0.66452137   414095 
 1290000   0.58894237    -2.119833    -2.119833    -1.455256  0.035946849    -2.119833   0.66457699   414041 
 1300000    0.5892123   -2.1210505   -2.1210505   -1.4560805  0.027676813   -2.1210505   0.66496991   413986 
 1310000   0.58885681   -2.1196874   -2.1196874    -1.455032   0.02925673   -2.1196874   0.66465542   413932 
 1320000   0.58800602    -2.120277    -2.120277   -1.4564953  0.030911181    -2.120277    0.6637817   413878 
 1330000   0.58658118   -2.1186483   -2.1186483   -1.4563886  0.023260807   -2.1186483   0.66225965   413824 
 1340000   0.58803953   -2.1187366   -2.1187366   -1.4547438  0.030107285   -2.1187366    0.6639928   413770 
 1350000   0.58727638   -2.1175103   -2.1175103   -1.4542927  0.034617924   -2.1175103   0.66321763   413716 
 1360000   0.58895139   -2.1198689   -2.1198689   -1.4546728  0.033261506   -2.1198689   0.66519606   413662 
 1370000   0.58808734   -2.1199945   -2.1199945   -1.4556876  0.025299588   -2.1199945   0.66430687   413608 
 1380000   0.58777382   -2.1197676   -2.1197676   -1.4557282  0.034072292   -2.1197676   0.66403942   413554 
 1390000   0.58819506   -2.1195127   -2.1195127   -1.4549106  0.039459884   -2.1195127   0.66460209   413500 
 1400000   0.58690881   -2.1173411   -2.1173411   -1.4541057  0.036637484   -2.1173411   0.66323537   413446 
 1410000   0.58749493   -2.1184749   -2.1184749   -1.4544905  0.031075137   -2.1184749   0.66398444   413392 
 1420000   0.58755966   -2.1207569   -2.1207569   -1.4566126  0.030593299   -2.1207569   0.66414435   413338 
 1430000   0.58706204   -2.1223233   -2.1223233   -1.4586547  0.034005817   -2.1223233   0.66366858   413284 
 1440000   0.58635163   -2.1211324   -2.1211324   -1.4581804  0.033079117   -2.1211324   0.66295208   413230 
 1450000   0.58500185   -2.1189486   -2.1189486   -1.4574362  0.026815503   -2.1189486   0.66151242   413176 
 1460000    0.5876476   -2.1228235   -2.1228235   -1.4582324  0.035895266   -2.1228235   0.66459106   413122 
 1470000   0.58524172   -2.1211504   -2.1211504   -1.4591937  0.033201502   -2.1211504   0.66195669   413068 
 1480000   0.58721659   -2.1226661   -2.1226661   -1.4583872  0.028247473   -2.1226661   0.66427888   413013 
 1490000   0.58569849   -2.1225683   -2.1225683   -1.4599201  0.032269953   -2.1225683   0.66264819   412959 
 1500000   0.58745631   -2.1230011   -2.1230011   -1.4582772  0.036327133   -2.1230011   0.66472388   412905 
 1510000   0.58570397   -2.1211905   -2.1211905   -1.4583627  0.027725534   -2.1211905   0.66282773   412851 
 1520000   0.58568411   -2.1219627   -2.1219627   -1.4590707  0.028950945   -2.1219627   0.66289197   412797 
 1530000   0.58536346   -2.1243385   -2.1243385   -1.4617227  0.032085217   -2.1243385   0.66261573   412743 
 1540000   0.58576974   -2.1240916   -2.1240916   -1.4609292  0.034426616   -2.1240916   0.66316239   412689 
 1550000   0.58534755   -2.1243097   -2.1243097   -1.4615385  0.031359567   -2.1243097   0.66277114   412635 
 1560000     0.585157   -2.1245773   -2.1245773   -1.4619352  0.032458098   -2.1245773   0.66264211   412581 
 1570000   0.58507376   -2.1228507   -2.1228507   -1.4602162  0.024966544   -2.1228507   0.66263457   412527 
 1580000   0.58442623   -2.1219614   -2.1219614   -1.4599735   0.03181604   -2.1219614   0.66198786   412473 
 1590000   0.58436022   -2.1218997   -2.1218997   -1.4598999  0.032672115   -2.1218997   0.66199975   412419 
 1600000   0.58356925   -2.1196965   -2.1196965   -1.4585062  0.027139003   -2.1196965   0.66119027   412365 
 1610000   0.58470428   -2.1211296   -2.1211296   -1.4585666   0.03052555   -2.1211296   0.66256303   412311 
 1620000    0.5837328   -2.1244141   -2.1244141   -1.4628653  0.034842096   -2.1244141   0.66154883   412257 
 1630000    0.5845906   -2.1237088   -2.1237088   -1.4611011  0.027076759   -2.1237088   0.66260777   412203 
 1640000   0.58474212   -2.1220309   -2.1220309   -1.4591645  0.032709073   -2.1220309   0.66286635   412149 
 1650000   0.58389717   -2.1217387   -2.1217387   -1.4597435   0.02564995   -2.1217387   0.66199525   412095 
 1660000    0.5845582   -2.1239525   -2.1239525   -1.4611209  0.036172396   -2.1239525   0.66283155   412041 
 1670000   0.58287357   -2.1216623   -2.1216623   -1.4606527  0.036527727   -2.1216623   0.66100958   411986 
 1680000   0.58236085   -2.1216597   -2.1216597    -1.461145  0.034405422   -2.1216597    0.6605147   411932 
 1690000   0.58342157   -2.1234169   -2.1234169   -1.4616123  0.038439203   -2.1234169   0.66180453   411878 
 1700000   0.58225491   -2.1220737   -2.1220737   -1.4615059   0.03995563   -2.1220737   0.66056774   411824 
 1710000   0.58280829   -2.1217486   -2.1217486   -1.4604663  0.036548964   -2.1217486   0.66128225   411770 
 1720000   0.58418761   -2.1226757   -2.1226757   -1.4597414  0.040227282   -2.1226757   0.66293423   411716 
 1730000   0.58190185   -2.1204839   -2.1204839   -1.4600569  0.034590029   -2.1204839   0.66042698   411662 
 1740000   0.58308556   -2.1233629   -2.1233629   -1.4615057  0.031347787   -2.1233629   0.66185725   411608 
 1750000   0.58347769   -2.1243701   -2.1243701   -1.4619808  0.027015827   -2.1243701   0.66238925   411554 
 1760000   0.58300044   -2.1241258   -2.1241258   -1.4621915  0.030577148   -2.1241258    0.6619343   411500 
 1770000   0.58234919   -2.1240253   -2.1240253   -1.4627436  0.032260267   -2.1240253   0.66128166   411446 
 1780000     0.583237   -2.1259537   -2.1259537   -1.4635769  0.025364375   -2.1259537   0.66237674   411392 
 1790000   0.58303234   -2.1243339   -2.1243339   -1.4621027  0.033238342   -2.1243339   0.66223124   411338 
 1800000   0.58290041    -2.123657    -2.123657   -1.4614887  0.036537942    -2.123657   0.66216832   411284 
 1810000   0.58286689   -2.1231346   -2.1231346   -1.4609174  0.036015941   -2.1231346   0.66221718   411230 
 1820000   0.58232723   -2.1230521   -2.1230521   -1.4613612  0.033714996   -2.1230521   0.66169094   411176 
 1830000    0.5811661   -2.1227252   -2.1227252   -1.4622669  0.033440231   -2.1227252    0.6604583   411122 
 1840000   0.58167352    -2.123912    -2.123912   -1.4627902  0.029774566    -2.123912   0.66112179   411068 
 1850000   0.58226084   -2.1238378   -2.1238378   -1.4619599  0.038670552   -2.1238378   0.66187789   411013 
 1860000   0.58105962    -2.122858    -2.122858   -1.4622588   0.03399898    -2.122858   0.66059921   410959 
 1870000   0.58158099   -2.1240038   -2.1240038   -1.4627249  0.020588939   -2.1240038   0.66127884   410905 
 1880000   0.58043772   -2.1234666   -2.1234666    -1.463401  0.031717983   -2.1234666   0.66006565   410851 
 1890000   0.58052857   -2.1248069   -2.1248069   -1.4645511  0.030200031   -2.1248069   0.66025574   410797 
 1900000   0.58045049   -2.1229453   -2.1229453   -1.4626915   0.02974964   -2.1229453   0.66025372   410743 
 1910000    0.5804766   -2.1221577   -2.1221577   -1.4617875   0.03487596   -2.1221577   0.66037024   410689 
 1920000    0.5815306    -2.123016    -2.123016   -1.4613597  0.033530769    -2.123016   0.66165631   410635 
 1930000   0.57957904   -2.1221965   -2.1221965   -1.4626739  0.031624443   -2.1221965   0.65952259   410581 
 1940000   0.58095274   -2.1246371   -2.1246371   -1.4634644  0.030265287   -2.1246371   0.66117272   410527 
 1950000   0.58035234   -2.1205519   -2.1205519   -1.4599756  0.036081139   -2.1205519   0.66057631   410473 
 1960000   0.58000111   -2.1199129   -2.1199129   -1.4596496   0.03227017   -2.1199129   0.66026339   410419 
 1970000   0.58112355   -2.1221864   -2.1221864   -1.4605582  0.029850946   -2.1221864   0.66162821   410365 
 1980000   0.57953749   -2.1226112   -2.1226112   -1.4627019   0.02958317   -2.1226112   0.65990926   410311 
 1990000   0.58075599   -2.1226696   -2.1226696   -1.4612858  0.028663519   -2.1226696   0.66138379   410257 
 2000000   0.57773886   -2.1206136   -2.1206136   -1.4625792  0.033286328   -2.1206136   0.65803439   410203 
 2010000   0.57970062   -2.1240581   -2.1240581   -1.4637024  0.029251178   -2.1240581   0.66035574   410149 
 2020000    0.5797145   -2.1231519   -2.1231519   -1.4626934  0.033857976   -2.1231519    0.6604585   410095 
 2030000   0.58012742   -2.1219695   -2.1219695   -1.4609535  0.026793866   -2.1219695   0.66101598   410041 
 2040000   0.57894779   -2.1215846   -2.1215846   -1.4618242  0.029905435   -2.1215846   0.65976037   409986 
 2050000   0.57874026   -2.1210357   -2.1210357   -1.4614249  0.029027672   -2.1210357   0.65961074   409932 
 2060000   0.58045609   -2.1255792   -2.1255792   -1.4639257  0.029058777   -2.1255792   0.66165349   409878 
 2070000   0.57693058   -2.1217084   -2.1217084   -1.4639869  0.031015351   -2.1217084   0.65772147   409824 
 2080000   0.57755009   -2.1210661   -2.1210661   -1.4625516  0.029549274   -2.1210661    0.6585145   409770 
 2090000   0.57928079   -2.1225993   -2.1225993   -1.4620245  0.034218009   -2.1225993   0.66057488   409716 
 2100000   0.58039599   -2.1232818   -2.1232818    -1.461348  0.027306414   -2.1232818   0.66193382   409662 
 2110000   0.57998088    -2.122989    -2.122989   -1.4614414  0.026331784    -2.122989    0.6615476   409608 
 2120000   0.57988905   -2.1244213   -2.1244213   -1.4628913  0.024490718   -2.1244213   0.66153006   409554 
 2130000   0.57877934   -2.1229719   -2.1229719   -1.4626208  0.037070929   -2.1229719   0.66035118   409500 
 2140000   0.57868162   -2.1234632   -2.1234632   -1.4631364  0.029916591   -2.1234632   0.66032677   409446 
 2150000   0.57753278   -2.1240867   -2.1240867   -1.4649839  0.028157659   -2.1240867   0.65910276   409392 
 2160000   0.57766433   -2.1241659   -2.1241659   -1.4648261  0.024948333   -2.1241659   0.65933987   409338 
 2170000   0.57618561   -2.1224683   -2.1224683   -1.4647295  0.038013055   -2.1224683   0.65773884   409284 
 2180000   0.57724491    -2.123497    -2.123497    -1.464462  0.026943235    -2.123497   0.65903503   409230 
 2190000   0.57822453   -2.1250261   -2.1250261   -1.4647855  0.022573061   -2.1250261   0.66024057   409176 
 2200000   0.57744251   -2.1232587   -2.1232587    -1.463824  0.037372537   -2.1232587   0.65943465   409122 
 2210000   0.57746369   -2.1215354   -2.1215354   -1.4619895  0.031725223   -2.1215354    0.6595459   409068 
 2220000   0.57599152   -2.1216991   -2.1216991   -1.4637462  0.037461495   -2.1216991   0.65795293   409013 
 2230000   0.57708246   -2.1231319   -2.1231319   -1.4638457  0.029350121   -2.1231319   0.65928615   408959 
 2240000   0.57700185   -2.1234762   -2.1234762    -1.464195  0.028180317   -2.1234762   0.65928111   408905 
 2250000   0.57593805   -2.1214883   -2.1214883   -1.4633358  0.034356967   -2.1214883   0.65815253   408851 
 2260000   0.57673634   -2.1226142   -2.1226142   -1.4634624  0.032167057   -2.1226142   0.65915183   408797 
 2270000   0.57675596   -2.1234762   -2.1234762   -1.4642148  0.031098281   -2.1234762   0.65926134   408743 
 2280000   0.57620555   -2.1223214   -2.1223214   -1.4636022  0.033683876   -2.1223214   0.65871922   408689 
 2290000   0.57709092   -2.1247685   -2.1247685   -1.4649499  0.032678207   -2.1247685   0.65981857   408635 
 2300000   0.57544219   -2.1239225   -2.1239225   -1.4659021  0.033286397   -2.1239225   0.65802044   408581 
 2310000   0.57572817    -2.124592    -2.124592   -1.4661576  0.040837922    -2.124592   0.65843448   408527 
 2320000   0.57564126   -2.1233828   -2.1233828   -1.4649607  0.034797483   -2.1233828   0.65842211   408473 
 2330000   0.57723475   -2.1247788   -2.1247788   -1.4644467  0.031866102   -2.1247788   0.66033205   408419 
 2340000   0.57528044    -2.124235    -2.124235   -1.4660516   0.02501183    -2.124235   0.65818343   408365 
 2350000   0.57666362   -2.1257753   -2.1257753   -1.4659221  0.026581103   -2.1257753    0.6598532   408311 
 2360000   0.57628691    -2.125558    -2.125558   -1.4660486  0.037133123    -2.125558   0.65950936   408257 
 2370000   0.57560758   -2.1259839   -2.1259839   -1.4671649  0.027843093   -2.1259839   0.65881907   408203 
 2380000   0.57532752   -2.1254727   -2.1254727   -1.4668871  0.030099588   -2.1254727   0.65858565   408149 
 2390000   0.57496171   -2.1252104   -2.1252104   -1.4669564  0.027964019   -2.1252104   0.65825398   408095 
 2400000   0.57578616   -2.1263251   -2.1263251     -1.46704  0.034608344   -2.1263251   0.65928511   408041 
 2410000   0.57575853   -2.1256455   -2.1256455   -1.4663032  0.036649526   -2.1256455   0.65934235   407986 
 2420000   0.57518729   -2.1243525   -2.1243525   -1.4655771  0.022618356   -2.1243525   0.65877538   407932 
 2430000   0.57447161   -2.1239092   -2.1239092   -1.4658665  0.029968721   -2.1239092   0.65804279   407878 
 2440000   0.57418287   -2.1263158   -2.1263158   -1.4685167  0.035215163   -2.1263158   0.65779913   407824 
 2450000   0.57352608    -2.126509    -2.126509   -1.4693753  0.025574696    -2.126509   0.65713371   407770 
 2460000   0.57448942   -2.1271127   -2.1271127    -1.468788  0.026751276   -2.1271127   0.65832467   407716 
 2470000   0.57436957   -2.1243612   -2.1243612   -1.4660867  0.035812278   -2.1243612   0.65827451   407662 
 2480000   0.57439766   -2.1238695   -2.1238695   -1.4654756  0.032349441   -2.1238695   0.65839392   407608 
 2490000   0.57552161   -2.1256273   -2.1256273   -1.4658576  0.037832966   -2.1256273   0.65976964   407554 
 2500000   0.57390702   -2.1243497   -2.1243497   -1.4663438  0.033595168   -2.1243497   0.65800588   407500 
 2510000   0.57320919   -2.1258054   -2.1258054   -1.4685125  0.033552501   -2.1258054   0.65729289   407446 
 2520000   0.57549192   -2.1281647   -2.1281647   -1.4681668  0.028361632   -2.1281647   0.65999794   407392 
 2530000   0.57333252   -2.1255696   -2.1255696    -1.467961   0.03356949   -2.1255696   0.65760862   407338 
 2540000   0.57359063   -2.1246771   -2.1246771   -1.4666852  0.033088231   -2.1246771   0.65799189   407284 
 2550000   0.57407851   -2.1249036   -2.1249036   -1.4662647   0.03012802   -2.1249036   0.65863889   407230 
 2560000   0.57410567   -2.1245681   -2.1245681   -1.4658107  0.039169228   -2.1245681   0.65875741   407176 
 2570000   0.57273983   -2.1235805   -2.1235805   -1.4663032  0.031718382   -2.1235805   0.65727734   407122 
 2580000   0.57353152   -2.1240333   -2.1240333   -1.4657601  0.031649907   -2.1240333    0.6582732   407068 
 2590000   0.57332472   -2.1253845   -2.1253845   -1.4672597  0.032162206   -2.1253845   0.65812476   407013 
 2600000   0.57297261   -2.1257103   -2.1257103   -1.4679024    0.0367257   -2.1257103   0.65780785   406959 
 2610000   0.57202447   -2.1230666   -2.1230666   -1.4662601  0.028359054   -2.1230666   0.65680648   406905 
 2620000   0.57404602   -2.1232943   -2.1232943   -1.4640792  0.034985118   -2.1232943   0.65921513   406851 
 2630000   0.57211528   -2.1212867   -2.1212867   -1.4642015  0.027650428   -2.1212867   0.65708516   406797 
 2640000   0.57241193   -2.1211425   -2.1211425   -1.4636293  0.038021006   -2.1211425   0.65751314   406743 
 2650000   0.57314007    -2.122647    -2.122647     -1.46421  0.026086709    -2.122647   0.65843695   406689 
 2660000   0.57324748   -2.1258398   -2.1258398    -1.467192  0.037823974   -2.1258398    0.6586478   406635 
 2670000   0.57166338   -2.1251345   -2.1251345   -1.4682196  0.029665164   -2.1251345   0.65691494   406581 
 2680000   0.57244503   -2.1257492   -2.1257492   -1.4678487  0.033949863   -2.1257492   0.65790053   406527 
 2690000    0.5717964   -2.1249387   -2.1249387   -1.4676963  0.028321206   -2.1249387   0.65724239   406473 
 2700000   0.57265833   -2.1253193   -2.1253193   -1.4669988  0.031761122   -2.1253193   0.65832057   406419 
 2710000   0.57064068   -2.1232213   -2.1232213    -1.467133  0.030635917   -2.1232213   0.65608828   406365 
 2720000   0.57318399   -2.1247041   -2.1247041   -1.4656041  0.036432163   -2.1247041   0.65910002   406311 
 2730000   0.57236874   -2.1251708   -2.1251708   -1.4669207  0.028806738   -2.1251708   0.65825004   406257 
 2740000   0.57036398   -2.1240594   -2.1240594   -1.4680278   0.03392489   -2.1240594   0.65603169   406203 
 2750000   0.56923128   -2.1238884   -2.1238884   -1.4690725  0.026719771   -2.1238884    0.6548159   406149 
 2760000   0.57085557    -2.125131    -2.125131   -1.4683593  0.034697267    -2.125131   0.65677173   406095 
 2770000   0.57080115   -2.1248104   -2.1248104    -1.468014  0.025933258   -2.1248104   0.65679645   406041 
 2780000   0.56989202   -2.1248038   -2.1248038   -1.4689646  0.034499499   -2.1248038    0.6558392   405986 
 2790000   0.56921347   -2.1223477   -2.1223477   -1.4672023  0.027013616   -2.1223477   0.65514544   405932 
 2800000   0.57087192    -2.124082    -2.124082   -1.4669403  0.035029549    -2.124082   0.65714168   405878 
 2810000   0.57027773   -2.1226486   -2.1226486   -1.4661035  0.035834052   -2.1226486   0.65654505   405824 
 2820000   0.56943427   -2.1220978   -2.1220978   -1.4664366  0.028774496   -2.1220978   0.65566125   405770 
 2830000   0.57015925    -2.122671    -2.122671   -1.4660876  0.029085412    -2.122671   0.65658338   405716 
 2840000   0.57063705   -2.1241366   -2.1241366   -1.4669155  0.027437469   -2.1241366   0.65722109   405662 
 2850000    0.5688982   -2.1226551   -2.1226551   -1.4673494  0.034333488   -2.1226551   0.65530562   405608 
 2860000   0.57052055   -2.1224261   -2.1224261   -1.4651642  0.030655496   -2.1224261   0.65726189   405554 
 2870000   0.56999325    -2.120696    -2.120696   -1.4639541  0.032285341    -2.120696   0.65674187   405500 
 2880000   0.56848422   -2.1228128   -2.1228128   -1.4677224  0.024152829   -2.1228128   0.65509041   405446 
 2890000   0.56947647   -2.1226424   -2.1226424   -1.4663211  0.038218403   -2.1226424   0.65632124   405392 
 2900000   0.56924937   -2.1233213   -2.1233213   -1.4671744  0.029462184   -2.1233213    0.6561469   405338 
 2910000   0.57047378   -2.1243303   -2.1243303   -1.4666845  0.026289519   -2.1243303   0.65764584   405284 
 2920000   0.56962678   -2.1229932   -2.1229932   -1.4662363  0.030753839   -2.1229932   0.65675691   405230 
 2930000   0.56899255   -2.1235401   -2.1235401    -1.467427  0.037179753   -2.1235401   0.65611311   405176 
 2940000   0.56848463    -2.122914    -2.122914   -1.4672992   0.03343644    -2.122914   0.65561479   405122 
 2950000   0.56830434   -2.1238077   -2.1238077   -1.4683134  0.024370823   -2.1238077   0.65549424   405068 
 2960000   0.56904687   -2.1251138   -2.1251138    -1.468674    0.0358843   -2.1251138   0.65643983   405013 
 2970000   0.56854085   -2.1249825   -2.1249825    -1.469039  0.023712405   -2.1249825   0.65594355   404959 
 2980000   0.56809154   -2.1244025   -2.1244025   -1.4688899   0.02932843   -2.1244025   0.65551257   404905 
 2990000   0.56822234    -2.124693    -2.124693    -1.468942  0.031472225    -2.124693   0.65575096   404851 
 3000000   0.56841415   -2.1237288   -2.1237288    -1.467669  0.033921929   -2.1237288   0.65605982   404797 
 3010000   0.56786064   -2.1213365   -2.1213365   -1.4658281  0.032926524   -2.1213365   0.65550842   404743 
 3020000   0.57028678   -2.1236471   -2.1236471   -1.4652502  0.031082131   -2.1236471   0.65839686   404689 
 3030000   0.56879914   -2.1231947   -2.1231947   -1.4664276  0.035225902   -2.1231947   0.65676701   404635 
 3040000   0.56771945   -2.1222078   -2.1222078      -1.4666  0.029831381   -2.1222078   0.65560784   404581 
 3050000   0.56719026   -2.1232072   -2.1232072    -1.468123  0.025697362   -2.1232072   0.65508416   404527 
 3060000   0.56646445   -2.1224797   -2.1224797   -1.4681465  0.025951619   -2.1224797   0.65433322   404473 
 3070000   0.56746642   -2.1216718   -2.1216718   -1.4660936  0.029859238   -2.1216718   0.65557814   404419 
 3080000   0.56768353   -2.1220477   -2.1220477   -1.4661311  0.024199717   -2.1220477   0.65591655   404365 
 3090000   0.56890266   -2.1237604   -2.1237604   -1.4663475  0.036073352   -2.1237604   0.65741295   404311 
 3100000   0.56593968   -2.1197137   -2.1197137   -1.4656374  0.023802344   -2.1197137   0.65407635   404257 
 3110000   0.56557471   -2.1195386   -2.1195386   -1.4657967  0.032947188   -2.1195386   0.65374186   404203 
 3120000   0.56680074   -2.1234397   -2.1234397   -1.4681931  0.032121967   -2.1234397   0.65524655   404149 
 3130000   0.56785208   -2.1229755   -2.1229755   -1.4664258  0.029615939   -2.1229755   0.65654968   404095 
 3140000    0.5657329   -2.1190373   -2.1190373   -1.4648504   0.02861509   -2.1190373    0.6541869   404041 
 3150000   0.56702238   -2.1194388   -2.1194388   -1.4636715  0.035538781   -2.1194388   0.65576727   403986 
 3160000    0.5672933   -2.1217405   -2.1217405   -1.4655722  0.030174797   -2.1217405    0.6561683   403932 
 3170000   0.56559257   -2.1207787   -2.1207787   -1.4664901  0.037972649   -2.1207787    0.6542886   403878 
 3180000   0.56558449   -2.1214366   -2.1214366   -1.4670698  0.019820935   -2.1214366   0.65436674   403824 
 3190000   0.56572199     -2.12152     -2.12152   -1.4669067  0.032217285     -2.12152   0.65461336   403770 
 3200000   0.56614066   -2.1229911   -2.1229911   -1.4678056  0.029461649   -2.1229911   0.65518543   403716 
 3210000   0.56466718   -2.1210961   -2.1210961   -1.4675285  0.024084072   -2.1210961   0.65356762   403662 
 3220000    0.5650226   -2.1226872   -2.1226872   -1.4686207  0.033527314   -2.1226872   0.65406649   403608 
 3230000   0.56671067   -2.1243924   -2.1243924    -1.468284    0.0353719   -2.1243924   0.65610837   403554 
 3240000   0.56598865    -2.124618    -2.124618   -1.4692578  0.031683627    -2.124618   0.65536015   403500 
 3250000   0.56428455   -2.1228587   -2.1228587   -1.4693843  0.028417167   -2.1228587   0.65347442   403446 
 3260000   0.56464831   -2.1228949   -2.1228949   -1.4689117   0.03454611   -2.1228949   0.65398321   403392 
 3270000   0.56596741    -2.123278    -2.123278   -1.4676792  0.030503442    -2.123278   0.65559877   403338 
 3280000   0.56511015   -2.1216167   -2.1216167   -1.4669233   0.03366578   -2.1216167    0.6546934   403284 
 3290000   0.56514747   -2.1219432   -2.1219432   -1.4671189  0.031202395   -2.1219432   0.65482431   403230 
 3300000   0.56361091   -2.1212229   -2.1212229   -1.4680915  0.034551139   -2.1212229    0.6531314   403176 
 3310000   0.56434215   -2.1233541   -2.1233541   -1.4692877  0.032778598   -2.1233541   0.65406639   403122 
 3320000   0.56501701   -2.1231947   -2.1231947   -1.4682584  0.030357223   -2.1231947   0.65493629   403068 
 3330000   0.56485786   -2.1220936   -2.1220936   -1.4672525  0.033447028   -2.1220936   0.65484116   403013 
 3340000   0.56536594   -2.1215761   -2.1215761   -1.4660581  0.031907278   -2.1215761   0.65551802   402959 
 3350000   0.56460914   -2.1204657   -2.1204657   -1.4657374  0.036018921   -2.1204657   0.65472828   402905 
 3360000   0.56455503   -2.1191619   -2.1191619   -1.4644086  0.030924054   -2.1191619   0.65475328   402851 
 3370000   0.56496138   -2.1209856   -2.1209856   -1.4656732    0.0203904   -2.1209856   0.65531239   402797 
 3380000   0.56338886   -2.1208983   -2.1208983   -1.4673223  0.027796883   -2.1208983   0.65357602   402743 
 3390000   0.56449102   -2.1221938   -2.1221938   -1.4672514  0.032883246   -2.1221938   0.65494242   402689 
 3400000   0.56353296   -2.1197239   -2.1197239   -1.4658054  0.033712828   -2.1197239   0.65391854   402635 
 3410000   0.56316191   -2.1202399   -2.1202399   -1.4666643  0.035363308   -2.1202399   0.65357563   402581 
 3420000   0.56298193   -2.1204965   -2.1204965   -1.4670421  0.026934163   -2.1204965    0.6534544   402527 
 3430000   0.56287969   -2.1206648   -2.1206648   -1.4672414  0.026429127   -2.1206648   0.65342339   402473 
 3440000   0.56453288   -2.1217871   -2.1217871   -1.4663566  0.031833933   -2.1217871   0.65543045   402419 
 3450000   0.56318314   -2.1208095   -2.1208095   -1.4668583  0.025623302   -2.1208095   0.65395113   402365 
 3460000    0.5634403   -2.1210509   -2.1210509   -1.4667134  0.036924706   -2.1210509   0.65433755   402311 
 3470000   0.56366634    -2.119979    -2.119979   -1.4652911  0.028025534    -2.119979   0.65468793   402257 
 3480000   0.56360306   -2.1207492   -2.1207492   -1.4660469  0.030657127   -2.1207492   0.65470233   402203 
 3490000   0.56243425   -2.1197124   -2.1197124     -1.46628    0.0337571   -2.1197124   0.65343232   402149 
 3500000   0.56275258   -2.1201022   -2.1201022   -1.4662122  0.032640216   -2.1201022   0.65388997   402095 
 3510000   0.56223353   -2.1195863   -2.1195863   -1.4662117  0.022192353   -2.1195863    0.6533746   402041 
 3520000   0.56326934   -2.1213964   -2.1213964   -1.4667285  0.030012375   -2.1213964   0.65466788   401986 
 3530000    0.5615012   -2.1197244   -2.1197244   -1.4670239  0.031440474   -2.1197244   0.65270051   401932 
 3540000   0.56177676   -2.1199313   -2.1199313   -1.4668227  0.035715171   -2.1199313   0.65310857   401878 
 3550000   0.56248545   -2.1200854   -2.1200854   -1.4660651  0.039399494   -2.1200854   0.65402036   401824 
 3560000   0.56257664    -2.121531    -2.121531   -1.4673167  0.036925155    -2.121531   0.65421431   401770 
 3570000    0.5603865   -2.1199018   -2.1199018   -1.4681468  0.030976266   -2.1199018   0.65175501   401716 
 3580000   0.56256792   -2.1221199   -2.1221199   -1.4677398  0.033687098   -2.1221199   0.65438007   401662 
 3590000   0.56207313   -2.1202559   -2.1202559   -1.4663635   0.02861035   -2.1202559   0.65389244   401608 
 3600000   0.56234493   -2.1223506   -2.1223506    -1.468054  0.032107463   -2.1223506   0.65429662   401554 
 3610000   0.56102192   -2.1206913   -2.1206913   -1.4678463  0.037410006   -2.1206913   0.65284507   401500 
 3620000   0.56275685    -2.120612    -2.120612   -1.4656599   0.03331885    -2.120612   0.65495204   401446 
 3630000   0.56197616   -2.1200581   -2.1200581   -1.4659266  0.025073879   -2.1200581   0.65413145   401392 
 3640000   0.56291426   -2.1207516   -2.1207516   -1.4654401  0.026651719   -2.1207516   0.65531154   401338 
 3650000   0.56011887   -2.1210469   -2.1210469   -1.4689019  0.034200085   -2.1210469   0.65214506   401284 
 3660000   0.56128785   -2.1225069   -2.1225069   -1.4689129  0.027421106   -2.1225069   0.65359406   401230 
 3670000   0.56100771   -2.1191869   -2.1191869   -1.4658312  0.027544935   -2.1191869   0.65335577   401176 
 3680000   0.56039514   -2.1175716   -2.1175716   -1.4648413  0.025151458   -2.1175716   0.65273023   401122 
 3690000   0.56128343   -2.1204363   -2.1204363   -1.4665834  0.029387929   -2.1204363    0.6538529   401068 
 3700000   0.56012171    -2.119337    -2.119337   -1.4667479  0.031813496    -2.119337   0.65258908   401013 
 3710000   0.56114174    -2.120435    -2.120435   -1.4665694  0.034275572    -2.120435   0.65386555   400959 
 3720000   0.55955889   -2.1194163   -2.1194163   -1.4673073  0.033208749   -2.1194163   0.65210897   400905 
 3730000   0.56086994   -2.1199706   -2.1199706   -1.4662456  0.027330502   -2.1199706   0.65372492   400851 
 3740000   0.56071473   -2.1195003   -2.1195003   -1.4658682  0.030978178   -2.1195003   0.65363207   400797 
 3750000   0.55965193   -2.1179534   -2.1179534   -1.4654723  0.033725453   -2.1179534   0.65248106   400743 
 3760000    0.5610228   -2.1202066   -2.1202066   -1.4660391  0.029781569   -2.1202066   0.65416747   400689 
 3770000   0.55938005   -2.1195577   -2.1195577   -1.4672178  0.033750316   -2.1195577   0.65233988   400635 
 3780000    0.5591077   -2.1202828   -2.1202828   -1.4681726  0.028110169   -2.1202828   0.65211017   400581 
 3790000    0.5595315   -2.1189255   -2.1189255    -1.466233  0.034131961   -2.1189255   0.65269245   400527 
 3800000   0.55863688   -2.1195302   -2.1195302   -1.4677934  0.027583807   -2.1195302   0.65173675   400473 
 3810000   0.55921483    -2.120655    -2.120655   -1.4681561   0.03159349    -2.120655     0.652499   400419 
 3820000   0.55859919   -2.1202646   -2.1202646    -1.468396  0.031850986   -2.1202646   0.65186857   400365 
 3830000   0.55923552   -2.1229875   -2.1229875   -1.4702884   0.03395081   -2.1229875   0.65269919   400311 
 3840000   0.55781342   -2.1193146   -2.1193146   -1.4681874  0.031428904   -2.1193146   0.65112725   400257 
 3850000   0.55815143   -2.1193011   -2.1193011   -1.4676914  0.032806488   -2.1193011   0.65160972   400203 
 3860000   0.55797453   -2.1192202   -2.1192202   -1.4677291  0.026116985   -2.1192202    0.6514911   400149 
 3870000   0.55936898    -2.120169    -2.120169   -1.4669616  0.028339059    -2.120169   0.65320741   400095 
 3880000   0.55657807    -2.117707    -2.117707    -1.467671  0.026429296    -2.117707   0.65003604   400041 
 3890000   0.55824373   -2.1188205   -2.1188205   -1.4667495  0.021167635   -2.1188205   0.65207104   399986 
 3900000   0.55837342   -2.1200228   -2.1200228   -1.4677122  0.027934194   -2.1200228   0.65231059   399932 
 3910000   0.55987284   -2.1208007   -2.1208007   -1.4666501  0.026919438   -2.1208007   0.65415059   399878 
 3920000   0.55612651   -2.1159365   -2.1159365   -1.4660754  0.025983416   -2.1159365   0.64986116   399824 
 3930000   0.55894139   -2.1178733   -2.1178733   -1.4646346  0.027740721   -2.1178733   0.65323872   399770 
 3940000   0.55766514   -2.1178006   -2.1178006   -1.4659654  0.026883261   -2.1178006    0.6518352   399716 
 3950000   0.55741682   -2.1158807   -2.1158807   -1.4642477  0.026800936   -2.1158807   0.65163299   399662 
 3960000   0.55781152   -2.1155679   -2.1155679   -1.4633853  0.027048445   -2.1155679   0.65218251   399608 
 3970000   0.55775083   -2.1166314   -2.1166314   -1.4644318  0.023848513   -2.1166314   0.65219969   399554 
 3980000   0.55685807   -2.1176654   -2.1176654   -1.4664216  0.026298145   -2.1176654   0.65124377   399500 
 3990000   0.55764911   -2.1187019   -2.1187019   -1.4664448  0.026396174   -2.1187019   0.65225706   399446 
 4000000   0.55822154   -2.1192794   -2.1192794   -1.4662646   0.02395287   -2.1192794   0.65301488   399392 
 4010000   0.55835779   -2.1160426   -2.1160426     -1.46278  0.034603901   -2.1160426   0.65326259   399338 
 4020000   0.55761074   -2.1166384   -2.1166384   -1.4641616  0.034273153   -2.1166384   0.65247679   399284 
 4030000   0.55849748   -2.1179994   -2.1179994   -1.4643966  0.032861827   -2.1179994   0.65360279   399230 
 4040000   0.55585103   -2.1140437   -2.1140437   -1.4634501  0.030591615   -2.1140437   0.65059368   399176 
 4050000   0.55703601   -2.1154378   -2.1154378   -1.4633689  0.035521721   -2.1154378   0.65206885   399122 
 4060000   0.55591748   -2.1154031   -2.1154031   -1.4645555  0.026453491   -2.1154031   0.65084755   399068 
 4070000   0.55579802   -2.1152584   -2.1152584    -1.464461  0.038138666   -2.1152584   0.65079738   399013 
 4080000   0.55632036    -2.117678    -2.117678   -1.4661809  0.023518759    -2.117678   0.65149718   398959 
 4090000   0.55740688   -2.1191714   -2.1191714   -1.4663135  0.032239248   -2.1191714   0.65285794   398905 
 4100000   0.55611572   -2.1164674   -2.1164674   -1.4650336  0.028112639   -2.1164674   0.65143387   398851 
 4110000    0.5557523   -2.1153365   -2.1153365   -1.4642402  0.031359005   -2.1153365   0.65109631   398797 
 4120000   0.55605395   -2.1156826   -2.1156826   -1.4641447  0.025379267   -2.1156826   0.65153794   398743 
 4130000   0.55453493   -2.1153381   -2.1153381    -1.465492  0.035645956   -2.1153381   0.64984608   398689 
 4140000   0.55596494   -2.1147989   -2.1147989   -1.4631888  0.041981561   -2.1147989   0.65161013   398635 
 4150000   0.55561552   -2.1140206   -2.1140206   -1.4627318  0.032732656   -2.1140206   0.65128883   398581 
 4160000   0.55354261    -2.112549    -2.112549   -1.4636021  0.032563562    -2.112549   0.64894689   398527 
 4170000   0.55574717    -2.115457    -2.115457   -1.4638373  0.029953625    -2.115457   0.65161971   398473 
 4180000   0.55407883   -2.1148301   -2.1148301   -1.4650785  0.023427317   -2.1148301    0.6497516   398419 
 4190000   0.55528985   -2.1159554   -2.1159554   -1.4646954  0.029897194   -2.1159554      0.65126   398365 
 4200000   0.55483648   -2.1147522   -2.1147522   -1.4639357  0.035928077   -2.1147522   0.65081651   398311 
 4210000   0.55365805   -2.1132472   -2.1132472   -1.4637249  0.024667632   -2.1132472   0.64952227   398257 
 4220000   0.55536999   -2.1153922   -2.1153922   -1.4637732  0.028442229   -2.1153922   0.65161899   398203 
 4230000   0.55446393   -2.1151383   -2.1151383   -1.4644942  0.023539108   -2.1151383   0.65064413   398149 
 4240000   0.55570069   -2.1163062   -2.1163062   -1.4641223  0.024582161   -2.1163062   0.65218388   398095 
 4250000   0.55540893   -2.1154166   -2.1154166   -1.4634867  0.029687875   -2.1154166    0.6519299   398041 
 4260000   0.55484732   -2.1138293   -2.1138293   -1.4624687  0.029903238   -2.1138293   0.65136069   397986 
 4270000   0.55450977   -2.1154134   -2.1154134   -1.4643606  0.034271929   -2.1154134   0.65105276   397932 
 4280000   0.55413584   -2.1134739   -2.1134739   -1.4627719  0.031678055   -2.1134739   0.65070204   397878 
 4290000   0.55493125   -2.1138136   -2.1138136   -1.4620891  0.034912289   -2.1138136    0.6517245   397824 
 4300000   0.55270967   -2.1118354   -2.1118354   -1.4626319  0.030919485   -2.1118354   0.64920355   397770 
 4310000    0.5555637   -2.1159557   -2.1159557   -1.4633112  0.039266913   -2.1159557   0.65264445   397716 
 4320000   0.55501753   -2.1134325   -2.1134325   -1.4613411  0.036478003   -2.1134325   0.65209138   397662 
 4330000   0.55469433   -2.1108033   -2.1108033   -1.4590032  0.032906248   -2.1108033   0.65180016   397608 
 4340000   0.55269312   -2.1115653   -2.1115653   -1.4620284  0.030661497   -2.1115653   0.64953683   397554 
 4350000   0.55516437   -2.1148253   -2.1148253   -1.4622955  0.027188376   -2.1148253   0.65252973   397500 
 4360000   0.55469637   -2.1143326   -2.1143326   -1.4622644  0.033238948   -2.1143326   0.65206824   397446 
 4370000   0.55427869   -2.1138201   -2.1138201   -1.4621544  0.026766882   -2.1138201   0.65166577   397392 
 4380000   0.55332812   -2.1147254   -2.1147254   -1.4640888  0.030805539   -2.1147254    0.6506366   397338 
 4390000   0.55284236   -2.1139112   -2.1139112   -1.4637575  0.034902813   -2.1139112   0.65015378   397284 
 4400000   0.55354796   -2.1141439   -2.1141439   -1.4630718  0.030940426   -2.1141439   0.65107206   397230 
 4410000   0.55335891   -2.1145309   -2.1145309   -1.4635927  0.032245094   -2.1145309   0.65093819   397176 
 4420000   0.55323709   -2.1148204   -2.1148204    -1.463937  0.026834835   -2.1148204   0.65088339   397122 
 4430000    0.5558389   -2.1162983   -2.1162983    -1.462265     0.028124   -2.1162983   0.65403336   397068 
 4440000   0.55316107   -2.1138839   -2.1138839   -1.4629113  0.024756427   -2.1138839   0.65097263   397013 
 4450000   0.55339891   -2.1136878   -2.1136878   -1.4623466  0.036109205   -2.1136878   0.65134111   396959 
 4460000   0.55336874    -2.115449    -2.115449   -1.4640548  0.031618335    -2.115449   0.65139422   396905 
 4470000   0.55181553   -2.1143922   -2.1143922   -1.4647379  0.032134049   -2.1143922   0.64965425   396851 
 4480000   0.55201936   -2.1126873   -2.1126873   -1.4627046  0.028611615   -2.1126873   0.64998267   396797 
 4490000   0.55320625   -2.1142765   -2.1142765   -1.4628076  0.026777956   -2.1142765   0.65146885   396743 
 4500000   0.55131734   -2.1134478   -2.1134478    -1.464115  0.034507337   -2.1134478    0.6493328   396689 
 4510000   0.55144332   -2.1145785   -2.1145785   -1.4650089  0.025474508   -2.1145785   0.64956961   396635 
 4520000   0.55133138    -2.113681    -2.113681   -1.4641549  0.031399908    -2.113681   0.64952618   396581 
 4530000   0.55156195   -2.1129466   -2.1129466   -1.4630603  0.025929505   -2.1129466    0.6498863   396527 
 4540000    0.5520649   -2.1122073   -2.1122073   -1.4616398  0.032074003   -2.1122073    0.6505675   396473 
 4550000   0.55004801    -2.111128    -2.111128    -1.462849  0.025803696    -2.111128   0.64827904   396419 
 4560000   0.55385012   -2.1147687   -2.1147687   -1.4619196  0.032201606   -2.1147687   0.65284909   396365 
 4570000   0.55206098   -2.1121861   -2.1121861   -1.4613573  0.019913465   -2.1121861   0.65082882   396311 
 4580000   0.55205112    -2.112252    -2.112252   -1.4613461  0.026676958    -2.112252   0.65090588   396257 
 4590000   0.55145458   -2.1137069   -2.1137069   -1.4634158   0.02224018   -2.1137069   0.65029114   396203 
 4600000   0.55126173   -2.1124743   -2.1124743    -1.462322  0.037299335   -2.1124743   0.65015234   396149 
 4610000   0.55163081   -2.1129267   -2.1129267   -1.4622504  0.035511365   -2.1129267   0.65067633   396095 
 4620000    0.5519398   -2.1119031   -2.1119031   -1.4607735  0.027062989   -2.1119031   0.65112955   396041 
 4630000    0.5513422   -2.1104444   -2.1104444   -1.4599295  0.037557613   -2.1104444    0.6505149   395986 
 4640000   0.55172391   -2.1106609   -2.1106609   -1.4596069  0.037882533   -2.1106609   0.65105406   395932 
 4650000   0.55041387   -2.1115058   -2.1115058    -1.461909  0.027880202   -2.1115058   0.64959676   395878 
 4660000   0.55126814   -2.1136736   -2.1136736   -1.4629799  0.035561869   -2.1136736   0.65069372   395824 
 4670000   0.55053619   -2.1129458   -2.1129458   -1.4630274  0.033264387   -2.1129458   0.64991843   395770 
 4680000   0.54952392   -2.1106156   -2.1106156   -1.4618037  0.025390257   -2.1106156   0.64881195   395716 
 4690000   0.55043984   -2.1128674   -2.1128674   -1.4628853  0.023152983   -2.1128674   0.64998206   395662 
 4700000     0.551002    -2.113197    -2.113197   -1.4624623  0.033586405    -2.113197   0.65073469   395608 
 4710000   0.55082587   -2.1137056   -2.1137056   -1.4630901   0.03456028   -2.1137056   0.65061549   395554 
 4720000   0.54913675   -2.1128817   -2.1128817   -1.4641728  0.028772735   -2.1128817   0.64870892   395500 
 4730000   0.54846519   -2.1119454   -2.1119454   -1.4639414  0.025642159   -2.1119454   0.64800406   395446 
 4740000   0.54985621   -2.1122556   -2.1122556   -1.4625193    0.0315571   -2.1122556   0.64973626   395392 
 4750000    0.5488838    -2.112037    -2.112037   -1.4633612  0.024699397    -2.112037   0.64867581   395338 
 4760000   0.55032059   -2.1129129   -2.1129129   -1.4624503  0.029632488   -2.1129129   0.65046266   395284 
 4770000   0.54998977   -2.1126624   -2.1126624   -1.4625019   0.03506831   -2.1126624   0.65016047   395230 
 4780000   0.55044043   -2.1115698   -2.1115698   -1.4607877  0.024378402   -2.1115698   0.65078212   395176 
 4790000   0.54953015    -2.110208    -2.110208   -1.4604133  0.034454521    -2.110208    0.6497947   395122 
 4800000   0.55089788   -2.1136072   -2.1136072   -1.4621062  0.034582741   -2.1136072   0.65150102   395068 
 4810000   0.54865394   -2.1129903   -2.1129903   -1.4640527  0.028432594   -2.1129903   0.64893763   395013 
 4820000   0.54918426   -2.1104082   -2.1104082   -1.4607545  0.031825618   -2.1104082    0.6496537   394959 
 4830000    0.5484752   -2.1107137   -2.1107137   -1.4618101  0.036257403   -2.1107137   0.64890364   394905 
 4840000   0.54918545   -2.1119584   -2.1119584   -1.4621256  0.026878554   -2.1119584   0.64983281   394851 
 4850000   0.54945778   -2.1112051   -2.1112051   -1.4609611  0.035079765   -2.1112051   0.65024397   394797 
 4860000   0.54851969   -2.1094086   -2.1094086    -1.460186  0.018545837   -2.1094086    0.6492226   394743 
 4870000   0.54853215   -2.1097584   -2.1097584   -1.4604322  0.030009804   -2.1097584   0.64932618   394689 
 4880000    0.5482805   -2.1099494   -2.1099494   -1.4608323  0.030971875   -2.1099494    0.6491171   394635 
 4890000   0.54926003   -2.1121452   -2.1121452   -1.4617795  0.022769048   -2.1121452   0.65036577   394581 
 4900000    0.5482896   -2.1118954   -2.1118954   -1.4625899  0.036303893   -2.1118954   0.64930556   394527 
 4910000   0.54784706   -2.1101681   -2.1101681   -1.4612978  0.030176378   -2.1101681   0.64887031   394473 
 4920000   0.54756691   -2.1112532   -2.1112532   -1.4626259  0.033427876   -2.1112532   0.64862729   394419 
 4930000    0.5474292   -2.1113449   -2.1113449    -1.462792  0.032273203   -2.1113449   0.64855295   394365 
 4940000   0.54832291   -2.1119475   -2.1119475   -1.4622468  0.029817086   -2.1119475   0.64970072   394311 
 4950000   0.54630143   -2.1088321   -2.1088321   -1.4614379  0.031412563   -2.1088321   0.64739415   394257 
 4960000   0.54668228    -2.108863    -2.108863   -1.4609288  0.037434674    -2.108863   0.64793422   394203 
 4970000   0.54756361   -2.1098842   -2.1098842   -1.4608165  0.029392734   -2.1098842    0.6490677   394149 
 4980000   0.54854248   -2.1112357   -2.1112357   -1.4609185  0.029540841   -2.1112357   0.65031713   394095 
 4990000   0.54637107   -2.1093284   -2.1093284   -1.4614968  0.031006969   -2.1093284    0.6478316   394041 
 5000000   0.54721913   -2.1111109   -2.1111109   -1.4621832  0.032536911   -2.1111109   0.64892773   393986 
 5010000   0.54607122    -2.110591    -2.110591   -1.4629358  0.034120294    -2.110591   0.64765523   393932 
 5020000   0.54766434   -2.1107572   -2.1107572   -1.4611235  0.026701233   -2.1107572   0.64963376   393878 
 5030000   0.54636756   -2.1082014   -2.1082014    -1.460017   0.03320138   -2.1082014    0.6481844   393824 
 5040000   0.54691893   -2.1095876   -2.1095876   -1.4606601  0.031203912   -2.1095876   0.64892749   393770 
 5050000   0.54705509     -2.10927     -2.10927   -1.4600919  0.029601512     -2.10927   0.64917808   393716 
 5060000   0.54661856   -2.1093442   -2.1093442   -1.4605952  0.029765271   -2.1093442   0.64874904   393662 
 5070000   0.54653696   -2.1077137   -2.1077137   -1.4589725  0.034326388   -2.1077137   0.64874118   393608 
 5080000   0.54536504   -2.1080357   -2.1080357   -1.4605968   0.03069192   -2.1080357   0.64743893   393554 
 5090000    0.5451883   -2.1089165   -2.1089165   -1.4615986  0.033037315   -2.1089165   0.64731793   393500 
 5100000   0.54674476   -2.1081071   -2.1081071    -1.458852  0.020343018   -2.1081071   0.64925506   393446 
 5110000   0.54506937   -2.1053112   -2.1053112   -1.4579568  0.030105193   -2.1053112    0.6473544   393392 
 5120000   0.54638125   -2.1070066   -2.1070066   -1.4580051  0.034795581   -2.1070066   0.64900154   393338 
 5130000   0.54597844    -2.105687    -2.105687   -1.4570748  0.035105902    -2.105687   0.64861212   393284 
 5140000   0.54620333   -2.1061643   -2.1061643   -1.4571959    0.0308081   -2.1061643   0.64896839   393230 
 5150000   0.54550953   -2.1069236   -2.1069236   -1.4586905  0.031797908   -2.1069236   0.64823308   393176 
 5160000   0.54512973   -2.1067599   -2.1067599   -1.4588892  0.031087607   -2.1067599   0.64787074   393122 
 5170000   0.54590771   -2.1067685   -2.1067685    -1.457884  0.032248844   -2.1067685   0.64888448   393068 
 5180000   0.54617952   -2.1079263   -2.1079263   -1.4586279   0.03094342   -2.1079263   0.64929841   393013 
 5190000   0.54487222   -2.1094073   -2.1094073    -1.461574  0.030130245   -2.1094073   0.64783331   392959 
 5200000   0.54568107   -2.1088865   -2.1088865   -1.4600023  0.027331603   -2.1088865   0.64888418   392905 
 5210000   0.54554474   -2.1064414   -2.1064414   -1.4576301  0.033350715   -2.1064414   0.64881123   392851 
 5220000    0.5454819   -2.1077308   -2.1077308   -1.4589051  0.034764289   -2.1077308   0.64882568   392797 
 5230000   0.54434609   -2.1068094   -2.1068094   -1.4592457  0.035215328   -2.1068094   0.64756371   392743 
 5240000   0.54523608   -2.1079509   -2.1079509   -1.4592392  0.033316955   -2.1079509   0.64871165   392689 
 5250000   0.54467418   -2.1075183   -2.1075183    -1.459386  0.029627529   -2.1075183   0.64813225   392635 
 5260000   0.54546475   -2.1077985   -2.1077985   -1.4586362  0.026087039   -2.1077985   0.64916226   392581 
 5270000   0.54500507   -2.1067255   -2.1067255   -1.4580211  0.024126408   -2.1067255   0.64870442   392527 
 5280000   0.54385132   -2.1057152   -2.1057152    -1.458295  0.035780911   -2.1057152   0.64742021   392473 
 5290000   0.54385265   -2.1068956   -2.1068956   -1.4593848  0.035585158   -2.1068956   0.64751088   392419 
 5300000   0.54292122   -2.1071317   -2.1071317   -1.4606408  0.036432724   -2.1071317   0.64649088   392365 
 5310000   0.54386116   -2.1080481   -2.1080481   -1.4603489  0.032282282   -2.1080481   0.64769927   392311 
 5320000   0.54330758   -2.1078516   -2.1078516   -1.4607226  0.032881721   -2.1078516   0.64712907   392257 
 5330000   0.54305504   -2.1081799   -2.1081799   -1.4612626  0.031781681   -2.1081799   0.64691733   392203 
 5340000   0.54308787   -2.1095373   -2.1095373   -1.4624918  0.036022886   -2.1095373   0.64704552   392149 
 5350000   0.54346299    -2.108485    -2.108485   -1.4609034  0.034442056    -2.108485   0.64758162   392095 
 5360000   0.54332915   -2.1066305   -2.1066305   -1.4591192   0.02885615   -2.1066305   0.64751132   392041 
 5370000   0.54343133   -2.1087865   -2.1087865   -1.4610625   0.02908636   -2.1087865   0.64772396   391986 
 5380000   0.54436983   -2.1092877   -2.1092877   -1.4603558  0.031808865   -2.1092877   0.64893197   391932 
 5390000   0.54314671   -2.1080751   -2.1080751    -1.460512   0.02921506   -2.1080751   0.64756313   391878 
 5400000   0.54340238   -2.1081934   -2.1081934   -1.4602362  0.036379136   -2.1081934   0.64795724   391824 
 5410000   0.54210279   -2.1068681   -2.1068681   -1.4603714  0.025814978   -2.1068681    0.6464967   391770 
 5420000   0.54228871   -2.1055632   -2.1055632   -1.4587556  0.030887107   -2.1055632   0.64680758   391716 
 5430000   0.54207788   -2.1060969   -2.1060969   -1.4594516  0.021878897   -2.1060969   0.64664526   391662 
 5440000     0.541354   -2.1052591   -2.1052591   -1.4593883  0.037194175   -2.1052591   0.64587079   391608 
 5450000    0.5415708   -2.1054709   -2.1054709   -1.4592523  0.029180774   -2.1054709   0.64621855   391554 
 5460000   0.54274299   -2.1069804   -2.1069804   -1.4592738  0.026727376   -2.1069804   0.64770657   391500 
 5470000   0.54278848   -2.1062779   -2.1062779   -1.4584277  0.032739701   -2.1062779   0.64785022   391446 
 5480000   0.54242731   -2.1068551   -2.1068551   -1.4593466  0.034333222   -2.1068551   0.64750846   391392 
 5490000   0.54146149   -2.1058834   -2.1058834   -1.4594386  0.028098809   -2.1058834   0.64644473   391338 
 5500000   0.54184473   -2.1056458   -2.1056458   -1.4586543  0.024872868   -2.1056458   0.64699156   391284 
 5510000   0.54087347   -2.1055196   -2.1055196   -1.4595987  0.033432437   -2.1055196   0.64592096   391230 
 5520000   0.54057468   -2.1050043   -2.1050043   -1.4593511  0.027534092   -2.1050043   0.64565326   391176 
 5530000   0.54114309   -2.1061129   -2.1061129   -1.4596915  0.038410796   -2.1061129   0.64642139   391122 
 5540000   0.53904978   -2.1050135   -2.1050135   -1.4610037  0.028863477   -2.1050135   0.64400975   391068 
 5550000   0.54138127   -2.1072086   -2.1072086   -1.4603224  0.030198682   -2.1072086   0.64688619   391013 
 5560000   0.54088225   -2.1049564   -2.1049564   -1.4585772  0.030777057   -2.1049564   0.64637918   390959 
 5570000   0.54227796   -2.1050505   -2.1050505   -1.4569138  0.028087675   -2.1050505   0.64813664   390905 
 5580000   0.53988582   -2.1044249   -2.1044249   -1.4590582  0.027765734   -2.1044249   0.64536668   390851 
 5590000   0.54005355   -2.1047961   -2.1047961   -1.4591397  0.031420075   -2.1047961   0.64565639   390797 
 5600000   0.53908465   -2.1040511   -2.1040511    -1.459464  0.035888889   -2.1040511   0.64458709   390743 
 5610000   0.53906138   -2.1032557   -2.1032557   -1.4586073  0.034154081   -2.1032557   0.64464836   390689 
 5620000   0.54098146    -2.106445    -2.106445    -1.459411  0.032883773    -2.106445   0.64703397   390635 
 5630000   0.53998823   -2.1056215   -2.1056215   -1.4596862  0.026419388   -2.1056215   0.64593531   390581 
 5640000   0.53943943   -2.1027015   -2.1027015   -1.4573334  0.034126998   -2.1027015   0.64536806   390527 
 5650000   0.53972841   -2.1021376   -2.1021376   -1.4563345   0.02618141   -2.1021376   0.64580308   390473 
 5660000   0.53955763   -2.1022136   -2.1022136   -1.4565256     0.029025   -2.1022136   0.64568804   390419 
 5670000   0.54005737   -2.1028949   -2.1028949   -1.4565194  0.029949045   -2.1028949   0.64637548   390365 
 5680000   0.53870951   -2.1019412   -2.1019412   -1.4570897   0.03715899   -2.1019412   0.64485148   390311 
 5690000   0.54139635   -2.1044211   -2.1044211   -1.4562637  0.041253075   -2.1044211   0.64815738   390257 
 5700000   0.53962324   -2.1018656   -2.1018656   -1.4557416  0.024447055   -2.1018656   0.64612402   390203 
 5710000    0.5399311   -2.1033457   -2.1033457   -1.4567635  0.032750762   -2.1033457   0.64658212   390149 
 5720000   0.54037385   -2.1040662   -2.1040662   -1.4568643  0.036104281   -2.1040662   0.64720191   390095 
 5730000   0.53953504   -2.1035801   -2.1035801   -1.4572933  0.027374994   -2.1035801   0.64628674   390041 
 5740000   0.53965297   -2.1039047   -2.1039047   -1.4573855  0.026149056   -2.1039047   0.64651916   389986 
 5750000   0.53966818   -2.1041676   -2.1041676   -1.4575407  0.034294566   -2.1041676   0.64662693   389932 
 5760000   0.53891508   -2.1038976   -2.1038976   -1.4580836  0.028695754   -2.1038976     0.645814   389878 
 5770000   0.53939487   -2.1027057   -2.1027057   -1.4562272  0.025242231   -2.1027057    0.6464785   389824 
 5780000   0.53921263    -2.102274    -2.102274   -1.4559243  0.032143467    -2.102274   0.64634962   389770 
 5790000   0.53885147   -2.1019962   -2.1019962     -1.45599  0.021399919   -2.1019962    0.6460062   389716 
 5800000   0.53982052   -2.1031364   -2.1031364   -1.4558787  0.028995549   -2.1031364   0.64725764   389662 
 5810000   0.53871989   -2.1028601   -2.1028601   -1.4568326  0.033334496   -2.1028601   0.64602749   389608 
 5820000   0.53878134   -2.1025506   -2.1025506   -1.4563598  0.033731671   -2.1025506   0.64619074   389554 
 5830000   0.53743647   -2.1016656   -2.1016656   -1.4569985  0.029899589   -2.1016656   0.64466712   389500 
 5840000   0.53962225   -2.1046107   -2.1046107   -1.4572319  0.039093273   -2.1046107   0.64737876   389446 
 5850000   0.53814488   -2.1019754   -2.1019754   -1.4562795  0.029446448   -2.1019754   0.64569591   389392 
 5860000   0.53777197   -2.1013356   -2.1013356   -1.4559976  0.029705476   -2.1013356   0.64533796   389338 
 5870000    0.5392857   -2.1039958   -2.1039958   -1.4567515  0.035247959   -2.1039958   0.64724425   389284 
 5880000   0.53636206   -2.0998451   -2.0998451   -1.4560205  0.024005797   -2.0998451   0.64382463   389230 
 5890000   0.53722191   -2.1020689   -2.1020689   -1.4571227  0.036858908   -2.1020689   0.64494624   389176 
 5900000   0.53711099   -2.1007364   -2.1007364   -1.4558338  0.029507147   -2.1007364   0.64490256   389122 
 5910000    0.5364041    -2.100387    -2.100387   -1.4562438  0.027936619    -2.100387    0.6441432   389068 
 5920000   0.53712218   -2.1015606   -2.1015606   -1.4564639  0.032096179   -2.1015606   0.64509669   389013 
 5930000   0.53689292   -2.1025471   -2.1025471   -1.4576362  0.028533237   -2.1025471   0.64491087   388959 
 5940000   0.53610045   -2.1032161   -2.1032161   -1.4591677   0.03095627   -2.1032161   0.64404838   388905 
 5950000   0.53729702   -2.1029797   -2.1029797   -1.4574042  0.024816368   -2.1029797   0.64557552   388851 
 5960000   0.53719241   -2.1021288   -2.1021288   -1.4565893  0.032656487   -2.1021288   0.64553948   388797 
 5970000   0.53728219   -2.1015912   -2.1015912   -1.4558541  0.039131032   -2.1015912   0.64573706   388743 
 5980000   0.53816711   -2.1022318   -2.1022318   -1.4553413  0.038617899   -2.1022318   0.64689047   388689 
 5990000   0.53678329   -2.1000056   -2.1000056   -1.4546889  0.029335334   -2.1000056   0.64531673   388635 
 6000000    0.5362855    -2.101208    -2.101208   -1.4564001   0.02551882    -2.101208   0.64480788   388581 
 6010000   0.53630463   -2.1015826   -2.1015826   -1.4566621  0.033844095   -2.1015826   0.64492051   388527 
 6020000   0.53687648   -2.1013158   -2.1013158   -1.4556179  0.035937435   -2.1013158   0.64569792   388473 
 6030000   0.53526735   -2.0987902   -2.0987902    -1.454938  0.022359418   -2.0987902   0.64385213   388419 
 6040000      0.53629   -2.1009363   -2.1009363   -1.4557644   0.03694283   -2.1009363   0.64517193   388365 
 6050000   0.53584261   -2.0995663   -2.0995663   -1.4548429  0.032230347   -2.0995663   0.64472335   388311 
 6060000   0.53707492   -2.1010539   -2.1010539    -1.454758  0.032712291   -2.1010539   0.64629594   388257 
 6070000   0.53565622   -2.0989526   -2.0989526   -1.4542742  0.033961889   -2.0989526   0.64467839   388203 
 6080000   0.53503625    -2.099695    -2.099695   -1.4556732  0.030086106    -2.099695   0.64402183   388149 
 6090000    0.5358477   -2.1012175   -2.1012175   -1.4561291  0.029873436   -2.1012175   0.64508831   388095 
 6100000   0.53523245   -2.0998113   -2.0998113    -1.455374  0.032474468   -2.0998113    0.6444373   388041 
 6110000   0.53494994   -2.1007096   -2.1007096   -1.4565212  0.026948726   -2.1007096   0.64418845   387986 
 6120000   0.53635684    -2.103005    -2.103005   -1.4570325  0.030483069    -2.103005   0.64597255   387932 
 6130000   0.53376367   -2.1005077   -2.1005077   -1.4575688  0.038294867   -2.1005077   0.64293891   387878 
 6140000   0.53446318   -2.1009617   -2.1009617   -1.4570905   0.02517772   -2.1009617   0.64387114   387824 
 6150000   0.53479584   -2.1001745   -2.1001745   -1.4558129  0.032033681   -2.1001745   0.64436162   387770 
 6160000   0.53332985   -2.0987505   -2.0987505   -1.4560658  0.027818143   -2.0987505   0.64268478   387716 
 6170000   0.53594216     -2.10183     -2.10183   -1.4559073   0.02846182     -2.10183   0.64592268   387662 
 6180000   0.53576158   -2.1022499   -2.1022499   -1.4564549  0.031121515   -2.1022499     0.645795   387608 
 6190000   0.53447701   -2.0999105   -2.0999105   -1.4555741  0.024230113   -2.0999105   0.64433638   387554 
 6200000   0.53422943    -2.101164    -2.101164   -1.4570364  0.033132839    -2.101164   0.64412767   387500 
 6210000    0.5341458    -2.101528    -2.101528   -1.4574114  0.035317275    -2.101528   0.64411659   387446 
 6220000    0.5329647   -2.1003873   -2.1003873   -1.4576053  0.029376037   -2.1003873   0.64278191   387392 
 6230000   0.53491096   -2.1033183   -2.1033183   -1.4580991   0.02790679   -2.1033183   0.64521914   387338 
 6240000   0.53331351   -2.1017078   -2.1017078   -1.4583258  0.032010411   -2.1017078   0.64338196   387284 
 6250000    0.5326414   -2.1007485   -2.1007485   -1.4580878   0.03278512   -2.1007485   0.64266075   387230 
 6260000    0.5339044   -2.1028358   -2.1028358   -1.4585614  0.031240363   -2.1028358   0.64427446   387176 
 6270000   0.53312103   -2.1008751   -2.1008751   -1.4574562  0.025988324   -2.1008751   0.64341889   387122 
 6280000   0.53389153   -2.1031317   -2.1031317    -1.458693  0.028647432   -2.1031317    0.6444387   387068 
 6290000   0.53376356   -2.1041033   -2.1041033   -1.4597275  0.032125936   -2.1041033   0.64437579   387013 
 6300000   0.53282641   -2.1012079   -2.1012079   -1.4578737  0.032254431   -2.1012079    0.6433342   386959 
 6310000   0.53258972   -2.1004783   -2.1004783   -1.4573402  0.026993945   -2.1004783   0.64313817   386905 
 6320000   0.53385739   -2.1017558   -2.1017558   -1.4569968  0.032882911   -2.1017558   0.64475895   386851 
 6330000   0.53193077   -2.1014501   -2.1014501   -1.4589283  0.030172726   -2.1014501    0.6425218   386797 
 6340000   0.53329715   -2.1028771   -2.1028771   -1.4586149  0.034001417   -2.1028771    0.6442622   386743 
 6350000   0.53195743   -2.1011515   -2.1011515    -1.458418  0.026014789   -2.1011515   0.64273346   386689 
 6360000   0.53223416    -2.103094    -2.103094   -1.4599363  0.024118535    -2.103094   0.64315763   386635 
 6370000   0.53303627    -2.102959    -2.102959   -1.4587422  0.030464516    -2.102959   0.64421689   386581 
 6380000   0.53238915   -2.1010681   -2.1010681   -1.4575434  0.028436465   -2.1010681   0.64352468   386527 
 6390000   0.53223127   -2.0991141   -2.0991141   -1.4556904  0.026373817   -2.0991141   0.64342374   386473 
 6400000   0.53224816    -2.100667    -2.100667   -1.4571329  0.029114859    -2.100667   0.64353407   386419 
 6410000   0.52984989   -2.0994119   -2.0994119    -1.458688  0.028352868   -2.0994119   0.64072389   386365 
 6420000   0.53294433   -2.1024955   -2.1024955   -1.4579395  0.036232397   -2.1024955   0.64455595   386311 
 6430000   0.53069163   -2.0990551   -2.0990551   -1.4571339  0.025320397   -2.0990551   0.64192121   386257 
 6440000   0.53123476   -2.1008779   -2.1008779   -1.4582099  0.040936582   -2.1008779   0.64266802   386203 
 6450000   0.53082882   -2.1020852   -2.1020852   -1.4598184  0.028178455   -2.1020852   0.64226673   386149 
 6460000   0.53160357   -2.1002729   -2.1002729   -1.4569788  0.032267811   -2.1002729   0.64329408   386095 
 6470000   0.53165264    -2.099619    -2.099619   -1.4561756  0.033290187    -2.099619   0.64344346   386041 
 6480000   0.53172254    -2.102159    -2.102159   -1.4585392   0.03057946    -2.102159   0.64361976   385986 
 6490000   0.53158151   -2.1032882   -2.1032882   -1.4597491   0.03195194   -2.1032882   0.64353908   385932 
 6500000   0.52983638   -2.0993336   -2.0993336   -1.4578174   0.02951914   -2.0993336   0.64151616   385878 
 6510000   0.52943315   -2.0998131   -2.0998131   -1.4586955   0.02578733   -2.0998131   0.64111766   385824 
[...]
17550000   0.41728514   -1.9799347   -1.9799347   -1.3821667  0.031369621   -1.9799347   0.59776808   326149 
17560000   0.41753613   -1.9794482   -1.9794482   -1.3812215  0.029570316   -1.9794482   0.59822667   326095 
17570000   0.41748981   -1.9801183   -1.9801183   -1.3818589  0.027143047   -1.9801183   0.59825937   326041 
17580000     0.416631   -1.9779808   -1.9779808   -1.3808513  0.032543509   -1.9779808   0.59712944   325986 
17590000   0.41749034   -1.9775791   -1.9775791   -1.3791189  0.038720594   -1.9775791   0.59846021   325932 
17600000   0.41663468   -1.9763921   -1.9763921   -1.3790595  0.027718862   -1.9763921   0.59733261   325878 
17610000   0.41665973   -1.9743655   -1.9743655    -1.376898  0.025817539   -1.9743655   0.59746752   325824 
17620000   0.41793441   -1.9770533   -1.9770533   -1.3776586  0.030067449   -1.9770533   0.59939469   325770 
17630000   0.41746613   -1.9762781   -1.9762781   -1.3774558  0.029424804   -1.9762781   0.59882235   325716 
17640000   0.41648752   -1.9749204   -1.9749204   -1.3774028  0.036552396   -1.9749204   0.59751767   325662 
17650000   0.41678367   -1.9745392   -1.9745392   -1.3764975  0.026858294   -1.9745392   0.59804171   325608 
17660000   0.41704565   -1.9748615   -1.9748615   -1.3763446  0.032134956   -1.9748615   0.59851688   325554 
17670000    0.4160888   -1.9765883   -1.9765883   -1.3793455  0.031853431   -1.9765883   0.59724275   325500 
17680000   0.41618986   -1.9783197   -1.9783197   -1.3808328  0.021441747   -1.9783197   0.59748692   325446 
17690000   0.41570102   -1.9788151   -1.9788151    -1.381931  0.024095697   -1.9788151   0.59688417   325392 
17700000   0.41462377   -1.9766101   -1.9766101   -1.3811738  0.022736048   -1.9766101   0.59543622   325338 
17710000   0.41634361   -1.9767301   -1.9767301   -1.3787248  0.026339324   -1.9767301   0.59800532   325284 
17720000   0.41480251   -1.9730168   -1.9730168   -1.3771261  0.025021349   -1.9730168   0.59589072   325230 
17730000   0.41471923   -1.9761756   -1.9761756   -1.3803055  0.025722728   -1.9761756   0.59587002   325176 
17740000   0.41431326   -1.9741708   -1.9741708   -1.3787852  0.027089683   -1.9741708    0.5953856   325122 
17750000   0.41532838   -1.9730631   -1.9730631   -1.3761196  0.026738914   -1.9730631   0.59694351   325068 
17760000   0.41431723   -1.9728312   -1.9728312   -1.3772403  0.033040258   -1.9728312   0.59559098   325013 
17770000   0.41368932   -1.9745984   -1.9745984   -1.3798113   0.02812839   -1.9745984   0.59478716   324959 
17780000   0.41462885   -1.9766667   -1.9766667   -1.3804297  0.030984532   -1.9766667   0.59623707   324905 
17790000   0.41439011   -1.9780012   -1.9780012   -1.3820084  0.028197554   -1.9780012   0.59599282   324851 
17800000    0.4148351   -1.9764774   -1.9764774   -1.3797454  0.019171402   -1.9764774   0.59673202   324797 
17810000   0.41415325   -1.9742505   -1.9742505   -1.3784003  0.029211363   -1.9742505   0.59585025   324743 
17820000   0.41587649   -1.9746821   -1.9746821   -1.3762531   0.02495993   -1.9746821   0.59842901   324689 
17830000   0.41440976   -1.9755304   -1.9755304   -1.3791127   0.01840582   -1.9755304   0.59641765   324635 
17840000   0.41423733   -1.9754192   -1.9754192   -1.3791505  0.035843085   -1.9754192   0.59626866   324581 
17850000   0.41463692     -1.97427     -1.97427   -1.3773268  0.034134521     -1.97427   0.59694317   324527 
17860000   0.41432042    -1.975141    -1.975141   -1.3785543   0.02983109    -1.975141   0.59658677   324473 
17870000   0.41424433   -1.9718665   -1.9718665     -1.37529  0.025529333   -1.9718665   0.59657649   324419 
17880000   0.41439615   -1.9732066   -1.9732066   -1.3763121  0.035763288   -1.9732066   0.59689449   324365 
17890000   0.41472385   -1.9741421   -1.9741421   -1.3766761  0.034304173   -1.9741421   0.59746598   324311 
17900000   0.41375947   -1.9729493   -1.9729493   -1.3767733  0.021737589   -1.9729493   0.59617592   324257 
17910000   0.41319155    -1.971661    -1.971661   -1.3762042  0.035354197    -1.971661   0.59545679   324203 
17920000   0.41429515   -1.9732088   -1.9732088   -1.3760621  0.028361337   -1.9732088   0.59714666   324149 
17930000    0.4140424   -1.9705068   -1.9705068    -1.373625   0.02916594   -1.9705068    0.5968818   324095 
17940000   0.41317717   -1.9709483   -1.9709483   -1.3752145  0.026655883   -1.9709483   0.59573375   324041 
17950000    0.4132795   -1.9714141   -1.9714141   -1.3754317  0.029546649   -1.9714141   0.59598245   323986 
17960000   0.41349352   -1.9735497   -1.9735497   -1.3771592  0.027584437   -1.9735497   0.59639048   323932 
17970000   0.41358554   -1.9750598   -1.9750598   -1.3784371  0.031813997   -1.9750598   0.59662266   323878 
17980000    0.4130959   -1.9728946   -1.9728946   -1.3768789  0.031487481   -1.9728946   0.59601571   323824 
17990000   0.41401322   -1.9740294   -1.9740294   -1.3765905  0.030576327   -1.9740294   0.59743884   323770 
18000000   0.41330157   -1.9735988   -1.9735988   -1.3770874   0.02808981   -1.9735988   0.59651139   323716 
18010000   0.41346371   -1.9731875   -1.9731875   -1.3763425  0.033048231   -1.9731875   0.59684496   323662 
18020000   0.41219915   -1.9733069   -1.9733069   -1.3781881  0.026390535   -1.9733069   0.59511883   323608 
18030000   0.41270197   -1.9738548   -1.9738548   -1.3779105  0.030564487   -1.9738548   0.59594422   323554 
18040000   0.41237049   -1.9720573   -1.9720573   -1.3764924  0.025388494   -1.9720573   0.59556496   323500 
18050000   0.41427757   -1.9758281   -1.9758281   -1.3774089  0.020654877   -1.9758281   0.59841915   323446 
18060000   0.41203854    -1.971128    -1.971128   -1.3758438   0.02485548    -1.971128   0.59528428   323392 
18070000    0.4118944   -1.9692922   -1.9692922   -1.3741168  0.029033517   -1.9692922   0.59517542   323338 
18080000   0.41254872   -1.9715468   -1.9715468   -1.3753263  0.025712702   -1.9715468   0.59622047   323284 
18090000   0.41195115   -1.9737788   -1.9737788   -1.3783224  0.027665831   -1.9737788   0.59545632   323230 
18100000   0.41141605   -1.9713289   -1.9713289   -1.3765467  0.028433985   -1.9713289   0.59478222   323176 
18110000   0.41122428   -1.9723738   -1.9723738   -1.3777695  0.031332846   -1.9723738   0.59460433   323122 
18120000   0.40989293   -1.9696663   -1.9696663    -1.376888  0.025022261   -1.9696663   0.59277835   323068 
18130000   0.41137418   -1.9718887   -1.9718887   -1.3768669  0.028234821   -1.9718887    0.5950218   323013 
18140000   0.41197619   -1.9706108   -1.9706108   -1.3746186  0.024523309   -1.9706108   0.59599219   322959 
18150000   0.41095113   -1.9716739   -1.9716739   -1.3770652  0.032900422   -1.9716739    0.5946087   322905 
18160000    0.4116046    -1.970533    -1.970533   -1.3748792  0.026618339    -1.970533   0.59565383   322851 
18170000   0.41229206   -1.9711897   -1.9711897   -1.3744413  0.021735554   -1.9711897   0.59674849   322797 
18180000   0.41248576   -1.9700405   -1.9700405   -1.3729117  0.029700628   -1.9700405   0.59712875   322743 
18190000    0.4109126   -1.9701088   -1.9701088   -1.3751578  0.024099211   -1.9701088   0.59495092   322689 
18200000   0.41129326   -1.9720267   -1.9720267    -1.376425  0.027688961   -1.9720267   0.59560174   322635 
18210000   0.41103997   -1.9716731   -1.9716731   -1.3763385  0.028150481   -1.9716731   0.59533459   322581 
18220000   0.40962867   -1.9713212   -1.9713212   -1.3779313  0.029718202   -1.9713212   0.59338985   322527 
18230000   0.41127955    -1.972977    -1.972977   -1.3770959  0.027834759    -1.972977    0.5958811   322473 
18240000   0.41005921   -1.9727613   -1.9727613   -1.3785488  0.026288876   -1.9727613   0.59421251   322419 
18250000   0.40878944   -1.9705917   -1.9705917     -1.37812  0.031311007   -1.9705917   0.59247173   322365 
18260000   0.40942328   -1.9711734   -1.9711734   -1.3776836  0.034755317   -1.9711734   0.59348979   322311 
18270000   0.40996104     -1.97093     -1.97093   -1.3765611  0.039505926     -1.97093    0.5943689   322257 
18280000   0.40932655   -1.9708091   -1.9708091   -1.3772607  0.027951654   -1.9708091   0.59354846   322203 
18290000   0.40981524   -1.9705404   -1.9705404   -1.3761837  0.029910142   -1.9705404    0.5943567   322149 
18300000      0.40978   -1.9713485   -1.9713485   -1.3769433  0.027017975   -1.9713485   0.59440523   322095 
18310000   0.40949681   -1.9708284   -1.9708284   -1.3767344  0.024009373   -1.9708284   0.59409405   322041 
18320000   0.40932131   -1.9716572   -1.9716572   -1.3777164  0.035131295   -1.9716572   0.59394087   321986 
18330000   0.40904505   -1.9729833   -1.9729833   -1.3793437  0.027896116   -1.9729833   0.59363957   321932 
18340000   0.40934059   -1.9721708   -1.9721708   -1.3780027  0.024434327   -1.9721708   0.59416814   321878 
18350000   0.41019935   -1.9744991   -1.9744991   -1.3789846  0.027769069   -1.9744991   0.59551457   321824 
18360000   0.40896721   -1.9726674   -1.9726674    -1.378842  0.029603876   -1.9726674   0.59382542   321770 
18370000   0.40863525   -1.9720362   -1.9720362   -1.3785932  0.023405306   -1.9720362     0.593443   321716 
18380000   0.40868674   -1.9716506   -1.9716506   -1.3780332   0.02672401   -1.9716506   0.59361742   321662 
18390000   0.41018734   -1.9713752   -1.9713752   -1.3754781  0.024128875   -1.9713752   0.59589708   321608 
18400000   0.40903515    -1.970283    -1.970283     -1.37596  0.025702916    -1.970283   0.59432303   321554 
18410000   0.40870524   -1.9703634   -1.9703634     -1.37642  0.024584875   -1.9703634   0.59394342   321500 
18420000   0.40951319   -1.9710413   -1.9710413   -1.3758237  0.031310409   -1.9710413   0.59521754   321446 
18430000    0.4083009   -1.9681849   -1.9681849   -1.3746297  0.022411207   -1.9681849   0.59355521   321392 
18440000   0.40810512   -1.9681781   -1.9681781   -1.3748078  0.016693577   -1.9681781    0.5933703   321338 
18450000   0.40891762   -1.9681509   -1.9681509   -1.3734993  0.031360407   -1.9681509   0.59465158   321284 
18460000   0.40839294   -1.9668539   -1.9668539   -1.3728655  0.022851317   -1.9668539   0.59398841   321230 
18470000   0.40802366   -1.9698455   -1.9698455   -1.3762944  0.035606009   -1.9698455   0.59355109   321176 
18480000   0.40832619   -1.9695491   -1.9695491    -1.375458   0.03511545   -1.9695491   0.59409107   321122 
18490000   0.40838884   -1.9709593   -1.9709593   -1.3766772  0.030683283   -1.9709593   0.59428216   321068 
18500000    0.4076243   -1.9705117   -1.9705117   -1.3772404  0.023758332   -1.9705117   0.59327124   321013 
18510000   0.40757661   -1.9721863   -1.9721863   -1.3788847  0.026293525   -1.9721863   0.59330163   320959 
18520000   0.40728405   -1.9696199   -1.9696199   -1.3766444  0.032851483   -1.9696199   0.59297553   320905 
18530000   0.40765591   -1.9703305   -1.9703305   -1.3767137   0.03267712   -1.9703305   0.59361681   320851 
18540000   0.40705114     -1.96743     -1.96743   -1.3745941  0.034145642     -1.96743   0.59283594   320797 
18550000   0.40800198   -1.9694084   -1.9694084   -1.3750876  0.029534611   -1.9694084    0.5943208   320743 
18560000   0.40800315   -1.9685217   -1.9685217   -1.3740991  0.030359252   -1.9685217   0.59442259   320689 
18570000    0.4077766   -1.9689989   -1.9689989   -1.3748063  0.029844715   -1.9689989   0.59419258   320635 
18580000     0.407439   -1.9665231   -1.9665231   -1.3727225  0.031426038   -1.9665231   0.59380065   320581 
18590000   0.40805497   -1.9675668   -1.9675668   -1.3727682   0.02669986   -1.9675668   0.59479855   320527 
18600000   0.40709109   -1.9675209   -1.9675209   -1.3740274  0.021903954   -1.9675209   0.59349355   320473 
18610000   0.40672002   -1.9670167   -1.9670167   -1.3739642  0.023039048   -1.9670167    0.5930525   320419 
18620000   0.40610475   -1.9645615   -1.9645615   -1.3723063  0.037847325   -1.9645615   0.59225516   320365 
18630000   0.40716235   -1.9661143   -1.9661143   -1.3722166  0.032457466   -1.9661143   0.59389765   320311 
18640000   0.40627572   -1.9644862   -1.9644862   -1.3717819  0.027389084   -1.9644862   0.59270431   320257 
18650000   0.40677166   -1.9645063   -1.9645063   -1.3709784  0.034842055   -1.9645063   0.59352791   320203 
18660000   0.40716673   -1.9652319   -1.9652319   -1.3710273  0.031201607   -1.9652319   0.59420457   320149 
18670000   0.40535595   -1.9619346   -1.9619346   -1.3702729  0.020236475   -1.9619346   0.59166177   320095 
18680000   0.40608079   -1.9617747   -1.9617747    -1.368955   0.02525279   -1.9617747   0.59281976   320041 
18690000   0.40593149   -1.9631041   -1.9631041   -1.3704004  0.026447059   -1.9631041   0.59270367   319986 
18700000   0.40631547   -1.9665198   -1.9665198   -1.3731553  0.025747903   -1.9665198   0.59336445   319932 
18710000   0.40589099   -1.9659525   -1.9659525   -1.3731079  0.022641945   -1.9659525   0.59284462   319878 
18720000   0.40653503   -1.9637128   -1.9637128   -1.3698273  0.030342458   -1.9637128   0.59388557   319824 
18730000   0.40573005   -1.9626949   -1.9626949   -1.3698851  0.028950624   -1.9626949   0.59280971   319770 
18740000   0.40585836    -1.962335    -1.962335   -1.3692377  0.026278928    -1.962335   0.59309734   319716 
18750000   0.40541142   -1.9634623   -1.9634623    -1.370918  0.021263074   -1.9634623   0.59254428   319662 
18760000   0.40673698   -1.9657179   -1.9657179   -1.3711357  0.030636594   -1.9657179   0.59458215   319608 
18770000    0.4057113   -1.9624534   -1.9624534   -1.3692704  0.034421215   -1.9624534     0.593183   319554 
18780000   0.40543355   -1.9623113   -1.9623113   -1.3694342  0.025339559   -1.9623113    0.5928771   319500 
18790000   0.40504686    -1.961594    -1.961594   -1.3691822  0.032495088    -1.961594   0.59241175   319446 
18800000   0.40415018    -1.961053    -1.961053   -1.3698527  0.040698147    -1.961053   0.59120023   319392 
18810000   0.40462905   -1.9634704   -1.9634704   -1.3714696  0.032249837   -1.9634704   0.59200082   319338 
18820000   0.40484258    -1.965266    -1.965266   -1.3728526  0.027120216    -1.965266    0.5924134   319284 
18830000   0.40415674   -1.9634198   -1.9634198     -1.37191  0.025398509   -1.9634198   0.59150984   319230 
18840000   0.40402976   -1.9618226   -1.9618226   -1.3703985  0.033938353   -1.9618226   0.59142405   319176 
18850000   0.40384249   -1.9617932   -1.9617932   -1.3705433  0.031771289   -1.9617932   0.59124995   319122 
18860000   0.40505065   -1.9629759   -1.9629759   -1.3698568  0.022867155   -1.9629759   0.59311913   319068 
18870000   0.40425307   -1.9600627   -1.9600627   -1.3680095    0.0246102   -1.9600627   0.59205328   319013 
18880000   0.40397254   -1.9620515   -1.9620515   -1.3703089  0.027518033   -1.9620515    0.5917426   318959 
18890000   0.40414592   -1.9637519   -1.9637519   -1.3716551  0.029400829   -1.9637519   0.59209681   318905 
18900000   0.40433346   -1.9629699   -1.9629699    -1.370498  0.034108211   -1.9629699   0.59247188   318851 
18910000   0.40459083   -1.9639044   -1.9639044    -1.370955  0.024914677   -1.9639044   0.59294944   318797 
18920000    0.4042467   -1.9614709   -1.9614709   -1.3689254  0.027753688   -1.9614709   0.59254546   318743 
18930000   0.40468807   -1.9645417   -1.9645417   -1.3712487  0.022689294   -1.9645417   0.59329293   318689 
18940000   0.40382227   -1.9603565   -1.9603565   -1.3682326  0.025974274   -1.9603565   0.59212396   318635 
18950000   0.40462059   -1.9623828   -1.9623828   -1.3689877  0.025435077   -1.9623828   0.59339511   318581 
18960000   0.40299392   -1.9602455   -1.9602455   -1.3691358  0.028220652   -1.9602455    0.5911097   318527 
18970000    0.4034513   -1.9609922   -1.9609922   -1.3691113  0.029468045   -1.9609922   0.59188094   318473 
18980000   0.40299647   -1.9580281   -1.9580281   -1.3667141  0.021874953   -1.9580281   0.59131394   318419 
18990000   0.40206489   -1.9564139   -1.9564139   -1.3663668  0.023109076   -1.9564139   0.59004711   318365 
19000000    0.4025266   -1.9607297   -1.9607297   -1.3699048  0.034139358   -1.9607297    0.5908249   318311 
19010000   0.40318113   -1.9608175   -1.9608175   -1.3689315  0.029611512   -1.9608175   0.59188602   318257 
19020000   0.40262236   -1.9603279   -1.9603279   -1.3691619  0.023118377   -1.9603279   0.59116603   318203 
19030000   0.40308743   -1.9596018   -1.9596018   -1.3676525  0.028828353   -1.9596018   0.59194934   318149 
19040000   0.40188669   -1.9586695   -1.9586695   -1.3683833  0.023054781   -1.9586695    0.5902862   318095 
19050000   0.40213257   -1.9591812   -1.9591812   -1.3684335  0.030776764   -1.9591812   0.59074763   318041 
19060000   0.40219097   -1.9573201   -1.9573201   -1.3663845   0.03185184   -1.9573201   0.59093562   317986 
19070000   0.40255174   -1.9588986   -1.9588986   -1.3673324  0.031727045   -1.9588986   0.59156615   317932 
19080000   0.40204735   -1.9579561   -1.9579561   -1.3670308  0.034357803   -1.9579561    0.5909253   317878 
19090000   0.40268273   -1.9592491   -1.9592491   -1.3672893  0.030073215   -1.9592491   0.59195973   317824 
19100000   0.40263625   -1.9605881   -1.9605881   -1.3685961   0.03389833   -1.9605881   0.59199198   317770 
19110000   0.40158074   -1.9582688   -1.9582688   -1.3677284  0.024482553   -1.9582688   0.59054043   317716 
19120000   0.40262109   -1.9589352   -1.9589352   -1.3667643  0.028719531   -1.9589352   0.59217095   317662 
19130000   0.40325922   -1.9616292   -1.9616292   -1.3684189  0.030872727   -1.9616292   0.59321035   317608 
19140000   0.40158612   -1.9593334   -1.9593334   -1.3684838  0.020165393   -1.9593334   0.59084961   317554 
19150000   0.40142442   -1.9567891   -1.9567891    -1.366077  0.028452924   -1.9567891   0.59071215   317500 
19160000   0.40146632   -1.9584336   -1.9584336   -1.3675593  0.032209056   -1.9584336    0.5908743   317446 
19170000    0.4009091   -1.9550187   -1.9550187   -1.3648642  0.029236396   -1.9550187   0.59015458   317392 
19180000   0.40106995   -1.9569377   -1.9569377   -1.3664459  0.023451622   -1.9569377   0.59049183   317338 
19190000   0.40207722   -1.9567889   -1.9567889   -1.3647133  0.028572294   -1.9567889   0.59207557   317284 
19200000   0.40171962   -1.9573683   -1.9573683   -1.3657186  0.026592492   -1.9573683   0.59164969   317230 
19210000   0.40035361    -1.957723    -1.957723   -1.3679848   0.02503646    -1.957723   0.58973822   317176 
19220000   0.40113093   -1.9620347   -1.9620347   -1.3710509  0.032449182   -1.9620347   0.59098387   317122 
19230000   0.40220355   -1.9602335   -1.9602335   -1.3675684   0.02484206   -1.9602335   0.59266508   317068 
19240000   0.40099451   -1.9581306   -1.9581306   -1.3671445  0.025868511   -1.9581306   0.59098601   317013 
19250000   0.40023952   -1.9556312   -1.9556312   -1.3656573  0.031624963   -1.9556312   0.58997381   316959 
19260000   0.40030271   -1.9556984   -1.9556984   -1.3655309  0.032587015   -1.9556984    0.5901675   316905 
19270000   0.40062884   -1.9542768   -1.9542768   -1.3635278  0.025040868   -1.9542768   0.59074898   316851 
19280000   0.40162249   -1.9558357   -1.9558357   -1.3635206  0.039416273   -1.9558357   0.59231512   316797 
19290000   0.39965565   -1.9536653   -1.9536653   -1.3641504   0.03086488   -1.9536653   0.58951489   316743 
19300000   0.40100457   -1.9579142   -1.9579142   -1.3663087  0.029721998   -1.9579142   0.59160548   316689 
19310000   0.40049422   -1.9541925   -1.9541925   -1.3632392  0.037101497   -1.9541925   0.59095333   316635 
19320000   0.39935943   -1.9537144   -1.9537144    -1.364335  0.033054854   -1.9537144   0.58937939   316581 
19330000   0.39963714   -1.9554456   -1.9554456   -1.3655558  0.027289839   -1.9554456   0.58988986   316527 
19340000    0.4004969   -1.9560593   -1.9560593   -1.3647995  0.040369675   -1.9560593   0.59125978   316473 
19350000   0.39922848   -1.9536818   -1.9536818    -1.364194  0.024817102   -1.9536818   0.58948778   31