LAMMPS (24 Dec 2020)
OMP_NUM_THREADS environment is not set. Defaulting to 1 thread. (src/comm.cpp:94)
  using 1 OpenMP thread(s) per MPI task
#Read the equilibrated lj fluid and add nanocubes

units           lj
atom_style      full
#atom_modify     map array first cubes
dimension       3
boundary        p p f
pair_style      lj/cut/opt 2.5

variable        sigma           equal 1.0
variable        epsilon         equal 1.0

read_restart	restart.dat.1000000
Reading restart file ...
  restart file = 24 Dec 2020, LAMMPS = 24 Dec 2020
  restoring atom style full from restart
  orthogonal box = (0.0000000 0.0000000 0.0000000) to (160.00000 160.00000 320.00000)
  5 by 4 by 12 MPI processor grid
  restoring pair style lj/cut/opt from restart
  4233413 atoms
Finding 1-2 1-3 1-4 neighbors ...
  special bond factors lj:    0        0        0       
  special bond factors coul:  0        0        0       
     0 = max # of 1-2 neighbors
     0 = max # of 1-3 neighbors
     0 = max # of 1-4 neighbors
     1 = max # of special neighbors
  special bonds CPU = 1.898 seconds
  read_restart CPU = 3.611 seconds

neighbor      0.4 bin
neigh_modify  exclude molecule/intra cubes


pair_modify   shift yes

pair_coeff    1 1 1.0 1.0 #solvent
pair_coeff    2 2 0.6 1.0 #np
pair_coeff    3 3 0.0 0.0 0.0 #dummy
pair_coeff    2 3 0.0 0.0 0.0 #np dummy
pair_coeff    1 2 0.8 1.0 #np solvent
pair_coeff    1 3 0.0 0.0 0.0 #dummy solvent


comm_modify   mode multi cutoff/multi 1 2.5 cutoff/multi 2 2.5 cutoff/multi 3 6.95

reset_timestep 	0

balance 	1.05 shift z 10 1.05
Balancing ...
Unused restart file global fix info:
  fix style: STORE, fix ID: msd_COMPUTE_STORE
Neighbor list info ...
  update every 1 steps, delay 10 steps, check yes
  max neighbors/atom: 2000, page size: 100000
  master list distance cutoff = 2.9
  ghost atom cutoff = 6.95
  binsize = 1.45, bins = 111 111 221
  1 neighbor lists, perpetual/occasional/extra = 1 0 0
  (1) pair lj/cut/opt, perpetual
      attributes: half, newton on
      pair build: half/bin/newton
      stencil: half/bin/3d/newton
      bin: standard
 rebalancing time: 0.066 seconds
  iteration count = 4
  initial/final maximal load/proc = 30442.000 25144.000
  initial/final imbalance factor  = 1.7258132 1.4254598
  x cuts: 0.0000000 0.20000000 0.40000000 0.60000000 0.80000000 1.0000000
  y cuts: 0.0000000 0.25000000 0.50000000 0.75000000 1.0000000
  z cuts: 0.0000000 0.057291667 0.10937500 0.15625000 0.21875000 0.26041667 0.32812500 0.38020833 0.43229167 0.47916667 0.52083333 0.60416667 1.0000000

####################### WALLS ###########################

variable       epsilonWall equal 2*${epsilon}
variable       epsilonWall equal 2*1

variable       cutoffTop   equal   0.7147*${sigma}
variable       cutoffTop   equal   0.7147*1

variable       cutoffLow   equal   3*${sigma}
variable       cutoffLow   equal   3*1

region         lowWall block EDGE EDGE EDGE EDGE EDGE 2


fix            topWall all wall/lj93 zhi EDGE 	       ${epsilonWall} ${sigma} ${cutoffTop} units box
fix            topWall all wall/lj93 zhi EDGE 	       2 ${sigma} ${cutoffTop} units box
fix            topWall all wall/lj93 zhi EDGE 	       2 1 ${cutoffTop} units box
fix            topWall all wall/lj93 zhi EDGE 	       2 1 0.7147 units box

fix            lowWall all wall/lj93 zlo EDGE                ${epsilonWall} ${sigma} ${cutoffLow} units box
fix            lowWall all wall/lj93 zlo EDGE                2 ${sigma} ${cutoffLow} units box
fix            lowWall all wall/lj93 zlo EDGE                2 1 ${cutoffLow} units box
fix            lowWall all wall/lj93 zlo EDGE                2 1 3 units box


######################  FIXES ############################


fix             1 cubes rigid/nve/small molecule #temp 1.0 1.0 0.25
  create bodies CPU = 0.028 seconds
  512 rigid bodies with 585216 atoms
  6.9282032 = max distance from body owner to body atom

fix             2 solvent nve


## Thermostat

region          regthermo block EDGE EDGE EDGE EDGE 0 20
group           thermo dynamic solvent region regthermo every 1000
dynamic group thermo defined
fix             3 thermo langevin ${startTemp} ${temp} 0.1 156453
fix             3 thermo langevin 0.8 ${temp} 0.1 156453
fix             3 thermo langevin 0.8 0.8 0.1 156453


## Evaporation

region		regevap block EDGE EDGE EDGE EDGE 140 EDGE
fix 		evap solvent evaporate ${Nevap} 1 regevap 156455
fix 		evap solvent evaporate 85 1 regevap 156455


## Load balancing

fix             bal all balance 1000 1.05 shift z 10 1.05


############### Diagnostics and computes ###################

compute        com cubes          rigid/local   1 mol x y z
compute        quat cubes         rigid/local   1 mol quatw quati quatj quatk
compute 	cc2 cubes chunk/atom molecule

compute 	msd cubes msd/chunk cc2


thermo          1000
thermo_style    custom step temp epair evdwl etotal press pe ke vol


dump            1 all custom 100000 dump.lammpstrj id mol type x y z
dump            2 all image 10000 image.*.png type type
dump_modify     2 pad 8


dump		image cubes image 10000 image_cubes.*.png type type
dump_modify	image pad 8


dump            3 all movie 5000 movie.avi type type
dump           com cubes local 1000 dump.*.xyz c_com[*]
dump           quat cubes      local 1000 dump.*.quat c_quat[*]


restart         1000000 restart.dat
timestep        0.005
timer           full
New timer settings: style=full  mode=nosync  timeout=off

run            10000000
Per MPI rank memory allocation (min/avg/max) = 43.08 | 54.57 | 59.51 Mbytes
Step Temp E_pair E_vdwl TotEng Press PotEng KinEng Volume 
       0   0.79763102   -3.8689716   -3.8689716   -2.8376296  0.023395161   -3.8689716     1.031342      8192000 
    1000     0.797214   -3.8685519   -3.8685519   -2.8377465  0.027431196   -3.8685519    1.0308055      8192000 
    2000   0.79694483   -3.8684198   -3.8684198   -2.8379594  0.030386385   -3.8684198    1.0304603      8192000 
    3000   0.79691764   -3.8683029   -3.8683029   -2.8378748  0.026043611   -3.8683029    1.0304281      8192000 
    4000   0.79688888   -3.8683949   -3.8683949   -2.8380011  0.026053847   -3.8683949    1.0303938      8192000 
    5000   0.79703568   -3.8686097   -3.8686097   -2.8380234  0.027186753   -3.8686097    1.0305863      8192000 
    6000    0.7966168   -3.8676478   -3.8676478   -2.8376002  0.025717476   -3.8676478    1.0300476      8192000 
    7000   0.79612777   -3.8672809   -3.8672809   -2.8378627  0.026979064   -3.8672809    1.0294182      8192000 
    8000   0.79682416   -3.8677909   -3.8677909   -2.8374693  0.027405282   -3.8677909    1.0303216      8192000 
    9000   0.79709268   -3.8681803   -3.8681803   -2.8375088   0.02453865   -3.8681803    1.0306715      8192000 
   10000     0.797326   -3.8684009   -3.8684009   -2.8374249  0.025632114   -3.8684009    1.0309761      8192000 
   11000   0.79733312    -3.868392    -3.868392   -2.8374038  0.026780809    -3.868392    1.0309882      8192000 
   12000   0.79702459   -3.8680256   -3.8680256   -2.8374334  0.025352301   -3.8680256    1.0305922      8192000 
   13000   0.79734929   -3.8679734   -3.8679734   -2.8369586  0.025784119   -3.8679734    1.0310147      8192000 
   14000   0.79761164   -3.8686171   -3.8686171   -2.8372602  0.027707027   -3.8686171    1.0313569      8192000 
   15000   0.79731547   -3.8683807   -3.8683807   -2.8374039  0.029669659   -3.8683807    1.0309768      8192000 
   16000   0.79672736   -3.8675464   -3.8675464   -2.8373271  0.029771086   -3.8675464    1.0302193      8192000 
   17000   0.79695676   -3.8680765   -3.8680765   -2.8375577   0.02975335   -3.8680765    1.0305189      8192000 
   18000   0.79736992   -3.8685237   -3.8685237    -2.837468  0.026263464   -3.8685237    1.0310558      8192000 
   19000   0.79714325   -3.8684323   -3.8684323   -2.8376667  0.027652273   -3.8684323    1.0307656      8192000 
   20000   0.79686917   -3.8679774   -3.8679774   -2.8375632  0.028048386   -3.8679774    1.0304141      8192000 
   21000   0.79729686   -3.8680698   -3.8680698   -2.8370998   0.02919865   -3.8680698    1.0309701      8192000 
   22000   0.79712294   -3.8680421   -3.8680421   -2.8372942  0.029440653   -3.8680421    1.0307479      8192000 
   23000   0.79683641   -3.8676815   -3.8676815   -2.8373012  0.028123634   -3.8676815    1.0303803      8192000 
   24000   0.79758535   -3.8685419   -3.8685419   -2.8371903  0.026639806   -3.8685419    1.0313516      8192000 
   25000   0.79750088   -3.8686068   -3.8686068   -2.8373615  0.026136041   -3.8686068    1.0312453      8192000 
   26000   0.79718046   -3.8679087   -3.8679087    -2.837075  0.030661118   -3.8679087    1.0308337      8192000 
   27000   0.79747141   -3.8683472   -3.8683472   -2.8371344  0.028791396   -3.8683472    1.0312128      8192000 
   28000   0.79762398   -3.8684408   -3.8684408   -2.8370277  0.028111253   -3.8684408     1.031413      8192000 
   29000   0.79766592   -3.8681815   -3.8681815   -2.8367113  0.026172476   -3.8681815    1.0314702      8192000 
   30000   0.79773151   -3.8686602   -3.8686602   -2.8371025  0.030125716   -3.8686602    1.0315577      8192000 
   31000   0.79741951   -3.8681331   -3.8681331   -2.8369759    0.0287679   -3.8681331    1.0311572      8192000 
   32000   0.79800999    -3.868967    -3.868967   -2.8370433  0.024224194    -3.868967    1.0319237      8192000 
   33000   0.79704412   -3.8676793   -3.8676793   -2.8370017  0.026909888   -3.8676793    1.0306776      8192000 
   34000   0.79713649   -3.8675993   -3.8675993   -2.8367993  0.028766439   -3.8675993       1.0308      8192000 
   35000   0.79756702   -3.8681747   -3.8681747   -2.8368154   0.02488014   -3.8681747    1.0313594      8192000 
   36000   0.79726346   -3.8677128   -3.8677128    -2.836743  0.025856449   -3.8677128    1.0309697      8192000 
   37000   0.79720401   -3.8676304   -3.8676304   -2.8367346  0.026614264   -3.8676304    1.0308958      8192000 
   38000   0.79698477   -3.8675042   -3.8675042    -2.836889  0.028554691   -3.8675042    1.0306152      8192000 
   39000   0.79732449   -3.8675589   -3.8675589   -2.8365017   0.02475276   -3.8675589    1.0310572      8192000 
   40000   0.79705632   -3.8670853   -3.8670853    -2.836372  0.029754207   -3.8670853    1.0307133      8192000 
   41000   0.79722535    -3.867535    -3.867535   -2.8366002  0.026263627    -3.867535    1.0309348      8192000 
   42000   0.79655975   -3.8670286   -3.8670286   -2.8369516  0.027291973   -3.8670286     1.030077      8192000 
   43000   0.79702555   -3.8673114   -3.8673114   -2.8366294  0.027123996   -3.8673114    1.0306821      8192000 
   44000   0.79713231   -3.8672933   -3.8672933   -2.8364703  0.024422399   -3.8672933     1.030823      8192000 
   45000   0.79695081   -3.8673039   -3.8673039   -2.8367126  0.029644021   -3.8673039    1.0305913      8192000 
   46000   0.79717077   -3.8674116   -3.8674116    -2.836533  0.028135566   -3.8674116    1.0308786      8192000 
   47000   0.79726694   -3.8678496   -3.8678496    -2.836844  0.027869138   -3.8678496    1.0310057      8192000 
   48000   0.79716516   -3.8679223   -3.8679223   -2.8370453  0.025922823   -3.8679223     1.030877      8192000 
   49000   0.79710364   -3.8676766   -3.8676766   -2.8368762  0.028276611   -3.8676766    1.0308003      8192000 
   50000   0.79725433   -3.8679215   -3.8679215   -2.8369233  0.028169221   -3.8679215    1.0309981      8192000 
   51000   0.79744638   -3.8685142   -3.8685142   -2.8372648  0.024885992   -3.8685142    1.0312494      8192000 
   52000   0.79742252   -3.8675252   -3.8675252    -2.836304  0.027481251   -3.8675252    1.0312212      8192000 
   53000   0.79778117   -3.8682681   -3.8682681   -2.8365801  0.027615399   -3.8682681     1.031688      8192000 
   54000   0.79736144   -3.8679519   -3.8679519   -2.8368038  0.026996364   -3.8679519    1.0311481      8192000 
   55000   0.79766762   -3.8682171   -3.8682171   -2.8366702  0.030797086   -3.8682171     1.031547      8192000 
   56000   0.79747763   -3.8680147   -3.8680147   -2.8367107  0.029254994   -3.8680147     1.031304      8192000 
   57000   0.79738334   -3.8680853   -3.8680853   -2.8369004  0.028289829   -3.8680853    1.0311849      8192000 
   58000   0.79766795   -3.8685379   -3.8685379    -2.836982  0.030452943   -3.8685379    1.0315559      8192000 
   59000   0.79710684   -3.8677749   -3.8677749   -2.8369417  0.028677296   -3.8677749    1.0308332      8192000 
   60000   0.79708545    -3.867708    -3.867708   -2.8368997  0.028077236    -3.867708    1.0308082      8192000 
   61000   0.79751462   -3.8685866   -3.8685866   -2.8372205  0.027846855   -3.8685866    1.0313662      8192000 
   62000   0.79774175   -3.8683667   -3.8683667   -2.8367039  0.029079359   -3.8683667    1.0316628      8192000 
   63000   0.79742701   -3.8684088   -3.8684088   -2.8371501  0.029269952   -3.8684088    1.0312587      8192000 
   64000   0.79740122   -3.8681729   -3.8681729   -2.8369448  0.030398582   -3.8681729     1.031228      8192000 
   65000   0.79725414   -3.8679596   -3.8679596   -2.8369188  0.030777434   -3.8679596    1.0310408      8192000 
   66000   0.79725357   -3.8679029   -3.8679029   -2.8368599  0.028894477   -3.8679029    1.0310429      8192000 
   67000   0.79770742   -3.8683047   -3.8683047   -2.8366719  0.028029495   -3.8683047    1.0316328      8192000 
   68000   0.79740363   -3.8682517   -3.8682517   -2.8370088  0.027011123   -3.8682517    1.0312429      8192000 
   69000   0.79739344   -3.8680666   -3.8680666   -2.8368343  0.028557034   -3.8680666    1.0312324      8192000 
   70000   0.79750187   -3.8680287   -3.8680287   -2.8366532  0.027923635   -3.8680287    1.0313755      8192000 
   71000     0.796978   -3.8672898   -3.8672898   -2.8365888  0.030451786   -3.8672898    1.0307009      8192000 
   72000   0.79721287    -3.867863    -3.867863   -2.8368554  0.025976975    -3.867863    1.0310076      8192000 
   73000   0.79755265   -3.8682177   -3.8682177    -2.836768  0.025817795   -3.8682177    1.0314497      8192000 
   74000   0.79723195   -3.8676918   -3.8676918   -2.8366539  0.026934052   -3.8676918    1.0310379      8192000 
   75000   0.79746928   -3.8675321   -3.8675321   -2.8361843  0.030544665   -3.8675321    1.0313477      8192000 
   76000   0.79736115   -3.8678065   -3.8678065   -2.8365957  0.026310206   -3.8678065    1.0312108      8192000 
   77000   0.79748241   -3.8680501   -3.8680501   -2.8366798  0.027365741   -3.8680501    1.0313703      8192000 
   78000   0.79706379   -3.8675616   -3.8675616   -2.8367297  0.027670512   -3.8675616    1.0308318      8192000 
   79000   0.79698825   -3.8676418   -3.8676418   -2.8369047  0.027407915   -3.8676418    1.0307371      8192000 
   80000   0.79654967   -3.8670574   -3.8670574   -2.8368846  0.026233204   -3.8670574    1.0301728      8192000 
   81000   0.79713975   -3.8671157   -3.8671157   -2.8361771  0.028796265   -3.8671157    1.0309386      8192000 
   82000   0.79677932   -3.8669723   -3.8669723   -2.8364969  0.028795913   -3.8669723    1.0304754      8192000 
   83000   0.79718122   -3.8677038   -3.8677038   -2.8367057  0.028655983   -3.8677038    1.0309981      8192000 
   84000   0.79738804   -3.8678594   -3.8678594   -2.8365909  0.026914589   -3.8678594    1.0312685      8192000 
   85000   0.79667408    -3.867045    -3.867045   -2.8366969  0.027580808    -3.867045     1.030348      8192000 
   86000   0.79701387    -3.867631    -3.867631   -2.8368408  0.029065091    -3.867631    1.0307902      8192000 
   87000   0.79732013   -3.8678337   -3.8678337   -2.8366445  0.026900174   -3.8678337    1.0311892      8192000 
   88000    0.7971202   -3.8674137   -3.8674137   -2.8364802  0.028227264   -3.8674137    1.0309335      8192000 
   89000   0.79743433    -3.867833    -3.867833   -2.8364903  0.027013198    -3.867833    1.0313427      8192000 
   90000   0.79739906   -3.8677679   -3.8677679   -2.8364681  0.027192634   -3.8677679    1.0312998      8192000 
   91000   0.79723599   -3.8675265   -3.8675265   -2.8364347  0.024345036   -3.8675265    1.0310918      8192000 
   92000   0.79709984    -3.867275    -3.867275   -2.8363563  0.029898073    -3.867275    1.0309187      8192000 
   93000   0.79695172   -3.8671758   -3.8671758   -2.8364458  0.029296112   -3.8671758      1.03073      8192000 
   94000   0.79758948   -3.8681392   -3.8681392   -2.8365816  0.024844285   -3.8681392    1.0315575      8192000 
   95000   0.79762827   -3.8676831   -3.8676831   -2.8360724  0.029302998   -3.8676831    1.0316106      8192000 
   96000    0.7977391   -3.8677786   -3.8677786   -2.8360217   0.02831439   -3.8677786    1.0317569      8192000 
   97000   0.79779844   -3.8683056   -3.8683056    -2.836469  0.030199246   -3.8683056    1.0318366      8192000 
   98000   0.79741662   -3.8674496   -3.8674496   -2.8361042   0.03010852   -3.8674496    1.0313454      8192000 
   99000   0.79759704   -3.8679689   -3.8679689   -2.8363872  0.028219267   -3.8679689    1.0315817      8192000 
  100000   0.79779428   -3.8676815   -3.8676815   -2.8358418  0.029841947   -3.8676815    1.0318397      8192000 
  101000   0.79722737    -3.866972    -3.866972   -2.8358625  0.028042988    -3.866972    1.0311094      8192000 
  102000   0.79767344   -3.8674692   -3.8674692   -2.8357799  0.027208775   -3.8674692    1.0316893      8192000 
  103000   0.79660932   -3.8663368   -3.8663368   -2.8360211  0.027994775   -3.8663368    1.0303157      8192000 
  104000   0.79777761     -3.86761     -3.86761   -2.8357804   0.02285778     -3.86761    1.0318296      8192000 
  105000   0.79759419    -3.867264    -3.867264   -2.8356686  0.027956219    -3.867264    1.0315953      8192000 
  106000   0.79774118   -3.8674383   -3.8674383     -2.83565  0.027262814   -3.8674383    1.0317884      8192000 
  107000   0.79754366   -3.8676098   -3.8676098   -2.8360743  0.025586971   -3.8676098    1.0315356      8192000 
  108000   0.79711485   -3.8666187   -3.8666187   -2.8356348  0.030705755   -3.8666187    1.0309839      8192000 
  109000   0.79780037   -3.8673224   -3.8673224   -2.8354489  0.029352428   -3.8673224    1.0318734      8192000 
  110000   0.79713239   -3.8664495   -3.8664495   -2.8354371  0.031156493   -3.8664495    1.0310124      8192000 
  111000   0.79764064   -3.8674362   -3.8674362   -2.8357637  0.026400009   -3.8674362    1.0316725      8192000 
  112000   0.79758252   -3.8670388   -3.8670388   -2.8354386  0.025955008   -3.8670388    1.0316002      8192000 
  113000   0.79715445   -3.8665825   -3.8665825    -2.835533  0.026462963   -3.8665825    1.0310495      8192000 
  114000   0.79632983   -3.8661977   -3.8661977   -2.8362119  0.025336833   -3.8661977    1.0299858      8192000 
  115000   0.79650882   -3.8664602   -3.8664602   -2.8362402  0.025023431   -3.8664602      1.03022      8192000 
  116000   0.79696733   -3.8665987   -3.8665987   -2.8357828  0.023474949   -3.8665987     1.030816      8192000 
  117000    0.7969616   -3.8661899   -3.8661899   -2.8353784  0.024886359   -3.8661899    1.0308115      8192000 
  118000   0.79691351   -3.8667123   -3.8667123   -2.8359601  0.025155784   -3.8667123    1.0307522      8192000 
  119000   0.79692387   -3.8664098   -3.8664098   -2.8356413  0.025398456   -3.8664098    1.0307685      8192000 
  120000   0.79727731   -3.8668356   -3.8668356   -2.8356072  0.024738053   -3.8668356    1.0312284      8192000 
  121000    0.7969256    -3.866463    -3.866463   -2.8356867  0.024924214    -3.866463    1.0307764      8192000 
  122000   0.79669426    -3.865988    -3.865988   -2.8355079  0.028153503    -3.865988    1.0304801      8192000 
  123000   0.79764422   -3.8667829   -3.8667829   -2.8350712  0.027290459   -3.8667829    1.0317117      8192000 
  124000   0.79735558   -3.8665718   -3.8665718   -2.8352308  0.028359313   -3.8665718     1.031341      8192000 
  125000    0.7979074   -3.8672894   -3.8672894   -2.8352317  0.026945259   -3.8672894    1.0320577      8192000 
  126000   0.79743576   -3.8669858   -3.8669858   -2.8355352  0.028924336   -3.8669858    1.0314506      8192000 
  127000   0.79688466   -3.8663318   -3.8663318   -2.8355911  0.029456397   -3.8663318    1.0307407      8192000 
  128000   0.79723324   -3.8669097   -3.8669097   -2.8357154   0.02584567   -3.8669097    1.0311943      8192000 
  129000   0.79727479   -3.8667943   -3.8667943   -2.8355434  0.027953331   -3.8667943    1.0312509      8192000 
  130000   0.79732816   -3.8668831   -3.8668831   -2.8355602  0.030958245   -3.8668831    1.0313229      8192000 
  131000   0.79730246   -3.8669427   -3.8669427   -2.8356501  0.028720631   -3.8669427    1.0312926      8192000 
  132000   0.79766791   -3.8676682   -3.8676682   -2.8359003  0.028171459   -3.8676682    1.0317679      8192000 
  133000   0.79749429   -3.8671917   -3.8671917   -2.8356454  0.028085648   -3.8671917    1.0315463      8192000 
  134000   0.79747045   -3.8672764   -3.8672764   -2.8357581  0.025616775   -3.8672764    1.0315184      8192000 
  135000   0.79690772   -3.8668598   -3.8668598   -2.8360664  0.028448628   -3.8668598    1.0307934      8192000 
  136000   0.79748436   -3.8669173   -3.8669173   -2.8353751  0.029856719   -3.8669173    1.0315422      8192000 
  137000   0.79709312   -3.8667493   -3.8667493   -2.8357105  0.029958245   -3.8667493    1.0310388      8192000 
  138000   0.79763979   -3.8668225   -3.8668225   -2.8350736   0.02779301   -3.8668225    1.0317489      8192000 
  139000   0.79783127   -3.8673905   -3.8673905    -2.835391  0.029247488   -3.8673905    1.0319995      8192000 
  140000   0.79727912   -3.8669333   -3.8669333   -2.8356451  0.028296131   -3.8669333    1.0312882      8192000 
  141000   0.79723766   -3.8667518   -3.8667518   -2.8355146  0.028543334   -3.8667518    1.0312373      8192000 
  142000   0.79719453   -3.8663618   -3.8663618   -2.8351774  0.029636737   -3.8663618    1.0311844      8192000 
  143000   0.79766311   -3.8670695   -3.8670695   -2.8352761  0.027400132   -3.8670695    1.0317934      8192000 
  144000   0.79715374   -3.8667278   -3.8667278   -2.8355904  0.027809164   -3.8667278    1.0311375      8192000 
  145000   0.79732646   -3.8667751   -3.8667751   -2.8354116  0.030186066   -3.8667751    1.0313636      8192000 
  146000   0.79751008    -3.866672    -3.866672    -2.835068  0.029114006    -3.866672     1.031604      8192000 
  147000   0.79730201    -3.866498    -3.866498   -2.8351602  0.027632211    -3.866498    1.0313378      8192000 
  148000   0.79748232   -3.8661464   -3.8661464   -2.8345724  0.029087443   -3.8661464     1.031574      8192000 
  149000   0.79705041   -3.8659706   -3.8659706   -2.8349527  0.026881161   -3.8659706    1.0310179      8192000 
  150000   0.79692945   -3.8659705   -3.8659705    -2.835106  0.026246126   -3.8659705    1.0308644      8192000 
  151000   0.79667097   -3.8655736   -3.8655736   -2.8350407  0.027956041   -3.8655736     1.030533      8192000 
  152000   0.79775314   -3.8669967   -3.8669967   -2.8350609  0.024851403   -3.8669967    1.0319357      8192000 
  153000   0.79714519   -3.8659659   -3.8659659   -2.8348136  0.027591992   -3.8659659    1.0311522      8192000 
  154000   0.79725377    -3.866423    -3.866423   -2.8351276  0.026639808    -3.866423    1.0312954      8192000 
  155000   0.79699313   -3.8659096   -3.8659096   -2.8349484  0.025967316   -3.8659096    1.0309611      8192000 
  156000   0.79694401   -3.8657071   -3.8657071   -2.8348065  0.030073136   -3.8657071    1.0309005      8192000 
  157000   0.79706737   -3.8660772   -3.8660772   -2.8350141  0.027378609   -3.8660772     1.031063      8192000 
  158000   0.79660857   -3.8653155   -3.8653155   -2.8348432  0.029373475   -3.8653155    1.0304722      8192000 
  159000   0.79738536   -3.8661112   -3.8661112   -2.8346312  0.026797351   -3.8661112      1.03148      8192000 
  160000   0.79735646   -3.8657896   -3.8657896    -2.834344  0.027119486   -3.8657896    1.0314455      8192000 
  161000   0.79686646   -3.8655129   -3.8655129   -2.8346983  0.030217078   -3.8655129    1.0308146      8192000 
  162000   0.79752553    -3.866189    -3.866189   -2.8345192  0.026121482    -3.866189    1.0316698      8192000 
  163000   0.79714282   -3.8659476   -3.8659476   -2.8347699  0.026147624   -3.8659476    1.0311777      8192000 
  164000   0.79733533   -3.8658072   -3.8658072   -2.8343776  0.027913658   -3.8658072    1.0314297      8192000 
  165000   0.79711522   -3.8659498   -3.8659498    -2.834802   0.02858977   -3.8659498    1.0311478      8192000 
  166000   0.79718756   -3.8659227   -3.8659227   -2.8346786  0.026650658   -3.8659227    1.0312441      8192000 
  167000   0.79738798   -3.8659666   -3.8659666   -2.8344603  0.027151517   -3.8659666    1.0315063      8192000 
  168000    0.7969703   -3.8654779   -3.8654779    -2.834509  0.027020574   -3.8654779    1.0309689      8192000 
  169000   0.79740928   -3.8660403   -3.8660403   -2.8345006  0.024498361   -3.8660403    1.0315397      8192000 
  170000   0.79720355   -3.8655742   -3.8655742   -2.8342977  0.026482334   -3.8655742    1.0312765      8192000 
  171000   0.79708286    -3.865363    -3.865363     -2.83424  0.030603115    -3.865363     1.031123      8192000 
  172000   0.79757776   -3.8660733   -3.8660733   -2.8343072  0.029023196   -3.8660733    1.0317662      8192000 
  173000   0.79663655   -3.8653345   -3.8653345    -2.834783  0.033034543   -3.8653345    1.0305515      8192000 
  174000   0.79733663   -3.8661889   -3.8661889   -2.8347288  0.029342612   -3.8661889    1.0314601      8192000 
  175000   0.79755395   -3.8661345   -3.8661345   -2.8343906  0.028226591   -3.8661345    1.0317439      8192000 
  176000   0.79749335   -3.8659204   -3.8659204   -2.8342519  0.030853673   -3.8659204    1.0316684      8192000 
  177000   0.79742065   -3.8663536   -3.8663536   -2.8347763  0.027988631   -3.8663536    1.0315773      8192000 
  178000   0.79713637   -3.8656632   -3.8656632   -2.8344507  0.027454798   -3.8656632    1.0312125      8192000 
  179000   0.79724286   -3.8659388   -3.8659388   -2.8345859  0.028942669   -3.8659388    1.0313529      8192000 
  180000   0.79724669   -3.8662012   -3.8662012   -2.8348404  0.026630201   -3.8662012    1.0313608      8192000 
  181000   0.79708343    -3.865951    -3.865951   -2.8347985  0.026901644    -3.865951    1.0311525      8192000 
  182000   0.79695483   -3.8656915   -3.8656915   -2.8347024  0.029209821   -3.8656915    1.0309891      8192000 
  183000   0.79734688   -3.8659752   -3.8659752   -2.8344762  0.028729332   -3.8659752    1.0314989      8192000 
  184000   0.79718132   -3.8659285   -3.8659285   -2.8346408  0.029872269   -3.8659285    1.0312877      8192000 
  185000   0.79735176   -3.8661578   -3.8661578   -2.8346466  0.028898916   -3.8661578    1.0315111      8192000 
  186000   0.79749726   -3.8660233   -3.8660233    -2.834321  0.028384956   -3.8660233    1.0317023      8192000 
  187000   0.79803759   -3.8663773   -3.8663773   -2.8339731  0.028117116   -3.8663773    1.0324042      8192000 
  188000   0.79786187   -3.8660686   -3.8660686    -2.833889  0.030240054   -3.8660686    1.0321796      8192000 
  189000   0.79740669   -3.8657763   -3.8657763   -2.8341826  0.030439407   -3.8657763    1.0315936      8192000 
  190000   0.79770609   -3.8659085   -3.8659085   -2.8339246  0.033393893   -3.8659085    1.0319839      8192000 
  191000    0.7979992    -3.866303    -3.866303    -2.833937  0.026496953    -3.866303     1.032366      8192000 
  192000   0.79741921   -3.8659552   -3.8659552   -2.8343369  0.030644206   -3.8659552    1.0316184      8192000 
  193000   0.79763925   -3.8661705   -3.8661705   -2.8342646  0.027795823   -3.8661705     1.031906      8192000 
  194000   0.79759868   -3.8660361   -3.8660361   -2.8341797  0.026613243   -3.8660361    1.0318564      8192000 
  195000   0.79780348   -3.8658128   -3.8658128   -2.8336885  0.025391407   -3.8658128    1.0321243      8192000 
  196000   0.79784816   -3.8661392   -3.8661392   -2.8339544  0.026483343   -3.8661392    1.0321848      8192000 
  197000   0.79724982   -3.8656645   -3.8656645   -2.8342509  0.025726913   -3.8656645    1.0314136      8192000 
  198000   0.79736476   -3.8656906   -3.8656906   -2.8341254  0.027321804   -3.8656906    1.0315652      8192000 
  199000   0.79787319   -3.8660197   -3.8660197   -2.8337938  0.023369316   -3.8660197    1.0322259      8192000 
  200000    0.7976106   -3.8659471   -3.8659471   -2.8340582  0.025284233   -3.8659471    1.0318889      8192000 
  201000   0.79737374   -3.8653739   -3.8653739   -2.8337885  0.027371907   -3.8653739    1.0315854      8192000 
  202000   0.79708893   -3.8651398   -3.8651398     -2.83392  0.028304215   -3.8651398    1.0312198      8192000 
  203000   0.79733711   -3.8652589   -3.8652589   -2.8337151  0.026995663   -3.8652589    1.0315438      8192000 
  204000   0.79719804   -3.8647765   -3.8647765   -2.8334097  0.027621906   -3.8647765    1.0313669      8192000 
  205000   0.79756059   -3.8653626   -3.8653626    -2.833524  0.028605584   -3.8653626    1.0318386      8192000 
  206000   0.79730196   -3.8652992   -3.8652992   -2.8337923  0.026858075   -3.8652992    1.0315069      8192000 
  207000   0.79716062   -3.8648586   -3.8648586   -2.8335317  0.027223501   -3.8648586     1.031327      8192000 
  208000    0.7978984   -3.8658297   -3.8658297   -2.8335453  0.027590642   -3.8658297    1.0322844      8192000 
  209000   0.79747494   -3.8653278   -3.8653278   -2.8335886  0.029443877   -3.8653278    1.0317392      8192000 
  210000   0.79794236   -3.8658779   -3.8658779    -2.833531  0.026911993   -3.8658779    1.0323469      8192000 
  211000   0.79732749   -3.8649721   -3.8649721   -2.8334178  0.030206367   -3.8649721    1.0315543      8192000 
  212000   0.79774675   -3.8655714   -3.8655714   -2.8334717  0.026794357   -3.8655714    1.0320997      8192000 
  213000    0.7979956   -3.8657787   -3.8657787   -2.8333544  0.028035179   -3.8657787    1.0324243      8192000 
  214000   0.79748272   -3.8651944   -3.8651944   -2.8334308  0.028261708   -3.8651944    1.0317637      8192000 
  215000   0.79729194   -3.8649113   -3.8649113   -2.8333915  0.030969735   -3.8649113    1.0315198      8192000 
  216000   0.79774614   -3.8655677   -3.8655677   -2.8334574  0.026234847   -3.8655677    1.0321103      8192000 
  217000   0.79769773   -3.8655024   -3.8655024    -2.833452  0.029395926   -3.8655024    1.0320504      8192000 
  218000    0.7980063   -3.8657377   -3.8657377   -2.8332852  0.029685823   -3.8657377    1.0324526      8192000 
  219000    0.7974847   -3.8649054   -3.8649054   -2.8331248  0.028982568   -3.8649054    1.0317806      8192000 
  220000   0.79762222   -3.8652907   -3.8652907   -2.8333293  0.028158478   -3.8652907    1.0319615      8192000 
  221000    0.7979099   -3.8655083   -3.8655083   -2.8331717  0.028554291   -3.8655083    1.0323366      8192000 
  222000   0.79764528   -3.8649265   -3.8649265   -2.8329296  0.028566807   -3.8649265    1.0319969      8192000 
  223000   0.79787037   -3.8653184   -3.8653184   -2.8330274  0.029587538   -3.8653184    1.0322911      8192000 
  224000   0.79776602   -3.8653455   -3.8653455   -2.8331865  0.027854011   -3.8653455     1.032159      8192000 
  225000   0.79765342   -3.8653274   -3.8653274   -2.8333112   0.02946697   -3.8653274    1.0320162      8192000 
  226000   0.79772903   -3.8651828   -3.8651828   -2.8330661  0.026897974   -3.8651828    1.0321167      8192000 
  227000   0.79757363   -3.8648815   -3.8648815   -2.8329629  0.025908316   -3.8648815    1.0319186      8192000 
  228000     0.797183   -3.8642548   -3.8642548   -2.8328387  0.028789955   -3.8642548    1.0314161      8192000 
  229000    0.7974012   -3.8647985   -3.8647985   -2.8330972  0.028448066   -3.8647985    1.0317014      8192000 
  230000   0.79737695   -3.8642061   -3.8642061   -2.8325335   0.02783912   -3.8642061    1.0316727      8192000 
  231000   0.79762798   -3.8647922   -3.8647922   -2.8327918   0.02876824   -3.8647922    1.0320004      8192000 
  232000   0.79762015   -3.8650263   -3.8650263   -2.8330331  0.027692084   -3.8650263    1.0319932      8192000 
  233000   0.79731845   -3.8646433   -3.8646433   -2.8330375  0.027970315   -3.8646433    1.0316058      8192000 
  234000   0.79767528   -3.8647171   -3.8647171    -2.832647   0.02644636   -3.8647171    1.0320701      8192000 
  235000   0.79735256    -3.864443    -3.864443   -2.8327875  0.027839668    -3.864443    1.0316555      8192000 
  236000   0.79741484   -3.8645414   -3.8645414   -2.8328024   0.02835222   -3.8645414     1.031739      8192000 
  237000   0.79740889   -3.8645472   -3.8645472    -2.832813  0.027021222   -3.8645472    1.0317342      8192000 
  238000   0.79751075   -3.8643475   -3.8643475   -2.8324786  0.027315312   -3.8643475     1.031869      8192000 
  239000   0.79760466   -3.8647281   -3.8647281   -2.8327349  0.028432753   -3.8647281    1.0319932      8192000 
  240000   0.79735795   -3.8645062   -3.8645062   -2.8328293  0.029252974   -3.8645062    1.0316769      8192000 
  241000   0.79736708   -3.8647246   -3.8647246    -2.833033  0.024873227   -3.8647246    1.0316916      8192000 
  242000   0.79749001   -3.8646164   -3.8646164   -2.8327628  0.027090809   -3.8646164    1.0318536      8192000 
  243000   0.79751125   -3.8641217   -3.8641217   -2.8322379  0.029966067   -3.8641217    1.0318838      8192000 
  244000   0.79813961   -3.8650231   -3.8650231   -2.8323234  0.026354358   -3.8650231    1.0326997      8192000 
  245000   0.79739451   -3.8645085   -3.8645085   -2.8327699  0.027930352   -3.8645085    1.0317386      8192000 
  246000   0.79766358   -3.8647717   -3.8647717   -2.8326821  0.027625119   -3.8647717    1.0320896      8192000 
  247000   0.79744181   -3.8646212   -3.8646212   -2.8328158  0.031323848   -3.8646212    1.0318054      8192000 
  248000   0.79739234   -3.8648357   -3.8648357   -2.8330914  0.028217774   -3.8648357    1.0317443      8192000 
  249000   0.79765778   -3.8648442   -3.8648442   -2.8327535  0.028111464   -3.8648442    1.0320907      8192000 
  250000   0.79754334   -3.8645882   -3.8645882   -2.8326427  0.028137697   -3.8645882    1.0319455      8192000 
  251000   0.79762113   -3.8644631   -3.8644631   -2.8324142  0.028170976   -3.8644631    1.0320489      8192000 
  252000   0.79766574   -3.8646627   -3.8646627   -2.8325532  0.030768059   -3.8646627    1.0321095      8192000 
  253000    0.7970955   -3.8642019   -3.8642019   -2.8328273  0.028177223   -3.8642019    1.0313746      8192000 
  254000   0.79790961   -3.8648157   -3.8648157   -2.8323848  0.028686957   -3.8648157    1.0324309      8192000 
  255000   0.79747307   -3.8646148   -3.8646148   -2.8327458  0.027897193   -3.8646148     1.031869      8192000 
  256000   0.79768192   -3.8643989   -3.8643989   -2.8322569  0.027868382   -3.8643989    1.0321419      8192000 
  257000   0.79724413   -3.8643283   -3.8643283   -2.8327499  0.029548021   -3.8643283    1.0315784      8192000 
  258000   0.79774947   -3.8647792   -3.8647792   -2.8325441  0.025961338   -3.8647792    1.0322352      8192000 
  259000   0.79732653   -3.8646456   -3.8646456   -2.8329548  0.025898627   -3.8646456    1.0316908      8192000 
  260000   0.79719622   -3.8640143   -3.8640143   -2.8324894  0.029181025   -3.8640143    1.0315249      8192000 
  261000   0.79704233   -3.8637875   -3.8637875   -2.8324588  0.029939398   -3.8637875    1.0313287      8192000 
  262000   0.79693684   -3.8636974   -3.8636974   -2.8325023  0.029734551   -3.8636974    1.0311951      8192000 
  263000   0.79756021   -3.8641589   -3.8641589   -2.8321542  0.027398182   -3.8641589    1.0320047      8192000 
  264000   0.79716724   -3.8638215   -3.8638215   -2.8323226  0.028855992   -3.8638215    1.0314989      8192000 
  265000   0.79730364   -3.8641443   -3.8641443    -2.832466  0.028911008   -3.8641443    1.0316783      8192000 
  266000   0.79738978   -3.8641112   -3.8641112   -2.8323185  0.028630586   -3.8641112    1.0317927      8192000 
  267000   0.79729316   -3.8640108   -3.8640108   -2.8323402  0.027225002   -3.8640108    1.0316706      8192000 
  268000   0.79716064   -3.8639019   -3.8639019   -2.8324001  0.028227501   -3.8639019    1.0315018      8192000 
  269000   0.79714308   -3.8641982   -3.8641982   -2.8327162  0.027485389   -3.8641982     1.031482      8192000 
  270000   0.79699447   -3.8636343   -3.8636343   -2.8323416   0.02762936   -3.8636343    1.0312926      8192000 
  271000    0.7974816   -3.8640166   -3.8640166   -2.8320907  0.026976639   -3.8640166    1.0319259      8192000 
  272000    0.7970356   -3.8639815   -3.8639815   -2.8326298  0.027154287   -3.8639815    1.0313517      8192000 
  273000   0.79707506    -3.863905    -3.863905   -2.8324996  0.029069164    -3.863905    1.0314054      8192000 
  274000   0.79718296   -3.8641902   -3.8641902   -2.8326422  0.026848467   -3.8641902     1.031548      8192000 
  275000   0.79778439   -3.8649763   -3.8649763   -2.8326472  0.024105764   -3.8649763    1.0323292      8192000 
  276000   0.79761512   -3.8643281   -3.8643281    -2.832215  0.029547248   -3.8643281    1.0321131      8192000 
  277000   0.79712603   -3.8637785   -3.8637785   -2.8322957  0.032332296   -3.8637785    1.0314829      8192000 
  278000   0.79738763   -3.8644149   -3.8644149   -2.8325906  0.028490475   -3.8644149    1.0318243      8192000 
  279000    0.7974221   -3.8645975   -3.8645975   -2.8327257  0.029325464   -3.8645975    1.0318718      8192000 
  280000   0.79749231    -3.864075    -3.864075   -2.8321094   0.02949875    -3.864075    1.0319656      8192000 
  281000   0.79770303   -3.8647742   -3.8647742   -2.8325333  0.027431328   -3.8647742     1.032241      8192000 
  282000   0.79755761   -3.8644035   -3.8644035   -2.8323478  0.029214892   -3.8644035    1.0320557      8192000 
  283000   0.79765262    -3.864737    -3.864737   -2.8325554  0.027951424    -3.864737    1.0321816      8192000 
  284000    0.7976531   -3.8647638   -3.8647638   -2.8325786  0.024622761   -3.8647638    1.0321851      8192000 
  285000   0.79785833   -3.8647627   -3.8647627   -2.8323093  0.027830364   -3.8647627    1.0324534      8192000 
  286000   0.79729063   -3.8640836   -3.8640836   -2.8323619  0.029378651   -3.8640836    1.0317217      8192000 
  287000     0.797615   -3.8646495   -3.8646495   -2.8325051  0.029615765   -3.8646495    1.0321444      8192000 
  288000   0.79779661   -3.8647308   -3.8647308   -2.8323485  0.030711412   -3.8647308    1.0323823      8192000 
  289000   0.79742736   -3.8640657   -3.8640657   -2.8321583  0.029198579   -3.8640657    1.0319074      8192000 
  290000   0.79779682   -3.8645565   -3.8645565   -2.8321683   0.02874641   -3.8645565    1.0323882      8192000 
  291000   0.79771475   -3.8643019   -3.8643019    -2.832017  0.028894623   -3.8643019    1.0322849      8192000 
  292000   0.79748979   -3.8643591   -3.8643591   -2.8323624  0.030303628   -3.8643591    1.0319967      8192000 
  293000   0.79698213   -3.8636434   -3.8636434   -2.8323007   0.02763893   -3.8636434    1.0313427      8192000 
  294000   0.79785213   -3.8647773   -3.8647773   -2.8323061  0.028046485   -3.8647773    1.0324712      8192000 
  295000   0.79733835   -3.8639128   -3.8639128   -2.8321034  0.026717907   -3.8639128    1.0318093      8192000 
  296000   0.79695962   -3.8637694   -3.8637694   -2.8324473  0.029704522   -3.8637694    1.0313221      8192000 
  297000    0.7972929   -3.8641887   -3.8641887   -2.8324323  0.027982393   -3.8641887    1.0317563      8192000 
  298000   0.79742666   -3.8646652   -3.8646652   -2.8327331  0.025355357   -3.8646652    1.0319321      8192000 
  299000   0.79703381   -3.8636841   -3.8636841   -2.8322574   0.02924026   -3.8636841    1.0314267      8192000 
  300000    0.7972456   -3.8636799   -3.8636799   -2.8319762  0.028306322   -3.8636799    1.0317037      8192000 
  301000   0.79727498   -3.8637328   -3.8637328   -2.8319882  0.025423062   -3.8637328    1.0317446      8192000 
  302000   0.79696905   -3.8633913   -3.8633913   -2.8320399  0.030936123   -3.8633913    1.0313514      8192000 
  303000   0.79684963   -3.8633096   -3.8633096   -2.8321098  0.029750954   -3.8633096    1.0311998      8192000 
  304000   0.79688275   -3.8635175   -3.8635175   -2.8322719  0.027515056   -3.8635175    1.0312456      8192000 
  305000   0.79696377    -3.863733    -3.863733   -2.8323796   0.02716028    -3.863733    1.0313533      8192000 
  306000   0.79731598   -3.8641154   -3.8641154   -2.8323033  0.027962176   -3.8641154    1.0318121      8192000 
  307000   0.79775931   -3.8646189   -3.8646189   -2.8322304  0.025282604   -3.8646189    1.0323885      8192000 
  308000   0.79723363   -3.8636911   -3.8636911     -2.83198  0.025985127   -3.8636911    1.0317111      8192000 
  309000   0.79766788   -3.8643461   -3.8643461   -2.8320701  0.025149343   -3.8643461     1.032276      8192000 
  310000   0.79734202   -3.8638414   -3.8638414   -2.8319842  0.028678014   -3.8638414    1.0318572      8192000 
  311000   0.79761385   -3.8641336   -3.8641336   -2.8319219  0.028885901   -3.8641336    1.0322117      8192000 
  312000   0.79750802   -3.8641512   -3.8641512   -2.8320735  0.026663137   -3.8641512    1.0320777      8192000 
  313000   0.79723114   -3.8638011   -3.8638011   -2.8320788  0.030842423   -3.8638011    1.0317223      8192000 
  314000   0.79738167   -3.8636492   -3.8636492   -2.8317292  0.031038759   -3.8636492      1.03192      8192000 
  315000    0.7976896   -3.8641592   -3.8641592    -2.831838  0.028200399   -3.8641592    1.0323212      8192000 
  316000   0.79769471   -3.8641573   -3.8641573   -2.8318266  0.026447105   -3.8641573    1.0323307      8192000 
  317000   0.79792497   -3.8638995   -3.8638995   -2.8312679  0.031527949   -3.8638995    1.0326317      8192000 
  318000   0.79798325   -3.8644816   -3.8644816   -2.8317716   0.02608553   -3.8644816      1.03271      8192000 
  319000   0.79781321   -3.8638443   -3.8638443   -2.8313517  0.030361805   -3.8638443    1.0324926      8192000 
  320000   0.79763278   -3.8641332   -3.8641332   -2.8318711  0.027187626   -3.8641332    1.0322621      8192000 
  321000   0.79805822   -3.8643355   -3.8643355   -2.8315199  0.028353585   -3.8643355    1.0328156      8192000 
  322000   0.79781278   -3.8639541   -3.8639541   -2.8314532  0.028475945   -3.8639541    1.0325009      8192000 
  323000   0.79778359   -3.8639545   -3.8639545   -2.8314885  0.029148655   -3.8639545     1.032466      8192000 
  324000   0.79763159   -3.8633096   -3.8633096   -2.8310376  0.031414321   -3.8633096     1.032272      8192000 
  325000   0.79768268   -3.8640952   -3.8640952   -2.8317542  0.026971443   -3.8640952     1.032341      8192000 
  326000   0.79751302   -3.8639852   -3.8639852   -2.8318608  0.028768712   -3.8639852    1.0321244      8192000 
  327000   0.79779455    -3.864153    -3.864153   -2.8316613  0.028393604    -3.864153    1.0324917      8192000 
  328000    0.7976912    -3.863886    -3.863886   -2.8315254  0.028563032    -3.863886    1.0323606      8192000 
  329000   0.79751883   -3.8638954   -3.8638954    -2.831755  0.025930108   -3.8638954    1.0321405      8192000 
  330000   0.79758833   -3.8639176   -3.8639176   -2.8316843  0.026710652   -3.8639176    1.0322333      8192000 
  331000   0.79761696   -3.8638372   -3.8638372   -2.8315639  0.024547888   -3.8638372    1.0322733      8192000 
  332000   0.79746493   -3.8632497   -3.8632497   -2.8311704  0.026983018   -3.8632497    1.0320793      8192000 
  333000   0.79794896    -3.863999    -3.863999   -2.8312904  0.026473089    -3.863999    1.0327086      8192000 
  334000   0.79738646   -3.8634921   -3.8634921   -2.8315085  0.027540307   -3.8634921    1.0319835      8192000 
  335000   0.79723484   -3.8630454   -3.8630454   -2.8312552  0.027668502   -3.8630454    1.0317903      8192000 
  336000   0.79721618   -3.8630769   -3.8630769   -2.8313082  0.027522193   -3.8630769    1.0317688      8192000 
  337000   0.79699167   -3.8625497   -3.8625497   -2.8310686  0.024644228   -3.8625497    1.0314811      8192000 
  338000   0.79767099   -3.8635018   -3.8635018   -2.8311385  0.024720211   -3.8635018    1.0323633      8192000 
  339000   0.79745221   -3.8630399   -3.8630399   -2.8309568  0.027469531   -3.8630399     1.032083      8192000 
  340000   0.79738257   -3.8627604   -3.8627604   -2.8307646  0.030236162   -3.8627604    1.0319958      8192000 
  341000   0.79732644   -3.8630919   -3.8630919    -2.831166  0.028883026   -3.8630919    1.0319259      8192000 
  342000   0.79766696   -3.8632579   -3.8632579   -2.8308883  0.027779234   -3.8632579    1.0323695      8192000 
  343000   0.79784408   -3.8634499   -3.8634499   -2.8308482  0.028447566   -3.8634499    1.0326017      8192000 
  344000   0.79732158   -3.8625981   -3.8625981   -2.8306697  0.028871698   -3.8625981    1.0319284      8192000 
  345000   0.79727362   -3.8627812   -3.8627812   -2.8309123  0.029640941   -3.8627812     1.031869      8192000 
  346000    0.7974467   -3.8633943   -3.8633943   -2.8312984  0.028952424   -3.8633943    1.0320959      8192000 
  347000   0.79745081   -3.8629279   -3.8629279   -2.8308237  0.028367296   -3.8629279    1.0321042      8192000 
  348000   0.79756755   -3.8632474   -3.8632474   -2.8309892  0.027555062   -3.8632474    1.0322582      8192000 
  349000   0.79750427   -3.8634358   -3.8634358   -2.8312568  0.027529651   -3.8634358     1.032179      8192000 
  350000   0.79752062   -3.8629951   -3.8629951    -2.830792  0.027495562   -3.8629951    1.0322031      8192000 
  351000   0.79770157   -3.8635081   -3.8635081   -2.8310679  0.027964207   -3.8635081    1.0324402      8192000 
  352000   0.79716389   -3.8629403   -3.8629403   -2.8311931  0.026783075   -3.8629403    1.0317472      8192000 
  353000   0.79761129   -3.8630243   -3.8630243   -2.8306953  0.028816748   -3.8630243     1.032329      8192000 
  354000   0.79739083   -3.8629355   -3.8629355    -2.830889  0.029185324   -3.8629355    1.0320465      8192000 
  355000   0.79749599   -3.8630905   -3.8630905   -2.8309049  0.028637152   -3.8630905    1.0321856      8192000 
  356000   0.79741688   -3.8628845   -3.8628845   -2.8307984  0.030052999   -3.8628845    1.0320861      8192000 
  357000   0.79724117   -3.8631421   -3.8631421   -2.8312805   0.02834012   -3.8631421    1.0318616      8192000 
  358000    0.7975279   -3.8635617   -3.8635617   -2.8313263  0.030746968   -3.8635617    1.0322354      8192000 
  359000   0.79730206   -3.8627292   -3.8627292   -2.8307831  0.030009853   -3.8627292    1.0319461      8192000 
  360000   0.79679799   -3.8620281   -3.8620281   -2.8307316  0.031659484   -3.8620281    1.0312966      8192000 
  361000    0.7976546   -3.8633117   -3.8633117   -2.8309035  0.026901535   -3.8633117    1.0324082      8192000 
  362000   0.79757028   -3.8633672   -3.8633672   -2.8310654    0.0284683   -3.8633672    1.0323018      8192000 
  363000   0.79765336   -3.8635131   -3.8635131   -2.8311009  0.028009081   -3.8635131    1.0324122      8192000 
  364000   0.79738142    -3.862879    -3.862879   -2.8308159  0.029138207    -3.862879    1.0320632      8192000 
  365000   0.79786286   -3.8636632   -3.8636632    -2.830974  0.027431232   -3.8636632    1.0326892      8192000 
  366000   0.79752302   -3.8628238   -3.8628238   -2.8305717  0.028488583   -3.8628238    1.0322521      8192000 
  367000   0.79782183   -3.8632975   -3.8632975   -2.8306557  0.028386759   -3.8632975    1.0326417      8192000 
  368000   0.79741291   -3.8626368   -3.8626368   -2.8305214  0.027480258   -3.8626368    1.0321154      8192000 
  369000   0.79725315   -3.8627516   -3.8627516     -2.83084  0.025759855   -3.8627516    1.0319115      8192000 
  370000   0.79745729   -3.8626938   -3.8626938   -2.8305154  0.027191263   -3.8626938    1.0321785      8192000 
  371000   0.79760665   -3.8626171   -3.8626171   -2.8302424  0.027701397   -3.8626171    1.0323747      8192000 
  372000   0.79733584   -3.8622822   -3.8622822   -2.8302551  0.027018355   -3.8622822    1.0320271      8192000 
  373000   0.79738428   -3.8625186   -3.8625186   -2.8304259  0.030696948   -3.8625186    1.0320927      8192000 
  374000   0.79732821   -3.8623122   -3.8623122   -2.8302891  0.029270289   -3.8623122    1.0320231      8192000 
  375000   0.79742251   -3.8628303   -3.8628303   -2.8306824  0.028724686   -3.8628303    1.0321478      8192000 
  376000   0.79769323   -3.8628163   -3.8628163   -2.8303151  0.029996652   -3.8628163    1.0325012      8192000 
  377000   0.79739859   -3.8624998   -3.8624998   -2.8303771  0.026777863   -3.8624998    1.0321227      8192000 
  378000   0.79737243   -3.8624531   -3.8624531   -2.8303613  0.026444322   -3.8624531    1.0320918      8192000 
  379000   0.79740515   -3.8625686   -3.8625686   -2.8304318  0.025935591   -3.8625686    1.0321368      8192000 
  380000    0.7973895    -3.862163    -3.862163   -2.8300435  0.029135405    -3.862163    1.0321195      8192000 
  381000   0.79671064    -3.862049    -3.862049   -2.8308053  0.027465001    -3.862049    1.0312437      8192000 
  382000   0.79713711    -3.862656    -3.862656   -2.8308573  0.026424138    -3.862656    1.0317987      8192000 
  383000   0.79763871   -3.8629367   -3.8629367   -2.8304861  0.025656882   -3.8629367    1.0324506      8192000 
  384000   0.79757127    -3.862895    -3.862895   -2.8305287   0.02616158    -3.862895    1.0323663      8192000 
  385000   0.79741249   -3.8630275   -3.8630275   -2.8308638  0.028236569   -3.8630275    1.0321637      8192000 
  386000    0.7978768   -3.8635739   -3.8635739   -2.8308063  0.026704148   -3.8635739    1.0327676      8192000 
  387000   0.79761328   -3.8629465   -3.8629465   -2.8305173  0.027779987   -3.8629465    1.0324292      8192000 
  388000   0.79732818   -3.8628734   -3.8628734   -2.8308103  0.029313986   -3.8628734    1.0320631      8192000 
  389000   0.79766381   -3.8631465   -3.8631465   -2.8306461   0.02847396   -3.8631465    1.0325004      8192000 
  390000   0.79743743   -3.8624987   -3.8624987   -2.8302884  0.027869942   -3.8624987    1.0322103      8192000 
  391000   0.79761445   -3.8629945   -3.8629945   -2.8305521  0.027069179   -3.8629945    1.0324424      8192000 
  392000   0.79734923   -3.8627396   -3.8627396   -2.8306378  0.028571227   -3.8627396    1.0321018      8192000 
  393000   0.79726949   -3.8623027   -3.8623027   -2.8303012  0.026930817   -3.8623027    1.0320015      8192000 
  394000   0.79746863   -3.8628252   -3.8628252    -2.830563  0.029303899   -3.8628252    1.0322622      8192000 
  395000   0.79778568   -3.8633063   -3.8633063   -2.8306307  0.027514335   -3.8633063    1.0326755      8192000 
  396000   0.79731903    -3.862776    -3.862776   -2.8307019  0.026813051    -3.862776    1.0320742      8192000 
  397000   0.79741723   -3.8626742   -3.8626742     -2.83047   0.03168042   -3.8626742    1.0322042      8192000 
  398000   0.79738873   -3.8626545   -3.8626545   -2.8304842  0.033306846   -3.8626545    1.0321703      8192000 
  399000   0.79783152   -3.8630677   -3.8630677   -2.8303213  0.028020693   -3.8630677    1.0327464      8192000 
  400000   0.79783131   -3.8629955   -3.8629955   -2.8302468  0.028991784   -3.8629955    1.0327488      8192000 
  401000   0.79781825   -3.8635761   -3.8635761   -2.8308414  0.030261256   -3.8635761    1.0327348      8192000 
  402000   0.79724863   -3.8625159   -3.8625159   -2.8305155  0.029469578   -3.8625159    1.0320004      8192000 
  403000    0.7970344   -3.8621734   -3.8621734   -2.8304474  0.030558521   -3.8621734     1.031726      8192000 
  404000   0.79742148   -3.8625311   -3.8625311   -2.8303014  0.027885093   -3.8625311    1.0322297      8192000 
  405000   0.79765575   -3.8627902   -3.8627902   -2.8302543  0.026577085   -3.8627902    1.0325359      8192000 
  406000   0.79753608   -3.8623002   -3.8623002   -2.8299163  0.026701407   -3.8623002    1.0323839      8192000 
  407000   0.79692187   -3.8617919   -3.8617919   -2.8302001  0.027265756   -3.8617919    1.0315918      8192000 
  408000   0.79765295   -3.8628708   -3.8628708   -2.8303297  0.026911075   -3.8628708    1.0325411      8192000 
  409000   0.79779086   -3.8633071   -3.8633071   -2.8305848  0.027484106   -3.8633071    1.0327223      8192000 
  410000   0.79721042   -3.8623247   -3.8623247   -2.8303509  0.028007396   -3.8623247    1.0319738      8192000 
  411000    0.7973796   -3.8626281   -3.8626281   -2.8304323  0.028305434   -3.8626281    1.0321958      8192000 
  412000   0.79727818   -3.8625504   -3.8625504    -2.830483  0.026343313   -3.8625504    1.0320674      8192000 
  413000   0.79731385   -3.8622583   -3.8622583    -2.830142  0.027514611   -3.8622583    1.0321163      8192000 
  414000   0.79725063   -3.8624289   -3.8624289   -2.8303915  0.025332363   -3.8624289    1.0320374      8192000 
  415000    0.7969169   -3.8620915   -3.8620915   -2.8304832  0.029589785   -3.8620915    1.0316083      8192000 
  416000   0.79750388    -3.862741    -3.862741   -2.8303699  0.025952655    -3.862741    1.0323711      8192000 
  417000    0.7974227   -3.8625648   -3.8625648   -2.8302961   0.02648073   -3.8625648    1.0322687      8192000 
  418000   0.79720193   -3.8625247   -3.8625247   -2.8305389  0.027426902   -3.8625247    1.0319858      8192000 
  419000   0.79734748   -3.8624885   -3.8624885   -2.8303113   0.02683959   -3.8624885    1.0321771      8192000 
  420000   0.79697717   -3.8621671   -3.8621671   -2.8304664  0.027926429   -3.8621671    1.0317007      8192000 
  421000   0.79769513   -3.8629008   -3.8629008    -2.830268  0.029490647   -3.8629008    1.0326328      8192000 
  422000   0.79805428   -3.8632447   -3.8632447    -2.830144  0.028869981   -3.8632447    1.0331007      8192000 
  423000   0.79742971   -3.8625178   -3.8625178   -2.8302227    0.0308549   -3.8625178    1.0322951      8192000 
  424000    0.7975815   -3.8625062   -3.8625062   -2.8300117  0.029566706   -3.8625062    1.0324945      8192000 
  425000   0.79765843   -3.8629152   -3.8629152   -2.8303181  0.027971109   -3.8629152     1.032597      8192000 
  426000    0.7975157   -3.8624832   -3.8624832   -2.8300683  0.031049835   -3.8624832    1.0324149      8192000 
  427000    0.7978388   -3.8628096   -3.8628096   -2.8299735  0.028114364   -3.8628096    1.0328361      8192000 
  428000   0.79787854   -3.8633272   -3.8633272   -2.8304367  0.027994623   -3.8633272    1.0328905      8192000 
  429000   0.79780145   -3.8627982   -3.8627982   -2.8300046  0.030416773   -3.8627982    1.0327936      8192000 
  430000   0.79781375   -3.8630428   -3.8630428   -2.8302305  0.026653216   -3.8630428    1.0328123      8192000 
  431000   0.79751545   -3.8629859   -3.8629859   -2.8305569  0.030988795   -3.8629859     1.032429      8192000 
  432000   0.79780437   -3.8635754   -3.8635754   -2.8307694  0.027543583   -3.8635754     1.032806      8192000 
  433000   0.79779274   -3.8626709   -3.8626709    -2.829877  0.029126652   -3.8626709    1.0327938      8192000 
  434000   0.79814195   -3.8634299   -3.8634299   -2.8301813  0.027946917   -3.8634299    1.0332486      8192000 
  435000    0.7974739   -3.8621778   -3.8621778   -2.8297911  0.032534189   -3.8621778    1.0323867      8192000 
  436000   0.79743396   -3.8619595   -3.8619595   -2.8296215  0.030640604   -3.8619595    1.0323379      8192000 
  437000   0.79711111   -3.8618524   -3.8618524   -2.8299295  0.028667921   -3.8618524    1.0319229      8192000 
  438000   0.79727542   -3.8619369   -3.8619369   -2.8297986  0.026777252   -3.8619369    1.0321383      8192000 
  439000   0.79752564   -3.8623768   -3.8623768   -2.8299116  0.024497421   -3.8623768    1.0324652      8192000 
  440000   0.79702546   -3.8618034   -3.8618034   -2.8299829  0.026576047   -3.8618034    1.0318206      8192000 
  441000   0.79690027    -3.861589    -3.861589   -2.8299276  0.030479639    -3.861589    1.0316614      8192000 
  442000   0.79734221   -3.8619539   -3.8619539   -2.8297174  0.026124415   -3.8619539    1.0322365      8192000 
  443000   0.79749182   -3.8617043   -3.8617043   -2.8292714  0.031655298   -3.8617043    1.0324329      8192000 
  444000   0.79749691   -3.8616687   -3.8616687   -2.8292263  0.029537062   -3.8616687    1.0324424      8192000 
  445000   0.79743197   -3.8617488   -3.8617488   -2.8293876  0.028088112   -3.8617488    1.0323612      8192000 
  446000   0.79775402   -3.8620829   -3.8620829   -2.8293018  0.028242388   -3.8620829    1.0327811      8192000 
  447000   0.79721733   -3.8612207   -3.8612207   -2.8291317  0.031679842   -3.8612207     1.032089      8192000 
  448000   0.79791743   -3.8621121   -3.8621121   -2.8291138  0.024989395   -3.8621121    1.0329983      8192000 
  449000   0.79760452   -3.8615831   -3.8615831    -2.828987  0.029900777   -3.8615831    1.0325961      8192000 
  450000   0.79728112   -3.8615858   -3.8615858   -2.8294055  0.028701556   -3.8615858    1.0321803      8192000 
  451000   0.79772259   -3.8616992   -3.8616992   -2.8289446  0.026423228   -3.8616992    1.0327546      8192000 
  452000    0.7969711   -3.8612895   -3.8612895   -2.8295049  0.024456681   -3.8612895    1.0317846      8192000 
  453000   0.79686473       -3.861       -3.861   -2.8293501  0.027897697       -3.861    1.0316498      8192000 
  454000   0.79721934   -3.8613211   -3.8613211   -2.8292092  0.027563796   -3.8613211    1.0321118      8192000 
  455000   0.79745648   -3.8615633   -3.8615633   -2.8291418  0.027074811   -3.8615633    1.0324215      8192000 
  456000   0.79704646    -3.861148    -3.861148   -2.8292544  0.029803454    -3.861148    1.0318936      8192000 
  457000    0.7972039   -3.8613365   -3.8613365   -2.8292361  0.028437015   -3.8613365    1.0321004      8192000 
  458000    0.7970453   -3.8611783   -3.8611783   -2.8292804  0.027927884   -3.8611783     1.031898      8192000 
  459000   0.79687999   -3.8608057   -3.8608057   -2.8291188  0.029503497   -3.8608057    1.0316869      8192000 
  460000   0.79740783   -3.8611817   -3.8611817   -2.8288088  0.029252479   -3.8611817     1.032373      8192000 
  461000     0.797655   -3.8614567   -3.8614567   -2.8287609  0.028947603   -3.8614567    1.0326959      8192000 
  462000   0.79763267   -3.8616771   -3.8616771   -2.8290072  0.030356424   -3.8616771    1.0326699      8192000 
  463000   0.79735709    -3.861164    -3.861164    -2.828848  0.030523525    -3.861164    1.0323161      8192000 
  464000   0.79785317   -3.8614703   -3.8614703   -2.8285093  0.031073762   -3.8614703     1.032961      8192000 
  465000   0.79768596   -3.8614372   -3.8614372   -2.8286897   0.02831188   -3.8614372    1.0327474      8192000 
  466000   0.79763269   -3.8615998   -3.8615998   -2.8289184  0.026440399   -3.8615998    1.0326814      8192000 
  467000   0.79770457   -3.8614139   -3.8614139   -2.8286365  0.027318811   -3.8614139    1.0327774      8192000 
  468000   0.79749797   -3.8613685   -3.8613685   -2.8288559    0.0245672   -3.8613685    1.0325126      8192000 
  469000   0.79744853   -3.8613609   -3.8613609   -2.8289094   0.03035062   -3.8613609    1.0324515      8192000 
  470000   0.79778434   -3.8614435   -3.8614435   -2.8285543  0.026594316   -3.8614435    1.0328892      8192000 
  471000   0.79752704   -3.8615522   -3.8615522   -2.8289932  0.026947671   -3.8615522     1.032559      8192000 
  472000   0.79754764   -3.8612457   -3.8612457   -2.8286573  0.027016435   -3.8612457    1.0325884      8192000 
  473000   0.79749045   -3.8614733   -3.8614733    -2.828956  0.026367283   -3.8614733    1.0325173      8192000 
  474000   0.79749232   -3.8611813   -3.8611813   -2.8286587  0.026807598   -3.8611813    1.0325226      8192000 
  475000   0.79779679   -3.8615711   -3.8615711   -2.8286513  0.026938368   -3.8615711    1.0329198      8192000 
  476000   0.79722177   -3.8607724   -3.8607724   -2.8285942    0.0283162   -3.8607724    1.0321782      8192000 
  477000   0.79750244   -3.8610613   -3.8610613    -2.828517  0.027553621   -3.8610613    1.0325443      8192000 
  478000   0.79741593    -3.861144    -3.861144   -2.8287088  0.031360959    -3.861144    1.0324352      8192000 
  479000   0.79796016   -3.8615443   -3.8615443   -2.8284016  0.026467176   -3.8615443    1.0331428      8192000 
  480000   0.79779333   -3.8610056   -3.8610056   -2.8280759  0.025833205   -3.8610056    1.0329297      8192000 
  481000   0.79772516   -3.8613589   -3.8613589   -2.8285147  0.026550495   -3.8613589    1.0328441      8192000 
  482000   0.79797318   -3.8611141   -3.8611141   -2.8279459   0.02746398   -3.8611141    1.0331682      8192000 
  483000   0.79762531   -3.8610541   -3.8610541   -2.8283334  0.028096924   -3.8610541    1.0327207      8192000 
  484000   0.79792842   -3.8613691   -3.8613691    -2.828253   0.02705667   -3.8613691    1.0331161      8192000 
  485000   0.79785535   -3.8612218   -3.8612218   -2.8281976  0.028123265   -3.8612218    1.0330242      8192000 
  486000   0.79738457   -3.8610093   -3.8610093   -2.8285917    0.0290863   -3.8610093    1.0324176      8192000 
  487000    0.7973773   -3.8609975   -3.8609975   -2.8285864  0.026529596   -3.8609975    1.0324111      8192000 
  488000   0.79764867   -3.8610189   -3.8610189   -2.8282535  0.027172503   -3.8610189    1.0327654      8192000 
  489000   0.79743907   -3.8609773   -3.8609773   -2.8284806  0.025669615   -3.8609773    1.0324967      8192000 
  490000   0.79782304   -3.8612259   -3.8612259   -2.8282292    0.0239015   -3.8612259    1.0329968      8192000 
  491000   0.79762128   -3.8610297   -3.8610297   -2.8282913   0.02663347   -3.8610297    1.0327385      8192000 
  492000   0.79707604   -3.8603446   -3.8603446   -2.8283092  0.029285302   -3.8603446    1.0320354      8192000 
  493000   0.79767214   -3.8609592   -3.8609592    -2.828149  0.028485387   -3.8609592    1.0328102      8192000 
  494000   0.79737401   -3.8608251   -3.8608251   -2.8283982  0.028447445   -3.8608251    1.0324268      8192000 
  495000   0.79741338   -3.8610487   -3.8610487    -2.828568  0.027947809   -3.8610487    1.0324807      8192000 
  496000   0.79785132   -3.8614455   -3.8614455   -2.8283948  0.027063154   -3.8614455    1.0330507      8192000 
  497000   0.79745017   -3.8611467   -3.8611467   -2.8286125  0.027748276   -3.8611467    1.0325342      8192000 
  498000   0.79773299   -3.8612723   -3.8612723   -2.8283692  0.026925621   -3.8612723    1.0329031      8192000 
  499000   0.79766978   -3.8611307   -3.8611307   -2.8283065  0.028383109   -3.8611307    1.0328242      8192000 
  500000   0.79759976   -3.8605748   -3.8605748   -2.8278383  0.029955556   -3.8605748    1.0327365      8192000 
  501000   0.79757405   -3.8613169   -3.8613169   -2.8286108   0.02734285   -3.8613169    1.0327061      8192000 
  502000   0.79764965   -3.8606311   -3.8606311   -2.8278244  0.030483903   -3.8606311    1.0328067      8192000 
  503000   0.79767186   -3.8610824   -3.8610824    -2.828244  0.028107111   -3.8610824    1.0328384      8192000 
  504000   0.79714282   -3.8607371   -3.8607371   -2.8285808  0.029307787   -3.8607371    1.0321563      8192000 
  505000   0.79727917   -3.8604917   -3.8604917   -2.8281559  0.030002207   -3.8604917    1.0323358      8192000 
  506000   0.79739252   -3.8608838   -3.8608838   -2.8283986  0.026288156   -3.8608838    1.0324852      8192000 
  507000   0.79741042   -3.8609022   -3.8609022   -2.8283909   0.02856997   -3.8609022    1.0325114      8192000 
  508000   0.79734127   -3.8610821   -3.8610821   -2.8286573  0.030088004   -3.8610821    1.0324248      8192000 
  509000   0.79729673   -3.8606981   -3.8606981   -2.8283281  0.028715485   -3.8606981      1.03237      8192000 
  510000   0.79759345   -3.8609701   -3.8609701    -2.828213  0.027912587   -3.8609701    1.0327571      8192000 
  511000   0.79731603   -3.8608021   -3.8608021   -2.8284015  0.026810487   -3.8608021    1.0324006      8192000 
  512000   0.79726029   -3.8611532   -3.8611532   -2.8288218  0.027992853   -3.8611532    1.0323314      8192000 
  513000   0.79753809    -3.860977    -3.860977    -2.828283  0.028482454    -3.860977     1.032694      8192000 
  514000   0.79745307   -3.8609508   -3.8609508   -2.8283639  0.029118149   -3.8609508    1.0325868      8192000 
  515000   0.79721374   -3.8606227   -3.8606227    -2.828343   0.03051969   -3.8606227    1.0322796      8192000 
  516000   0.79736304     -3.86059     -3.86059   -2.8281141  0.030575207     -3.86059    1.0324759      8192000 
  517000   0.79788928   -3.8611982   -3.8611982   -2.8280379  0.027534372   -3.8611982    1.0331602      8192000 
  518000   0.79826065   -3.8613481   -3.8613481   -2.8277041   0.03114367   -3.8613481     1.033644      8192000 
  519000   0.79769061   -3.8610355   -3.8610355   -2.8281269  0.029235249   -3.8610355    1.0329086      8192000 
  520000   0.79704004   -3.8605472   -3.8605472   -2.8284781   0.03007651   -3.8605472    1.0320691      8192000 
  521000   0.79766938   -3.8613576   -3.8613576   -2.8284706  0.029329663   -3.8613576     1.032887      8192000 
  522000   0.79764492   -3.8608892   -3.8608892   -2.8280309  0.031249189   -3.8608892    1.0328582      8192000 
  523000   0.79748793   -3.8608342   -3.8608342   -2.8281766  0.027204349   -3.8608342    1.0326576      8192000 
  524000   0.79757456   -3.8605755   -3.8605755   -2.8278028  0.030340216   -3.8605755    1.0327727      8192000 
  525000   0.79781085   -3.8613183   -3.8613183   -2.8282366  0.027385219   -3.8613183    1.0330816      8192000 
  526000   0.79714511   -3.8601715   -3.8601715    -2.827949  0.028020055   -3.8601715    1.0322225      8192000 
  527000   0.79794731   -3.8608833   -3.8608833   -2.8276191  0.026384256   -3.8608833    1.0332642      8192000 
  528000   0.79764931   -3.8607931   -3.8607931   -2.8279121  0.029211103   -3.8607931     1.032881      8192000 
  529000   0.79789224   -3.8611755   -3.8611755    -2.827977  0.028852276   -3.8611755    1.0331985      8192000 
  530000   0.79791582    -3.861025    -3.861025   -2.8277931  0.027417132    -3.861025     1.033232      8192000 
  531000   0.79750075   -3.8603389   -3.8603389   -2.8276414  0.028120034   -3.8603389    1.0326974      8192000 
  532000   0.79704981   -3.8601933   -3.8601933   -2.8280771  0.029078081   -3.8601933    1.0321162      8192000 
  533000   0.79726879    -3.860281    -3.860281   -2.8278783  0.027621093    -3.860281    1.0324027      8192000 
  534000   0.79719945   -3.8604843   -3.8604843   -2.8281685  0.026506726   -3.8604843    1.0323158      8192000 
  535000   0.79730855    -3.860433    -3.860433   -2.8279729  0.025098842    -3.860433      1.03246      8192000 
  536000   0.79747474   -3.8602472   -3.8602472   -2.8275692  0.028187169   -3.8602472    1.0326779      8192000 
  537000   0.79816936   -3.8609501   -3.8609501   -2.8273698  0.024925132   -3.8609501    1.0335804      8192000 
  538000   0.79795668   -3.8610832   -3.8610832   -2.8277753  0.026912281   -3.8610832    1.0333079      8192000 
  539000   0.79816591   -3.8610195   -3.8610195   -2.8274378  0.027783135   -3.8610195    1.0335818      8192000 
  540000   0.79785708   -3.8606179   -3.8606179   -2.8274334  0.029812915   -3.8606179    1.0331845      8192000 
  541000   0.79837565   -3.8610063   -3.8610063   -2.8271473  0.027060239   -3.8610063     1.033859      8192000 
  542000   0.79804242   -3.8606929   -3.8606929   -2.8272625  0.028717257   -3.8606929    1.0334304      8192000 
  543000   0.79770874   -3.8604835   -3.8604835   -2.8274822  0.026437585   -3.8604835    1.0330012      8192000 
  544000   0.79719118   -3.8601058   -3.8601058   -2.8277719  0.031018474   -3.8601058    1.0323339      8192000 
  545000   0.79741222   -3.8600399   -3.8600399   -2.8274171  0.029825219   -3.8600399    1.0326229      8192000 
  546000   0.79705895   -3.8597017   -3.8597017   -2.8275334  0.027909316   -3.8597017    1.0321683      8192000 
  547000   0.79698393   -3.8600449   -3.8600449   -2.8279707  0.024835826   -3.8600449    1.0320741      8192000 
  548000   0.79722992   -3.8599302   -3.8599302   -2.8275346  0.027507415   -3.8599302    1.0323956      8192000 
  549000   0.79741137   -3.8600428   -3.8600428   -2.8274095  0.027733495   -3.8600428    1.0326332      8192000 
  550000   0.79769045   -3.8608465   -3.8608465   -2.8278489  0.025078215   -3.8608465    1.0329976      8192000 
  551000   0.79759447   -3.8602447   -3.8602447   -2.8273685  0.029347575   -3.8602447    1.0328762      8192000 
  552000   0.79756673   -3.8604867   -3.8604867   -2.8276434  0.028330377   -3.8604867    1.0328432      8192000 
  553000   0.79804088    -3.860921    -3.860921   -2.8274611  0.028655552    -3.860921      1.03346      8192000 
  554000   0.79762055   -3.8608125   -3.8608125   -2.8278939   0.02865051   -3.8608125    1.0329186      8192000 
  555000   0.79800378   -3.8605329   -3.8605329   -2.8271151  0.026577013   -3.8605329    1.0334178      8192000 
  556000   0.79733841   -3.8599661   -3.8599661   -2.8274071  0.029173215   -3.8599661     1.032559      8192000 
  557000   0.79719652   -3.8602293   -3.8602293   -2.8278513   0.03014994   -3.8602293     1.032378      8192000 
  558000   0.79728309   -3.8602791   -3.8602791   -2.8277861  0.027789217   -3.8602791     1.032493      8192000 
  559000   0.79741444    -3.860367    -3.860367   -2.8277009  0.023960503    -3.860367    1.0326661      8192000 
  560000   0.79742162   -3.8601672   -3.8601672   -2.8274889  0.027615382   -3.8601672    1.0326783      8192000 
  561000   0.79753955   -3.8604697   -3.8604697   -2.8276358  0.027078248   -3.8604697    1.0328339      8192000 
  562000   0.79729474    -3.860178    -3.860178   -2.8276584  0.029880909    -3.860178    1.0325196      8192000 
  563000   0.79790781   -3.8607526   -3.8607526   -2.8274361  0.030305639   -3.8607526    1.0333165      8192000 
  564000   0.79733542   -3.8601642   -3.8601642    -2.827586  0.028649883   -3.8601642    1.0325781      8192000 
  565000   0.79781243   -3.8607633   -3.8607633   -2.8275645  0.027976071   -3.8607633    1.0331988      8192000 
  566000   0.79769818   -3.8606395   -3.8606395   -2.8275859  0.028032686   -3.8606395    1.0330535      8192000 
  567000   0.79818554    -3.860929    -3.860929   -2.8272414  0.027854769    -3.860929    1.0336876      8192000 
  568000   0.79806712   -3.8605388   -3.8605388   -2.8270016  0.029574776   -3.8605388    1.0335372      8192000 
  569000   0.79779977   -3.8606601   -3.8606601   -2.8274662  0.029252918   -3.8606601    1.0331939      8192000 
  570000   0.79732699    -3.859716    -3.859716   -2.8271317  0.032254312    -3.859716    1.0325843      8192000 
  571000   0.79796781   -3.8607603   -3.8607603   -2.8273431  0.027459807   -3.8607603    1.0334171      8192000 
  572000   0.79761474   -3.8602432   -3.8602432   -2.8272803  0.027059138   -3.8602432    1.0329628      8192000 
  573000   0.79735337   -3.8599379   -3.8599379   -2.8273107  0.027477141   -3.8599379    1.0326273      8192000 
  574000   0.79725709   -3.8597795   -3.8597795   -2.8272742  0.028399601   -3.8597795    1.0325053      8192000 
  575000   0.79746096   -3.8602388   -3.8602388   -2.8274665  0.028843618   -3.8602388    1.0327722      8192000 
  576000   0.79738337   -3.8603723   -3.8603723   -2.8276976   0.02795776   -3.8603723    1.0326747      8192000 
  577000   0.79759639   -3.8604034   -3.8604034   -2.8274499  0.028798373   -3.8604034    1.0329535      8192000 
  578000   0.79754449   -3.8599981   -3.8599981   -2.8271089  0.027698734   -3.8599981    1.0328892      8192000 
  579000    0.7976747   -3.8600923   -3.8600923   -2.8270318  0.028044883   -3.8600923    1.0330605      8192000 
  580000   0.79775767    -3.860089    -3.860089   -2.8269181   0.02884824    -3.860089    1.0331709      8192000 
  581000    0.7975202   -3.8600129   -3.8600129   -2.8271466  0.025903495   -3.8600129    1.0328663      8192000 
  582000   0.79767232   -3.8598307   -3.8598307   -2.8267644  0.027871994   -3.8598307    1.0330662      8192000 
  583000   0.79696027   -3.8594119   -3.8594119   -2.8272651  0.028126445   -3.8594119    1.0321468      8192000 
  584000    0.7977111   -3.8603092   -3.8603092   -2.8271871  0.028946424   -3.8603092    1.0331221      8192000 
  585000   0.79728388   -3.8592648   -3.8592648   -2.8266931  0.028114548   -3.8592648    1.0325717      8192000 
  586000   0.79762714   -3.8600076   -3.8600076   -2.8269884  0.027193694   -3.8600076    1.0330192      8192000 
  587000   0.79722174   -3.8595417   -3.8595417   -2.8270448  0.028214173   -3.8595417    1.0324969      8192000 
  588000   0.79759018   -3.8597207   -3.8597207   -2.8267438  0.027725019   -3.8597207     1.032977      8192000 
  589000   0.79757925   -3.8599351   -3.8599351   -2.8269694  0.027832947   -3.8599351    1.0329658      8192000 
  590000   0.79725192   -3.8596444   -3.8596444   -2.8270997  0.027604762   -3.8596444    1.0325448      8192000 
  591000   0.79747921   -3.8597154   -3.8597154   -2.8268736  0.026224779   -3.8597154    1.0328418      8192000 
  592000   0.79776475    -3.860095    -3.860095   -2.8268805  0.025322935    -3.860095    1.0332146      8192000 
  593000   0.79750057   -3.8595496   -3.8595496   -2.8266743  0.027960156   -3.8595496    1.0328753      8192000 
  594000   0.79774742   -3.8599147   -3.8599147   -2.8267167  0.024921117   -3.8599147     1.033198      8192000 
  595000   0.79794465   -3.8599853   -3.8599853   -2.8265289  0.028210917   -3.8599853    1.0334564      8192000 
  596000   0.79783604   -3.8600071   -3.8600071   -2.8266887  0.030585097   -3.8600071    1.0333184      8192000 
  597000   0.79722039   -3.8590864   -3.8590864   -2.8265624  0.029953965   -3.8590864    1.0325239      8192000 
  598000   0.79739804   -3.8593411   -3.8593411   -2.8265841  0.030354742   -3.8593411     1.032757      8192000 
  599000    0.7978493   -3.8597216   -3.8597216   -2.8263773  0.028189061   -3.8597216    1.0333443      8192000 
  600000   0.79761572   -3.8596703   -3.8596703   -2.8266258  0.029086167   -3.8596703    1.0330445      8192000 
  601000   0.79748271   -3.8595493   -3.8595493   -2.8266742  0.026325908   -3.8595493    1.0328752      8192000 
  602000   0.79769497    -3.859958    -3.859958    -2.826805  0.025529359    -3.859958     1.033153      8192000 
  603000   0.79774469    -3.859707    -3.859707   -2.8264867    0.0271965    -3.859707    1.0332204      8192000 
  604000   0.79767214   -3.8593456   -3.8593456   -2.8262166  0.028507129   -3.8593456    1.0331291      8192000 
  605000   0.79754915    -3.859629    -3.859629   -2.8266563  0.027485782    -3.859629    1.0329727      8192000 
  606000    0.7978987   -3.8599635   -3.8599635   -2.8265351  0.028241141   -3.8599635    1.0334284      8192000 
  607000   0.79737133   -3.8593165   -3.8593165   -2.8265683  0.032525013   -3.8593165    1.0327483      8192000 
  608000   0.79782663   -3.8597703   -3.8597703   -2.8264296  0.033368473   -3.8597703    1.0333407      8192000 
  609000   0.79809728   -3.8602335   -3.8602335   -2.8265394  0.028323745   -3.8602335    1.0336941      8192000 
  610000   0.79761108   -3.8595318   -3.8595318   -2.8264644  0.033328963   -3.8595318    1.0330674      8192000 
  611000   0.79781793   -3.8598059   -3.8598059   -2.8264677   0.02759788   -3.8598059    1.0333382      8192000 
  612000   0.79758459   -3.8592593   -3.8592593   -2.8262204  0.029985433   -3.8592593    1.0330389      8192000 
  613000   0.79748356    -3.859387    -3.859387   -2.8264762  0.029372274    -3.859387    1.0329107      8192000 
  614000   0.79809843   -3.8599124   -3.8599124   -2.8262023  0.025786249   -3.8599124    1.0337101      8192000 
  615000   0.79743192   -3.8594388   -3.8594388   -2.8265891  0.027998969   -3.8594388    1.0328497      8192000 
  616000   0.79754628   -3.8594991   -3.8594991   -2.8264983  0.027647199   -3.8594991    1.0330008      8192000 
  617000   0.79746613   -3.8594462   -3.8594462   -2.8265465   0.02889129   -3.8594462    1.0328997      8192000 
  618000   0.79732012   -3.8591694   -3.8591694    -2.826456  0.028526738   -3.8591694    1.0327135      8192000 
  619000   0.79770276   -3.8598714   -3.8598714   -2.8266594  0.027763206   -3.8598714     1.033212      8192000 
  620000   0.79799403   -3.8600084   -3.8600084   -2.8264162  0.027793599   -3.8600084    1.0335922      8192000 
  621000   0.79763363   -3.8593731   -3.8593731    -2.826245  0.027024203   -3.8593731    1.0331281      8192000 
  622000   0.79807724   -3.8596564   -3.8596564   -2.8259508   0.02832113   -3.8596564    1.0337056      8192000 
  623000   0.79787427   -3.8594136   -3.8594136    -2.825968   0.02527145   -3.8594136    1.0334456      8192000 
  624000   0.79748578   -3.8591877   -3.8591877   -2.8262423  0.027706424   -3.8591877    1.0329454      8192000 
  625000   0.79737864    -3.859085    -3.859085   -2.8262757  0.029481032    -3.859085    1.0328093      8192000 
  626000   0.79747488   -3.8592499   -3.8592499    -2.826313  0.028720389   -3.8592499    1.0329369      8192000 
  627000   0.79776462   -3.8596893   -3.8596893   -2.8263742  0.033703728   -3.8596893    1.0333151      8192000 
  628000    0.7971483   -3.8590052   -3.8590052   -2.8264854   0.03047251   -3.8590052    1.0325198      8192000 
  629000   0.79807111   -3.8598154   -3.8598154   -2.8260974  0.025611507   -3.8598154     1.033718      8192000 
  630000   0.79787739   -3.8593774   -3.8593774   -2.8259077  0.026667356   -3.8593774    1.0334697      8192000 
  631000   0.79829247   -3.8597733   -3.8597733   -2.8257629  0.027269737   -3.8597733    1.0340103      8192000 
  632000   0.79748753   -3.8589145   -3.8589145   -2.8259439  0.029279814   -3.8589145    1.0329706      8192000 
  633000   0.79785839   -3.8594034   -3.8594034   -2.8259495  0.028993695   -3.8594034    1.0334539      8192000 
  634000   0.79762417   -3.8593311   -3.8593311   -2.8261779  0.027513076   -3.8593311    1.0331532      8192000 
  635000     0.798111    -3.859521    -3.859521   -2.8257343  0.028787417    -3.859521    1.0337868      8192000 
  636000   0.79761392   -3.8593292   -3.8593292   -2.8261833  0.024814402   -3.8593292    1.0331458      8192000 
  637000   0.79782635   -3.8589506   -3.8589506   -2.8255266  0.029727474   -3.8589506    1.0334239      8192000 
  638000   0.79785693   -3.8594056   -3.8594056   -2.8259393  0.028910124   -3.8594056    1.0334662      8192000 
  639000   0.79794793   -3.8597679   -3.8597679   -2.8261809  0.029523863   -3.8597679     1.033587      8192000 
  640000   0.79785151   -3.8596632   -3.8596632   -2.8261981  0.027668182   -3.8596632    1.0334651      8192000 
  641000   0.79787635   -3.8597597   -3.8597597   -2.8262595  0.026181776   -3.8597597    1.0335002      8192000 
  642000   0.79722378   -3.8589896   -3.8589896    -2.826332  0.029504078   -3.8589896    1.0326576      8192000 
  643000   0.79711601   -3.8583468   -3.8583468   -2.8258259  0.029515311   -3.8583468    1.0325209      8192000 
  644000   0.79738037   -3.8587638   -3.8587638   -2.8258975  0.030529935   -3.8587638    1.0328663      8192000 
  645000   0.79798086   -3.8595709   -3.8595709   -2.8259239  0.026783881   -3.8595709     1.033647      8192000 
  646000   0.79803055   -3.8594052   -3.8594052   -2.8256908  0.026898516   -3.8594052    1.0337144      8192000 
  647000   0.79769249    -3.859024    -3.859024   -2.8257448  0.030135596    -3.859024    1.0332791      8192000 
  648000   0.79818107   -3.8596789   -3.8596789   -2.8257639  0.029728957   -3.8596789     1.033915      8192000 
  649000   0.79769854   -3.8593111   -3.8593111   -2.8260182  0.029520102   -3.8593111    1.0332929      8192000 
  650000   0.79778004   -3.8596033   -3.8596033   -2.8262019  0.028189523   -3.8596033    1.0334014      8192000 
  651000   0.79774036   -3.8592681   -3.8592681   -2.8259155  0.031520899   -3.8592681    1.0333526      8192000 
[...]
 3800000   0.79620192   -3.8224944   -3.8224944   -2.7820127  0.030222025   -3.8224944    1.0404817      8192000 
 3801000   0.79617936   -3.8222217   -3.8222217   -2.7817665  0.029564027   -3.8222217    1.0404552      8192000 
 3802000   0.79621065   -3.8217132   -3.8217132   -2.7812142  0.030491274   -3.8217132    1.0404991      8192000 
 3803000   0.79640838   -3.8224444   -3.8224444    -2.781684  0.029553612   -3.8224444    1.0407604      8192000 
 3804000   0.79617452   -3.8216799   -3.8216799   -2.7812223  0.028841385   -3.8216799    1.0404575      8192000 
 3805000   0.79608796   -3.8218508   -3.8218508   -2.7815033  0.027597436   -3.8218508    1.0403474      8192000 
 3806000   0.79610342   -3.8216399   -3.8216399   -2.7812693  0.029604364   -3.8216399    1.0403706      8192000 
 3807000   0.79579217   -3.8213064   -3.8213064   -2.7813396  0.028720235   -3.8213064    1.0399668      8192000 
 3808000   0.79629072   -3.8218833   -3.8218833    -2.781262  0.027160509   -3.8218833    1.0406213      8192000 
 3809000   0.79570111   -3.8210768   -3.8210768   -2.7812232  0.028706777   -3.8210768    1.0398535      8192000 
 3810000   0.79610295   -3.8217031   -3.8217031   -2.7813214  0.027979197   -3.8217031    1.0403817      8192000 
 3811000   0.79675118   -3.8221911   -3.8221911   -2.7809593  0.026200392   -3.8221911    1.0412318      8192000 
 3812000   0.79593355   -3.8212941   -3.8212941   -2.7811278   0.03205594   -3.8212941    1.0401662      8192000 
 3813000   0.79590442   -3.8217012   -3.8217012   -2.7815703  0.028886942   -3.8217012    1.0401309      8192000 
 3814000   0.79613844   -3.8220163   -3.8220163   -2.7815766  0.029876713   -3.8220163    1.0404397      8192000 
 3815000   0.79617873   -3.8220311   -3.8220311   -2.7815357  0.027160898   -3.8220311    1.0404953      8192000 
 3816000   0.79608629   -3.8214629   -3.8214629   -2.7810853  0.031805976   -3.8214629    1.0403775      8192000 
 3817000   0.79629995   -3.8220537   -3.8220537   -2.7813942  0.031953301   -3.8220537    1.0406595      8192000 
 3818000   0.79668771    -3.822578    -3.822578   -2.7814088  0.028387453    -3.822578    1.0411692      8192000 
 3819000   0.79664491   -3.8226857   -3.8226857   -2.7815694   0.02912098   -3.8226857    1.0411163      8192000 
 3820000   0.79666387   -3.8227316   -3.8227316   -2.7815876  0.031343737   -3.8227316     1.041144      8192000 
 3821000   0.79666316   -3.8225209   -3.8225209   -2.7813751  0.032119924   -3.8225209    1.0411458      8192000 
 3822000   0.79692712   -3.8232575   -3.8232575   -2.7817637  0.029026743   -3.8232575    1.0414938      8192000 
 3823000   0.79698958   -3.8231031   -3.8231031   -2.7815247  0.032709299   -3.8231031    1.0415784      8192000 
 3824000   0.79678602   -3.8231295   -3.8231295   -2.7818141   0.03233465   -3.8231295    1.0413153      8192000 
 3825000   0.79694531   -3.8235401   -3.8235401   -2.7820136  0.032307882   -3.8235401    1.0415265      8192000 
 3826000   0.79679163    -3.823305    -3.823305   -2.7819766  0.031679521    -3.823305    1.0413284      8192000 
 3827000   0.79695059    -3.823511    -3.823511   -2.7819719  0.035309996    -3.823511    1.0415391      8192000 
 3828000   0.79688425   -3.8229094   -3.8229094    -2.781454  0.034805752   -3.8229094    1.0414554      8192000 
 3829000   0.79776706   -3.8239189   -3.8239189   -2.7813068  0.031144435   -3.8239189    1.0426121      8192000 
 3830000   0.79716787   -3.8231888   -3.8231888    -2.781357  0.034132877   -3.8231888    1.0418318      8192000 
 3831000    0.7969129   -3.8232312   -3.8232312   -2.7817297  0.032586818   -3.8232312    1.0415016      8192000 
 3832000   0.79715657   -3.8232448   -3.8232448   -2.7814218  0.036796103   -3.8232448     1.041823      8192000 
 3833000   0.79756442   -3.8236313   -3.8236313   -2.7812723  0.031002083   -3.8236313     1.042359      8192000 
 3834000   0.79724177   -3.8232961   -3.8232961   -2.7813561  0.032433033   -3.8232961    1.0419401      8192000 
 3835000   0.79713054   -3.8231752   -3.8231752   -2.7813775  0.032996571   -3.8231752    1.0417977      8192000 
 3836000   0.79644222   -3.8221927   -3.8221927   -2.7812917   0.03279054   -3.8221927    1.0409011      8192000 
 3837000   0.79608216   -3.8222697   -3.8222697   -2.7818363  0.030006348   -3.8222697    1.0404335      8192000 
 3838000    0.7966054   -3.8226371   -3.8226371    -2.781517  0.026444389   -3.8226371    1.0411201      8192000 
 3839000   0.79645144   -3.8216949   -3.8216949   -2.7807731  0.031348146   -3.8216949    1.0409218      8192000 
 3840000   0.79660294   -3.8220692   -3.8220692   -2.7809464  0.028597179   -3.8220692    1.0411228      8192000 
 3841000    0.7962788   -3.8215547   -3.8215547   -2.7808526  0.029754366   -3.8215547    1.0407022      8192000 
 3842000   0.79617476   -3.8215361   -3.8215361   -2.7809669  0.031339267   -3.8215361    1.0405692      8192000 
 3843000   0.79611243   -3.8215116   -3.8215116   -2.7810211  0.026862864   -3.8215116    1.0404904      8192000 
 3844000   0.79638183   -3.8214465   -3.8214465    -2.780601  0.029629865   -3.8214465    1.0408455      8192000 
 3845000   0.79668127   -3.8217162   -3.8217162   -2.7804764  0.028344365   -3.8217162    1.0412399      8192000 
 3846000   0.79649806   -3.8216656   -3.8216656   -2.7806622  0.028519948   -3.8216656    1.0410034      8192000 
 3847000   0.79685542   -3.8220657   -3.8220657   -2.7805926  0.029926189   -3.8220657    1.0414732      8192000 
 3848000   0.79635272   -3.8216568   -3.8216568   -2.7808377  0.028797395   -3.8216568    1.0408191      8192000 
 3849000   0.79618667   -3.8211408   -3.8211408   -2.7805357   0.02890473   -3.8211408    1.0406051      8192000 
 3850000   0.79608391   -3.8209154   -3.8209154   -2.7804416  0.027088621   -3.8209154    1.0404738      8192000 
 3851000   0.79584766   -3.8209114   -3.8209114   -2.7807437  0.029902541   -3.8209114    1.0401677      8192000 
 3852000   0.79521498   -3.8204018   -3.8204018    -2.781058  0.029253811   -3.8204018    1.0393438      8192000 
 3853000   0.79562327   -3.8210304   -3.8210304   -2.7811499   0.02829227   -3.8210304    1.0398804      8192000 
 3854000   0.79558129   -3.8211248   -3.8211248   -2.7812963  0.030740194   -3.8211248    1.0398285      8192000 
 3855000   0.79619541   -3.8212749   -3.8212749   -2.7806409  0.029877729   -3.8212749    1.0406339      8192000 
 3856000   0.79589215   -3.8214849   -3.8214849   -2.7812444  0.030580208   -3.8214849    1.0402405      8192000 
 3857000   0.79664689   -3.8222908   -3.8222908   -2.7810609  0.029807884   -3.8222908      1.04123      8192000 
 3858000   0.79631177   -3.8218539   -3.8218539   -2.7810589  0.030049173   -3.8218539    1.0407949      8192000 
 3859000   0.79644363    -3.821701    -3.821701   -2.7807307  0.034081755    -3.821701    1.0409703      8192000 
 3860000   0.79683394   -3.8220299   -3.8220299   -2.7805468  0.030816429   -3.8220299    1.0414831      8192000 
 3861000   0.79699928   -3.8223655   -3.8223655   -2.7806632  0.030154672   -3.8223655    1.0417022      8192000 
 3862000   0.79670933   -3.8224677   -3.8224677   -2.7811414  0.031087848   -3.8224677    1.0413262      8192000 
 3863000   0.79716312   -3.8224078   -3.8224078   -2.7804854  0.032258266   -3.8224078    1.0419224      8192000 
 3864000    0.7969593   -3.8222246   -3.8222246   -2.7805659  0.032861396   -3.8222246    1.0416587      8192000 
 3865000   0.79678008   -3.8223745   -3.8223745   -2.7809471  0.033215463   -3.8223745    1.0414274      8192000 
 3866000   0.79656312   -3.8221302   -3.8221302   -2.7809833  0.031029626   -3.8221302    1.0411468      8192000 
 3867000   0.79666863    -3.822262    -3.822262   -2.7809742  0.032886516    -3.822262    1.0412877      8192000 
 3868000   0.79719242   -3.8229789   -3.8229789   -2.7810039  0.030644264   -3.8229789    1.0419751      8192000 
 3869000    0.7968514   -3.8223193   -3.8223193    -2.780787  0.033188203   -3.8223193    1.0415323      8192000 
 3870000   0.79685523   -3.8226418   -3.8226418   -2.7811015  0.034480817   -3.8226418    1.0415403      8192000 
 3871000   0.79735422   -3.8231933   -3.8231933   -2.7809978  0.030634825   -3.8231933    1.0421955      8192000 
 3872000   0.79729627   -3.8225144   -3.8225144   -2.7803919   0.03237714   -3.8225144    1.0421225      8192000 
 3873000   0.79712543    -3.822618    -3.822618   -2.7807158  0.033639355    -3.822618    1.0419022      8192000 
 3874000   0.79687194   -3.8218764   -3.8218764   -2.7803026  0.033586099   -3.8218764    1.0415739      8192000 
 3875000   0.79661931   -3.8214572   -3.8214572   -2.7802105  0.034586448   -3.8214572    1.0412466      8192000 
 3876000   0.79656187   -3.8216574   -3.8216574   -2.7804828  0.035887854   -3.8216574    1.0411745      8192000 
 3877000   0.79709772    -3.822337    -3.822337   -2.7804593  0.029824802    -3.822337    1.0418777      8192000 
 3878000   0.79636905   -3.8218303   -3.8218303   -2.7809021  0.028671277   -3.8218303    1.0409282      8192000 
 3879000    0.7964151   -3.8218213   -3.8218213   -2.7808299  0.030943573   -3.8218213    1.0409914      8192000 
 3880000   0.79604749   -3.8215046   -3.8215046   -2.7809907  0.029828994   -3.8215046    1.0405139      8192000 
 3881000   0.79597389   -3.8213247   -3.8213247   -2.7809043  0.029671633   -3.8213247    1.0404204      8192000 
 3882000   0.79630209   -3.8214378   -3.8214378   -2.7805855  0.027522188   -3.8214378    1.0408524      8192000 
 3883000   0.79580962   -3.8207966   -3.8207966    -2.780585  0.030110224   -3.8207966    1.0402116      8192000 
 3884000    0.7960541   -3.8207386   -3.8207386   -2.7802044  0.028518344   -3.8207386    1.0405342      8192000 
 3885000   0.79607535   -3.8211144   -3.8211144   -2.7805497  0.029463674   -3.8211144    1.0405647      8192000 
 3886000   0.79622388    -3.821591    -3.821591   -2.7808292  0.030540467    -3.821591    1.0407618      8192000 
 3887000   0.79624066   -3.8212363   -3.8212363   -2.7804495  0.029311444   -3.8212363    1.0407867      8192000 
 3888000   0.79629664   -3.8213293   -3.8213293   -2.7804664   0.02937965   -3.8213293    1.0408629      8192000 
 3889000    0.7960317   -3.8206282   -3.8206282   -2.7801089  0.029894089   -3.8206282    1.0405193      8192000 
 3890000   0.79649755    -3.821319    -3.821319   -2.7801878  0.027666358    -3.821319    1.0411312      8192000 
 3891000   0.79638542   -3.8213001   -3.8213001   -2.7803125  0.027649957   -3.8213001    1.0409876      8192000 
 3892000   0.79584559    -3.820828    -3.820828    -2.780543  0.032178387    -3.820828     1.040285      8192000 
 3893000    0.7958962   -3.8211096   -3.8211096   -2.7807555  0.030951448   -3.8211096    1.0403541      8192000 
 3894000   0.79638316     -3.82143     -3.82143   -2.7804366  0.029177791     -3.82143    1.0409934      8192000 
 3895000   0.79642801   -3.8215276   -3.8215276   -2.7804726  0.031129241   -3.8215276     1.041055      8192000 
 3896000   0.79637928    -3.821403    -3.821403   -2.7804087  0.029043533    -3.821403    1.0409943      8192000 
 3897000   0.79655889   -3.8217688   -3.8217688   -2.7805367   0.03147062   -3.8217688     1.041232      8192000 
 3898000   0.79650926    -3.821489    -3.821489   -2.7803191  0.030794362    -3.821489    1.0411699      8192000 
 3899000    0.7969215   -3.8221972   -3.8221972   -2.7804855  0.032039758   -3.8221972    1.0417118      8192000 
 3900000    0.7966751   -3.8219666   -3.8219666   -2.7805739  0.032506804   -3.8219666    1.0413927      8192000 
 3901000   0.79645555   -3.8214516   -3.8214516    -2.780343  0.034269132   -3.8214516    1.0411087      8192000 
 3902000   0.79679219   -3.8218662   -3.8218662   -2.7803147  0.034588482   -3.8218662    1.0415514      8192000 
 3903000   0.79680099   -3.8219794   -3.8219794   -2.7804134  0.032779454   -3.8219794    1.0415659      8192000 
 3904000   0.79687869   -3.8219471   -3.8219471   -2.7802766  0.032977674   -3.8219471    1.0416705      8192000 
 3905000   0.79734642   -3.8225582   -3.8225582   -2.7802733  0.030801214   -3.8225582    1.0422849      8192000 
 3906000   0.79683457   -3.8220027   -3.8220027   -2.7803841  0.032626431   -3.8220027    1.0416185      8192000 
 3907000   0.79664306   -3.8219601   -3.8219601   -2.7805889  0.034559742   -3.8219601    1.0413712      8192000 
 3908000   0.79725326     -3.82258     -3.82258   -2.7804082  0.029822761     -3.82258    1.0421718      8192000 
 3909000   0.79678843   -3.8218982   -3.8218982    -2.780331  0.030742356   -3.8218982    1.0415672      8192000 
 3910000    0.7964415   -3.8216694   -3.8216694   -2.7805527  0.032041463   -3.8216694    1.0411166      8192000 
 3911000   0.79692082   -3.8223678   -3.8223678   -2.7806218  0.030634046   -3.8223678     1.041746      8192000 
 3912000   0.79650381   -3.8218409   -3.8218409   -2.7806371  0.031947876   -3.8218409    1.0412038      8192000 
 3913000    0.7964416   -3.8218291   -3.8218291   -2.7807036  0.026606854   -3.8218291    1.0411255      8192000 
 3914000   0.79654337   -3.8217577   -3.8217577   -2.7804962  0.031291943   -3.8217577    1.0412615      8192000 
 3915000    0.7962843   -3.8215803   -3.8215803   -2.7806547  0.030380909   -3.8215803    1.0409256      8192000 
 3916000   0.79654709   -3.8218705   -3.8218705   -2.7805985  0.029652578   -3.8218705    1.0412721      8192000 
 3917000   0.79603952   -3.8212224   -3.8212224   -2.7806108  0.031347215   -3.8212224    1.0406116      8192000 
 3918000   0.79644321   -3.8210135   -3.8210135   -2.7798713  0.029180779   -3.8210135    1.0411422      8192000 
 3919000   0.79668249   -3.8214591   -3.8214591   -2.7800014  0.030364496   -3.8214591    1.0414578      8192000 
 3920000   0.79667918    -3.821362    -3.821362   -2.7799055  0.031148878    -3.821362    1.0414564      8192000 
 3921000   0.79619899    -3.820918    -3.820918   -2.7800863  0.032360696    -3.820918    1.0408317      8192000 
 3922000   0.79695715   -3.8219295   -3.8219295   -2.7801037  0.030461186   -3.8219295    1.0418258      8192000 
 3923000   0.79648594   -3.8212055   -3.8212055    -2.779993  0.030912396   -3.8212055    1.0412125      8192000 
 3924000   0.79676037   -3.8214409   -3.8214409   -2.7798666  0.031050289   -3.8214409    1.0415743      8192000 
 3925000   0.79666051   -3.8214312   -3.8214312   -2.7799845  0.031344065   -3.8214312    1.0414467      8192000 
 3926000   0.79681551   -3.8218629   -3.8218629   -2.7802106  0.029168202   -3.8218629    1.0416523      8192000 
 3927000   0.79647778   -3.8211229   -3.8211229   -2.7799091   0.03222699   -3.8211229    1.0412138      8192000 
 3928000   0.79688803   -3.8219744   -3.8219744   -2.7802215  0.030001505   -3.8219744    1.0417528      8192000 
 3929000   0.79646574   -3.8213455   -3.8213455   -2.7801418  0.030230865   -3.8213455    1.0412038      8192000 
 3930000   0.79617889   -3.8211966   -3.8211966   -2.7803648  0.028727744   -3.8211966    1.0408318      8192000 
 3931000   0.79607635   -3.8212026   -3.8212026   -2.7805019  0.032165199   -3.8212026    1.0407007      8192000 
 3932000    0.7963464   -3.8215829   -3.8215829   -2.7805265  0.030987726   -3.8215829    1.0410565      8192000 
 3933000   0.79606348    -3.821403    -3.821403   -2.7807134  0.028970215    -3.821403    1.0406896      8192000 
 3934000   0.79621626   -3.8213819   -3.8213819   -2.7804896  0.029083645   -3.8213819    1.0408923      8192000 
 3935000    0.7964957   -3.8219481   -3.8219481   -2.7806875   0.03005941   -3.8219481    1.0412606      8192000 
 3936000   0.79604451   -3.8211887   -3.8211887   -2.7805152  0.034662983   -3.8211887    1.0406735      8192000 
 3937000   0.79690539   -3.8223538   -3.8223538   -2.7805519  0.029603492   -3.8223538    1.0418019      8192000 
 3938000    0.7964522   -3.8218623   -3.8218623   -2.7806499  0.031098725   -3.8218623    1.0412124      8192000 
 3939000   0.79632966   -3.8217167   -3.8217167   -2.7806614  0.032397602   -3.8217167    1.0410552      8192000 
 3940000   0.79667662    -3.821803    -3.821803   -2.7802915  0.033662733    -3.821803    1.0415115      8192000 
 3941000   0.79690245   -3.8226712   -3.8226712   -2.7808614  0.030432444   -3.8226712    1.0418098      8192000 
 3942000   0.79716398   -3.8223911   -3.8223911   -2.7802364  0.029620391   -3.8223911    1.0421547      8192000 
 3943000    0.7972092   -3.8225254   -3.8225254   -2.7803086   0.03157459   -3.8225254    1.0422168      8192000 
 3944000   0.79707707    -3.822164    -3.822164    -2.780117  0.032621157    -3.822164     1.042047      8192000 
 3945000   0.79681516   -3.8219608   -3.8219608   -2.7802535  0.035175231   -3.8219608    1.0417073      8192000 
 3946000    0.7969574   -3.8220759   -3.8220759   -2.7801796  0.033002426   -3.8220759    1.0418963      8192000 
 3947000   0.79660551    -3.821924    -3.821924   -2.7804847  0.030688364    -3.821924    1.0414392      8192000 
 3948000   0.79641803   -3.8218405   -3.8218405   -2.7806434  0.030765397   -3.8218405    1.0411971      8192000 
 3949000   0.79660696   -3.8218586   -3.8218586   -2.7804117  0.029840954   -3.8218586    1.0414468      8192000 
 3950000     0.796458   -3.8215518   -3.8215518   -2.7802967  0.032405424   -3.8215518    1.0412551      8192000 
 3951000   0.79660634   -3.8215016   -3.8215016   -2.7800496  0.031257805   -3.8215016     1.041452      8192000 
 3952000   0.79650075     -3.82166     -3.82166   -2.7803431  0.029341623     -3.82166    1.0413169      8192000 
 3953000   0.79588261   -3.8207994   -3.8207994   -2.7802879  0.030166288   -3.8207994    1.0405115      8192000 
 3954000   0.79663893   -3.8211751   -3.8211751   -2.7796718  0.030198997   -3.8211751    1.0415033      8192000 
 3955000   0.79661905   -3.8210187   -3.8210187   -2.7795384  0.030747758   -3.8210187    1.0414803      8192000 
 3956000   0.79621516   -3.8206897   -3.8206897   -2.7797345  0.030970892   -3.8206897    1.0409553      8192000 
 3957000   0.79626364   -3.8206008   -3.8206008   -2.7795795  0.032451748   -3.8206008    1.0410214      8192000 
 3958000   0.79620539   -3.8204438   -3.8204438   -2.7794956  0.030947594   -3.8204438    1.0409482      8192000 
 3959000   0.79639988    -3.820773    -3.820773   -2.7795675  0.028281515    -3.820773    1.0412055      8192000 
 3960000   0.79621848   -3.8210089   -3.8210089   -2.7800376  0.026878726   -3.8210089    1.0409713      8192000 
 3961000   0.79661875   -3.8213565   -3.8213565   -2.7798589  0.026400812   -3.8213565    1.0414976      8192000 
 3962000   0.79606493    -3.820461    -3.820461   -2.7796847  0.028815294    -3.820461    1.0407763      8192000 
 3963000   0.79595368   -3.8203045   -3.8203045   -2.7796708  0.029351815   -3.8203045    1.0406338      8192000 
 3964000   0.79610524    -3.820619    -3.820619    -2.779784  0.027129222    -3.820619    1.0408349      8192000 
 3965000   0.79644517   -3.8210475   -3.8210475   -2.7797651  0.027357466   -3.8210475    1.0412823      8192000 
 3966000    0.7960323   -3.8209209   -3.8209209   -2.7801757  0.028656509   -3.8209209    1.0407453      8192000 
 3967000   0.79644251    -3.821123    -3.821123   -2.7798385  0.026882404    -3.821123    1.0412846      8192000 
 3968000   0.79606311   -3.8207674   -3.8207674   -2.7799758  0.029898991   -3.8207674    1.0407915      8192000 
 3969000   0.79653701    -3.821435    -3.821435   -2.7800209  0.027970222    -3.821435    1.0414141      8192000 
 3970000   0.79610751    -3.820898    -3.820898   -2.7800427   0.03127327    -3.820898    1.0408553      8192000 
 3971000   0.79632183    -3.821196    -3.821196   -2.7800576   0.02813869    -3.821196    1.0411385      8192000 
 3972000     0.796229   -3.8213994   -3.8213994   -2.7803793  0.031713947   -3.8213994    1.0410201      8192000 
 3973000   0.79678841   -3.8216312   -3.8216312   -2.7798767  0.031721553   -3.8216312    1.0417545      8192000 
 3974000   0.79619618   -3.8208442   -3.8208442   -2.7798612  0.033438664   -3.8208442    1.0409829      8