LAMMPS (24 Dec 2020)
OMP_NUM_THREADS environment is not set. Defaulting to 1 thread. (src/comm.cpp:94)
  using 1 OpenMP thread(s) per MPI task
# Simple rigid body system
# needed variables: startTemp, temp

units		lj
atom_style	full
dimension 	3
boundary	p p f
pair_style	lj/cut/opt 2.5

variable 	gcmcdisplace	equal 0
variable 	sigma		equal 1.0
variable 	epsilon 	equal 1.0


read_restart	restart.dat.3000000
Reading restart file ...
  restart file = 24 Dec 2020, LAMMPS = 24 Dec 2020
WARNING: Restart file used different # of processors: 48 vs. 192 (src/read_restart.cpp:697)
  restoring atom style full from restart
  orthogonal box = (0.0000000 0.0000000 0.0000000) to (80.000000 80.000000 160.00000)
  6 by 4 by 8 MPI processor grid
  restoring pair style lj/cut/opt from restart
  439061 atoms
Finding 1-2 1-3 1-4 neighbors ...
  special bond factors lj:    0        0        0       
  special bond factors coul:  0        0        0       
     0 = max # of 1-2 neighbors
     0 = max # of 1-3 neighbors
     0 = max # of 1-4 neighbors
     1 = max # of special neighbors
  special bonds CPU = 1.449 seconds
  read_restart CPU = 1.740 seconds

mass		1 1.0
mass		2 1.0
mass		3 1.0


group		solvent type 1
439061 atoms in group solvent


neighbor 	0.4 bin

pair_coeff	1 1 1.0 1.0
pair_coeff	2 2 0.0 0.0
pair_coeff	3 3 0.0 0.0
pair_coeff	2 3 0.0 0.0
pair_coeff	1 2*3 0.0 0.0

pair_modify 	shift yes


balance 	1.05 shift z 10 1.05
Balancing ...
Neighbor list info ...
  update every 1 steps, delay 10 steps, check yes
  max neighbors/atom: 2000, page size: 100000
  master list distance cutoff = 2.9
  ghost atom cutoff = 2.9
  binsize = 1.45, bins = 56 56 111
  1 neighbor lists, perpetual/occasional/extra = 1 0 0
  (1) pair lj/cut/opt, perpetual
      attributes: half, newton on
      pair build: half/bin/newton
      stencil: half/bin/3d/newton
      bin: standard
 rebalancing time: 0.022 seconds
  iteration count = 5
  initial/final maximal load/proc = 3162.0000 2575.0000
  initial/final imbalance factor  = 1.3827327 1.1260394
  x cuts: 0.0000000 0.16666667 0.33333333 0.50000000 0.66666667 0.83333333 1.0000000
  y cuts: 0.0000000 0.25000000 0.50000000 0.75000000 1.0000000
  z cuts: 0.0000000 0.097656250 0.18359375 0.27734375 0.37890625 0.47656250 0.57031250 0.67968750 1.0000000


####################### WALLS ###########################


variable       epsilonWall equal 2*${epsilon}
variable       epsilonWall equal 2*1

variable       cutoffTop   equal   0.7147*${sigma}
variable       cutoffTop   equal   0.7147*1

variable       cutoffLow   equal   3*${sigma}
variable       cutoffLow   equal   3*1


fix            topWall all wall/lj93 zhi EDGE                ${epsilonWall} ${sigma} ${cutoffTop} units box
fix            topWall all wall/lj93 zhi EDGE                2 ${sigma} ${cutoffTop} units box
fix            topWall all wall/lj93 zhi EDGE                2 1 ${cutoffTop} units box
fix            topWall all wall/lj93 zhi EDGE                2 1 0.7147 units box

fix            lowWall all wall/lj93 zlo EDGE                ${epsilonWall} ${sigma} ${cutoffLow} units box
fix            lowWall all wall/lj93 zlo EDGE                2 ${sigma} ${cutoffLow} units box
fix            lowWall all wall/lj93 zlo EDGE                2 1 ${cutoffLow} units box
fix            lowWall all wall/lj93 zlo EDGE                2 1 3 units box


###################### COMPUTES ##########################

compute        bin1 solvent chunk/atom bin/1d z upper 1.0



######################	FIXES ############################


fix 		peclet solvent ave/chunk 1000 1 1000 bin1 density/number norm 		 none ave one file density.profile

fix 		 temp solvent ave/chunk 1000 1 1000 bin1 temp norm none ave one file temp.profile

fix 		2 solvent nve

## Thermostat


region		regthermo block EDGE EDGE EDGE EDGE 0 20

group 		thermo dynamic solvent region regthermo every 1000
dynamic group thermo defined

fix 		3 thermo langevin ${startTemp} ${temp} 10 156453
fix 		3 thermo langevin 1.0 ${temp} 10 156453
fix 		3 thermo langevin 1.0 1.0 10 156453


## Evaporation

region		regevap block EDGE EDGE EDGE EDGE 140 158
fix 		gcmc solvent gcmc 100 100 0 1 780493 ${temp} ${mu} ${gcmcdisplace} region regevap
fix 		gcmc solvent gcmc 100 100 0 1 780493 1.0 ${mu} ${gcmcdisplace} region regevap
fix 		gcmc solvent gcmc 100 100 0 1 780493 1.0 -3.6 ${gcmcdisplace} region regevap
fix 		gcmc solvent gcmc 100 100 0 1 780493 1.0 -3.6 0 region regevap


#### Load balancing

fix 		bal all balance 1000 1.05 shift z 10 1.05

############### Diagnostics and computes ###################
#compute 	com cube	  rigid/local	1 mol x y z
#compute 	quat cube	  rigid/local	1 mol quatw quati quatj quatk

thermo 		1000
thermo_style 	custom step temp epair etotal press pe ke atoms

dump		1 all custom 100000 dump.lammpstrj id mol type x y z
dump 		2 all image 10000 image.*.png type type
dump 		3 all movie 1000 movie.avi type type
#dump 		com cube local 1000 dump.*.xyz c_com[*]
#dump		quat cube      local 1000 dump.*.quat c_quat[*]


restart 	1000000 restart.dat
timestep 	0.005
timer 		full
New timer settings: style=full  mode=nosync  timeout=off


run		5000000
Per MPI rank memory allocation (min/avg/max) = 9.923 | 9.986 | 10.01 Mbytes
Step Temp E_pair TotEng Press PotEng KinEng Atoms 
 3000000     1.016004   -3.1352716   -1.6112691  0.079025997   -3.1352716    1.5240025   439061 
 3001000    1.0146366   -3.1348252   -1.6124057  0.074308312   -3.1348252    1.5224195   438926 
 3002000    1.0156307   -3.1375741   -1.6133017   0.07326869   -3.1375741    1.5242723   438822 
 3003000    1.0149485   -3.1367247   -1.6129867  0.076120115   -3.1367247     1.523738   438681 
 3004000    1.0139379   -3.1369048   -1.6143299  0.076766304   -3.1369048    1.5225749   438579 
 3005000    1.0144465   -3.1376397   -1.6138042  0.074411071   -3.1376397    1.5238355   438436 
 3006000    1.0142265   -3.1390065   -1.6149802  0.074202589   -3.1390065    1.5240263   438286 
 3007000    1.0110321    -3.137269   -1.6174254  0.075105132    -3.137269    1.5198436   438108 
 3008000    1.0109653   -3.1370956   -1.6167312  0.079617114   -3.1370956    1.5203644   437929 
 3009000    1.0125704    -3.140551   -1.6172337  0.075490928    -3.140551    1.5233173   437774 
 3010000    1.0113031    -3.139316   -1.6173871  0.078640269    -3.139316    1.5219289   437625 
 3011000    1.0113633   -3.1405255   -1.6181025  0.071471833   -3.1405255     1.522423   437509 
 3012000    1.0110294   -3.1411456   -1.6186163   0.07350087   -3.1411456    1.5225293   437334 
 3013000    1.0103786    -3.139914   -1.6179575  0.074054063    -3.139914    1.5219565   437217 
 3014000    1.0072218   -3.1377352    -1.620159  0.072367436   -3.1377352    1.5175762   437109 
 3015000     1.009815   -3.1395133   -1.6176608  0.073991077   -3.1395133    1.5218525   437003 
 3016000    1.0091378    -3.139618   -1.6182397  0.072184942    -3.139618    1.5213783   436846 
 3017000    1.0083491   -3.1410868   -1.6203509  0.068260595   -3.1410868    1.5207359   436689 
 3018000    1.0066897   -3.1390097   -1.6203835   0.07332794   -3.1390097    1.5186262   436576 
 3019000    1.0054773   -3.1384669   -1.6213012  0.070143453   -3.1384669    1.5171657   436470 
 3020000    1.0044297   -3.1379049    -1.621858  0.067871926   -3.1379049    1.5160469   436337 
 3021000    1.0044844   -3.1388047   -1.6220947  0.068713089   -3.1388047      1.51671   436170 
 3022000    1.0056538   -3.1408318   -1.6217884  0.067010413   -3.1408318    1.5190434   436007 
 3023000    1.0033743   -3.1384389   -1.6222127  0.067045653   -3.1384389    1.5162261   435827 
 3024000    1.0029623   -3.1385149   -1.6223791   0.06313672   -3.1385149    1.5161358   435674 
 3025000    1.0027248   -3.1390997   -1.6229645  0.069797145   -3.1390997    1.5161352   435571 
 3026000    1.0029557   -3.1413846   -1.6242804  0.071359292   -3.1413846    1.5171042   435393 
 3027000    1.0027963   -3.1412324   -1.6238882  0.070124875   -3.1412324    1.5173442   435255 
 3028000    1.0030306   -3.1421307   -1.6239856  0.067453362   -3.1421307    1.5181451   435127 
 3029000    1.0015109   -3.1404556   -1.6240531   0.06916297   -3.1404556    1.5164025   434967 
 3030000    1.0005613   -3.1408018   -1.6253738  0.068016839   -3.1408018     1.515428   434834 
 3031000    1.0017842   -3.1423141   -1.6245556  0.071260893   -3.1423141    1.5177585   434697 
 3032000    1.0000653   -3.1421519   -1.6264397  0.068226634   -3.1421519    1.5157122   434537 
 3033000   0.99960922   -3.1417377   -1.6262564  0.070512292   -3.1417377    1.5154813   434405 
 3034000   0.99800142   -3.1396813   -1.6261776  0.068486387   -3.1396813    1.5135036   434273 
 3035000   0.99936867   -3.1420678   -1.6260019  0.065591278   -3.1420678    1.5160658   434133 
 3036000   0.99821417   -3.1418668   -1.6270883  0.065978463   -3.1418668    1.5147785   434000 
 3037000   0.99666841   -3.1419072   -1.6288608  0.069041793   -3.1419072    1.5130464   433824 
 3038000    0.9965707   -3.1436926   -1.6302328  0.063445661   -3.1436926    1.5134598   433663 
 3039000   0.99680347   -3.1439302   -1.6295058  0.066163767   -3.1439302    1.5144244   433488 
 3040000   0.99634582   -3.1466556    -1.632448  0.067466989   -3.1466556    1.5142076   433351 
 3041000   0.99671377   -3.1466481   -1.6314162  0.065337671   -3.1466481    1.5152319   433218 
 3042000   0.99588211   -3.1472618   -1.6329972   0.06350079   -3.1472618    1.5142647   433133 
 3043000   0.99626834    -3.147012   -1.6318663  0.061280175    -3.147012    1.5151458   433049 
 3044000   0.99541272   -3.1473271   -1.6330945  0.067323485   -3.1473271    1.5142327   432938 
 3045000   0.99499086    -3.148271    -1.634152  0.068672777    -3.148271     1.514119   432787 
 3046000    0.9945081    -3.148248   -1.6343354  0.066209947    -3.148248    1.5139126   432636 
 3047000   0.99415832   -3.1483456   -1.6345455  0.067897422   -3.1483456       1.5138   432516 
 3048000   0.99434813   -3.1496126   -1.6350509  0.063481227   -3.1496126    1.5145618   432381 
 3049000   0.99596224   -3.1523627   -1.6349703  0.064809115   -3.1523627    1.5173923   432275 
 3050000   0.99366834   -3.1511007   -1.6366112  0.063447004   -3.1511007    1.5144896   432106 
 3051000   0.99396985   -3.1530885   -1.6376168  0.065104977   -3.1530885    1.5154717   431957 
 3052000   0.99353488   -3.1534137   -1.6379877  0.066398545   -3.1534137     1.515426   431781 
 3053000   0.99413778    -3.155762   -1.6387629  0.063190019    -3.155762     1.516999   431595 
 3054000   0.99116279   -3.1534943   -1.6405336  0.072977358   -3.1534943    1.5129607   431452 
 3055000   0.99253748   -3.1568926   -1.6413523   0.06680088   -3.1568926    1.5155403   431315 
 3056000   0.99306403   -3.1592668   -1.6424125   0.06913746   -3.1592668    1.5168542   431170 
 3057000   0.99208832   -3.1575841   -1.6417773  0.071251721   -3.1575841    1.5158068   431044 
 3058000   0.99225347   -3.1586793   -1.6421979  0.066175267   -3.1586793    1.5164814   430924 
 3059000    0.9915343   -3.1597312   -1.6439092  0.062403249   -3.1597312    1.5158219   430799 
 3060000   0.98972965   -3.1580043    -1.644495  0.067981253   -3.1580043    1.5135092   430672 
 3061000   0.98939132   -3.1587263     -1.64526  0.067539255   -3.1587263    1.5134663   430537 
 3062000   0.98816754   -3.1577476   -1.6456687  0.065356146   -3.1577476    1.5120789   430399 
 3063000   0.98948874    -3.160886   -1.6463174  0.070743133    -3.160886    1.5145686   430266 
 3064000   0.98952932   -3.1607614   -1.6457504   0.06532334   -3.1607614     1.515011   430158 
 3065000   0.98745756   -3.1601231   -1.6477426  0.062971431   -3.1601231    1.5123805   430004 
 3066000   0.98690932    -3.158907   -1.6468773  0.061798096    -3.158907    1.5120296   429865 
 3067000   0.98624501   -3.1602426   -1.6488299  0.059363207   -3.1602426    1.5114127   429751 
 3068000   0.98603275    -3.161009   -1.6494046  0.063896825    -3.161009    1.5116044   429604 
 3069000   0.98479993   -3.1596143   -1.6494218  0.064723599   -3.1596143    1.5101926   429468 
 3070000   0.98514669   -3.1607707   -1.6495221  0.058509002   -3.1607707    1.5112487   429319 
 3071000   0.98551755   -3.1610179   -1.6486684  0.065469494   -3.1610179    1.5123495   429168 
 3072000   0.98468823   -3.1609972    -1.649304  0.062652158   -3.1609972    1.5116933   428993 
 3073000   0.98483756   -3.1631676   -1.6507515  0.060782248   -3.1631676    1.5124161   428853 
 3074000   0.98437241   -3.1642897   -1.6520661  0.061647518   -3.1642897    1.5122236   428705 
 3075000   0.98263015   -3.1627657   -1.6528559  0.061744021   -3.1627657    1.5099099   428602 
 3076000   0.98109388   -3.1635224   -1.6554419  0.056055586   -3.1635224    1.5080805   428451 
 3077000   0.98040443   -3.1616364   -1.6541512   0.06507119   -3.1616364    1.5074852   428319 
 3078000   0.98015921   -3.1619175   -1.6544221  0.058612747   -3.1619175    1.5074953   428209 
 3079000   0.98048296   -3.1636219   -1.6550826  0.061959291   -3.1636219    1.5085393   428054 
 3080000   0.97821796   -3.1613524   -1.6558337  0.064340876   -3.1613524    1.5055187   427922 
 3081000   0.97971598   -3.1643381    -1.656017  0.060118351   -3.1643381    1.5083212   427781 
 3082000   0.97889305   -3.1651376   -1.6575829  0.065331021   -3.1651376    1.5075547   427639 
 3083000   0.97916836   -3.1668317   -1.6583944  0.057708562   -3.1668317    1.5084372   427509 
 3084000   0.97876401   -3.1677724   -1.6594394  0.056749916   -3.1677724     1.508333   427362 
 3085000   0.97810864   -3.1680961   -1.6602862   0.05609623   -3.1680961    1.5078099   427224 
 3086000   0.97833973   -3.1703743   -1.6618304  0.059317779   -3.1703743    1.5085439   427117 
 3087000   0.97729869   -3.1686674   -1.6610722  0.060015145   -3.1686674    1.5075952   426931 
 3088000   0.97576118   -3.1684401   -1.6628217  0.060024996   -3.1684401    1.5056184   426819 
 3089000   0.97620462    -3.170785   -1.6640517   0.06046849    -3.170785    1.5067333   426697 
 3090000   0.97568541    -3.170472   -1.6640528  0.063591259    -3.170472    1.5064192   426559 
 3091000   0.97534376   -3.1708681   -1.6644396  0.061527027   -3.1708681    1.5064285   426407 
 3092000   0.97610433   -3.1717903   -1.6636495   0.05779803   -3.1717903    1.5081408   426255 
 3093000   0.97509338   -3.1717496   -1.6647642  0.057729237   -3.1717496    1.5069854   426140 
 3094000   0.97440375   -3.1730464   -1.6665647   0.05942983   -3.1730464    1.5064817   425981 
 3095000    0.9735294   -3.1737611   -1.6680905   0.06009417   -3.1737611    1.5056707   425828 
 3096000   0.97221874   -3.1738248    -1.669662  0.059769882   -3.1738248    1.5041628   425681 
 3097000   0.97372064   -3.1769713   -1.6699644  0.059280107   -3.1769713    1.5070069   425534 
 3098000   0.97379709   -3.1777648   -1.6702038  0.061123158   -3.1777648     1.507561   425411 
 3099000   0.97183439   -3.1756375   -1.6706692  0.061842268   -3.1756375    1.5049682   425285 
 3100000   0.97299206   -3.1771525   -1.6700691  0.065067179   -3.1771525    1.5070835   425194 
 3101000   0.97233993   -3.1776758   -1.6710958  0.059598082   -3.1776758      1.50658   425051 
 3102000   0.97183234   -3.1775704   -1.6712524  0.057279824   -3.1775704    1.5063181   424903 
 3103000   0.97066298   -3.1774814   -1.6725119  0.056440374   -3.1774814    1.5049696   424772 
 3104000   0.97017207   -3.1785688   -1.6737617  0.059965351   -3.1785688    1.5048071   424603 
 3105000   0.96971811   -3.1801424   -1.6754476  0.051912219   -3.1801424    1.5046948   424436 
 3106000   0.96915955   -3.1798395   -1.6755754  0.060606109   -3.1798395     1.504264   424313 
 3107000   0.96993582   -3.1818458   -1.6759297  0.056716221   -3.1818458    1.5059161   424187 
 3108000   0.96754044   -3.1791044   -1.6764326  0.057907537   -3.1791044    1.5026717   424053 
 3109000   0.97014408   -3.1841824   -1.6770582  0.053659823   -3.1841824    1.5071241   423938 
 3110000   0.96740878   -3.1823254   -1.6789825  0.055601554   -3.1823254    1.5033429   423806 
 3111000   0.96874906    -3.182505   -1.6766849  0.059695493    -3.182505    1.5058201   423695 
 3112000   0.96720695   -3.1802021     -1.67641  0.058640013   -3.1802021    1.5037922   423591 
 3113000   0.96646388   -3.1814845   -1.6783721  0.062384262   -3.1814845    1.5031123   423457 
 3114000   0.96711535   -3.1832923   -1.6788363  0.056726135   -3.1832923     1.504456   423364 
 3115000   0.96569574   -3.1817848   -1.6791432  0.061603813   -3.1817848    1.5026416   423253 
 3116000   0.96733041   -3.1850627   -1.6793012  0.051696924   -3.1850627    1.5057615   423091 
 3117000   0.96550117    -3.183141   -1.6796868    0.0597493    -3.183141    1.5034542   422939 
 3118000   0.96646332    -3.186233   -1.6807894  0.056388109    -3.186233    1.5054436   422801 
 3119000   0.96584378   -3.1874171    -1.682426  0.056830939   -3.1874171    1.5049912   422657 
 3120000   0.96457098   -3.1877038    -1.684326   0.05600668   -3.1877038    1.5033778   422553 
 3121000    0.9634586    -3.184922   -1.6829332  0.055991091    -3.184922    1.5019888   422456 
 3122000   0.96360487   -3.1857009   -1.6829255  0.058802821   -3.1857009    1.5027754   422299 
 3123000   0.96247179   -3.1853081   -1.6838696  0.059000628   -3.1853081    1.5014385   422178 
 3124000   0.96233571   -3.1868381   -1.6850499  0.058590152   -3.1868381    1.5017882   422020 
 3125000    0.9635614   -3.1903322   -1.6861322  0.051788017   -3.1903322       1.5042   421880 
 3126000   0.96450906   -3.1919123   -1.6858581  0.055726028   -3.1919123    1.5060542   421775 
 3127000   0.96251366   -3.1916491   -1.6882401  0.061961547   -3.1916491     1.503409   421643 
 3128000   0.96150431   -3.1914657   -1.6891772   0.05854889   -3.1914657    1.5022885   421515 
 3129000   0.96115474   -3.1912015   -1.6891207  0.059413832   -3.1912015    1.5020808   421420 
 3130000   0.96075149   -3.1913462    -1.689582   0.05911471   -3.1913462    1.5017642   421332 
 3131000   0.95938362    -3.189612   -1.6896086  0.056779325    -3.189612    1.5000035   421226 
 3132000   0.96003203    -3.191206   -1.6896148  0.058302268    -3.191206    1.5015912   421065 
 3133000   0.95968909   -3.1927356   -1.6911994  0.057345361   -3.1927356    1.5015362   420930 
 3134000   0.95852913   -3.1936615   -1.6934341  0.056152483   -3.1936615    1.5002274   420788 
 3135000   0.95794914   -3.1942172   -1.6945269  0.056822428   -3.1942172    1.4996903   420684 
 3136000    0.9587849   -3.1967919   -1.6953792  0.057117188   -3.1967919    1.5014127   420568 
 3137000   0.95828487   -3.1977871   -1.6968433  0.051575648   -3.1977871    1.5009438   420480 
 3138000   0.95878264   -3.1972801   -1.6951994  0.052688995   -3.1972801    1.5020806   420380 
 3139000   0.95798208   -3.1976593   -1.6964043  0.054081817   -3.1976593     1.501255   420260 
 3140000   0.95743635   -3.1984248    -1.697375  0.055229514   -3.1984248    1.5010498   420078 
 3141000   0.95683118   -3.1985846   -1.6981157  0.060572443   -3.1985846     1.500469   419975 
 3142000   0.95575858   -3.1968139   -1.6976271  0.057141819   -3.1968139    1.4991867   419863 
 3143000   0.95762223   -3.2010318   -1.6985424  0.051139826   -3.2010318    1.5024894   419757 
 3144000   0.95751881   -3.2022114   -1.6996516  0.052681177   -3.2022114    1.5025598   419692 
 3145000   0.95686145   -3.2015784   -1.6997389  0.049797731   -3.2015784    1.5018396   419605 
 3146000     0.956371    -3.200825   -1.6993867  0.061031358    -3.200825    1.5014383   419502 
 3147000   0.95524818   -3.2007141   -1.7008133  0.050208307   -3.2007141    1.4999008   419439 
 3148000   0.95508178   -3.2014053   -1.7012006  0.051939015   -3.2014053    1.5002047   419281 
 3149000   0.95382973   -3.1998809   -1.7012283  0.056128872   -3.1998809    1.4986526   419165 
 3150000   0.95403633   -3.2003191   -1.7009663  0.056389986   -3.2003191    1.4993528   419060 
 3151000    0.9550336   -3.2043799   -1.7031087   0.05328662   -3.2043799    1.5012712   418962 
 3152000   0.95583212   -3.2053359   -1.7024974  0.055945416   -3.2053359    1.5028385   418875 
 3153000   0.95356278   -3.2034377    -1.703709  0.056795489   -3.2034377    1.4997287   418747 
 3154000   0.95260062    -3.203717   -1.7051472  0.054310345    -3.203717    1.4985698   418648 
 3155000   0.95356836   -3.2060954   -1.7056018  0.055138591   -3.2060954    1.5004936   418536 
 3156000   0.95175094   -3.2026393   -1.7047693  0.051125005   -3.2026393      1.49787   418470 
 3157000   0.95115212   -3.2022257    -1.705019  0.053682114   -3.2022257    1.4972066   418392 
 3158000   0.95168244   -3.2049497   -1.7064498  0.053099202   -3.2049497    1.4984998   418264 
 3159000   0.95074409   -3.2042642   -1.7067263  0.047946116   -3.2042642    1.4975379   418120 
 3160000   0.94956876   -3.2035654   -1.7074172  0.053785043   -3.2035654    1.4961482   417991 
 3161000    0.9489189   -3.2046816   -1.7092102  0.043955595   -3.2046816    1.4954713   417894 
 3162000   0.94873087   -3.2059804   -1.7104798  0.053761633   -3.2059804    1.4955007   417803 
 3163000   0.94769253   -3.2032679   -1.7090499  0.055234046   -3.2032679     1.494218   417704 
 3164000    0.9489202   -3.2051211   -1.7084694  0.056086112   -3.2051211    1.4966517   417565 
 3165000   0.94911244   -3.2078705   -1.7102628  0.051678908   -3.2078705    1.4976076   417383 
 3166000   0.94848623   -3.2068665   -1.7097017  0.054022135   -3.2068665    1.4971647   417231 
 3167000   0.94846454   -3.2084821   -1.7109532  0.045406544   -3.2084821    1.4975289   417120 
 3168000   0.94957096   -3.2101512   -1.7104871  0.052246286   -3.2101512    1.4996641   417012 
 3169000   0.94700715   -3.2073939   -1.7113878  0.052693618   -3.2073939    1.4960061   416903 
 3170000   0.94905259   -3.2121312   -1.7123291  0.048729116   -3.2121312    1.4998021   416746 
 3171000   0.94629221     -3.20981   -1.7138568  0.053272352     -3.20981    1.4959532   416603 
 3172000    0.9465603   -3.2104471   -1.7138473  0.052496746   -3.2104471    1.4965997   416541 
 3173000   0.94757693   -3.2100083   -1.7115421  0.047214549   -3.2100083    1.4984661   416469 
 3174000   0.94584595   -3.2096768   -1.7136426  0.051430928   -3.2096768    1.4960341   416384 
 3175000   0.94561694   -3.2102514   -1.7140836  0.050141679   -3.2102514    1.4961678   416246 
 3176000     0.943084   -3.2087146   -1.7161098  0.055169735   -3.2087146    1.4926048   416122 
 3177000   0.94509024   -3.2137123   -1.7176806  0.052499533   -3.2137123    1.4960317   416052 
 3178000    0.9427218   -3.2134664   -1.7207138  0.045947698   -3.2134664    1.4927526   415921 
 3179000   0.94233724   -3.2142984   -1.7217493  0.048565575   -3.2142984    1.4925492   415808 
 3180000   0.94105979   -3.2147039   -1.7237478  0.044817287   -3.2147039    1.4909561   415688 
 3181000   0.94174936   -3.2161934   -1.7237714  0.046015078   -3.2161934     1.492422   415584 
 3182000   0.94397208   -3.2191621   -1.7229873  0.049514568   -3.2191621    1.4961748   415520 
 3183000   0.94170701   -3.2185674   -1.7256449   0.05357902   -3.2185674    1.4929225   415426 
 3184000   0.94204769   -3.2187212   -1.7249745  0.050267535   -3.2187212    1.4937466   415347 
 3185000   0.94129958   -3.2185143   -1.7255764  0.049664406   -3.2185143    1.4929378   415242 
 3186000   0.94205748   -3.2192305   -1.7247307  0.055337401   -3.2192305    1.4944998   415142 
 3187000   0.94297089   -3.2198773   -1.7236257   0.05191248   -3.2198773    1.4962516   415058 
 3188000   0.94362623   -3.2206692   -1.7230133  0.054207942   -3.2206692    1.4976559   414957 
 3189000   0.94273187   -3.2224778   -1.7257725  0.052639793   -3.2224778    1.4967053   414827 
 3190000   0.94170729   -3.2223494   -1.7268958  0.049119765   -3.2223494    1.4954536   414723 
 3191000   0.94140944   -3.2216711   -1.7263263  0.053042482   -3.2216711    1.4953448   414622 
 3192000   0.94144269   -3.2231234   -1.7272171   0.05459762   -3.2231234    1.4959063   414481 
 3193000   0.94153786   -3.2235963   -1.7271019   0.04956559   -3.2235963    1.4964944   414360 
 3194000    0.9398903   -3.2227388    -1.728589  0.051063675   -3.2227388    1.4941498   414284 
 3195000   0.93874784   -3.2229993   -1.7302657  0.048857977   -3.2229993    1.4927336   414173 
 3196000   0.93917784   -3.2244178   -1.7306903  0.051002681   -3.2244178    1.4937275   414087 
 3197000   0.93788733   -3.2231471   -1.7312307  0.048709651   -3.2231471    1.4919164   414020 
 3198000    0.9380343   -3.2243455   -1.7317772  0.046008099   -3.2243455    1.4925684   413904 
 3199000   0.93853654   -3.2257857   -1.7319526   0.04712572   -3.2257857    1.4938331   413775 
 3200000   0.93697638    -3.225219   -1.7333681  0.050936231    -3.225219     1.491851   413636 
 3201000   0.93821491   -3.2271607   -1.7328609  0.044201305   -3.2271607    1.4942998   413504 
 3202000   0.93566562   -3.2242703   -1.7335765   0.05391686   -3.2242703    1.4906938   413378 
 3203000   0.93577309   -3.2265927   -1.7354103  0.048777733   -3.2265927    1.4911825   413290 
 3204000   0.93690818   -3.2281294   -1.7349539  0.047664063   -3.2281294    1.4931755   413239 
 3205000   0.93751893   -3.2274384   -1.7329676  0.048753583   -3.2274384    1.4944708   413150 
 3206000   0.93564303   -3.2276628   -1.7358032  0.052881274   -3.2276628    1.4918596   413045 
 3207000   0.93585364   -3.2286939   -1.7361697  0.052024549   -3.2286939    1.4925242   412954 
 3208000   0.93587501   -3.2301759   -1.7372705   0.04578957   -3.2301759    1.4929054   412858 
 3209000   0.93410333   -3.2279303   -1.7374685   0.04801716   -3.2279303    1.4904619   412752 
 3210000    0.9353451   -3.2310885   -1.7380918  0.045205515   -3.2310885    1.4929967   412599 
 3211000   0.93485045   -3.2289422   -1.7364927  0.046642918   -3.2289422    1.4924495   412532 
 3212000   0.93304316   -3.2284702   -1.7384148  0.049523904   -3.2284702    1.4900554   412396 
 3213000   0.93345235     -3.22918   -1.7380843  0.049102781     -3.22918    1.4910958   412289 
 3214000   0.93208023   -3.2297473   -1.7405328   0.04609146   -3.2297473    1.4892146   412203 
 3215000   0.93154248   -3.2307993   -1.7421333  0.042120371   -3.2307993     1.488666   412117 
 3216000   0.93072991   -3.2298937   -1.7422699  0.046975789   -3.2298937    1.4876237   412046 
 3217000   0.92946801   -3.2288105   -1.7428322  0.049016424   -3.2288105    1.4859783   411943 
 3218000   0.93071436   -3.2326229   -1.7442944  0.042809749   -3.2326229    1.4883285   411844 
 3219000   0.93160079   -3.2327847   -1.7426298   0.04686762   -3.2327847    1.4901549   411731 
 3220000   0.93032541   -3.2333575   -1.7447835  0.044774928   -3.2333575     1.488574   411604 
 3221000   0.92989874   -3.2322343   -1.7440827  0.046068996   -3.2322343    1.4881516   411532 
 3222000   0.92888338   -3.2307118   -1.7438057  0.049016279   -3.2307118    1.4869061   411427 
 3223000   0.93001582    -3.232804   -1.7437015  0.044765739    -3.232804    1.4891025   411321 
 3224000   0.92943946   -3.2340343    -1.745471  0.041434092   -3.2340343    1.4885632   411215 
 3225000   0.92912093   -3.2343667    -1.745948  0.047732854   -3.2343667    1.4884187   411114 
 3226000   0.92968272   -3.2348412   -1.7452399  0.050356578   -3.2348412    1.4896013   411036 
 3227000   0.92887203   -3.2336926   -1.7450969   0.04979764   -3.2336926    1.4885957   410955 
 3228000   0.92997256   -3.2360024   -1.7454291  0.040831754   -3.2360024    1.4905733   410896 
 3229000    0.9315382   -3.2379163   -1.7444628  0.043574387   -3.2379163    1.4934535   410794 
 3230000   0.92938287   -3.2363329   -1.7460664  0.051891781   -3.2363329    1.4902665   410720 
 3231000   0.93011655   -3.2395522   -1.7477751  0.045781028   -3.2395522    1.4917771   410628 
 3232000   0.92852015   -3.2368622   -1.7473081  0.049207996   -3.2368622    1.4895541   410535 
 3233000   0.92824431   -3.2372204   -1.7479891  0.042526226   -3.2372204    1.4892313   410502 
 3234000   0.92812199   -3.2370586   -1.7477116  0.046226411   -3.2370586    1.4893471   410416 
 3235000   0.92700244   -3.2386507   -1.7506687   0.04870804   -3.2386507     1.487982   410297 
 3236000   0.92583548   -3.2391256   -1.7527089  0.049527516   -3.2391256    1.4864167   410212 
 3237000    0.9266901   -3.2399103   -1.7519619  0.045926848   -3.2399103    1.4879484   410168 
 3238000   0.92553276   -3.2382834   -1.7519577  0.048388778   -3.2382834    1.4863257   410103 
 3239000   0.92812034   -3.2418377   -1.7512439  0.045250407   -3.2418377    1.4905938   410072 
 3240000   0.92664048   -3.2390041   -1.7504966  0.046270524   -3.2390041    1.4885075   409992 
 3241000     0.928091   -3.2422006   -1.7509703  0.045129765   -3.2422006    1.4912303   409884 
 3242000   0.92599143   -3.2397255   -1.7516073  0.047349319   -3.2397255    1.4881182   409812 
 3243000   0.92642025   -3.2413184   -1.7522677   0.04600023   -3.2413184    1.4890508   409745 
 3244000   0.92644974   -3.2413387   -1.7519825  0.049844371   -3.2413387    1.4893563   409674 
 3245000   0.92747367   -3.2446239   -1.7534833  0.050150252   -3.2446239    1.4911406   409636 
 3246000    0.9266694   -3.2454135   -1.7551184   0.04534378   -3.2454135    1.4902951   409513 
 3247000   0.92463831    -3.244035   -1.7567921  0.048387665    -3.244035    1.4872429   409454 
 3248000     0.925818   -3.2456513   -1.7560963  0.053096248   -3.2456513    1.4895551   409340 
 3249000     0.926246   -3.2481235   -1.7574356   0.04294352   -3.2481235     1.490688   409218 
 3250000   0.92504533   -3.2459863   -1.7569396   0.04763623   -3.2459863    1.4890467   409138 
 3251000    0.9260208   -3.2483418   -1.7574625  0.046644269   -3.2483418    1.4908793   409066 
 3252000   0.92445991   -3.2469848   -1.7583783  0.042766588   -3.2469848    1.4886065   409000 
 3253000   0.92369012   -3.2478688   -1.7601854  0.050453493   -3.2478688    1.4876834   408913 
 3254000   0.92407949   -3.2493012   -1.7607177  0.047192585   -3.2493012    1.4885835   408838 
 3255000   0.92258028   -3.2503763   -1.7639206  0.043837819   -3.2503763    1.4864557   408759 
 3256000   0.92131659   -3.2505798   -1.7659241  0.045373974   -3.2505798    1.4846557   408694 
 3257000   0.92246831   -3.2520517   -1.7652999  0.046130663   -3.2520517    1.4867518   408628 
 3258000   0.92237742   -3.2520593   -1.7649882  0.049851453   -3.2520593    1.4870711   408500 
 3259000   0.92228519   -3.2522716   -1.7650252  0.044460656   -3.2522716    1.4872464   408411 
 3260000   0.92266178   -3.2527761   -1.7646674   0.04585133   -3.2527761    1.4881088   408341 
 3261000   0.92290984   -3.2529946   -1.7641685  0.043790372   -3.2529946     1.488826   408254 
 3262000    0.9221695   -3.2541508   -1.7661546  0.049215515   -3.2541508    1.4879962   408154 
 3263000   0.92188717   -3.2541601   -1.7663461  0.046023487   -3.2541601    1.4878141   408079 
 3264000   0.92198029   -3.2549117   -1.7665535  0.044032254   -3.2549117    1.4883582   407971 
 3265000   0.92250205   -3.2559806   -1.7664113  0.047399849   -3.2559806    1.4895693   407870 
 3266000   0.92080238    -3.254828    -1.767799  0.047516072    -3.254828     1.487029   407814 
 3267000   0.91928551   -3.2527281   -1.7679048  0.045378002   -3.2527281    1.4848233   407747 
 3268000   0.91997242   -3.2551327   -1.7688427  0.044902005   -3.2551327      1.48629   407649 
 3269000   0.91999352   -3.2557042   -1.7690154  0.045462248   -3.2557042    1.4866888   407549 
 3270000   0.92056424   -3.2566866   -1.7688492   0.04005673   -3.2566866    1.4878374   407487 
 3271000   0.91899473   -3.2555126   -1.7699786  0.043379069   -3.2555126     1.485534   407423 
 3272000   0.92032517   -3.2588057   -1.7707594  0.048197913   -3.2588057    1.4880463   407324 
 3273000   0.92032653   -3.2602571   -1.7718578  0.044966931   -3.2602571    1.4883993   407228 
 3274000   0.91999737   -3.2590962   -1.7710247  0.044544007   -3.2590962    1.4880715   407172 
 3275000   0.91764676   -3.2567072   -1.7721387  0.046839315   -3.2567072    1.4845685   407090 
 3276000   0.91670263   -3.2552815   -1.7721566   0.04433878   -3.2552815    1.4831249   407067 
 3277000   0.91742923   -3.2565226   -1.7720143  0.044244326   -3.2565226    1.4845083   407010 
 3278000   0.91713666   -3.2582095   -1.7738756   0.03910302   -3.2582095    1.4843339   406928 
 3279000   0.91584931   -3.2560381   -1.7735801  0.038451586   -3.2560381    1.4824581   406871 
 3280000   0.91349709    -3.253846   -1.7748901   0.04715671    -3.253846    1.4789559   406787 
 3281000   0.91461654   -3.2574958   -1.7763487    0.0375757   -3.2574958     1.481147   406683 
 3282000   0.91400879   -3.2569913   -1.7767121  0.042262521   -3.2569913    1.4802793   406651 
 3283000    0.9150877   -3.2589157   -1.7765209  0.041406482   -3.2589157    1.4823948   406550 
 3284000   0.91294431   -3.2577598    -1.778426  0.041989459   -3.2577598    1.4793338   406437 
 3285000   0.91432127   -3.2601589   -1.7784079  0.037930426   -3.2601589     1.481751   406386 
 3286000   0.91455037   -3.2610863   -1.7786358  0.043878768   -3.2610863    1.4824505   406296 
 3287000    0.9136172   -3.2585894   -1.7773999  0.041809689   -3.2585894    1.4811895   406227 
 3288000   0.91225752   -3.2576276   -1.7783366  0.039899368   -3.2576276     1.479291   406143 
 3289000   0.91383343   -3.2604468   -1.7783851   0.04037448   -3.2604468    1.4820617   406084 
 3290000   0.91502844   -3.2622653   -1.7782399   0.04240548   -3.2622653    1.4840254   406077 
 3291000   0.91359432   -3.2607545   -1.7787193  0.043364611   -3.2607545    1.4820353   405985 
 3292000   0.91348059   -3.2630991    -1.780686  0.044278914   -3.2630991    1.4824131   405831 
 3293000   0.91447365   -3.2633038   -1.7791951  0.040696451   -3.2633038    1.4841087   405808 
 3294000   0.91447032   -3.2642866   -1.7798248  0.045845353   -3.2642866    1.4844618   405710 
 3295000   0.91471181   -3.2657177   -1.7806369  0.040292649   -3.2657177    1.4850808   405648 
 3296000   0.91406268   -3.2654947   -1.7811604  0.045185542   -3.2654947    1.4843343   405564 
 3297000   0.91372219   -3.2662922   -1.7822839  0.047107471   -3.2662922    1.4840082   405502 
 3298000    0.9122911   -3.2662404   -1.7844396  0.047513943   -3.2662404    1.4818009   405470 
 3299000   0.91290603   -3.2666723   -1.7837739  0.044923717   -3.2666723    1.4828984   405443 
 3300000   0.91154022   -3.2647986   -1.7838156  0.042700105   -3.2647986     1.480983   405360 
 3301000   0.91284751   -3.2674934   -1.7842693  0.042696461   -3.2674934    1.4832241   405328 
 3302000   0.91126757   -3.2638269   -1.7830275  0.044012502   -3.2638269    1.4807994   405289 
 3303000   0.91253714   -3.2672327   -1.7840811  0.044162808   -3.2672327    1.4831515   405210 
 3304000   0.91107679   -3.2657993   -1.7848166  0.043551053   -3.2657993    1.4809827   405154 
 3305000   0.90902814   -3.2632413   -1.7854611   0.04436609   -3.2632413    1.4777802   405119 
 3306000   0.91005608   -3.2659407    -1.786263  0.037509608   -3.2659407    1.4796778   405057 
 3307000   0.91044996   -3.2675358   -1.7868704  0.042774301   -3.2675358    1.4806654   404962 
 3308000   0.91026173   -3.2687418   -1.7879876  0.044792468   -3.2687418    1.4807542   404854 
 3309000   0.90948421   -3.2684564   -1.7886856  0.044170236   -3.2684564    1.4797708   404777 
 3310000   0.91038459   -3.2693068   -1.7878367  0.041462993   -3.2693068      1.48147   404713 
 3311000   0.91030592   -3.2682755   -1.7867322  0.041149205   -3.2682755    1.4815434   404658 
 3312000   0.91149197   -3.2722781   -1.7884634  0.043334339   -3.2722781    1.4838147   404565 
 3313000   0.91068993   -3.2706861   -1.7878178  0.045377031   -3.2706861    1.4828683   404467 
 3314000   0.91060257   -3.2697487    -1.786997  0.041859665   -3.2697487    1.4827517   404460 
 3315000   0.91190324   -3.2707608   -1.7856195  0.046913462   -3.2707608    1.4851413   404386 
 3316000   0.91236821   -3.2735497   -1.7874013   0.04518581   -3.2735497    1.4861485   404318 
 3317000   0.91051046   -3.2714961   -1.7881389  0.046536844   -3.2714961    1.4833572   404254 
 3318000   0.91015134   -3.2716882   -1.7886702  0.046179599   -3.2716882    1.4830179   404187 
 3319000   0.90850366   -3.2714389   -1.7907063  0.044591739   -3.2714389    1.4807325   404078 
 3320000   0.90683485    -3.270802   -1.7925882  0.040207866    -3.270802    1.4782138   404023 
 3321000   0.90847703   -3.2736762   -1.7924115  0.044135162   -3.2736762    1.4812646   403921 
 3322000   0.90745785   -3.2723637   -1.7925264  0.046091937   -3.2723637    1.4798373   403857 
 3323000   0.90703818   -3.2746804   -1.7950365  0.039313712   -3.2746804    1.4796439   403723 
 3324000   0.90834678   -3.2765778    -1.794623  0.045613481   -3.2765778    1.4819548   403675 
 3325000   0.90705871   -3.2753433   -1.7953396  0.042832915   -3.2753433    1.4800037   403634 
 3326000   0.90690929    -3.274972   -1.7950141  0.042969637    -3.274972    1.4799578   403580 
 3327000   0.90731826   -3.2762339   -1.7954252  0.040247168   -3.2762339    1.4808087   403530 
 3328000   0.90546844   -3.2724313   -1.7945318  0.045090055   -3.2724313    1.4778995   403500 
 3329000   0.90528988   -3.2731012   -1.7953027  0.043305826   -3.2731012    1.4777985   403448 
 3330000   0.90619328   -3.2752578   -1.7956471  0.047996564   -3.2752578    1.4796106   403356 
 3331000   0.90487218   -3.2729903   -1.7952913  0.042597888   -3.2729903     1.477699   403289 
 3332000   0.90684306   -3.2761203   -1.7949824   0.04364745   -3.2761203    1.4811379   403229 
 3333000   0.90570586   -3.2749889   -1.7955982  0.041840375   -3.2749889    1.4793906   403199 
 3334000   0.90475841   -3.2737528   -1.7957521  0.040224372   -3.2737528    1.4780007   403156 
 3335000   0.90620685   -3.2765169   -1.7958196  0.045074178   -3.2765169    1.4806974   403066 
 3336000   0.90681517    -3.277126   -1.7952509  0.045156571    -3.277126    1.4818752   403016 
 3337000   0.90545595    -3.275138   -1.7950617   0.04611838    -3.275138    1.4800763   402901 
 3338000   0.90521961   -3.2755869   -1.7956471    0.0483843   -3.2755869    1.4799398   402833 
 3339000     0.906865   -3.2797038   -1.7968568  0.040529876   -3.2797038     1.482847   402774 
 3340000   0.90333566   -3.2752587   -1.7979038  0.048291322   -3.2752587    1.4773548   402698 
 3341000   0.90579627   -3.2801984   -1.7985655  0.045804736   -3.2801984    1.4816329   402629 
 3342000   0.90489836   -3.2778946   -1.7975099  0.044853777   -3.2778946    1.4803848   402569 
 3343000   0.90552456    -3.279654   -1.7978178  0.045667508    -3.279654    1.4818362   402453 
 3344000   0.90454864   -3.2800286   -1.7994951  0.049917467   -3.2800286    1.4805335   402373 
 3345000   0.90518376   -3.2801043   -1.7983324  0.047667687   -3.2801043    1.4817719   402319 
 3346000   0.90459565   -3.2803853   -1.7992669  0.049919548   -3.2803853    1.4811184   402235 
 3347000   0.90338527   -3.2795962   -1.8003346  0.044116395   -3.2795962    1.4792616   402201 
 3348000   0.90263734   -3.2793044    -1.801194  0.044758244   -3.2793044    1.4781104   402181 
 3349000   0.90341454   -3.2808014   -1.8013594  0.045721555   -3.2808014     1.479442   402165 
 3350000   0.90375478   -3.2815866   -1.8014292  0.044393206   -3.2815866    1.4801574   402122 
 3351000   0.90226078   -3.2795352   -1.8017143   0.05207488   -3.2795352    1.4778208   402092 
 3352000   0.90320372   -3.2823044   -1.8025343   0.04179631   -3.2823044    1.4797701   401982 
 3353000   0.90192512   -3.2814782   -1.8033985  0.045243884   -3.2814782    1.4780797   401872 
 3354000    0.9013857   -3.2808081   -1.8031565  0.049403333   -3.2808081    1.4776517   401748 
 3355000   0.90305262   -3.2824195    -1.801862  0.046805901   -3.2824195    1.4805575   401701 
 3356000   0.90392958   -3.2832887   -1.8010499  0.041786608   -3.2832887    1.4822388   401635 
 3357000   0.90307817   -3.2844761   -1.8032352  0.046008522   -3.2844761     1.481241   401527 
 3358000   0.90188062   -3.2838738    -1.804376  0.044001101   -3.2838738    1.4794978   401467 
 3359000   0.90217972   -3.2840586   -1.8038526  0.042560465   -3.2840586     1.480206   401408 
 3360000   0.90266086   -3.2848622   -1.8036269  0.047374726   -3.2848622    1.4812353   401343 
 3361000   0.90130749   -3.2826974   -1.8035282  0.044887078   -3.2826974    1.4791693   401301 
 3362000   0.90156225   -3.2826442   -1.8030126  0.041354019   -3.2826442    1.4796316   401289 
 3363000   0.90108015   -3.2828523   -1.8037502  0.044726949   -3.2828523    1.4791021   401218 
 3364000   0.90078855   -3.2827493   -1.8040264  0.042102966   -3.2827493    1.4787229   401191 
 3365000   0.90149144   -3.2844709   -1.8044133  0.038356346   -3.2844709    1.4800576   401142 
 3366000   0.89934288    -3.281919   -1.8053227   0.04349311    -3.281919    1.4765963   401124 
 3367000   0.90031265   -3.2847612   -1.8062925  0.038797505   -3.2847612    1.4784687   401048 
 3368000   0.89954241   -3.2830746   -1.8055908  0.039707646   -3.2830746    1.4774838   400972 
 3369000   0.89779553   -3.2818472   -1.8069493  0.042508352   -3.2818472    1.4748978   400895 
 3370000   0.89619759   -3.2800463   -1.8075238  0.038033071   -3.2800463    1.4725225   400827 
 3371000   0.89828448   -3.2830839   -1.8068562  0.037445878   -3.2830839    1.4762276   400752 
 3372000   0.89858997   -3.2855464   -1.8085477  0.042920385   -3.2855464    1.4769987   400679 
 3373000   0.89840759   -3.2846819   -1.8079719  0.040917676   -3.2846819      1.47671   400676 
 3374000   0.89763701   -3.2830932   -1.8076608  0.042304644   -3.2830932    1.4754324   400679 
 3375000   0.89933624   -3.2846556   -1.8062753  0.042559108   -3.2846556    1.4783803   400637 
 3376000   0.89948181   -3.2859825   -1.8070011  0.040759007   -3.2859825    1.4789814   400539 
 3377000   0.89797955   -3.2833068    -1.806637  0.044126943   -3.2833068    1.4766698   400496 
 3378000   0.89847561   -3.2846153    -1.806794  0.042981065   -3.2846153    1.4778213   400405 
 3379000   0.89879889   -3.2866217   -1.8080139  0.041650492   -3.2866217    1.4786079   400336 
 3380000   0.89907676    -3.288011   -1.8089387  0.042655771    -3.288011    1.4790724   400334 
 3381000   0.89778831   -3.2862152   -1.8089378  0.044654795   -3.2862152    1.4772775   400246 
 3382000   0.89940641   -3.2896004   -1.8093941  0.041449175   -3.2896004    1.4802063   400174 
 3383000   0.89837052   -3.2883854   -1.8096511  0.048201828   -3.2883854    1.4787343   400111 
 3384000   0.89966345    -3.290297   -1.8093198  0.042083588    -3.290297    1.4809772   400080 
 3385000   0.89849605   -3.2898776    -1.810578  0.044453316   -3.2898776    1.4792995   400014 
 3386000    0.8968081   -3.2888964   -1.8120991  0.038078033   -3.2888964    1.4767973   399939 
 3387000    0.8958907   -3.2890552   -1.8136432  0.045051912   -3.2890552    1.4754121   399905 
 3388000   0.89609584   -3.2899855   -1.8138961  0.035338819   -3.2899855    1.4760895   399813 
 3389000   0.89437635   -3.2886913   -1.8152132  0.041758328   -3.2886913    1.4734782   399753 
 3390000   0.89449895   -3.2890472   -1.8151458  0.041863541   -3.2890472    1.4739014   399693 
 3391000   0.89554478   -3.2923558   -1.8166093  0.039302935   -3.2923558    1.4757465   399660 
 3392000   0.89560049   -3.2919477   -1.8158139  0.046479293   -3.2919477    1.4761338   399580 
 3393000   0.89452324   -3.2919146   -1.8175674  0.045021828   -3.2919146    1.4743472   399583 
 3394000   0.89517662   -3.2921028   -1.8165864  0.041514359   -3.2921028    1.4755164   399558 
 3395000   0.89581442   -3.2947181   -1.8178696   0.03743422   -3.2947181    1.4768486   399482 
 3396000   0.89506139   -3.2939047   -1.8179873  0.042833272   -3.2939047    1.4759175   399398 
 3397000   0.89265974   -3.2910465   -1.8190708  0.040842015   -3.2910465    1.4719757   399393 
 3398000   0.89385063   -3.2930707   -1.8188545  0.044618778   -3.2930707    1.4742163   399318 
 3399000   0.89398565   -3.2948986   -1.8202344   0.03808903   -3.2948986    1.4746642   399257 
 3400000   0.89188843    -3.292023   -1.8206966  0.039291702    -3.292023    1.4713264   399224 
 3401000   0.89392736   -3.2944459   -1.8195047  0.041725143   -3.2944459    1.4749412   399156 
 3402000   0.89600069   -3.2981784   -1.8195014  0.043316628   -3.2981784     1.478677   399071 
 3403000   0.89489826   -3.2960281   -1.8189891  0.046714861   -3.2960281     1.477039   399022 
 3404000   0.89521363   -3.2977927   -1.8200776  0.041599401   -3.2977927     1.477715   398980 
 3405000    0.8949991   -3.2969884   -1.8193979  0.039162007   -3.2969884    1.4775905   398918 
 3406000   0.89470585   -3.2966197   -1.8192652  0.043071791   -3.2966197    1.4773545   398851 
 3407000    0.8925206   -3.2948151   -1.8209433  0.041713996   -3.2948151    1.4738718   398817 
 3408000   0.89457089   -3.2981686    -1.820548  0.042413703   -3.2981686    1.4776207   398719 
 3409000   0.89286752   -3.2954943   -1.8204542  0.044522466   -3.2954943    1.4750402   398656 
 3410000   0.89272463   -3.2968589   -1.8217032  0.043860556   -3.2968589    1.4751557   398561 
 3411000   0.89153393   -3.2955826     -1.82218  0.039388909   -3.2955826    1.4734025   398503 
 3412000   0.89069284   -3.2958216   -1.8235394   0.04030351   -3.2958216    1.4722822   398430 
 3413000   0.89017103   -3.2961492   -1.8245485   0.04636458   -3.2961492    1.4716006   398381 
 3414000   0.89169747   -3.2998204   -1.8255815  0.040515936   -3.2998204    1.4742388   398350 
 3415000   0.89073655   -3.2968569   -1.8240478  0.046303868   -3.2968569    1.4728091   398307 
 3416000   0.88966182    -3.296292   -1.8251269   0.04164819    -3.296292    1.4711651   398271 
 3417000   0.88988877   -3.2973922   -1.8256412  0.042864317   -3.2973922     1.471751   398214 
 3418000   0.89074077   -3.2978918   -1.8245134  0.038770939   -3.2978918    1.4733784   398155 
 3419000   0.88988895   -3.2972661   -1.8249195   0.04041454   -3.2972661    1.4723466   398053 
 3420000   0.88890971   -3.2965468   -1.8254804  0.037412783   -3.2965468    1.4710664   397961 
 3421000   0.88982055   -3.2976722   -1.8248875  0.041533573   -3.2976722    1.4727847   397904 
 3422000   0.89125292    -3.298672   -1.8235388  0.043342518    -3.298672    1.4751332   397910 
 3423000   0.89059334   -3.2985024   -1.8242756  0.044934779   -3.2985024    1.4742268   397860 
 3424000   0.88955528   -3.2986622    -1.825965  0.047565087   -3.2986622    1.4726972   397809 
 3425000   0.88937722    -3.299776   -1.8270144   0.03909417    -3.299776    1.4727616   397712 
 3426000   0.88864898   -3.2977685   -1.8260501  0.041732875   -3.2977685    1.4717184   397668 
 3427000   0.88794528   -3.2972055   -1.8263862  0.036845137   -3.2972055    1.4708193   397596 
 3428000   0.88731727   -3.2968151   -1.8268401  0.045577786   -3.2968151     1.469975   397543 
 3429000   0.88831138     -3.30039   -1.8286385  0.041051982     -3.30039    1.4717515   397508 
 3430000   0.88722107   -3.2990774   -1.8288809  0.039378381   -3.2990774    1.4701966   397440 
 3431000   0.88532728    -3.296472   -1.8292179  0.040382259    -3.296472    1.4672541   397387 
 3432000   0.88661198   -3.2972995   -1.8277203  0.042771777   -3.2972995    1.4695792   397334 
 3433000   0.88772533   -3.2994814   -1.8277419  0.042852349   -3.2994814    1.4717394   397249 
 3434000   0.88845018   -3.3006657   -1.8274798  0.037268143   -3.3006657    1.4731859   397183 
 3435000   0.88803318   -3.3010237   -1.8282696  0.040092107   -3.3010237     1.472754   397113 
 3436000   0.88687766   -3.3005091   -1.8293269  0.040147534   -3.3005091    1.4711822   397020 
 3437000    0.8871215   -3.3007904   -1.8290665  0.037745798   -3.3007904    1.4717239   396983 
 3438000   0.88569479   -3.2963951   -1.8267864  0.045810728   -3.2963951    1.4696087   396915 
 3439000   0.88680599    -3.298558   -1.8268719  0.039233186    -3.298558    1.4716861   396852 
 3440000   0.88644991   -3.2995377   -1.8281534  0.041530567   -3.2995377    1.4713843   396774 
 3441000    0.8875905   -3.3015985   -1.8280944  0.039966369   -3.3015985    1.4735041   396713 
 3442000   0.88757112   -3.3021794   -1.8285441  0.036523487   -3.3021794    1.4736354   396669 
 3443000   0.88566572   -3.3008269    -1.830292  0.040000367   -3.3008269    1.4705348   396652 
 3444000   0.88452107   -3.3014713   -1.8324444    0.0426079   -3.3014713    1.4690269   396546 
 3445000   0.88514283   -3.3022934   -1.8319224  0.039414035   -3.3022934     1.470371   396462 
 3446000   0.88428466   -3.3010646   -1.8317968   0.04129879   -3.3010646    1.4692678   396375 
 3447000   0.88450736   -3.3014681   -1.8315558  0.047056805   -3.3014681    1.4699123   396301 
 3448000   0.88439629   -3.3034257   -1.8334866  0.034906902   -3.3034257    1.4699391   396244 
 3449000   0.88344014   -3.3026252   -1.8339714   0.04561569   -3.3026252    1.4686538   396162 
 3450000   0.88505272   -3.3050653   -1.8336452  0.034431863   -3.3050653    1.4714201   396139 
 3451000   0.88399174   -3.3042606   -1.8342965  0.037618309   -3.3042606    1.4699641   396056 
 3452000   0.88395439   -3.3037609   -1.8337252  0.040156398   -3.3037609    1.4700357   396020 
 3453000   0.88239279   -3.3032781   -1.8356134   0.03777005   -3.3032781    1.4676647   395959 
 3454000   0.88344042   -3.3057648   -1.8362537  0.035302116   -3.3057648    1.4695112   395931 
 3455000   0.88252924    -3.304489   -1.8361672  0.035658495    -3.304489    1.4683219   395843 
 3456000    0.8836589   -3.3050685   -1.8347371  0.037816569   -3.3050685    1.4703314   395808 
 3457000   0.88494144   -3.3074583   -1.8348144  0.044352816   -3.3074583     1.472644   395760 
 3458000   0.88386808   -3.3065032   -1.8354261  0.045311912   -3.3065032    1.4710771   395701 
 3459000   0.88459242   -3.3094155    -1.837025  0.042324155   -3.3094155    1.4723906   395672 
 3460000   0.88363043   -3.3077737   -1.8369137  0.040469847   -3.3077737      1.47086   395653 
 3461000   0.88307261   -3.3073619   -1.8371852  0.041110185   -3.3073619    1.4701767   395587 
 3462000   0.88505524   -3.3110671   -1.8374369  0.041283644   -3.3110671    1.4736302   395546 
 3463000   0.88402913   -3.3094809   -1.8373768  0.044139552   -3.3094809    1.4721041   395497 
 3464000   0.88070436   -3.3065419      -1.8398  0.038854185   -3.3065419    1.4667419   395450 
 3465000   0.88173089   -3.3084181   -1.8397846  0.040383997   -3.3084181    1.4686335   395401 
 3466000   0.88099262   -3.3086938   -1.8408854  0.039204376   -3.3086938    1.4678084   395292 
 3467000   0.88057921   -3.3100232    -1.842562  0.038316848   -3.3100232    1.4674612   395200 
 3468000   0.87948015   -3.3087405    -1.843007  0.043639562   -3.3087405    1.4657335   395172 
 3469000   0.88012949   -3.3119281   -1.8449008  0.038871462   -3.3119281    1.4670273   395115 
 3470000   0.88015163   -3.3123308   -1.8449992  0.049290431   -3.3123308    1.4673316   395043 
 3471000   0.88072767   -3.3121778   -1.8437446  0.041141255   -3.3121778    1.4684331   395005 
 3472000   0.88097024   -3.3129031   -1.8439391  0.039141204   -3.3129031     1.468964   394971 
 3473000   0.88036194   -3.3121842   -1.8440449   0.04230773   -3.3121842    1.4681393   394920 
 3474000   0.87992153   -3.3129353   -1.8453633   0.03950232   -3.3129353    1.4675721   394875 
 3475000    0.8795263   -3.3138552   -1.8467603  0.035844657   -3.3138552    1.4670949   394826 
 3476000   0.87921498   -3.3139714   -1.8471431  0.039021806   -3.3139714    1.4668283   394758 
 3477000   0.88097614   -3.3176196   -1.8475366  0.039828542   -3.3176196     1.470083   394673 
 3478000   0.88108193   -3.3179334   -1.8475472  0.040089432   -3.3179334    1.4703862   394639 
 3479000   0.87905066   -3.3158165   -1.8485785  0.043216638   -3.3158165     1.467238   394574 
 3480000   0.87937129   -3.3178568   -1.8498381  0.039745567   -3.3178568    1.4680187   394508 
 3481000   0.87802554   -3.3153771   -1.8494934  0.045422624   -3.3153771    1.4658836   394478 
 3482000    0.8796025    -3.319451   -1.8507447  0.039409961    -3.319451    1.4687063   394427 
 3483000       0.8795   -3.3206344   -1.8518349  0.039667688   -3.3206344    1.4687995   394356 
 3484000   0.87712594   -3.3172779   -1.8523206  0.047211473   -3.3172779    1.4649573   394323 
 3485000   0.87759838   -3.3183033   -1.8522967   0.04450918   -3.3183033    1.4660066   394253 
 3486000   0.87776204   -3.3213004   -1.8545963   0.03894116   -3.3213004    1.4667041   394139 
 3487000   0.87706713   -3.3202271   -1.8544313  0.041112228   -3.3202271    1.4657959   394071 
 3488000   0.87709395   -3.3216477   -1.8555466  0.042285518   -3.3216477    1.4661011   394001 
 3489000   0.87664095   -3.3225857   -1.8570521  0.041435908   -3.3225857    1.4655336   393950 
 3490000   0.87685583   -3.3234298   -1.8573062  0.040892517   -3.3234298    1.4661236   393888 
 3491000   0.87666713   -3.3244016   -1.8583069  0.038309789   -3.3244016    1.4660947   393811 
 3492000   0.87771121   -3.3266347   -1.8586523  0.039909137   -3.3266347    1.4679824   393773 
 3493000   0.87619078   -3.3225133   -1.8568282  0.040440463   -3.3225133    1.4656851   393707 
 3494000   0.87630577   -3.3226677   -1.8564886  0.044972585   -3.3226677    1.4661791   393626 
 3495000   0.87679706    -3.323851   -1.8566002  0.038259578    -3.323851    1.4672508   393559 
 3496000   0.87493098   -3.3220013   -1.8577132  0.041935168   -3.3220013    1.4642881   393516 
 3497000   0.87588731   -3.3247405   -1.8586693  0.040419987   -3.3247405    1.4660712   393467 
 3498000   0.87612007   -3.3248326   -1.8582488  0.039342908   -3.3248326    1.4665838   393434 
 3499000   0.87647327   -3.3258571   -1.8583874  0.037682421   -3.3258571    1.4674697   393355 
 3500000   0.87579484   -3.3242297   -1.8576275  0.042042695   -3.3242297    1.4666022   393283 
 3501000   0.87597086   -3.3247458   -1.8576623  0.043796295   -3.3247458    1.4670835   393233 
 3502000   0.87605051    -3.326141   -1.8588121  0.041837008    -3.326141    1.4673288   393203 
 3503000    0.8761409   -3.3267543   -1.8591098  0.039433764   -3.3267543    1.4676445   393159 
 3504000    0.8747658   -3.3238886   -1.8584321  0.040424448   -3.3238886    1.4654566   393128 
 3505000   0.87608053    -3.324333   -1.8565731  0.040477808    -3.324333    1.4677599   393101 
 3506000   0.87312858   -3.3201476   -1.8571659  0.045600655   -3.3201476    1.4629817   393056 
 3507000   0.87447153   -3.3229079    -1.857415  0.038267908   -3.3229079    1.4654929   392986 
 3508000   0.87425483   -3.3231487   -1.8578549  0.040765738   -3.3231487    1.4652938   392942 
 3509000   0.87499173    -3.324056   -1.8573442  0.042640976    -3.324056    1.4667118   392893 
 3510000   0.87527338   -3.3261095   -1.8587762  0.042942595   -3.3261095    1.4673333   392853 
 3511000    0.8738487   -3.3247639    -1.859543  0.043490774   -3.3247639    1.4652209   392779 
 3512000   0.87404102   -3.3249154   -1.8592153  0.041429347   -3.3249154    1.4657001   392737 
 3513000   0.87303341   -3.3234328     -1.85918  0.036413338   -3.3234328    1.4642528   392672 
 3514000     0.873726   -3.3251756   -1.8596343  0.036887126   -3.3251756    1.4655413   392638 
 3515000   0.87153148   -3.3236739   -1.8615231  0.036609221   -3.3236739    1.4621508   392560 
 3516000   0.87199856   -3.3244157   -1.8611906  0.036328592   -3.3244157    1.4632252   392482 
 3517000   0.87284434   -3.3251211   -1.8602715  0.035999653   -3.3251211    1.4648496   392427 
 3518000   0.87135984   -3.3229555   -1.8603811  0.039608787   -3.3229555    1.4625745   392369 
 3519000   0.87112966    -3.323196   -1.8607022  0.038256126    -3.323196    1.4624937   392287 
 3520000    0.8710214   -3.3249401   -1.8624082  0.031950643   -3.3249401     1.462532   392228 
 3521000   0.87129441   -3.3266209    -1.863541   0.03703293   -3.3266209    1.4630799   392204 
 3522000   0.87087848   -3.3280559   -1.8654805   0.03818988   -3.3280559    1.4625754   392152 
 3523000   0.87090078   -3.3267204   -1.8638614  0.040750388   -3.3267204     1.462859   392086 
 3524000   0.87185822   -3.3287193   -1.8642259  0.035229866   -3.3287193    1.4644934   392079 
 3525000   0.87024374   -3.3267364   -1.8646528  0.038745527   -3.3267364    1.4620835   391998 
 3526000   0.87184137   -3.3318551   -1.8669528  0.040998472   -3.3318551    1.4649022   391962 
 3527000   0.87169719   -3.3307295    -1.865778  0.044343581   -3.3307295    1.4649515   391884 
 3528000   0.87197065   -3.3320707   -1.8664988  0.034378083   -3.3320707    1.4655719   391841 
 3529000   0.87070256   -3.3314852   -1.8679027   0.04337585   -3.3314852    1.4635825   391803 
 3530000   0.87125015   -3.3320982   -1.8673037  0.040151088   -3.3320982    1.4647945   391725 
 3531000   0.87044216    -3.331927   -1.8682443  0.039938912    -3.331927    1.4636827   391659 
 3532000     0.870567    -3.332748   -1.8685227  0.038781023    -3.332748    1.4642253   391570 
 3533000   0.87089153   -3.3346946   -1.8697401  0.042687197   -3.3346946    1.4649545   391521 
 3534000   0.87140287   -3.3358764   -1.8697322  0.037640096   -3.3358764    1.4661442   391433 
 3535000   0.86940095   -3.3373757   -1.8743008  0.039955198   -3.3373757     1.463075   391353 
 3536000   0.86833307   -3.3362538   -1.8746697  0.041169642   -3.3362538    1.4615841   391271 
 3537000   0.86956915   -3.3376326   -1.8738968  0.044311782   -3.3376326    1.4637358   391252 
 3538000   0.86821739   -3.3348321   -1.8733867   0.03881625   -3.3348321    1.4614454   391256 
 3539000   0.86972802   -3.3374951   -1.8732786  0.039484759   -3.3374951    1.4642165   391195 
 3540000   0.86872574    -3.336526   -1.8738398   0.04172151    -3.336526    1.4626862   391153 
 3541000   0.86837535   -3.3358775   -1.8736766  0.042882598   -3.3358775    1.4622009   391125 
 3542000   0.86924777   -3.3383019   -1.8743401  0.039757051   -3.3383019    1.4639618   391047 
 3543000   0.86975118   -3.3407948   -1.8757678  0.039624041   -3.3407948     1.465027   390989 
 3544000   0.86990935   -3.3399648   -1.8745627  0.044220481   -3.3399648    1.4654021   390960 
 3545000    0.8692117   -3.3405739   -1.8760137  0.038499719   -3.3405739    1.4645603   390871 
 3546000   0.86840896   -3.3402172   -1.8769084  0.038398844   -3.3402172    1.4633088   390844 
 3547000   0.86863289   -3.3417404   -1.8778183  0.039598666   -3.3417404    1.4639221   390781 
 3548000   0.86800616   -3.3405078   -1.8775334  0.039509688   -3.3405078    1.4629744   390752 
 3549000   0.86866213   -3.3418545   -1.8776059  0.040002129   -3.3418545    1.4642486   390707 
 3550000   0.86796251   -3.3412711   -1.8781419   0.04060275   -3.3412711    1.4631292   390691 
 3551000    0.8671498   -3.3401551   -1.8782761  0.039166817   -3.3401551     1.461879   390659 
 3552000   0.86892615   -3.3438505   -1.8789581  0.038347211   -3.3438505    1.4648924   390654 
 3553000   0.86865283   -3.3449547   -1.8804406  0.041172477   -3.3449547    1.4645141   390632 
 3554000   0.86840042   -3.3422461   -1.8780939  0.038242991   -3.3422461    1.4641522   390615 
 3555000   0.86960342   -3.3452247   -1.8786912  0.039363505   -3.3452247    1.4665335   390521 
 3556000   0.86820485   -3.3439053   -1.8794754  0.033949119   -3.3439053    1.4644299   390453 
 3557000   0.86747206   -3.3434471   -1.8798372  0.046070763   -3.3434471    1.4636099   390342 
 3558000   0.86812654   -3.3443641   -1.8796612  0.042418667   -3.3443641    1.4647029   390345 
 3559000   0.86822618   -3.3466169   -1.8814831  0.037488489   -3.3466169    1.4651338   390275 
 3560000   0.86771344   -3.3450053   -1.8805604   0.04163739   -3.3450053    1.4644449   390228 
 3561000   0.86628511   -3.3432811   -1.8809133  0.041151315   -3.3432811    1.4623678   390139 
 3562000   0.86906892   -3.3478085   -1.8804217  0.037853957   -3.3478085    1.4673868   390054 
 3563000   0.86776111    -3.348339   -1.8829838  0.042406772    -3.348339    1.4653552   390007 
 3564000   0.86609662    -3.345677   -1.8830238  0.034762779    -3.345677    1.4626532   389978 
 3565000   0.86666081   -3.3466939   -1.8828889  0.042723559   -3.3466939     1.463805   389925 
 3566000   0.86504208   -3.3456847   -1.8844714  0.038566696   -3.3456847    1.4612133   389887 
 3567000    0.8654616   -3.3456635   -1.8837266  0.041545717   -3.3456635    1.4619369   389883 
 3568000   0.86485673   -3.3459614   -1.8849075  0.042514206   -3.3459614    1.4610538   389846 
 3569000   0.86401841   -3.3458998   -1.8859589  0.035009061   -3.3458998    1.4599409   389765 
 3570000   0.86433822   -3.3454681   -1.8846982  0.042025508   -3.3454681    1.4607699   389688 
 3571000   0.86508947   -3.3478208   -1.8856011  0.040203808   -3.3478208    1.4622197   389640 
 3572000   0.86344852   -3.3459082   -1.8862261  0.035696424   -3.3459082    1.4596821   389577 
 3573000   0.86438085   -3.3471074   -1.8855828  0.041148882   -3.3471074    1.4615246   389506 
 3574000    0.8654024   -3.3488159   -1.8855753  0.034852912   -3.3488159    1.4632406   389509 
 3575000    0.8655417   -3.3491694   -1.8854716  0.034995822   -3.3491694    1.4636978   389450 
 3576000   0.86587183   -3.3495066   -1.8850738  0.036504305   -3.3495066    1.4644328   389403 
 3577000   0.86638754   -3.3496854   -1.8843691  0.044134279   -3.3496854    1.4653163   389400 
 3578000   0.86602429   -3.3493055   -1.8843854   0.03539349   -3.3493055    1.4649201   389342 
 3579000   0.86496192   -3.3503973   -1.8868682  0.035554165   -3.3503973    1.4635291   389234 
 3580000   0.86435068    -3.349364   -1.8867752  0.041042803    -3.349364    1.4625888   389209 
 3581000   0.86525767   -3.3512634   -1.8870496  0.038920422   -3.3512634    1.4642138   389185 
 3582000   0.86391602   -3.3482265   -1.8861403  0.040431329   -3.3482265    1.4620862   389147 
 3583000   0.86437545   -3.3490274   -1.8859456   0.03724893   -3.3490274    1.4630818   389089 
 3584000   0.86430955   -3.3496651   -1.8865632  0.035503702   -3.3496651    1.4631019   389054 
 3585000   0.86214798   -3.3465145   -1.8868466  0.037719375   -3.3465145    1.4596679   388994 
 3586000   0.86250938   -3.3457786   -1.8852398  0.035690021   -3.3457786    1.4605388   388925 
 3587000   0.86328469   -3.3480932   -1.8861325  0.038123988   -3.3480932    1.4619607   388896 
 3588000   0.86125088   -3.3458115   -1.8871413   0.04053403   -3.3458115    1.4586702   388855 
 3589000   0.86279834   -3.3488359    -1.887402  0.036361843   -3.3488359    1.4614339   388817 
 3590000   0.86346409   -3.3500593     -1.88743  0.034490168   -3.3500593    1.4626293   388799 
 3591000   0.86261118   -3.3498578    -1.888444  0.039058524   -3.3498578    1.4614138   388738 
 3592000   0.86247681   -3.3471544   -1.8858931  0.040906875   -3.3471544    1.4612614   388718 
 3593000   0.86237408   -3.3473206   -1.8859964     0.039008   -3.3473206    1.4613242   388655 
 3594000   0.86109871   -3.3478271   -1.8882886   0.03575556   -3.3478271    1.4595385   388555 
 3595000   0.86173333   -3.3479969    -1.887394   0.03494895   -3.3479969    1.4606029   388558 
 3596000   0.86222024   -3.3497192   -1.8881706  0.039650923   -3.3497192    1.4615486   388526 
 3597000   0.86174579   -3.3490962   -1.8881601  0.039629773   -3.3490962    1.4609361   388475 
 3598000   0.86278423   -3.3508705   -1.8881965   0.04068228   -3.3508705     1.462674   388481 
 3599000   0.86196525   -3.3494096   -1.8881202  0.038003909   -3.3494096    1.4612894   388480 
 3600000   0.86189344   -3.3480803   -1.8867434  0.038038342   -3.3480803    1.4613369   388435 
 3601000   0.86189814   -3.3494648   -1.8880447  0.041315675   -3.3494648    1.4614201   388415 
 3602000   0.86241879   -3.3506301     -1.88841  0.041946969   -3.3506301    1.4622201   388437 
 3603000   0.86237018   -3.3504038   -1.8880478  0.041912753   -3.3504038     1.462356   388379 
 3604000   0.86095212   -3.3485063   -1.8884421  0.041552584   -3.3485063    1.4600642   388349 
 3605000   0.86042337   -3.3477093    -1.888166  0.042268659   -3.3477093    1.4595433   388249 
 3606000   0.86116023   -3.3495104   -1.8886344  0.038117782   -3.3495104     1.460876   388227 
 3607000   0.85975045   -3.3492884   -1.8905184  0.036312212   -3.3492884      1.45877   388151 
 3608000   0.85918767   -3.3493925    -1.891521  0.040726994   -3.3493925    1.4578715   388136 
 3609000   0.86036502   -3.3511957   -1.8912098  0.039279393   -3.3511957    1.4599858   388105 
 3610000   0.85997143   -3.3507998   -1.8913841  0.042391231   -3.3507998    1.4594157   388079 
 3611000   0.86025003   -3.3511655   -1.8912394  0.037878381   -3.3511655    1.4599261   388069 
 3612000   0.86001145   -3.3500128   -1.8903186  0.040439922   -3.3500128    1.4596942   388023 
 3613000   0.85899171   -3.3494096   -1.8911605  0.036281533   -3.3494096    1.4582491   387947 
 3614000   0.85821156   -3.3490049   -1.8918849  0.038857682   -3.3490049      1.45712   387895 
 3615000   0.85976412   -3.3509886   -1.8913304  0.041298985   -3.3509886    1.4596582   387921 
 3616000   0.86002479   -3.3523527   -1.8921202  0.041395948   -3.3523527    1.4602325   387886 
 3617000   0.86057889   -3.3530572   -1.8917709  0.039988751   -3.3530572    1.4612863   387856 
 3618000   0.85921568   -3.3525851   -1.8933841  0.043181902   -3.3525851     1.459201   387795 
 3619000    0.8591296   -3.3520371   -1.8927941  0.037816223   -3.3520371     1.459243   387745 
 3620000   0.85796732   -3.3521776    -1.894578  0.033888668   -3.3521776    1.4575996   387657 
 3621000   0.85857069   -3.3530945   -1.8941461  0.038849031   -3.3530945    1.4589484   387571 
 3622000   0.85859732   -3.3530722   -1.8939393  0.035709304   -3.3530722    1.4591329   387534 
 3623000   0.86102529   -3.3563772   -1.8929519  0.040988637   -3.3563772    1.4634252   387490 
 3624000   0.85846963   -3.3547318   -1.8955146  0.041980524   -3.3547318    1.4592171   387454 
 3625000    0.8589596   -3.3553741   -1.8954258  0.044457287   -3.3553741    1.4599482   387481 
 3626000   0.85796404   -3.3539576   -1.8955999  0.038799585   -3.3539576    1.4583577   387454 
 3627000   0.85921637   -3.3557264   -1.8949346  0.042482568   -3.3557264    1.4607918   387373 
 3628000   0.85927313   -3.3555024   -1.8943652  0.039054863   -3.3555024    1.4611373   387307 
 3629000    0.8599824   -3.3560219   -1.8935653    0.0393096   -3.3560219    1.4624566   387277 
 3630000   0.85801307    -3.355218   -1.8959709  0.035876458    -3.355218    1.4592471   387240 
 3631000   0.85828871   -3.3546112   -1.8948313   0.03516194   -3.3546112    1.4597799   387223 
 3632000   0.85813235   -3.3539838    -1.894451  0.039045966   -3.3539838    1.4595328   387218 
 3633000   0.85794072   -3.3540051    -1.894704  0.036349809   -3.3540051    1.4593011   387193 
 3634000   0.85891737   -3.3558276   -1.8946464  0.040000558   -3.3558276    1.4611812   387135 
 3635000   0.85769428   -3.3533685   -1.8941625  0.043247942   -3.3533685    1.4592061   387107 
 3636000   0.85899705   -3.3567749   -1.8952505  0.038051546   -3.3567749    1.4615244   387080 
 3637000   0.85737713   -3.3554764   -1.8964857  0.036870526   -3.3554764    1.4589906   387021 
 3638000   0.85756874   -3.3551433   -1.8956268  0.044278062   -3.3551433    1.4595165   386968 
 3639000   0.85680404   -3.3540869   -1.8956607  0.038979541   -3.3540869    1.4584261   386912 
 3640000   0.85706623   -3.3552189   -1.8961693  0.038013939   -3.3552189    1.4590497   386865 
 3641000   0.85533398   -3.3534171   -1.8970943  0.040641055   -3.3534171    1.4563228   386806 
 3642000   0.85646884   -3.3554229   -1.8968662  0.038137911   -3.3554229    1.4585567   386726 
 3643000   0.85691515   -3.3567336   -1.8972205  0.040279456   -3.3567336    1.4595131   386674 
 3644000   0.85473495   -3.3535379   -1.8975575  0.039045738   -3.3535379    1.4559804   386626 
 3645000   0.85527024    -3.354179   -1.8970418  0.038250492    -3.354179    1.4571372   386561 
 3646000   0.85492898   -3.3547296    -1.897861  0.036320206   -3.3547296    1.4568686   386478 
 3647000   0.85489996   -3.3557595   -1.8987141  0.036896959   -3.3557595    1.4570454   386418 
 3648000   0.85374802     -3.35492   -1.8996157  0.045868948     -3.35492    1.4553043   386359 
 3649000   0.85337701   -3.3552179   -1.9003841  0.036801554   -3.3552179    1.4548338   386316 
 3650000   0.85523357   -3.3594902   -1.9012007  0.034785553   -3.3594902    1.4582895   386239 
 3651000   0.85412389   -3.3563595    -1.899834  0.038631241   -3.3563595    1.4565256   386205 
 3652000   0.85509733   -3.3583985   -1.8999788  0.036352771   -3.3583985    1.4584197   386143 
 3653000   0.85421075   -3.3591752   -1.9020223  0.042903691   -3.3591752    1.4571529   386078 
 3654000   0.85321613    -3.356689   -1.9010632  0.036517206    -3.356689    1.4556258   386033 
 3655000   0.85397798   -3.3559405   -1.8990678  0.043879495   -3.3559405    1.4568728   386047 
 3656000   0.85422417    -3.355443   -1.8979124  0.041510097    -3.355443    1.4575306   385984 
 3657000   0.85610976   -3.3588091   -1.8978567  0.038710025   -3.3588091    1.4609523   385930 
 3658000   0.85501014   -3.3568425   -1.8976457  0.040290961   -3.3568425    1.4591968   385898 
 3659000   0.85430083   -3.3566912   -1.8985538  0.036774942   -3.3566912    1.4581374   385858 
 3660000   0.85518677   -3.3595649   -1.8997905  0.033971124   -3.3595649    1.4597744   385825 
 3661000   0.85538681    -3.357668   -1.8974575  0.042924735    -3.357668    1.4602105   385800 
 3662000   0.85515346   -3.3586042   -1.8986028  0.039398746   -3.3586042    1.4600013   385750 
 3663000   0.85306191    -3.355425   -1.8988133  0.040784225    -3.355425    1.4566117   385702 
 3664000   0.85161264   -3.3542829   -1.9000138  0.043503644   -3.3542829     1.454269   385667 
 3665000   0.85210619   -3.3556718   -1.9004732  0.037146732   -3.3556718    1.4551986   385644 
 3666000   0.85226399   -3.3548346   -1.8993741  0.036913474   -3.3548346    1.4554605   385646 
 3667000   0.85370075    -3.357569   -1.8994317  0.039408602    -3.357569    1.4581373   385587 
 3668000   0.85322591   -3.3572641   -1.8999001  0.039924495   -3.3572641     1.457364   385577 
 3669000   0.85536353   -3.3608872   -1.8998682  0.041967608   -3.3608872     1.461019   385576 
 3670000   0.85233611     -3.35591   -1.8998846  0.035923315     -3.35591    1.4560255   385529 
 3671000   0.85109292   -3.3541106   -1.9001409  0.042601418   -3.3541106    1.4539696   385511 
 3672000   0.85432458   -3.3564629   -1.8969876   0.03476353   -3.3564629    1.4594753   385515 
 3673000   0.85122075   -3.3539618   -1.8997775  0.039636503   -3.3539618    1.4541842   385512 
 3674000   0.85273309   -3.3559866   -1.8989807  0.038192229   -3.3559866    1.4570059   385449 
 3675000   0.85088114   -3.3559904   -1.9018016  0.039085018   -3.3559904    1.4541887   385357 
 3676000   0.85228989   -3.3564269    -1.899702  0.037337202   -3.3564269    1.4567249   385323 
 3677000   0.85295198   -3.3580956   -1.9002959  0.036460262   -3.3580956    1.4577998   385338 
 3678000   0.85134968   -3.3575297   -1.9021663  0.039089725   -3.3575297    1.4553634   385258 
 3679000   0.85346443   -3.3602258   -1.9011981  0.035997904   -3.3602258    1.4590277   385245 
 3680000   0.85299395   -3.3593971   -1.9010071   0.03940825   -3.3593971      1.45839   385201 
 3681000    0.8521094   -3.3586028   -1.9014755  0.036713225   -3.3586028    1.4571273   385135 
 3682000   0.85243217   -3.3597293   -1.9020387  0.045381265   -3.3597293    1.4576906   385132 
 3683000    0.8512609   -3.3586364   -1.9028278  0.035821557   -3.3586364    1.4558087   385100 
 3684000   0.85099183   -3.3577146    -1.902283  0.040109305   -3.3577146    1.4554316   385078 
 3685000   0.85159195   -3.3597371   -1.9031354   0.03953069   -3.3597371    1.4566018   385040 
 3686000   0.85184423   -3.3610354   -1.9038999  0.036852479   -3.3610354    1.4571355   385013 
 3687000    0.8501806   -3.3608791   -1.9064043  0.040521279   -3.3608791    1.4544748   384964 
 3688000   0.85011015   -3.3619413   -1.9075039  0.034427495   -3.3619413    1.4544374   384942 
 3689000   0.85225346   -3.3656075   -1.9072834  0.037288175   -3.3656075    1.4583241   384884 
 3690000   0.85025823    -3.361364    -1.906299  0.035899436    -3.361364     1.455065   384843 
 3691000   0.85127614    -3.361959   -1.9050914  0.038295908    -3.361959    1.4568675   384827 
 3692000   0.85046491   -3.3613998   -1.9056142  0.043358029   -3.3613998    1.4557856   384746 
 3693000   0.85082638   -3.3627921   -1.9061795  0.039697462   -3.3627921    1.4566126   384691 
 3694000   0.85043021   -3.3622799   -1.9061639  0.040700352   -3.3622799     1.456116   384643 
 3695000   0.84970502    -3.363763   -1.9089568  0.038196691    -3.363763    1.4548063   384661 
 3696000   0.85063429   -3.3646709   -1.9080654   0.03882984   -3.3646709    1.4566056   384606 
 3697000   0.84980854   -3.3623895   -1.9069671  0.036470792   -3.3623895    1.4554224   384545 
 3698000   0.84905286   -3.3609864   -1.9066729  0.038162111   -3.3609864    1.4543135   384496 
 3699000   0.85003042   -3.3642577   -1.9081864   0.04135425   -3.3642577    1.4560712   384474 
 3700000   0.85039561   -3.3649795   -1.9082183   0.04175905   -3.3649795    1.4567612   384457 
 3701000   0.84978653   -3.3643946   -1.9085026  0.035854447   -3.3643946     1.455892   384411 
 3702000   0.84948124   -3.3638858    -1.908354  0.041292117   -3.3638858    1.4555318   384368 
 3703000   0.85026359   -3.3664185   -1.9093036  0.040051178   -3.3664185    1.4571149   384304 
 3704000   0.84977974   -3.3651524   -1.9087567  0.037169968   -3.3651524    1.4563957   384275 
 3705000    0.8479813   -3.3642813   -1.9107599  0.036608624   -3.3642813    1.4535214   384220 
 3706000   0.84910486   -3.3666095   -1.9109992   0.03790241   -3.3666095    1.4556102   384177 
 3707000   0.84979797   -3.3670483   -1.9100982  0.039712326   -3.3670483    1.4569501   384137 
 3708000   0.85028324   -3.3682215    -1.910356  0.036914262   -3.3682215    1.4578656   384115 
 3709000   0.84874297   -3.3667532   -1.9113201  0.036360714   -3.3667532    1.4554331   384060 
 3710000   0.84863332   -3.3682103   -1.9126431  0.034408673   -3.3682103    1.4555672   383975 
 3711000   0.84828437   -3.3664228   -1.9112911  0.041008814   -3.3664228    1.4551317   383932 
 3712000   0.84852391   -3.3675714   -1.9118355  0.038671922   -3.3675714    1.4557359   383881 
 3713000    0.8472504    -3.365167   -1.9115326  0.046782422    -3.365167    1.4536344   383859 
 3714000   0.84874301    -3.368624   -1.9122011  0.036052025    -3.368624    1.4564229   383799 
 3715000   0.84795181   -3.3680665   -1.9128572  0.039645413   -3.3680665    1.4552093   383761 
 3716000   0.84922294   -3.3686011   -1.9111989  0.033940164   -3.3686011    1.4574022   383758 
 3717000   0.84835046   -3.3684271   -1.9124047  0.034959808   -3.3684271    1.4560225   383727 
 3718000   0.84602386   -3.3658663   -1.9136705  0.037811874   -3.3658663    1.4521958   383683 
 3719000   0.84681761   -3.3675671   -1.9138345  0.042034633   -3.3675671    1.4537326   383637 
 3720000   0.84860671   -3.3691593   -1.9122072  0.042874872   -3.3691593    1.4569521   383598 
 3721000   0.84767698   -3.3676793   -1.9121831  0.035995898   -3.3676793    1.4554962   383561 
 3722000   0.84599416   -3.3672183   -1.9143351  0.037803662   -3.3672183    1.4528833   383488 
 3723000   0.84644122   -3.3694772   -1.9154622  0.039529953   -3.3694772     1.454015   383392 
 3724000   0.84622456   -3.3687607    -1.915061  0.037200376   -3.3687607    1.4536997   383377 
 3725000   0.84685208    -3.368224    -1.913359  0.037500063    -3.368224     1.454865   383354 
 3726000   0.84574787   -3.3670807   -1.9138587  0.042602583   -3.3670807     1.453222   383287 
 3727000   0.84605521   -3.3671872   -1.9132778  0.041590046   -3.3671872    1.4539094   383245 
 3728000   0.84592283   -3.3670356    -1.913293  0.039350012   -3.3670356    1.4537426   383229 
 3729000   0.84552549   -3.3670367   -1.9138367  0.043766126   -3.3670367    1.4532001   383192 
 3730000   0.84635896   -3.3699403   -1.9152015  0.036090718   -3.3699403    1.4547388   383164 
 3731000   0.84619968   -3.3696972   -1.9151335  0.039337361   -3.3696972    1.4545638   383138 
 3732000   0.84676591   -3.3699168   -1.9142354  0.038977584   -3.3699168    1.4556814   383100 
 3733000   0.84519193   -3.3668971   -1.9137204  0.036809247   -3.3668971    1.4531766   383047 
 3734000   0.84732956   -3.3697495    -1.912559  0.035505439   -3.3697495    1.4571905   382958 
 3735000   0.84444331   -3.3662567   -1.9140221  0.035441003   -3.3662567    1.4522345   382956 
 3736000   0.84473994   -3.3688466   -1.9160299  0.039789005   -3.3688466    1.4528167   382937 
 3737000   0.84611632   -3.3711588   -1.9156709  0.040026909   -3.3711588    1.4554879   382857 
 3738000   0.84469337   -3.3708424   -1.9175252  0.033233844   -3.3708424    1.4533173   382784 
 3739000   0.84743011   -3.3743323   -1.9160663  0.039184672   -3.3743323    1.4582659   382721 
 3740000   0.84461057   -3.3703449   -1.9167675  0.044482952   -3.3703449    1.4535774   382678 
 3741000   0.84456596   -3.3711956   -1.9173835  0.040833226   -3.3711956    1.4538121   382596 
 3742000   0.84590789   -3.3713243   -1.9152213   0.04366607   -3.3713243     1.456103   382601 
 3743000   0.84507205    -3.371943   -1.9172978  0.034393299    -3.371943    1.4546453   382606 
 3744000   0.84494106   -3.3710847   -1.9167828  0.038553795   -3.3710847    1.4543019   382637 
 3745000    0.8450538   -3.3708949   -1.9162354  0.039817325   -3.3708949    1.4546595   382594 
 3746000   0.84513331   -3.3717774   -1.9168936  0.040229201   -3.3717774    1.4548838   382571 
 3747000   0.84399173   -3.3701227    -1.917056  0.040434613   -3.3701227    1.4530667   382532 
 3748000   0.84528911   -3.3737623   -1.9183554  0.034874611   -3.3737623    1.4554069   382504 
 3749000   0.84349433    -3.371374   -1.9189207  0.038616155    -3.371374    1.4524534   382468 
 3750000   0.84386884   -3.3717965   -1.9185539  0.037849387   -3.3717965    1.4532426   382430 
 3751000   0.84304904   -3.3688058   -1.9166788   0.04388575   -3.3688058     1.452127   382352 
 3752000   0.84308444   -3.3702087   -1.9178688   0.03766484   -3.3702087    1.4523399   382312 
 3753000   0.84205398   -3.3694513   -1.9185487  0.035283507   -3.3694513    1.4509026   382223 
 3754000   0.84333077   -3.3729994    -1.919779  0.036645803   -3.3729994    1.4532204   382192 
 3755000   0.84299879   -3.3717936   -1.9189628  0.042908956   -3.3717936    1.4528308   382144 
 3756000   0.84374675    -3.371453   -1.9172228  0.039761278    -3.371453    1.4542302   382115 
 3757000   0.84354838   -3.3729735   -1.9189292  0.034883923   -3.3729735    1.4540443   382074 
 3758000   0.84220551   -3.3712422   -1.9193644  0.035114492   -3.3712422    1.4518778   382035 
 3759000    0.8424342   -3.3703883   -1.9179186  0.041139522   -3.3703883    1.4524697   381983 
 3760000   0.84348135   -3.3727905    -1.918264  0.038416419   -3.3727905    1.4545265   381917 
 3761000   0.84471625   -3.3756149   -1.9188254  0.033949206   -3.3756149    1.4567895   381882 
 3762000   0.84329529    -3.372873   -1.9184161  0.043819626    -3.372873     1.454457   381851 
 3763000   0.84263642   -3.3730365   -1.9194914  0.038057096   -3.3730365    1.4535452   381792 
 3764000   0.84307556   -3.3732236   -1.9188371  0.037203057   -3.3732236    1.4543865   381770 
 3765000   0.84207567   -3.3733262   -1.9204401  0.034319906   -3.3733262    1.4528861   381711 
 3766000   0.84269668   -3.3735579   -1.9195698  0.035582484   -3.3735579    1.4539881   381703 
 3767000   0.84250878   -3.3727596   -1.9190044  0.037611826   -3.3727596    1.4537553   381679 
 3768000   0.84214356   -3.3737658   -1.9204884  0.040378357   -3.3737658    1.4532774   381639 
 3769000   0.84203668   -3.3733361    -1.920106  0.041704904   -3.3733361      1.45323   381603 
[...]
 7812000   0.52045565   -3.0462066   -1.5885421  0.041784555   -3.0462066    1.4576645   235148 
 7813000   0.52096263   -3.0449254    -1.585841  0.038434138   -3.0449254    1.4590844   235148 
 7814000   0.52003608   -3.0443262   -1.5871985  0.040149891   -3.0443262    1.4571276   235045 
 7815000   0.52062312   -3.0456546   -1.5868635  0.039564384   -3.0456546    1.4587911   235042 
 7816000   0.52089224   -3.0452015   -1.5854575  0.040666239   -3.0452015    1.4597439   235010 
 7817000   0.52165348   -3.0466972   -1.5843346  0.042320168   -3.0466972    1.4623626   234932 
 7818000   0.52087816   -3.0472986   -1.5869914  0.038447576   -3.0472986    1.4603072   234913 
 7819000   0.51994967   -3.0439466   -1.5861369  0.039127905   -3.0439466    1.4578097   234896 
 7820000   0.52042632   -3.0443572   -1.5851552  0.041883196   -3.0443572     1.459202   234887 
 7821000   0.51958886   -3.0436814   -1.5863001  0.039126319   -3.0436814    1.4573812   234802 
 7822000    0.5186969   -3.0439972   -1.5885848  0.040426854   -3.0439972    1.4554125   234716 
 7823000   0.52019767   -3.0459222   -1.5858944  0.038190336   -3.0459222    1.4600278   234651 
 7824000   0.52024607    -3.046373    -1.585755  0.042019851    -3.046373     1.460618   234578 
 7825000   0.52035068   -3.0481238   -1.5868134  0.040826471   -3.0481238    1.4613104   234514 
 7826000   0.51939542   -3.0443466   -1.5856504  0.038871479   -3.0443466    1.4586962   234503 
 7827000   0.51958917    -3.047219   -1.5876613  0.038750691    -3.047219    1.4595578   234452 
 7828000   0.51901965   -3.0462776   -1.5879714  0.041690883   -3.0462776    1.4583062   234396 
 7829000   0.51901689   -3.0481825   -1.5895293  0.040542437   -3.0481825    1.4586532   234339 
 7830000   0.51774512   -3.0442288   -1.5889946  0.044070872   -3.0442288    1.4552342   234314 
 7831000   0.51935655    -3.047523   -1.5876723  0.042343726    -3.047523    1.4598507   234300 
 7832000   0.51944506    -3.048481   -1.5882444   0.03869822    -3.048481    1.4602366   234278 
 7833000   0.51909388   -3.0450821   -1.5854339  0.041545545   -3.0450821    1.4596482   234214 
 7834000   0.51932298   -3.0456193   -1.5847968  0.041612144   -3.0456193    1.4608226   234129 
 7835000   0.51857281   -3.0425817   -1.5836574  0.041214531   -3.0425817    1.4589242   234095 
 7836000   0.51793921   -3.0431479   -1.5855205    0.0395011   -3.0431479    1.4576274   234017 
 7837000   0.51883914   -3.0478399   -1.5874677   0.03635214   -3.0478399    1.4603722   233983 
 7838000   0.51747479   -3.0440484   -1.5870619  0.034498479   -3.0440484    1.4569865   233910 
 7839000   0.51835903   -3.0453754   -1.5855997  0.039927339   -3.0453754    1.4597757   233862 
 7840000    0.5198382   -3.0497004   -1.5855775  0.038366858   -3.0497004    1.4641229   233833 
 7841000   0.51853416   -3.0469742   -1.5860993  0.042218077   -3.0469742    1.4608749   233765 
 7842000   0.51792409   -3.0437025   -1.5842655  0.043932302   -3.0437025     1.459437   233720 
 7843000   0.51773527     -3.04531   -1.5860491  0.039174731     -3.04531    1.4592609   233663 
 7844000   0.51831334   -3.0464341   -1.5855002  0.038496903   -3.0464341     1.460934   233656 
 7845000   0.51845653   -3.0474422   -1.5858294  0.045087476   -3.0474422    1.4616128   233612 
 7846000   0.51869263   -3.0453716   -1.5828553  0.045019575   -3.0453716    1.4625163   233574 
 7847000   0.51768176   -3.0429583   -1.5830798  0.039003691   -3.0429583    1.4598785   233540 
 7848000   0.51750825    -3.042977   -1.5832378  0.036916826    -3.042977    1.4597392   233484 
 7849000   0.51713455   -3.0407067   -1.5818466  0.038344567   -3.0407067    1.4588601   233456 
 7850000   0.51697753   -3.0407302   -1.5820132   0.03614301   -3.0407302     1.458717   233408 
 7851000   0.51700732    -3.040761   -1.5817098  0.038902887    -3.040761    1.4590512   233368 
 7852000   0.51647903   -3.0382025   -1.5803612  0.042493379   -3.0382025    1.4578414   233323 
 7853000   0.51596909   -3.0371341   -1.5806323  0.038098857   -3.0371341    1.4565019   233307 
 7854000   0.51638133   -3.0378473   -1.5798505  0.040657427   -3.0378473    1.4579968   233254 
 7855000   0.51599872   -3.0369229   -1.5796315  0.038968961   -3.0369229    1.4572914   233194 
 7856000   0.51585032   -3.0367422   -1.5795137  0.038822314   -3.0367422    1.4572284   233137 
 7857000   0.51554831   -3.0372223   -1.5804159  0.039672948   -3.0372223    1.4568064   233068 
 7858000   0.51515586   -3.0375114   -1.5815141  0.036585388   -3.0375114    1.4559973   233020 
 7859000   0.51536923   -3.0383597   -1.5816593  0.039211779   -3.0383597    1.4567004   233004 
 7860000   0.51661279   -3.0391981   -1.5786881  0.037605703   -3.0391981      1.46051   232957 
 7861000   0.51488593   -3.0361568   -1.5801101  0.039260201   -3.0361568    1.4560467   232890 
 7862000   0.51581879   -3.0388306   -1.5798138  0.039248635   -3.0388306    1.4590168   232837 
 7863000    0.5154009   -3.0381856   -1.5802631  0.041160637   -3.0381856    1.4579225   232823 
 7864000   0.51562886   -3.0394029   -1.5807917  0.039761546   -3.0394029    1.4586111   232816 
 7865000   0.51674942   -3.0395071   -1.5775252   0.04410915   -3.0395071    1.4619819   232784 
 7866000   0.51548178   -3.0391295   -1.5800382  0.041067213   -3.0391295    1.4590913   232673 
 7867000   0.51528222   -3.0395189   -1.5809862  0.040729778   -3.0395189    1.4585327   232672 
 7868000   0.51605693   -3.0385855   -1.5777469  0.039511699   -3.0385855    1.4608386   232654 
 7869000   0.51530139   -3.0404601   -1.5813652  0.041781952   -3.0404601    1.4590949   232591 
 7870000   0.51494775   -3.0414675   -1.5828221   0.03781662   -3.0414675    1.4586454   232503 
 7871000   0.51455749   -3.0416272   -1.5835792  0.041666476   -3.0416272    1.4580479   232422 
 7872000    0.5143014   -3.0376593   -1.5803809  0.042745261   -3.0376593    1.4572784   232429 
 7873000   0.51557501   -3.0422968   -1.5811833   0.04101945   -3.0422968    1.4611135   232393 
 7874000    0.5156999   -3.0410052   -1.5794435  0.042394323   -3.0410052    1.4615618   232378 
 7875000   0.51559865   -3.0403166   -1.5785071  0.043486939   -3.0403166    1.4618095   232293 
 7876000   0.51496651   -3.0424219   -1.5820149  0.037397659   -3.0424219    1.4604071   232231 
 7877000   0.51491828   -3.0428639   -1.5822855  0.039173484   -3.0428639    1.4605785   232182 
 7878000   0.51414216    -3.041175   -1.5826598   0.04077554    -3.041175    1.4585152   232160 
 7879000   0.51359759   -3.0403559   -1.5830591  0.040107886   -3.0403559    1.4572968   232108 
 7880000   0.51383385   -3.0410169   -1.5826414  0.037800143   -3.0410169    1.4583755   232043 
 7881000   0.51352954   -3.0426605   -1.5846711  0.037205322   -3.0426605    1.4579894   231967 
 7882000   0.51362859   -3.0409323   -1.5822781  0.041903485   -3.0409323    1.4586542   231906 
 7883000    0.5139371   -3.0391044   -1.5793601  0.041179194   -3.0391044    1.4597443   231872 
 7884000   0.51308487   -3.0383553   -1.5809751  0.038261767   -3.0383553    1.4573803   231863 
 7885000   0.51306542   -3.0397069    -1.582055  0.042273653   -3.0397069    1.4576519   231811 
 7886000   0.51440693   -3.0399496   -1.5781142  0.043441667   -3.0399496    1.4618353   231752 
 7887000   0.51357654   -3.0399457   -1.5801048  0.042472014   -3.0399457    1.4598409   231694 
 7888000    0.5136057   -3.0394529    -1.579567  0.041368386   -3.0394529     1.459886   231700 
 7889000   0.51341615   -3.0391443   -1.5794507  0.039780092   -3.0391443    1.4596937   231645 
 7890000   0.51420678   -3.0439291   -1.5815394   0.03956367   -3.0439291    1.4623897   231574 
 7891000   0.51299504   -3.0376785   -1.5785081  0.040939154   -3.0376785    1.4591704   231538 
 7892000   0.51389074   -3.0382792     -1.57646  0.041782945   -3.0382792    1.4618192   231522 
 7893000   0.51350101   -3.0412778   -1.5800686  0.037700479   -3.0412778    1.4612092   231443 
 7894000   0.51242172   -3.0404813    -1.581795  0.045751728   -3.0404813    1.4586863   231356 
 7895000   0.51107365   -3.0349989   -1.5794455  0.039560586   -3.0349989    1.4555534   231244 
 7896000   0.51128223   -3.0364783   -1.5799467  0.041015674   -3.0364783    1.4565317   231183 
 7897000   0.51277821   -3.0377584    -1.576927  0.040960577   -3.0377584    1.4608313   231177 
 7898000   0.51201455   -3.0332636   -1.5741345  0.044544116   -3.0332636    1.4591291   231102 
 7899000     0.511397   -3.0321185   -1.5743833  0.038552423   -3.0321185    1.4577351   231044 
 7900000   0.51139649   -3.0312079   -1.5734427  0.037592133   -3.0312079    1.4577652   231039 
 7901000   0.51102445   -3.0289639    -1.571925   0.04040011   -3.0289639    1.4570389   230986 
 7902000   0.51313872   -3.0322508   -1.5688669   0.03816106   -3.0322508    1.4633839   230936 
 7903000   0.51213378   -3.0313807   -1.5705147  0.041840154   -3.0313807    1.4608659   230881 
 7904000   0.51171377   -3.0304745   -1.5704842  0.040172491   -3.0304745    1.4599903   230830 
 7905000   0.51130849   -3.0294625   -1.5705083  0.040226962   -3.0294625    1.4589541   230811 
 7906000   0.51120453   -3.0293485   -1.5706025  0.040431718   -3.0293485     1.458746   230797 
 7907000   0.51272546   -3.0321405   -1.5687629  0.045482216   -3.0321405    1.4633777   230751 
 7908000   0.51110945   -3.0291134   -1.5698421  0.040530199   -3.0291134    1.4592713   230671 
 7909000   0.51195573   -3.0297786   -1.5676981  0.039532887   -3.0297786    1.4620805   230609 
 7910000   0.51125525   -3.0267412   -1.5663699  0.037324921   -3.0267412    1.4603713   230563 
 7911000   0.51084241   -3.0274817   -1.5679731  0.040535975   -3.0274817    1.4595086   230513 
 7912000   0.51173323   -3.0290533   -1.5667966  0.041754802   -3.0290533    1.4622567   230481 
 7913000   0.51130065   -3.0268393   -1.5656031  0.037885596   -3.0268393    1.4612362   230447 
 7914000    0.5110528   -3.0255716   -1.5648409  0.040811782   -3.0255716    1.4607307   230415 
 7915000   0.51121301    -3.028501   -1.5672045  0.035800725    -3.028501    1.4612964   230398 
 7916000   0.50986616   -3.0245372   -1.5668756  0.039258925   -3.0245372    1.4576616   230364 
 7917000   0.51052761   -3.0245089   -1.5646457  0.036275982   -3.0245089    1.4598631   230315 
 7918000   0.51069314    -3.025054   -1.5647112  0.040220591    -3.025054    1.4603428   230314 
 7919000   0.51063318   -3.0227948   -1.5626298  0.040148631   -3.0227948     1.460165   230315 
 7920000   0.50830528    -3.017448   -1.5635482  0.041290069    -3.017448    1.4538997   230253 
 7921000    0.5098039   -3.0199645    -1.561772  0.038450915   -3.0199645    1.4581925   230252 
 7922000   0.51067219   -3.0188495   -1.5581036   0.04013173   -3.0188495    1.4607459   230241 
 7923000   0.51033685      -3.0178   -1.5575123  0.041702324      -3.0178    1.4602878   230162 
 7924000   0.50914923    -3.017334   -1.5600076  0.037724427    -3.017334    1.4573263   230093 
 7925000   0.51026361   -3.0210074   -1.5601993  0.040170078   -3.0210074    1.4608081   230047 
 7926000   0.51043392   -3.0200483   -1.5585557  0.041698064   -3.0200483    1.4614926   230016 
 7927000   0.50981266   -3.0195382   -1.5597292  0.042889119   -3.0195382    1.4598089   230001 
 7928000   0.50987548   -3.0181953   -1.5578954  0.039699226   -3.0181953    1.4602999   229952 
 7929000   0.50927597    -3.019695   -1.5605537  0.041076644    -3.019695    1.4591413   229864 
 7930000   0.50831279   -3.0175201   -1.5611511  0.041995421   -3.0175201     1.456369   229866 
 7931000   0.50966386   -3.0214792   -1.5607118  0.035474257   -3.0214792    1.4607674   229783 
 7932000   0.51052809   -3.0221028   -1.5585527  0.038892193   -3.0221028    1.4635502   229735 
 7933000   0.50970844   -3.0222822   -1.5607954  0.038984726   -3.0222822    1.4614867   229690 
 7934000   0.51097505   -3.0244993   -1.5590683  0.039753038   -3.0244993    1.4654311   229641 
 7935000    0.5103281   -3.0226874   -1.5588631  0.040015706   -3.0226874    1.4638243   229602 
 7936000   0.51044769   -3.0223742   -1.5579581  0.047473608   -3.0223742    1.4644161   229563 
 7937000   0.51076975   -3.0212044   -1.5556154  0.046166972   -3.0212044     1.465589   229524 
 7938000   0.51019489   -3.0231408   -1.5590482  0.043839171   -3.0231408    1.4640926   229500 
 7939000   0.50923693   -3.0185569   -1.5568885  0.039089701   -3.0185569    1.4616684   229449 
 7940000    0.5099814   -3.0218491   -1.5577822  0.040930775   -3.0218491    1.4640669   229408 
 7941000   0.50768034   -3.0198575   -1.5617864  0.042903036   -3.0198575    1.4580711   229312 
 7942000   0.50773113   -3.0195439   -1.5610216  0.039136711   -3.0195439    1.4585223   229264 
 7943000   0.50800491   -3.0198131   -1.5601479   0.03594343   -3.0198131    1.4596653   229208 
 7944000   0.50823659   -3.0205951   -1.5600794  0.036564898   -3.0205951    1.4605157   229179 
 7945000   0.51001731   -3.0228084   -1.5571115  0.039204333   -3.0228084    1.4656969   229169 
 7946000   0.50968207    -3.021531   -1.5566377  0.042469047    -3.021531    1.4648933   229144 
 7947000   0.50812496   -3.0195768   -1.5587253  0.041837363   -3.0195768    1.4608515   229076 
 7948000   0.50876355   -3.0204245   -1.5576732  0.043039871   -3.0204245    1.4627513   229066 
 7949000   0.50731357   -3.0209499   -1.5619725  0.039232583   -3.0209499    1.4589773   229004 
 7950000   0.50719625   -3.0191891   -1.5603899  0.039520251   -3.0191891    1.4587992   228979 
 7951000   0.50742968    -3.020053   -1.5602701  0.041714005    -3.020053     1.459783   228930 
 7952000   0.50815756   -3.0194673   -1.5574115  0.037025275   -3.0194673    1.4620558   228902 
 7953000   0.50713694   -3.0169286   -1.5576882  0.041449505   -3.0169286    1.4592404   228883 
 7954000   0.50689442   -3.0158298   -1.5572872  0.041175495   -3.0158298    1.4585426   228883 
 7955000   0.50708293   -3.0145748   -1.5554643  0.041075451   -3.0145748    1.4591105   228879 
 7956000    0.5075872   -3.0179904   -1.5573204  0.044047663   -3.0179904      1.46067   228862 
 7957000   0.50771557   -3.0177169   -1.5565115  0.039150196   -3.0177169    1.4612054   228836 
 7958000   0.50654011   -3.0145806   -1.5564013  0.037926344   -3.0145806    1.4581793   228780 
 7959000   0.50717003   -3.0154531   -1.5552052  0.040864113   -3.0154531    1.4602479   228740 
 7960000   0.50683973   -3.0166095   -1.5569041  0.040010011   -3.0166095    1.4597053   228676 
 7961000   0.50661601   -3.0179778   -1.5583678  0.041300947   -3.0179778    1.4596099   228590 
 7962000   0.50645222   -3.0195215   -1.5603451  0.038738239   -3.0195215    1.4591764   228584 
 7963000   0.50631773   -3.0219763   -1.5627087  0.036284637   -3.0219763    1.4592676   228509 
 7964000   0.50429635   -3.0159457   -1.5623258  0.043632265   -3.0159457    1.4536199   228481 
 7965000   0.50694785   -3.0217391     -1.55983  0.039996248   -3.0217391     1.461909   228380 
 7966000   0.50788913   -3.0243629    -1.559547  0.042126305   -3.0243629    1.4648159   228350 
 7967000    0.5057562   -3.0214882   -1.5625236  0.042835071   -3.0214882    1.4589645   228303 
 7968000   0.50520264    -3.017966   -1.5604643  0.041305682    -3.017966    1.4575017   228282 
 7969000   0.50643094   -3.0224011   -1.5612021  0.042882641   -3.0224011     1.461199   228258 
 7970000   0.50531971   -3.0214246   -1.5629654  0.042941749   -3.0214246    1.4584592   228185 
 7971000   0.50607968   -3.0218355   -1.5605425  0.037775986   -3.0218355     1.461293   228085 
 7972000   0.50641488   -3.0219698   -1.5596576  0.042408998   -3.0219698    1.4623122   228077 
 7973000   0.50615072   -3.0201892   -1.5583257  0.042045431   -3.0201892    1.4618635   228028 
 7974000   0.50523219   -3.0199551   -1.5602708  0.043581251   -3.0199551    1.4596843   227954 
 7975000    0.5069709   -3.0229526   -1.5578143  0.042590294   -3.0229526    1.4651383   227887 
 7976000   0.50635661   -3.0209779    -1.557101  0.042104822   -3.0209779    1.4638769   227807 
 7977000    0.5056209   -3.0205041   -1.5584974  0.045050846   -3.0205041    1.4620066   227767 
 7978000   0.50443167   -3.0191216   -1.5601244  0.039168401   -3.0191216    1.4589972   227700 
 7979000    0.5054198   -3.0211304   -1.5590826  0.040806552   -3.0211304    1.4620478   227670 
 7980000   0.50436549   -3.0165097   -1.5572105  0.042116246   -3.0165097    1.4592992   227623 
 7981000   0.50488766   -3.0207042   -1.5596824  0.039127217   -3.0207042    1.4610219   227590 
 7982000   0.50527946    -3.015586    -1.553411  0.042270932    -3.015586    1.4621749   227587 
 7983000   0.50598627   -3.0147693   -1.5504461   0.04277636   -3.0147693    1.4643232   227571 
 7984000    0.5046174   -3.0108254     -1.55004  0.043149911   -3.0108254    1.4607854   227505 
 7985000    0.5047455   -3.0117248   -1.5501768  0.039843873   -3.0117248    1.4615481   227444 
 7986000   0.50380699   -3.0099626   -1.5506766  0.035849641   -3.0099626     1.459286   227373 
 7987000   0.50428355   -3.0072815   -1.5463903  0.039301533   -3.0072815    1.4608913   227338 
 7988000   0.50420054   -3.0052834   -1.5443113  0.039077707   -3.0052834    1.4609721   227288 
 7989000    0.5038418   -3.0036112   -1.5434087  0.038905924   -3.0036112    1.4602025   227246 
 7990000   0.50276708   -3.0013706   -1.5439364  0.043709376   -3.0013706    1.4574341   227192 
 7991000   0.50368887   -3.0064215   -1.5457945  0.041846735   -3.0064215     1.460627   227111 
 7992000    0.5034656    -3.004386   -1.5441879  0.039865146    -3.004386    1.4601981   227077 
 7993000    0.5022193   -3.0025262    -1.545654  0.041825158   -3.0025262    1.4568722   227032 
 7994000   0.50149649   -3.0031009   -1.5480371  0.042880399   -3.0031009    1.4550638   226987 
 7995000   0.50263948   -3.0044616   -1.5457023  0.039270225   -3.0044616    1.4587593   226928 
 7996000    0.5018349   -3.0006077   -1.5439266  0.038380905   -3.0006077     1.456681   226888 
 7997000   0.50336058    -3.004049    -1.542366  0.041923847    -3.004049     1.461683   226799 
 7998000   0.50180028   -3.0031594   -1.5456859  0.043912589   -3.0031594    1.4574734   226749 
 7999000   0.50256699   -3.0066793   -1.5465797  0.037791107   -3.0066793    1.4600996   226687 
 8000000    0.5030523    -3.007113   -1.5454035  0.039685379    -3.007113    1.4617094   226656 
Loop time of 8991.35 on 192 procs for 5000000 steps with 226656 atoms

Performance: 240231.013 tau/day, 556.090 timesteps/s
99.1% CPU use with 192 MPI tasks x 1 OpenMP threads

MPI task timing breakdown:
Section |  min time  |  avg time  |  max time  |%varavg|  %CPU | %total
-----------------------------------------------------------------------
Pair    | 965.82     | 2356.6     | 2713.4     |1080.5 |  99.0 | 26.21
Bond    | 3.2034     | 3.3769     | 3.5218     |   4.0 | 100.0 |  0.04
Neigh   | 588.3      | 1139       | 1288.2     | 606.8 |  99.4 | 12.67
Comm    | 1284.2     | 1784.1     | 3802.3     |1784.1 |  98.8 | 19.84
Output  | 285.15     | 289.09     | 289.13     |   1.7 |  98.8 |  3.22
Modify  | 3257.4     | 3339.5     | 3633.6     | 230.3 |  99.2 | 37.14
Other   |            | 79.76      |            |       |       |  0.89

Nlocal:        1180.50 ave        1408 max         839 min
Histogram: 1 1 1 3 8 83 81 8 4 2
Nghost:        2281.07 ave        2819 max        1002 min
Histogram: 24 0 0 0 30 14 4 0 35 85
Neighs:        29412.7 ave       39257 max        2728 min
Histogram: 24 0 2 0 5 7 6 16 81 51

Total # of neighbors = 5647243
Ave neighs/atom = 24.915480
Ave special neighs/atom = 0.0000000
Neighbor list builds = 505000
Dangerous builds = 450000

write_restart   restart_write.dat
System init for write_restart ...
write_data	data.write
System init for write_data ...
WARNING: Not all mixed pair coeffs generated from mixing. Use write_data with 'pair ij' option to store all pair coeffs. (src/write_data.cpp:312)

Total wall time: 2:29:54
