LAMMPS (24 Dec 2020)
OMP_NUM_THREADS environment is not set. Defaulting to 1 thread. (src/comm.cpp:94)
  using 1 OpenMP thread(s) per MPI task
#Read the equilibrated lj fluid and add nanocubes

units           lj
atom_style      full
#atom_modify     map array first cubes
dimension       3
boundary        p p f
pair_style      lj/smooth/linear 2.0

variable        sigma           equal 1.0
variable        epsilon         equal 1.0
read_restart	restart.dat.5000000
Reading restart file ...
  restart file = 24 Dec 2020, LAMMPS = 24 Dec 2020
WARNING: Restart file used different # of processors: 288 vs. 336 (src/read_restart.cpp:697)
  restoring atom style full from restart
  orthogonal box = (0.0000000 0.0000000 0.0000000) to (80.000000 80.000000 160.00000)
  6 by 4 by 14 MPI processor grid
  restoring pair style lj/smooth/linear from restart
  421013 atoms
Finding 1-2 1-3 1-4 neighbors ...
  special bond factors lj:    0        0        0       
  special bond factors coul:  0        0        0       
     0 = max # of 1-2 neighbors
     0 = max # of 1-3 neighbors
     0 = max # of 1-4 neighbors
     1 = max # of special neighbors
  special bonds CPU = 2.887 seconds
  read_restart CPU = 3.311 seconds

group		solvent type 1
311285 atoms in group solvent
group 		hull  type 2
42816 atoms in group hull
group 		dummy type 3
66912 atoms in group dummy

neighbor      0.4 bin
neigh_modify  exclude molecule/intra cubes


pair_modify   shift yes

pair_coeff    1 1 1.0 1.0 #solvent
pair_coeff    2 2 1.0 1.0 1.12 #np
pair_coeff    3 3 0.0 0.0 0.0 #dummy
pair_coeff    2 3 0.0 0.0 0.0 #np dummy
pair_coeff    1 2 ${eps} ${sig} ${nscut} #np solvent
pair_coeff    1 2 2.0 ${sig} ${nscut} 
pair_coeff    1 2 2.0 1.0 ${nscut} 
pair_coeff    1 2 2.0 1.0 4.0 
pair_coeff    1 3 0.0 0.0 0.0 #dummy solvent


comm_modify   mode multi cutoff/multi 1 2.0 cutoff/multi 2 2.0 cutoff/multi 3 6.95

reset_timestep 	0

balance 	1.05 shift z 10 1.05
Balancing ...
Unused restart file global fix info:
  fix style: STORE, fix ID: msd_COMPUTE_STORE
Unused restart file peratom fix info:
  fix style: STORE, fix ID: bin1_COMPUTE_STORE
Neighbor list info ...
  update every 1 steps, delay 10 steps, check yes
  max neighbors/atom: 2000, page size: 100000
  master list distance cutoff = 4.4
  ghost atom cutoff = 6.95
  binsize = 2.2, bins = 37 37 73
  1 neighbor lists, perpetual/occasional/extra = 1 0 0
  (1) pair lj/smooth/linear, perpetual
      attributes: half, newton on
      pair build: half/bin/newton
      stencil: half/bin/3d/newton
      bin: standard
 rebalancing time: 0.076 seconds
  iteration count = 6
  initial/final maximal load/proc = 2775.0000 3910.0000
  initial/final imbalance factor  = 2.2146585 3.1204737
  x cuts: 0.0000000 0.16666667 0.33333333 0.50000000 0.66666667 0.83333333 1.0000000
  y cuts: 0.0000000 0.25000000 0.50000000 0.75000000 1.0000000
  z cuts: 0.0000000 0.043526786 0.081473214 0.11830357 0.15848214 0.19308036 0.23102679 0.27232143 0.30803571 0.34709821 0.38504464 0.43415179 0.47544643 0.59933036 1.0000000

####################### WALLS ###########################

variable       epsilonWall equal 2*${epsilon}
variable       epsilonWall equal 2*1
variable       repulsive   equal   0.7147*${sigma}
variable       repulsive   equal   0.7147*1
variable       full	   equal   3*${sigma}
variable       full	   equal   3*1
#region         lowWall block EDGE EDGE EDGE EDGE EDGE 2

fix            topWall all wall/lj93 zhi EDGE 	       ${epsilonWall} ${sigma} ${repulsive} units box
fix            topWall all wall/lj93 zhi EDGE 	       2 ${sigma} ${repulsive} units box
fix            topWall all wall/lj93 zhi EDGE 	       2 1 ${repulsive} units box
fix            topWall all wall/lj93 zhi EDGE 	       2 1 0.7147 units box
fix            lowSol solvent wall/lj93 zlo EDGE                ${epsilonWall} ${sigma} ${full} units box
fix            lowSol solvent wall/lj93 zlo EDGE                2 ${sigma} ${full} units box
fix            lowSol solvent wall/lj93 zlo EDGE                2 1 ${full} units box
fix            lowSol solvent wall/lj93 zlo EDGE                2 1 3 units box
fix 	       lowCub cubes wall/lj93 zlo EDGE                ${epsilonWall} ${sigma} ${repulsive} units box
fix 	       lowCub cubes wall/lj93 zlo EDGE                2 ${sigma} ${repulsive} units box
fix 	       lowCub cubes wall/lj93 zlo EDGE                2 1 ${repulsive} units box
fix 	       lowCub cubes wall/lj93 zlo EDGE                2 1 0.7147 units box


###################### COMPUTES ##########################

compute        bin1 solvent chunk/atom bin/1d z lower 1.0 units box


######################  FIXES ############################


fix             peclet solvent ave/chunk 100 1 10000 bin1 density/number norm                  none ave one file density.profile

fix              temp solvent ave/chunk 100 1 10000 bin1 temp norm                  none ave one file temp.profile

fix             1 cubes rigid/nve/small molecule
  create bodies CPU = 0.049 seconds
  96 rigid bodies with 109728 atoms
  6.9282032 = max distance from body owner to body atom

fix             2 solvent nve


## Thermostat
region          regthermo block EDGE EDGE EDGE EDGE 0 15
group           thermo dynamic solvent region regthermo every 1000
dynamic group thermo defined
fix             3 thermo langevin ${temp} ${temp} 10 156453
fix             3 thermo langevin 0.6 ${temp} 10 156453
fix             3 thermo langevin 0.6 0.6 10 156453

## Evaporation
region		regevap block EDGE EDGE EDGE EDGE 140 EDGE
fix		4 solvent evaporate ${evap} 1 regevap 156415
fix		4 solvent evaporate 85 1 regevap 156415


#### Load balancing

fix             bal all balance 1000 1.05 shift z 10 1.05

############### Diagnostics and computes ###################

compute          cluster all cluster/atom 1.5
compute          cc1 all chunk/atom c_cluster compress yes
compute          size all property/chunk cc1 count
compute          myChunk all temp/chunk cc1 temp
fix              tempe all ave/time 5000 1 5000 c_myChunk file tmp.out mode scalar
compute          comChunk all com/chunk cc1
fix              com all ave/time 10000 1 10000 c_size c_comChunk[*] file com.xyz mode vector


compute        	com cubes          rigid/local   1 mol x y z
compute        	quat cubes         rigid/local   1 mol quatw quati quatj quatk

compute 	cc2 cubes 	   chunk/atom 	 molecule
compute 	msd cubes 	   msd/chunk 	 cc2

fix 		msd all ave/time  1 1 10000 c_msd[*] file dump.msd ave one mode vector

dump            1 all custom 100000 dump.lammpstrj id mol type x y z c_cluster c_cc1
dump		hulltrj hull custom 100000 hull.lammpstrj id mol type x y z
dump		cubestrj cubes custom 100000 cubes.lammpstrj id mol type x y z

dump            com cubes local 100000 dump.*.xyz c_com[*]
dump	        xyz cubes xyz 100000 cubes.*.xyz
dump            quat cubes      local 100000 dump.*.quat c_quat[*]


dump            2 all image 10000 image.*.png type type zoom 1.5 size 1280 720
dump_modify     2 pad 8
dump		image cubes image 10000 image_cubes.*.png type type zoom 1.5 size 1280 720
dump_modify	image pad 8
dump            3 all movie 5000 movie.avi type type zoom 1.5 size 1280 720
dump		4 cubes movie 5000 movie_cubes.avi type type zoom 1.5 size 1280 720


thermo          10000
thermo_style    custom step temp epair evdwl etotal press pe ke atoms

restart         1000000 restart.dat
timestep        0.005
timer           full
New timer settings: style=full  mode=nosync  timeout=off

run 		30000000
Neighbor list info ...
  update every 1 steps, delay 10 steps, check yes
  max neighbors/atom: 2000, page size: 100000
  master list distance cutoff = 4.4
  ghost atom cutoff = 6.95
  binsize = 2.2, bins = 37 37 73
  2 neighbor lists, perpetual/occasional/extra = 1 1 0
  (1) pair lj/smooth/linear, perpetual
      attributes: half, newton on
      pair build: half/bin/newton
      stencil: half/bin/3d/newton
      bin: standard
  (2) compute cluster/atom, occasional
      attributes: full, newton on
      pair build: full/bin
      stencil: full/bin/3d
      bin: standard
Per MPI rank memory allocation (min/avg/max) = 29.12 | 36.55 | 40.90 Mbytes
Step Temp E_pair E_vdwl TotEng Press PotEng KinEng Atoms 
       0   0.60382083   -2.7430657   -2.7430657   -2.0729829  0.096275053   -2.7430657   0.67008274   421013 
   10000   0.60228853   -2.7428339   -2.7428339   -2.0742659  0.028823182   -2.7428339   0.66856808   420896 
   20000   0.60299254    -2.745647    -2.745647   -2.0761097  0.039461987    -2.745647   0.66953727   420778 
   30000   0.60197084   -2.7469547   -2.7469547   -2.0783659  0.031709689   -2.7469547   0.66858873   420661 
   40000   0.60274003   -2.7475039   -2.7475039    -2.077873  0.041138196   -2.7475039   0.66963088   420543 
   50000   0.60216924   -2.7473005   -2.7473005   -2.0781159  0.028506128   -2.7473005   0.66918452   420425 
   60000   0.60154334   -2.7473022   -2.7473022   -2.0786271  0.033107182   -2.7473022   0.66867504   420308 
   70000    0.6017983   -2.7493112   -2.7493112   -2.0801648  0.038990499   -2.7493112   0.66914632   420190 
   80000   0.60248576   -2.7488344   -2.7488344   -2.0787355  0.028935188   -2.7488344    0.6700989   420072 
   90000   0.60020349    -2.746944    -2.746944   -2.0791976   0.02383295    -2.746944   0.66774648   419955 
  100000    0.6004267    -2.750777    -2.750777   -2.0825945  0.036215267    -2.750777   0.66818256   419837 
  110000   0.59959511   -2.7501717   -2.7501717    -2.082727  0.032236538   -2.7501717   0.66744472   419719 
  120000   0.60137166   -2.7531988   -2.7531988   -2.0835898  0.026164655   -2.7531988   0.66960896   419602 
  130000   0.60025067   -2.7522136   -2.7522136   -2.0836648  0.031132039   -2.7522136   0.66854878   419484 
  140000   0.60007887   -2.7529395   -2.7529395   -2.0843941  0.030862903   -2.7529395   0.66854549   419366 
  150000   0.59978182   -2.7528656   -2.7528656   -2.0844645  0.034476279   -2.7528656   0.66840103   419249 
  160000   0.59922712   -2.7535316   -2.7535316   -2.0855607  0.033931395   -2.7535316   0.66797088   419131 
  170000   0.59976548   -2.7544241   -2.7544241   -2.0856649  0.021689351   -2.7544241   0.66875927   419013 
  180000   0.59968925   -2.7560355   -2.7560355   -2.0871744  0.042436063   -2.7560355   0.66886104   418896 
  190000   0.59919791    -2.756277    -2.756277   -2.0877756  0.031421735    -2.756277   0.66850133   418778 
  200000   0.59791296   -2.7556343   -2.7556343   -2.0883801  0.041208736   -2.7556343   0.66725419   418661 
  210000   0.59822597   -2.7553508   -2.7553508    -2.087559   0.03493996   -2.7553508   0.66779172   418543 
  220000   0.59923976   -2.7595748   -2.7595748   -2.0904628   0.03442668   -2.7595748   0.66911204   418425 
  230000   0.59744488   -2.7578683   -2.7578683   -2.0905738  0.029034892   -2.7578683   0.66729446   418308 
  240000   0.59863687   -2.7600616   -2.7600616   -2.0912471  0.039062133   -2.7600616   0.66881448   418190 
  250000   0.59725311   -2.7591836   -2.7591836   -2.0917268  0.024330741   -2.7591836   0.66745684   418072 
  260000   0.59601018   -2.7597077   -2.7597077   -2.0934535  0.018822362   -2.7597077   0.66625426   417955 
  270000   0.59501748   -2.7593948   -2.7593948   -2.0940624  0.026956728   -2.7593948   0.66533241   417837 
  280000   0.59691966   -2.7615649   -2.7615649   -2.0939169  0.035199227   -2.7615649   0.66764792   417719 
  290000   0.59558781   -2.7613301   -2.7613301   -2.0949852   0.03196946   -2.7613301    0.6663449   417602 
  300000    0.5968155   -2.7635505   -2.7635505   -2.0956434  0.037497633   -2.7635505   0.66790717   417484 
  310000   0.59654196   -2.7653046   -2.7653046   -2.0975149  0.037108692   -2.7653046   0.66778979   417366 
  320000   0.59484115    -2.763673    -2.763673   -2.0976004  0.040154744    -2.763673   0.66607257   417249 
  330000   0.59509187   -2.7661405   -2.7661405   -2.0995987  0.024954898   -2.7661405   0.66654181   417131 
  340000   0.59492515   -2.7650742   -2.7650742   -2.0985306  0.031360608   -2.7650742   0.66654363   417013 
  350000   0.59328627   -2.7641022   -2.7641022   -2.0992082  0.043704621   -2.7641022   0.66489401   416896 
  360000   0.59399736   -2.7660881   -2.7660881   -2.1002087  0.042797202   -2.7660881   0.66587939   416778 
  370000   0.59352413    -2.765891    -2.765891   -2.1003552  0.030773457    -2.765891   0.66553573   416661 
  380000   0.59375385   -2.7655502   -2.7655502   -2.0995682  0.043573859   -2.7655502   0.66598193   416543 
  390000   0.59450774   -2.7689675   -2.7689675    -2.101951  0.040606148   -2.7689675   0.66701649   416425 
  400000   0.59334641    -2.768103    -2.768103   -2.1022024   0.02518614    -2.768103   0.66590061   416308 
  410000   0.59262704   -2.7666978   -2.7666978    -2.101416  0.026828725   -2.7666978   0.66528185   416190 
  420000   0.59454321   -2.7707507   -2.7707507   -2.1031285  0.032952793   -2.7707507   0.66762221   416072 
  430000   0.59201278   -2.7694046   -2.7694046   -2.1044368  0.024844074   -2.7694046   0.66496775   415955 
  440000   0.59149574   -2.7710273   -2.7710273   -2.1064518  0.030597937   -2.7710273   0.66457552   415837 
  450000   0.59127905   -2.7718424   -2.7718424   -2.1073218  0.026285521   -2.7718424   0.66452063   415719 
  460000   0.59039347   -2.7702449   -2.7702449   -2.1065328  0.027992188   -2.7702449   0.66371214   415602 
  470000   0.59119179   -2.7721496   -2.7721496   -2.1073512   0.04230158   -2.7721496   0.66479835   415484 
  480000   0.58979181   -2.7737713   -2.7737713   -2.1103588  0.033569629   -2.7737713   0.66341249   415366 
  490000   0.59013819   -2.7739202   -2.7739202    -2.109931  0.028710402   -2.7739202   0.66398914   415249 
  500000   0.58895849   -2.7742153   -2.7742153   -2.1113652  0.045196959   -2.7742153   0.66285017   415131 
  510000   0.58959048   -2.7753712   -2.7753712   -2.1116211  0.024624605   -2.7753712   0.66375012   415013 
  520000   0.58921539   -2.7733491   -2.7733491   -2.1098342  0.027833689   -2.7733491    0.6635149   414896 
  530000   0.58905604   -2.7750875   -2.7750875   -2.1115633  0.033698695   -2.7750875   0.66352417   414778 
  540000   0.58892911   -2.7740756   -2.7740756   -2.1105072  0.031190035   -2.7740756   0.66356837   414661 
  550000   0.58746205   -2.7763454   -2.7763454   -2.1142416  0.031139265   -2.7763454    0.6621038   414543 
  560000   0.58780298   -2.7770084   -2.7770084   -2.1143317  0.030618524   -2.7770084   0.66267668   414425 
  570000   0.58735054   -2.7771476   -2.7771476   -2.1147939  0.027464257   -2.7771476    0.6623536   414308 
  580000   0.58792246   -2.7793257   -2.7793257   -2.1161383  0.020422806   -2.7793257   0.66318744   414190 
  590000   0.58773708   -2.7788785   -2.7788785   -2.1157112  0.031212408   -2.7788785   0.66316726   414072 
  600000   0.58755855   -2.7793838   -2.7793838   -2.1162306   0.01835138   -2.7793838   0.66315319   413955 
  610000   0.58760822   -2.7799576   -2.7799576   -2.1165592  0.030606856   -2.7799576   0.66339836   413837 
  620000   0.58698226   -2.7795805   -2.7795805   -2.1166998  0.032103757   -2.7795805   0.66288067   413719 
  630000   0.58694393   -2.7804268   -2.7804268   -2.1174019  0.026047011   -2.7804268   0.66302489   413602 
  640000   0.58719554    -2.781452    -2.781452   -2.1179536  0.031968916    -2.781452   0.66349842   413484 
  650000   0.58494004   -2.7823653   -2.7823653   -2.1212268   0.02220505   -2.7823653   0.66113849   413366 
  660000   0.58643281   -2.7848174   -2.7848174    -2.121804  0.039221411   -2.7848174   0.66301338   413249 
  670000   0.58516253   -2.7847171   -2.7847171    -2.122951 0.0096958704   -2.7847171   0.66176619   413131 
  680000   0.58541984   -2.7836193   -2.7836193    -2.121373  0.035965172   -2.7836193   0.66224633   413013 
  690000   0.58587327   -2.7826732   -2.7826732   -2.1197261  0.021367469   -2.7826732   0.66294707   412896 
  700000   0.58566929    -2.784987    -2.784987   -2.1220813  0.024592545    -2.784987   0.66290571   412778 
  710000   0.58605844    -2.785515    -2.785515   -2.1219807   0.03473204    -2.785515   0.66353425   412661 
  720000   0.58393747   -2.7856907   -2.7856907   -2.1243687  0.041136026   -2.7856907     0.661322   412543 
  730000   0.58322089   -2.7855186   -2.7855186   -2.1248191  0.021278206   -2.7855186   0.66069943   412425 
  740000   0.58426748    -2.785977    -2.785977   -2.1239041  0.030118605    -2.785977   0.66207288   412308 
  750000   0.58439782   -2.7873176   -2.7873176   -2.1249075  0.034931393   -2.7873176   0.66241016   412190 
  760000   0.58250633   -2.7860895   -2.7860895   -2.1256342  0.031109254   -2.7860895   0.66045525   412072 
  770000   0.58308289   -2.7885946   -2.7885946   -2.1272979  0.034770091   -2.7885946   0.66129672   411955 
  780000   0.58475278   -2.7906463   -2.7906463   -2.1272656  0.026507114   -2.7906463   0.66338062   411837 
  790000   0.58233663   -2.7870423   -2.7870423   -2.1262133  0.018662025   -2.7870423   0.66082893   411719 
  800000   0.58233641   -2.7882156   -2.7882156   -2.1271991  0.022276041   -2.7882156   0.66101652   411602 
  810000   0.58102174   -2.7878226   -2.7878226   -2.1281092  0.034252271   -2.7878226   0.65971336   411484 
  820000    0.5828924   -2.7908362   -2.7908362    -2.128809  0.046297667   -2.7908362   0.66202722   411366 
  830000   0.58044625    -2.788816    -2.788816   -2.1293795   0.02478569    -2.788816   0.65943653   411249 
  840000   0.58262319   -2.7906199   -2.7906199   -2.1285202  0.033253506   -2.7906199    0.6620997   411131 
  850000   0.58028015     -2.78786     -2.78786   -2.1282336  0.038625938     -2.78786   0.65962637   411013 
  860000   0.58138962    -2.789744    -2.789744   -2.1286683  0.024083712    -2.789744   0.66107572   410896 
  870000   0.58033231   -2.7905529   -2.7905529   -2.1304898  0.026002881   -2.7905529   0.66006305   410778 
  880000   0.58009875   -2.7924689   -2.7924689   -2.1324835  0.025606431   -2.7924689   0.65998538   410661 
  890000   0.58033411   -2.7929204   -2.7929204   -2.1324774  0.033830786   -2.7929204   0.66044293   410543 
  900000   0.57838292   -2.7910046   -2.7910046    -2.132593  0.021470817   -2.7910046   0.65841164   410425 
  910000   0.57925725   -2.7932135   -2.7932135   -2.1336185  0.026272034   -2.7932135   0.65959498   410308 
  920000   0.57901807   -2.7943702   -2.7943702   -2.1348579  0.024794197   -2.7943702    0.6595123   410190 
  930000   0.57821198   -2.7924525   -2.7924525   -2.1336689  0.037987871   -2.7924525   0.65878366   410072 
  940000   0.57991888   -2.7934938   -2.7934938   -2.1325768  0.028410903   -2.7934938   0.66091698   409955 
  950000   0.57804221   -2.7921233   -2.7921233   -2.1331554  0.032365808   -2.7921233   0.65896787   409837 
  960000   0.57858975   -2.7945481   -2.7945481    -2.134766  0.030066252   -2.7945481   0.65978202   409719 
  970000   0.57728089   -2.7946667   -2.7946667   -2.1361891  0.029639703   -2.7946667   0.65847754   409602 
  980000   0.57667021   -2.7941102   -2.7941102   -2.1361397  0.036731665   -2.7941102    0.6579705   409484 
  990000   0.57756768   -2.7958254   -2.7958254   -2.1366409  0.029538183   -2.7958254   0.65918446   409366 
 1000000   0.57694152   -2.7940207   -2.7940207   -2.1353626  0.026419072   -2.7940207   0.65865807   409249 
 1010000   0.57531667    -2.792996    -2.792996   -2.1360035  0.024011995    -2.792996   0.65699251   409131 
 1020000   0.57780963   -2.7963444   -2.7963444   -2.1363146   0.02397295   -2.7963444   0.66002975   409013 
 1030000   0.57700992   -2.7950559   -2.7950559   -2.1357511  0.021667266   -2.7950559   0.65930485   408896 
 1040000   0.57539187    -2.795308    -2.795308   -2.1376622  0.027802561    -2.795308    0.6576458   408778 
 1050000   0.57627954   -2.7963274   -2.7963274   -2.1374784  0.023155042   -2.7963274   0.65884895   408661 
 1060000   0.57471777   -2.7955069   -2.7955069   -2.1382537   0.01404204   -2.7955069   0.65725319   408543 
 1070000   0.57484962   -2.7961658   -2.7961658   -2.1385719  0.027435961   -2.7961658   0.65759391   408425 
 1080000    0.5747144   -2.7974896   -2.7974896    -2.139862  0.022167734   -2.7974896   0.65762761   408308 
 1090000   0.57479057   -2.7978754   -2.7978754   -2.1399705  0.038476096   -2.7978754    0.6579049   408190 
 1100000    0.5745174   -2.7975777   -2.7975777   -2.1397953  0.033135635   -2.7975777   0.65778238   408072 
 1110000   0.57427054   -2.7974651   -2.7974651   -2.1397768  0.041993494   -2.7974651   0.65768832   407955 
 1120000   0.57301523   -2.7975409   -2.7975409   -2.1411004  0.028361756   -2.7975409   0.65644054   407837 
 1130000   0.57473871   -2.8006392   -2.8006392   -2.1420337   0.03034987   -2.8006392   0.65860549   407719 
 1140000   0.57340612   -2.8005026   -2.8005026   -2.1432356  0.019746832   -2.8005026   0.65726705   407602 
 1150000   0.57170693    -2.799416    -2.799416   -2.1439069  0.028619102    -2.799416   0.65550913   407484 
 1160000    0.5712617   -2.7991555   -2.7991555   -2.1439671  0.030187752   -2.7991555   0.65518837   407366 
 1170000   0.57275847   -2.8014759   -2.8014759   -2.1443821  0.029699072   -2.8014759   0.65709375   407249 
 1180000   0.57201552   -2.8011163   -2.8011163   -2.1446847  0.036845861   -2.8011163   0.65643161   407131 
 1190000   0.57227224   -2.8032985   -2.8032985   -2.1463819  0.022838579   -2.8032985   0.65691661   407013 
 1200000   0.57135538   -2.8027012   -2.8027012   -2.1466485   0.04456971   -2.8027012   0.65605273   406896 
 1210000   0.57137182   -2.8032368   -2.8032368   -2.1469748  0.032226324   -2.8032368   0.65626193   406778 
 1220000   0.57170737   -2.8015995   -2.8015995   -2.1447633  0.017562815   -2.8015995   0.65683625   406661 
 1230000   0.57079286   -2.8028268   -2.8028268   -2.1468508  0.029192119   -2.8028268   0.65597592   406543 
 1240000   0.56863147   -2.8023042   -2.8023042   -2.1486225  0.027049953   -2.8023042    0.6536817   406425 
 1250000   0.57047047   -2.8025281   -2.8025281   -2.1465435  0.028765176   -2.8025281    0.6559846   406308 
 1260000   0.56881118   -2.8027653   -2.8027653   -2.1484987  0.025117526   -2.8027653   0.65426659   406190 
 1270000   0.57020858   -2.8051224   -2.8051224   -2.1490579  0.032688699   -2.8051224   0.65606452   406072 
 1280000   0.56846251   -2.8044357   -2.8044357   -2.1501916   0.02015452   -2.8044357   0.65424405   405955 
 1290000   0.56908563   -2.8044348   -2.8044348   -2.1492831  0.026149827   -2.8044348   0.65515164   405837 
 1300000   0.56852548   -2.8052073   -2.8052073   -2.1505102  0.027983107   -2.8052073   0.65469713   405719 
 1310000   0.56834841   -2.8036453   -2.8036453   -2.1489632  0.027947343   -2.8036453   0.65468201   405602 
 1320000   0.56815436   -2.8043519   -2.8043519    -2.149703  0.036853168   -2.8043519   0.65464894   405484 
 1330000   0.56799841   -2.8056027   -2.8056027   -2.1509429  0.026623626   -2.8056027   0.65465976   405366 
 1340000   0.56750581   -2.8058323   -2.8058323   -2.1515515  0.024029816   -2.8058323   0.65428085   405249 
 1350000   0.56805511   -2.8074364   -2.8074364   -2.1523315  0.019682461   -2.8074364   0.65510489   405131 
 1360000   0.56798541   -2.8060443   -2.8060443    -2.150829  0.029190563   -2.8060443   0.65521535   405013 
 1370000   0.56852616   -2.8060724   -2.8060724   -2.1500438   0.03426531   -2.8060724   0.65602866   404896 
 1380000   0.56861015   -2.8067116   -2.8067116   -2.1503948  0.024951448   -2.8067116   0.65631685   404778 
 1390000   0.56692511   -2.8058115   -2.8058115   -2.1512504  0.024297043   -2.8058115    0.6545611   404661 
 1400000   0.56804646   -2.8091755   -2.8091755   -2.1531284  0.021952008   -2.8091755   0.65604709   404543 
 1410000   0.56775204   -2.8078815   -2.8078815   -2.1519831  0.026248537   -2.8078815   0.65589838   404425 
 1420000   0.56573329   -2.8078651   -2.8078651   -2.1541098  0.040958514   -2.8078651   0.65375534   404308 
 1430000    0.5661305    -2.808586    -2.808586   -2.1541807  0.031076828    -2.808586   0.65440534   404190 
 1440000   0.56452632   -2.8078447   -2.8078447   -2.1551031  0.036138283   -2.8078447   0.65274159   404072 
 1450000   0.56548754   -2.8078347   -2.8078347   -2.1537923  0.028379954   -2.8078347   0.65404239   403955 
 1460000   0.56410403   -2.8073693   -2.8073693   -2.1547365  0.036496722   -2.8073693   0.65263287   403837 
 1470000   0.56453966   -2.8075485   -2.8075485   -2.1542207  0.031928903   -2.8075485   0.65332777   403719 
 1480000   0.56374591   -2.8072873   -2.8072873    -2.154689  0.023245316   -2.8072873   0.65259831   403602 
 1490000   0.56354137   -2.8081028   -2.8081028   -2.1555505  0.025271926   -2.8081028   0.65255232   403484 
 1500000   0.56391396    -2.807358    -2.807358   -2.1541832  0.041890563    -2.807358   0.65317478   403366 
 1510000   0.56468319   -2.8112006   -2.8112006    -2.156945  0.024200341   -2.8112006   0.65425553   403249 
 1520000   0.56288555   -2.8087476   -2.8087476    -2.156384  0.020779149   -2.8087476   0.65236364   403131 
 1530000   0.56319227   -2.8097936   -2.8097936   -2.1568834  0.034257237   -2.8097936   0.65291024   403013 
 1540000   0.56299203   -2.8067856   -2.8067856    -2.153918  0.035281712   -2.8067856   0.65286763   402896 
 1550000   0.56199213   -2.8072061   -2.8072061   -2.1553071  0.029462684   -2.8072061   0.65189903   402778 
 1560000   0.56265108   -2.8095686   -2.8095686   -2.1567156  0.028630874   -2.8095686   0.65285305   402661 
 1570000   0.56125373   -2.8088889   -2.8088889   -2.1574663  0.020516795   -2.8088889   0.65142258   402543 
 1580000   0.56331383   -2.8119357   -2.8119357   -2.1579303  0.029135702   -2.8119357   0.65400536   402425 
 1590000   0.56104414   -2.8110704   -2.8110704   -2.1595107  0.025460752   -2.8110704   0.65155969   402308 
 1600000   0.56010251   -2.8107961   -2.8107961   -2.1601391  0.016554525   -2.8107961   0.65065699   402190 
 1610000    0.5609943   -2.8122897   -2.8122897   -2.1604055  0.032260706   -2.8122897   0.65188422   402072 
 1620000   0.56099519   -2.8116658   -2.8116658   -2.1595908  0.016263712   -2.8116658     0.652075   401955 
 1630000   0.56082702   -2.8136205   -2.8136205   -2.1615495  0.017438899   -2.8136205   0.65207096   401837 
 1640000   0.55985654    -2.811738    -2.811738   -2.1606042  0.026792142    -2.811738   0.65113379   401719 
 1650000   0.55913228   -2.8123694   -2.8123694   -2.1618885  0.028686891   -2.8123694    0.6504809   401602 
 1660000   0.55864742   -2.8128723   -2.8128723   -2.1627645  0.025766759   -2.8128723   0.65010784   401484 
 1670000   0.55786803   -2.8122424   -2.8122424   -2.1628507  0.028991766   -2.8122424   0.64939172   401366 
 1680000   0.55906641   -2.8116668   -2.8116668   -2.1606903  0.033663251   -2.8116668   0.65097646   401249 
 1690000   0.55955518   -2.8123289   -2.8123289   -2.1605916  0.020377092   -2.8123289   0.65173724   401131 
 1700000   0.55874912   -2.8161072   -2.8161072   -2.1651173   0.02634972   -2.8161072    0.6509899   401013 
 1710000   0.55934956   -2.8159085   -2.8159085   -2.1640289  0.024381248   -2.8159085   0.65187966   400896 
 1720000   0.55768992    -2.812142    -2.812142   -2.1620052  0.021604404    -2.812142   0.65013683   400778 
 1730000   0.55742216    -2.813988    -2.813988   -2.1639736  0.012503043    -2.813988   0.65001444   400661 
 1740000   0.55817628   -2.8144722   -2.8144722   -2.1633866  0.025133103   -2.8144722   0.65108558   400543 
 1750000   0.55675259   -2.8146948   -2.8146948   -2.1650785  0.030542469   -2.8146948    0.6496163   400425 
 1760000   0.55743258   -2.8164267   -2.8164267   -2.1658269  0.020522549   -2.8164267   0.65059981   400308 
 1770000    0.5563682   -2.8121103   -2.8121103   -2.1625613  0.040496774   -2.8121103     0.649549   400190 
 1780000   0.55731694   -2.8163261   -2.8163261   -2.1654776  0.029157281   -2.8163261   0.65084854   400072 
 1790000   0.55618844    -2.815361    -2.815361   -2.1656404  0.022108973    -2.815361   0.64972066   399955 
 1800000   0.55720414   -2.8163478   -2.8163478   -2.1652486  0.018284001   -2.8163478   0.65109926   399837 
 1810000   0.55576725   -2.8162925   -2.8162925   -2.1666806  0.025602332   -2.8162925   0.64961195   399719 
 1820000   0.55570807   -2.8167129   -2.8167129     -2.16698  0.033626617   -2.8167129   0.64973296   399602 
 1830000   0.55577721   -2.8159969   -2.8159969   -2.1659912  0.029417712   -2.8159969   0.65000574   399484 
 1840000   0.55557546    -2.816389    -2.816389   -2.1664273  0.026148319    -2.816389   0.64996177   399366 
 1850000   0.55516745   -2.8170269   -2.8170269   -2.1673521  0.018929954   -2.8170269   0.64967478   399249 
 1860000   0.55567741   -2.8180345   -2.8180345   -2.1675707  0.027935459   -2.8180345    0.6504638   399131 
 1870000   0.55472558   -2.8190585   -2.8190585   -2.1695168  0.035800975   -2.8190585   0.64954164   399013 
 1880000   0.55372002   -2.8178796   -2.8178796   -2.1693252  0.032121422   -2.8178796   0.64855438   398896 
 1890000   0.55234413   -2.8167637   -2.8167637   -2.1696295  0.037292495   -2.8167637   0.64713427   398778 
 1900000   0.55440045   -2.8186565   -2.8186565   -2.1689224  0.026984881   -2.8186565   0.64973412   398661 
 1910000   0.55315805    -2.816732    -2.816732    -2.168262  0.031892982    -2.816732   0.64847002   398543 
 1920000   0.55393832   -2.8187707   -2.8187707   -2.1691936   0.02677387   -2.8187707   0.64957705   398425 
 1930000   0.55275427   -2.8189612   -2.8189612   -2.1705822  0.026131406   -2.8189612   0.64837898   398308 
 1940000   0.55203816   -2.8185869   -2.8185869    -2.170856  0.033024663   -2.8185869   0.64773087   398190 
 1950000    0.5526859   -2.8209285   -2.8209285   -2.1722454  0.025742373   -2.8209285   0.64868313   398072 
 1960000   0.55163972   -2.8202669   -2.8202669   -2.1726213  0.041765737   -2.8202669   0.64764558   397955 
 1970000   0.55124162    -2.819604    -2.819604   -2.1722338   0.02599818    -2.819604   0.64737016   397837 
 1980000   0.54995453    -2.820514    -2.820514   -2.1744638   0.02634787    -2.820514   0.64605024   397719 
 1990000   0.55109215   -2.8227475   -2.8227475   -2.1751703  0.027547075   -2.8227475   0.64757714   397602 
 2000000   0.55104764   -2.8237192   -2.8237192   -2.1760021  0.020078954   -2.8237192   0.64771708   397484 
 2010000   0.54923043   -2.8217465   -2.8217465   -2.1759737  0.025597381   -2.8217465   0.64577277   397366 
 2020000   0.55054086   -2.8220597   -2.8220597   -2.1745555  0.025085872   -2.8220597    0.6475042   397249 
 2030000   0.54998209   -2.8220102   -2.8220102    -2.174971  0.029917389   -2.8220102   0.64703921   397131 
 2040000   0.54989551    -2.823766    -2.823766   -2.1766363  0.031382012    -2.823766   0.64712965   397013 
 2050000   0.54862866   -2.8213439   -2.8213439   -2.1755148  0.025048022   -2.8213439   0.64582911   396896 
 2060000   0.54874787   -2.8227317   -2.8227317   -2.1765702  0.026422196   -2.8227317   0.64616155   396778 
 2070000   0.55105278   -2.8263355   -2.8263355   -2.1772685  0.021255432   -2.8263355   0.64906702   396661 
 2080000   0.54905713   -2.8239971   -2.8239971   -2.1770883  0.027301625   -2.8239971   0.64690885   396543 
 2090000   0.54886489   -2.8231963   -2.8231963   -2.1763215  0.015035774   -2.8231963   0.64687485   396425 
 2100000   0.54794131   -2.8227061   -2.8227061   -2.1767291  0.024200426   -2.8227061   0.64597699   396308 
 2110000   0.54786332    -2.822429    -2.822429   -2.1763515  0.030537221    -2.822429   0.64607742   396190 
 2120000   0.54764441   -2.8247659   -2.8247659   -2.1787542  0.017885989   -2.8247659   0.64601167   396072 
 2130000   0.54698233   -2.8233751   -2.8233751   -2.1779537  0.025981763   -2.8233751   0.64542133   395955 
 2140000   0.54768502   -2.8247891   -2.8247891    -2.178346  0.034566467   -2.8247891   0.64644313   395837 
 2150000   0.54763207   -2.8258595   -2.8258595   -2.1792862  0.030824164   -2.8258595   0.64657337   395719 
 2160000   0.54720842    -2.824116    -2.824116   -2.1778517  0.028196732    -2.824116   0.64626426   395602 
 2170000   0.54705504   -2.8252605   -2.8252605   -2.1789846  0.028485547   -2.8252605   0.64627589   395484 
 2180000   0.54689381   -2.8256658   -2.8256658   -2.1793875  0.016196761   -2.8256658   0.64627825   395366 
 2190000   0.54588845   -2.8261632   -2.8261632    -2.180882  0.016886976   -2.8261632   0.64528114   395249 
 2200000   0.54623158   -2.8266645   -2.8266645   -2.1807849  0.010642143   -2.8266645   0.64587957   395131 
 2210000   0.54583805   -2.8264543   -2.8264543   -2.1808473  0.030286847   -2.8264543   0.64560705   395013 
 2220000   0.54504647   -2.8268643   -2.8268643   -2.1820025  0.024033115   -2.8268643   0.64486179   394896 
 2230000   0.54565855   -2.8279304   -2.8279304   -2.1821514  0.017780173   -2.8279304   0.64577892   394778 
 2240000    0.5453006   -2.8273967   -2.8273967   -2.1818501  0.033723262   -2.8273967   0.64554662   394661 
 2250000   0.54580856   -2.8260622   -2.8260622    -2.179721   0.02389996   -2.8260622   0.64634121   394543 
 2260000   0.54393999   -2.8250466   -2.8250466   -2.1807255  0.025856389   -2.8250466   0.64432118   394425 
 2270000   0.54435325   -2.8261158   -2.8261158   -2.1811137  0.021397114   -2.8261158   0.64500202   394308 
 2280000   0.54251882   -2.8248105   -2.8248105   -2.1817896  0.027106817   -2.8248105   0.64302084   394190 
 2290000   0.54388605   -2.8257707   -2.8257707   -2.1809363  0.026474634   -2.8257707   0.64483439   394072 
 2300000   0.54407751   -2.8280679   -2.8280679   -2.1828149  0.025658192   -2.8280679   0.64525296   393955 
 2310000   0.54365864   -2.8281918   -2.8281918   -2.1832424  0.033590462   -2.8281918   0.64494938   393837 
 2320000   0.54339819   -2.8279586   -2.8279586    -2.183125  0.015763048   -2.8279586    0.6448336   393719 
 2330000    0.5437286   -2.8281667   -2.8281667   -2.1827492  0.020284265   -2.8281667   0.64541749   393602 
 2340000   0.54198836   -2.8260968   -2.8260968    -2.182552  0.031585894   -2.8260968   0.64354472   393484 
 2350000    0.5432823   -2.8281992   -2.8281992   -2.1829246  0.034586645   -2.8281992   0.64527462   393366 
 2360000   0.54188954   -2.8267397   -2.8267397   -2.1829278  0.018028876   -2.8267397   0.64381188   393249 
 2370000    0.5418033   -2.8281428   -2.8281428   -2.1842401  0.037289523   -2.8281428   0.64390263   393131 
 2380000   0.54059222   -2.8277023   -2.8277023    -2.185046  0.022565553   -2.8277023   0.64265623   393013 
 2390000   0.54010484   -2.8262221   -2.8262221   -2.1839541  0.026333227   -2.8262221   0.64226804   392896 
 2400000   0.54075894   -2.8306868   -2.8306868   -2.1874477  0.026531699   -2.8306868   0.64323905   392778 
 2410000   0.54113436   -2.8297355   -2.8297355   -2.1858581  0.031678067   -2.8297355   0.64387741   392661 
 2420000   0.54086615   -2.8286094   -2.8286094   -2.1848577  0.019212685   -2.8286094   0.64375173   392543 
 2430000   0.53975785   -2.8280557   -2.8280557   -2.1854299   0.02935343   -2.8280557   0.64262578   392425 
 2440000   0.53850445   -2.8301777   -2.8301777    -2.188853  0.030608857   -2.8301777   0.64132472   392308 
 2450000   0.53968862    -2.831083    -2.831083   -2.1881546  0.016916076    -2.831083   0.64292838   392190 
 2460000   0.53949328   -2.8299206   -2.8299206   -2.1870315  0.021407597   -2.8299206   0.64288909   392072 
 2470000   0.53929765   -2.8292381   -2.8292381   -2.1863903  0.032333319   -2.8292381    0.6428478   391955 
 2480000   0.53931748   -2.8292144   -2.8292144   -2.1861493   0.01884762   -2.8292144   0.64306505   391837 
 2490000   0.53847855   -2.8266706   -2.8266706   -2.1844124  0.024879364   -2.8266706   0.64225814   391719 
 2500000   0.53973088   -2.8281141   -2.8281141   -2.1841699  0.035007533   -2.8281141   0.64394417   391602 
 2510000   0.53854362   -2.8287379   -2.8287379   -2.1860166    0.0257614   -2.8287379   0.64272134   391484 
 2520000   0.53965278   -2.8292384   -2.8292384   -2.1849991  0.037290365   -2.8292384   0.64423924   391366 
 2530000   0.53929026   -2.8300202   -2.8300202   -2.1860212   0.03024268   -2.8300202   0.64399899   391249 
 2540000   0.53917726   -2.8308878   -2.8308878   -2.1868295  0.036477891   -2.8308878   0.64405829   391131 
 2550000   0.53661314    -2.827863    -2.827863   -2.1866742  0.016541188    -2.827863   0.64118884   391013 
 2560000   0.53855972   -2.8307597   -2.8307597   -2.1870523  0.028957173   -2.8307597   0.64370738   390896 
 2570000   0.53636683   -2.8304752   -2.8304752   -2.1891952  0.034234519   -2.8304752   0.64127994   390778 
 2580000   0.53673759   -2.8299605   -2.8299605   -2.1880451  0.029804201   -2.8299605   0.64191541   390661 
 2590000   0.53680992   -2.8323686   -2.8323686   -2.1901727  0.033540188   -2.8323686    0.6421959   390543 
 2600000    0.5375503   -2.8306569   -2.8306569   -2.1873809  0.031022001   -2.8306569   0.64327599   390425 
 2610000   0.53767342   -2.8307572   -2.8307572    -2.187141  0.020013716   -2.8307572    0.6436162   390308 
 2620000   0.53650555   -2.8298151   -2.8298151   -2.1874027  0.024319111   -2.8298151   0.64241243   390190 
 2630000   0.53785059   -2.8305914   -2.8305914   -2.1863735  0.024645598   -2.8305914   0.64421781   390072 
 2640000   0.53601212   -2.8270159   -2.8270159   -2.1848076  0.031595408   -2.8270159   0.64220838   389955 
 2650000    0.5355778   -2.8280919   -2.8280919   -2.1862097  0.026083328   -2.8280919   0.64188224   389837 
 2660000   0.53641348    -2.828771    -2.828771   -2.1856926   0.02786777    -2.828771   0.64307844   389719 
 2670000   0.53432867   -2.8292287   -2.8292287   -2.1884573  0.025540896   -2.8292287   0.64077144   389602 
 2680000   0.53503374   -2.8317553   -2.8317553   -2.1899439  0.021949074   -2.8317553   0.64181136   389484 
 2690000   0.53452988   -2.8312211   -2.8312211   -2.1898198  0.026305634   -2.8312211   0.64140127   389366 
 2700000   0.53456838   -2.8312459   -2.8312459   -2.1896057  0.028560912   -2.8312459   0.64164026   389249 
 2710000   0.53453254   -2.8323835   -2.8323835   -2.1905917  0.031573429   -2.8323835    0.6417918   389131 
 2720000    0.5335043   -2.8319981   -2.8319981   -2.1912465  0.028931421   -2.8319981   0.64075154   389013 
 2730000   0.53272921   -2.8312459   -2.8312459   -2.1912328  0.023215349   -2.8312459   0.64001313   388896 
 2740000   0.53429941   -2.8313199   -2.8313199   -2.1892255  0.031693528   -2.8313199   0.64209437   388778 
 2750000   0.53281818   -2.8306158   -2.8306158   -2.1901087    0.0329293   -2.8306158   0.64050705   388661 
 2760000    0.5325542   -2.8295907   -2.8295907   -2.1892066  0.033448179   -2.8295907   0.64038415   388543 
 2770000   0.53314704    -2.830439    -2.830439   -2.1891472  0.037554887    -2.830439   0.64129178   388425 
 2780000   0.53358956    -2.830994    -2.830994   -2.1889766  0.022711696    -2.830994   0.64201745   388308 
 2790000   0.53358232   -2.8302977   -2.8302977   -2.1880938  0.027733378   -2.8302977   0.64220389   388190 
 2800000   0.53335102   -2.8304263   -2.8304263   -2.1883056  0.023052536   -2.8304263   0.64212069   388072 
 2810000   0.53233264   -2.8282059   -2.8282059    -2.187118  0.024798573   -2.8282059   0.64108792   387955 
 2820000   0.53222467   -2.8313124   -2.8313124   -2.1901595  0.031267884   -2.8313124    0.6411529   387837 
 2830000   0.53132181   -2.8290258   -2.8290258   -2.1887658   0.02694539   -2.8290258   0.64026005   387719 
 2840000   0.53250888   -2.8298962   -2.8298962    -2.188012  0.024230996   -2.8298962   0.64188421   387602 
 2850000   0.53094503   -2.8296169   -2.8296169   -2.1894229  0.031109385   -2.8296169   0.64019405   387484 
 2860000   0.52968542   -2.8294653   -2.8294653   -2.1905955  0.017110834   -2.8294653   0.63886981   387366 
 2870000   0.53135362   -2.8320307   -2.8320307   -2.1909552  0.022570365   -2.8320307   0.64107552   387249 
 2880000   0.53033017   -2.8296558   -2.8296558   -2.1896201  0.012872877   -2.8296558   0.64003575   387131 
 2890000   0.53006541   -2.8293673   -2.8293673    -2.189456  0.023236977   -2.8293673   0.63991127   387013 
 2900000   0.53195174   -2.8314939   -2.8314939   -2.1891112  0.027993978   -2.8314939   0.64238271   386896 
 2910000   0.53036271   -2.8304516   -2.8304516   -2.1897924  0.029208259   -2.8304516   0.64065919   386778 
 2920000   0.52991863   -2.8320907   -2.8320907   -2.1917743   0.02091766   -2.8320907   0.64031646   386661 
 2930000   0.52944164    -2.831741    -2.831741   -2.1918056  0.022639276    -2.831741   0.63993539   386543 
 2940000   0.53065585   -2.8338368   -2.8338368   -2.1922379  0.016931108   -2.8338368   0.64159887   386425 
 2950000   0.52818368   -2.8313354   -2.8313354   -2.1925321  0.049903363   -2.8313354   0.63880325   386308 
 2960000    0.5298017    -2.831056    -2.831056      -2.1901  0.021095154    -2.831056   0.64095593   386190 
 2970000   0.52843741    -2.831405    -2.831405   -2.1919041  0.010202333    -2.831405   0.63950081   386072 
 2980000   0.52834605   -2.8322217   -2.8322217   -2.1926376  0.015499466   -2.8322217   0.63958408   385955 
 2990000   0.52741314   -2.8303739   -2.8303739   -2.1917239  0.014771985   -2.8303739   0.63865001   385837 
 3000000     0.527983   -2.8325438   -2.8325438   -2.1930082  0.027798771   -2.8325438   0.63953564   385719 
 3010000   0.52692482   -2.8318918   -2.8318918   -2.1934442  0.025309489   -2.8318918   0.63844755   385602 
 3020000   0.52704764   -2.8303978   -2.8303978    -2.191606  0.022793778   -2.8303978   0.63879185   385484 
 3030000   0.52681393   -2.8321678   -2.8321678   -2.1934638  0.016901661   -2.8321678    0.6387041   385366 
 3040000   0.52722419    -2.833201    -2.833201   -2.1938053  0.030119039    -2.833201   0.63939562   385249 
 3050000   0.52744294   -2.8333363   -2.8333363   -2.1934794  0.022324116   -2.8333363    0.6398569   385131 
 3060000   0.52473988   -2.8304474   -2.8304474   -2.1936746  0.034363705   -2.8304474   0.63677283   385013 
 3070000   0.52603834   -2.8324506   -2.8324506    -2.193908  0.030321352   -2.8324506   0.63854256   384896 
 3080000    0.5270275   -2.8351681   -2.8351681   -2.1952286  0.022789143   -2.8351681   0.63993946   384778 
 3090000    0.5261167   -2.8334827   -2.8334827   -2.1944549  0.023262448   -2.8334827   0.63902784   384661 
 3100000   0.52424539   -2.8317728   -2.8317728   -2.1948224  0.025354536   -2.8317728   0.63695031   384543 
 3110000    0.5249694   -2.8339641   -2.8339641   -2.1959383   0.02420254   -2.8339641   0.63802576   384425 
 3120000   0.52546163   -2.8331185   -2.8331185      -2.1943  0.024858161   -2.8331185   0.63881843   384308 
 3130000   0.52603474   -2.8350096   -2.8350096    -2.195298   0.02715987   -2.8350096   0.63971159   384190 
 3140000   0.52480804   -2.8339686   -2.8339686   -2.1955527  0.025040576   -2.8339686   0.63841588   384072 
 3150000   0.52525222   -2.8347317   -2.8347317   -2.1955808  0.025634214   -2.8347317   0.63915092   383955 
 3160000   0.52322909   -2.8333516   -2.8333516   -2.1964668  0.028610648   -2.8333516   0.63688482   383837 
 3170000   0.52219739   -2.8320938   -2.8320938   -2.1962694  0.031023777   -2.8320938   0.63582447   383719 
 3180000   0.52207617   -2.8336823   -2.8336823   -2.1978115  0.030265142   -2.8336823   0.63587076   383602 
 3190000   0.52242472   -2.8335028   -2.8335028   -2.1970118  0.022198858   -2.8335028   0.63649107   383484 
 3200000   0.52345637   -2.8346927   -2.8346927   -2.1967484  0.021090085   -2.8346927   0.63794427   383366 
 3210000   0.52205989   -2.8339653   -2.8339653   -2.1975287  0.014829992   -2.8339653    0.6364366   383249 
 3220000   0.52317471   -2.8357733   -2.8357733   -2.1977812  0.021523367   -2.8357733    0.6379921   383131 
 3230000   0.52189519   -2.8349263   -2.8349263   -2.1982984  0.022561512   -2.8349263   0.63662784   383013 
 3240000   0.52120348   -2.8338252   -2.8338252   -2.1978468  0.020002367   -2.8338252   0.63597833   382896 
 3250000   0.52133755   -2.8341298   -2.8341298   -2.1977917  0.017139487   -2.8341298   0.63633805   382778 
 3260000    0.5221531   -2.8343718   -2.8343718   -2.1968434  0.020231919   -2.8343718   0.63752836   382661 
 3270000   0.52069904   -2.8328426   -2.8328426   -2.1968935  0.012872266   -2.8328426   0.63594911   382543 
 3280000    0.5211666   -2.8335676   -2.8335676    -2.196851  0.027757272   -2.8335676   0.63671656   382425 
 3290000   0.52175014   -2.8337033   -2.8337033   -2.1960787  0.033014005   -2.8337033   0.63762456   382308 
 3300000   0.52119546   -2.8338615   -2.8338615   -2.1967182  0.022104594   -2.8338615   0.63714335   382190 
 3310000   0.52100178    -2.835365    -2.835365   -2.1982617  0.023658573    -2.835365   0.63710329   382072 
 3320000   0.52058509    -2.836023    -2.836023   -2.1992343  0.021930225    -2.836023   0.63678874   381955 
 3330000   0.51996252   -2.8355431   -2.8355431   -2.1993193  0.020650084   -2.8355431   0.63622375   381837 
 3340000   0.51999068   -2.8359773   -2.8359773   -2.1995224  0.026458884   -2.8359773    0.6364549   381719 
 3350000    0.5191836   -2.8362545   -2.8362545   -2.2005926  0.022566334   -2.8362545   0.63566188   381602 
 3360000   0.51938194   -2.8347512   -2.8347512   -2.1986498  0.024085732   -2.8347512   0.63610142   381484 
 3370000   0.51859018   -2.8348653   -2.8348653    -2.199537  0.021008611   -2.8348653   0.63532824   381366 
 3380000   0.51846266   -2.8342405   -2.8342405   -2.1988735  0.023561845   -2.8342405   0.63536695   381249 
 3390000    0.5195588   -2.8354775   -2.8354775   -2.1985701  0.021079298   -2.8354775   0.63690737   381131 
 3400000    0.5186984   -2.8349298   -2.8349298   -2.1988802  0.020434394   -2.8349298   0.63604957   381013 
 3410000    0.5194634   -2.8370759   -2.8370759   -2.1998926  0.031601308   -2.8370759   0.63718331   380896 
 3420000   0.51785232   -2.8344537   -2.8344537   -2.1990497  0.016295721   -2.8344537   0.63540398   380778 
 3430000   0.51850107   -2.8357011   -2.8357011   -2.1993056   0.03045799   -2.8357011   0.63639554   380661 
 3440000   0.51580371   -2.8334869   -2.8334869   -2.2002058  0.021475581   -2.8334869   0.63328117   380543 
 3450000   0.51761678   -2.8361192   -2.8361192   -2.2004149  0.018162258   -2.8361192   0.63570429   380425 
 3460000   0.51703729   -2.8358399   -2.8358399   -2.2006519  0.029000699   -2.8358399   0.63518796   380308 
 3470000   0.51778242   -2.8368707   -2.8368707   -2.2005699  0.026984718   -2.8368707   0.63630079   380190 
 3480000   0.51659376   -2.8370817   -2.8370817   -2.2020446  0.020490863   -2.8370817   0.63503714   380072 
 3490000   0.51603651    -2.839021    -2.839021   -2.2044736  0.022010291    -2.839021   0.63454747   379955 
 3500000   0.51610849   -2.8374305   -2.8374305   -2.2025973  0.019220918   -2.8374305   0.63483313   379837 
 3510000   0.51535836   -2.8371549   -2.8371549   -2.2030475  0.019381061   -2.8371549   0.63410743   379719 
 3520000   0.51548835   -2.8373892   -2.8373892   -2.2029263  0.031291986   -2.8373892   0.63446287   379602 
 3530000   0.51537749   -2.8363844   -2.8363844   -2.2018607  0.015897642   -2.8363844   0.63452367   379484 
 3540000   0.51549951   -2.8381336   -2.8381336   -2.2032623  0.027917969   -2.8381336   0.63487131   379366 
 3550000   0.51471442   -2.8363884   -2.8363884   -2.2022884  0.019043573   -2.8363884   0.63409998   379249 
 3560000   0.51458505   -2.8371354   -2.8371354   -2.2029975  0.028834736   -2.8371354   0.63413791   379131 
 3570000   0.51489528   -2.8391359   -2.8391359   -2.2044182  0.033862083   -2.8391359   0.63471776   379013 
 3580000   0.51326632     -2.83606     -2.83606   -2.2031548  0.034421578     -2.83606    0.6329051   378896 
 3590000   0.51364798   -2.8366031   -2.8366031     -2.20303  0.013900813   -2.8366031   0.63357304   378778 
 3600000   0.51445759   -2.8369087   -2.8369087    -2.202141  0.023491294   -2.8369087   0.63476774   378661 
 3610000   0.51319278   -2.8370436   -2.8370436    -2.203639   0.03276473   -2.8370436   0.63340453   378543 
 3620000    0.5117197   -2.8362141   -2.8362141   -2.2044307  0.022721256   -2.8362141   0.63178333   378425 
 3630000   0.51338155   -2.8392668   -2.8392668   -2.2052357  0.020940183   -2.8392668   0.63403113   378308 
 3640000   0.51229915    -2.835418    -2.835418   -2.2025262  0.045471539    -2.835418   0.63289176   378190 
 3650000   0.51364214   -2.8389575   -2.8389575   -2.2042086  0.028199315   -2.8389575   0.63474894   378072 
 3660000   0.51275588   -2.8391354   -2.8391354   -2.2052855  0.023399445   -2.8391354   0.63384986   377955 
 3670000   0.51136465    -2.838912    -2.838912   -2.2065846  0.029187917    -2.838912    0.6323275   377837 
 3680000   0.51103723   -2.8396375   -2.8396375   -2.2075174  0.016438419   -2.8396375   0.63212003   377719 
 3690000   0.51064796   -2.8383309   -2.8383309   -2.2064966  0.024747574   -2.8383309   0.63183425   377602 
 3700000   0.50967913   -2.8384118   -2.8384118   -2.2075791  0.032437806   -2.8384118   0.63083263   377484 
 3710000    0.5104071   -2.8394244   -2.8394244   -2.2074932  0.029289847   -2.8394244   0.63193119   377366 
 3720000   0.51002529   -2.8387644   -2.8387644   -2.2071101  0.015963262   -2.8387644   0.63165431   377249 
 3730000   0.51175781   -2.8403986   -2.8403986   -2.2064003  0.025082329   -2.8403986   0.63399831   377131 
 3740000   0.51040577   -2.8390862   -2.8390862    -2.206565   0.03031593   -2.8390862   0.63252122   377013 
 3750000   0.50943108   -2.8388237   -2.8388237   -2.2073144   0.02937301   -2.8388237   0.63150931   376896 
 3760000   0.50906866   -2.8367442   -2.8367442   -2.2054865  0.029708716   -2.8367442   0.63125767   376778 
 3770000   0.50919574   -2.8347328   -2.8347328   -2.2031214  0.023114407   -2.8347328   0.63161139   376661 
 3780000    0.5094178   -2.8373903   -2.8373903   -2.2053054   0.02924642   -2.8373903   0.63208485   376543 
 3790000   0.51012636   -2.8384034   -2.8384034   -2.2052409  0.021980746   -2.8384034   0.63316246   376425 
 3800000   0.50883285    -2.839387    -2.839387   -2.2076336  0.028208463    -2.839387   0.63175333   376308 
 3810000   0.50742628   -2.8381334   -2.8381334   -2.2079289  0.023708995   -2.8381334   0.63020458   376190 
 3820000   0.50802969   -2.8376274   -2.8376274   -2.2064754  0.035083707   -2.8376274   0.63115197   376072 
 3830000    0.5086754   -2.8391096   -2.8391096   -2.2069587 0.0099154629   -2.8391096   0.63215084   375955 
 3840000    0.5076927   -2.8373058   -2.8373058   -2.2061781  0.024964225   -2.8373058   0.63112768   375837 
 3850000   0.50812104   -2.8357011   -2.8357011   -2.2038425  0.027118422   -2.8357011   0.63185855   375719 
 3860000   0.50814636   -2.8345716   -2.8345716   -2.2024848  0.016563863   -2.8345716   0.63208687   375602 
 3870000   0.50821297   -2.8370478   -2.8370478   -2.2046794  0.027807193   -2.8370478   0.63236839   375484 
 3880000   0.50847918    -2.836728    -2.836728   -2.2038295  0.029467007    -2.836728   0.63289853   375366 
 3890000   0.50837699   -2.8380659   -2.8380659   -2.2050973  0.033398611   -2.8380659   0.63296863   375249 
 3900000   0.50686867   -2.8386288   -2.8386288   -2.2073397  0.031927263   -2.8386288   0.63128918   375131 
 3910000   0.50613324   -2.8373073   -2.8373073   -2.2067357  0.030554221   -2.8373073   0.63057157   375013 
 3920000   0.50450746   -2.8371013   -2.8371013   -2.2083591  0.013745906   -2.8371013   0.62874223   374896 
 3930000   0.50424774   -2.8377787   -2.8377787   -2.2091623  0.015432564   -2.8377787   0.62861641   374778 
 3940000   0.50451879   -2.8370006   -2.8370006   -2.2078499  0.018165134   -2.8370006   0.62915074   374661 
 3950000   0.50555374   -2.8390972   -2.8390972   -2.2084573   0.01218757   -2.8390972   0.63063997   374543 
 3960000   0.50513413   -2.8389499   -2.8389499   -2.2086348  0.026499958   -2.8389499   0.63031512   374425 
 3970000   0.50531849   -2.8366856   -2.8366856   -2.2059433  0.017502366   -2.8366856   0.63074226   374308 
 3980000   0.50614705   -2.8385454   -2.8385454   -2.2065697  0.029632081   -2.8385454    0.6319757   374190 
 3990000   0.50441245   -2.8370573   -2.8370573   -2.2070487  0.030040292   -2.8370573   0.63000854   374072 
 4000000   0.50286694   -2.8369721   -2.8369721   -2.2086974   0.02411914   -2.8369721   0.62827472   373955 
 4010000    0.5039257       -2.841       -2.841   -2.2112037  0.026085819       -2.841   0.62979625   373837 
 4020000   0.50401581   -2.8400919   -2.8400919   -2.2099841  0.021110145   -2.8400919   0.63010777   373719 
 4030000   0.50418185   -2.8413282   -2.8413282   -2.2108155  0.032575216   -2.8413282   0.63051273   373602 
 4040000   0.50274303   -2.8422498   -2.8422498   -2.2133378  0.020763236   -2.8422498   0.62891203   373484 
 4050000   0.50438719   -2.8410675   -2.8410675   -2.2098993  0.022040531   -2.8410675   0.63116822   373366 
 4060000   0.50365009   -2.8390896   -2.8390896   -2.2086462  0.019104089   -2.8390896   0.63044341   373249 
 4070000    0.5026061   -2.8377668   -2.8377668   -2.2084313  0.025173993   -2.8377668   0.62933556   373131 
 4080000   0.50159759   -2.8389167   -2.8389167   -2.2106453  0.021472497   -2.8389167   0.62827145   373013 
 4090000   0.50157325   -2.8409334   -2.8409334   -2.2124953   0.02529573   -2.8409334   0.62843807   372896 
 4100000   0.50125342   -2.8404696   -2.8404696   -2.2122334  0.022249272   -2.8404696   0.62823615   372778 
 4110000   0.50170041   -2.8400113   -2.8400113   -2.2110175  0.021355833   -2.8400113   0.62899379   372661 
 4120000   0.50075852   -2.8407514   -2.8407514   -2.2127396  0.027561521   -2.8407514   0.62801178   372543 
 4130000   0.50223683   -2.8431828   -2.8431828   -2.2131174  0.021747114   -2.8431828   0.63006533   372425 
 4140000   0.50077349   -2.8419045   -2.8419045   -2.2134775  0.029512071   -2.8419045   0.62842697   372308 
 4150000   0.50159988   -2.8405932   -2.8405932   -2.2109296   0.01310981   -2.8405932   0.62966358   372190 
 4160000   0.49985467   -2.8396396   -2.8396396   -2.2119678  0.022416432   -2.8396396   0.62767179   372072 
 4170000   0.50019986   -2.8422102   -2.8422102   -2.2139073  0.015045705   -2.8422102   0.62830283   371955 
 4180000   0.49980452   -2.8410657   -2.8410657   -2.2130602  0.031716439   -2.8410657   0.62800546   371837 
 4190000   0.50148696   -2.8408899   -2.8408899   -2.2105704  0.015572605   -2.8408899   0.63031949   371719 
 4200000   0.50096861    -2.839695    -2.839695   -2.2098288  0.023413504    -2.839695   0.62986623   371602 
 4210000    0.4996696   -2.8377918   -2.8377918   -2.2093593  0.022346178   -2.8377918   0.62843253   371484 
 4220000   0.49952548   -2.8397567   -2.8397567   -2.2113058  0.022566956   -2.8397567    0.6284509   371366 
 4230000   0.49881633   -2.8389736   -2.8389736   -2.2112172  0.025841762   -2.8389736    0.6277565   371249 
 4240000   0.50001489   -2.8421097   -2.8421097   -2.2126448  0.018613319   -2.8421097   0.62946495   371131 
 4250000   0.49879763   -2.8398196   -2.8398196   -2.2116873  0.028553287   -2.8398196   0.62813227   371013 
 4260000   0.49799335   -2.8395663   -2.8395663   -2.2122491  0.023935796   -2.8395663   0.62731727   370896 
 4270000   0.49978525   -2.8407134   -2.8407134   -2.2109385  0.027854313   -2.8407134   0.62977487   370778 
 4280000    0.4990124   -2.8403675   -2.8403675    -2.211368  0.028822222   -2.8403675   0.62899949   370661 
 4290000   0.49721147   -2.8404655   -2.8404655   -2.2135365  0.022327578   -2.8404655   0.62692902   370543 
 4300000   0.49798261   -2.8409727   -2.8409727   -2.2128714  0.029302403   -2.8409727   0.62810137   370425 
 4310000   0.49628238   -2.8400764   -2.8400764   -2.2139217  0.030252766   -2.8400764   0.62615465   370308 
 4320000   0.49680802   -2.8407105   -2.8407105   -2.2136928   0.03021429   -2.8407105   0.62701765   370190 
 4330000   0.49823734   -2.8425316   -2.8425316   -2.2135095  0.026330953   -2.8425316   0.62902208   370072 
 4340000   0.49796798    -2.843331    -2.843331   -2.2144502  0.025151314    -2.843331   0.62888084   369955 
 4350000   0.49601376   -2.8390364   -2.8390364   -2.2124236  0.026889971   -2.8390364   0.62661273   369837 
 4360000   0.49582663   -2.8409801   -2.8409801   -2.2144038  0.032687096   -2.8409801   0.62657625   369719 
 4370000   0.49549071   -2.8434697   -2.8434697   -2.2171197  0.021780614   -2.8434697   0.62634996   369602 
 4380000   0.49662949   -2.8417276   -2.8417276   -2.2137376  0.028264264   -2.8417276   0.62798998   369484 
 4390000   0.49476437   -2.8398053   -2.8398053   -2.2139739  0.021440619   -2.8398053    0.6258314   369366 
 4400000   0.49520977   -2.8409742   -2.8409742   -2.2143809  0.028765412   -2.8409742   0.62659327   369249 
 4410000   0.49629254   -2.8425188   -2.8425188   -2.2143547  0.021452463   -2.8425188   0.62816404   369131 
 4420000   0.49462084   -2.8400186   -2.8400186   -2.2137702  0.023517144   -2.8400186   0.62624834   369013 
 4430000   0.49609437   -2.8420838   -2.8420838   -2.2137705  0.038189384   -2.8420838   0.62831322   368896 
 4440000   0.49549271   -2.8412497   -2.8412497   -2.2134977  0.014380611   -2.8412497   0.62775201   368778 
 4450000   0.49459023   -2.8409086   -2.8409086   -2.2141011    0.0213059   -2.8409086    0.6268075   368661 
 4460000   0.49504245   -2.8404816   -2.8404816   -2.2129001  0.025882558   -2.8404816   0.62758149   368543 
 4470000   0.49480217   -2.8410696   -2.8410696   -2.2135918   0.03288107   -2.8410696   0.62747777   368425 
 4480000   0.49389265   -2.8415606   -2.8415606   -2.2150372  0.023392723   -2.8415606   0.62652335   368308 
 4490000   0.49413037   -2.8404597   -2.8404597   -2.2134339  0.024683392   -2.8404597   0.62702579   368190 
 4500000   0.49487369   -2.8426807   -2.8426807   -2.2145103   0.02437901   -2.8426807   0.62817035   368072 
 4510000   0.49363525   -2.8415064   -2.8415064   -2.2147088  0.012996327   -2.8415064   0.62679757   367955 
 4520000   0.49138574   -2.8385058   -2.8385058   -2.2143644  0.027393739   -2.8385058   0.62414139   367837 
 4530000   0.49162617   -2.8405661   -2.8405661   -2.2159189  0.022076337   -2.8405661   0.62464716   367719 
 4540000   0.49203991   -2.8414821   -2.8414821   -2.2161103  0.028643196   -2.8414821   0.62537183   367602 
 4550000   0.49242745    -2.839859    -2.839859   -2.2137936  0.030688374    -2.839859   0.62606535   367484 
 4560000   0.49233937   -2.8415247   -2.8415247   -2.2153703  0.028714488   -2.8415247   0.62615442   367366 
 4570000   0.49345099   -2.8428903   -2.8428903   -2.2151222  0.035688243   -2.8428903   0.62776811   367249 
 4580000    0.4917539    -2.840302    -2.840302   -2.2144919  0.027521849    -2.840302   0.62581015   367131 
 4590000   0.49071856   -2.8373276   -2.8373276   -2.2126342  0.020441379   -2.8373276   0.62469336   367013 
 4600000   0.49075284   -2.8406835   -2.8406835   -2.2157473  0.013733772   -2.8406835   0.62493622   366896 
 4610000   0.49076209   -2.8417432   -2.8417432   -2.2165941  0.020790341   -2.8417432   0.62514906   366778 
 4620000   0.49089283   -2.8410064   -2.8410064   -2.2154913    0.0342875   -2.8410064   0.62551513   366661 
 4630000   0.48988288   -2.8406404   -2.8406404   -2.2162113  0.019378568   -2.8406404   0.62442916   366543 
 4640000   0.49032275   -2.8433936   -2.8433936   -2.2182024  0.023324612   -2.8433936   0.62519111   366425 
 4650000   0.48894824   -2.8424047   -2.8424047    -2.218767  0.032443559   -2.8424047   0.62363766   366308 
 4660000   0.48949773   -2.8422124   -2.8422124   -2.2176727  0.029414231   -2.8422124    0.6245397   366190 
 4670000   0.48875124   -2.8429305   -2.8429305   -2.2191422  0.027553276   -2.8429305   0.62378827   366072 
 4680000   0.48939461   -2.8421427   -2.8421427   -2.2173336   0.03358304   -2.8421427   0.62480909   365955 
 4690000   0.48987615   -2.8438022   -2.8438022   -2.2181766  0.025826359   -2.8438022   0.62562561   365837 
 4700000   0.49030524   -2.8432056   -2.8432056     -2.21683  0.035832495   -2.8432056   0.62637564   365719 
 4710000   0.48910976   -2.8404543   -2.8404543   -2.2154059  0.037642339   -2.8404543   0.62504835   365602 
 4720000   0.48701256   -2.8380058   -2.8380058   -2.2154366  0.036414701   -2.8380058   0.62256922   365484 
 4730000   0.48931406   -2.8412654   -2.8412654    -2.215552  0.030105576   -2.8412654   0.62571334   365366 
 4740000   0.48875368   -2.8440512   -2.8440512   -2.2188543  0.024913061   -2.8440512   0.62519696   365249 
 4750000   0.48820815   -2.8438944   -2.8438944   -2.2191934  0.021862944   -2.8438944   0.62470095   365131 
 4760000   0.48817149   -2.8422369   -2.8422369   -2.2173809   0.02881927   -2.8422369   0.62485598   365013 
 4770000   0.48872148    -2.843654    -2.843654   -2.2178934  0.015249652    -2.843654   0.62576054   364896 
 4780000   0.48775308   -2.8423691   -2.8423691   -2.2176465  0.025544899   -2.8423691   0.62472262   364778 
 4790000    0.4885035   -2.8435673   -2.8435673   -2.2176828   0.03317714   -2.8435673   0.62588452   364661 
 4800000   0.48735535   -2.8417462   -2.8417462   -2.2171306  0.029123874   -2.8417462   0.62461559   364543 
 4810000   0.48735999   -2.8440783   -2.8440783   -2.2192545  0.028310543   -2.8440783   0.62482379   364425 
 4820000   0.48744556   -2.8418995   -2.8418995   -2.2167653   0.01806597   -2.8418995    0.6251342   364308 
 4830000   0.48615721   -2.8399855   -2.8399855   -2.2163015  0.028022339   -2.8399855   0.62368394   364190 
 4840000   0.48806453   -2.8422245   -2.8422245   -2.2158907  0.021275198   -2.8422245   0.62633375   364072 
 4850000   0.48729308   -2.8392901   -2.8392901   -2.2137453  0.019857022   -2.8392901   0.62554478   363955 
 4860000   0.48510171   -2.8368218   -2.8368218   -2.2138881  0.024783424   -2.8368218   0.62293365   363837 
 4870000   0.48448379   -2.8377979   -2.8377979   -2.2154559  0.024218416   -2.8377979     0.622342   363719 
 4880000    0.4849151   -2.8373889   -2.8373889   -2.2142925  0.032189271   -2.8373889   0.62309648   363602 
 4890000   0.48607002   -2.8383741   -2.8383741   -2.2135908  0.026251113   -2.8383741   0.62478325   363484 
 4900000   0.48539417   -2.8375957   -2.8375957   -2.2134786   0.01622246   -2.8375957   0.62411715   363366 
 4910000   0.48508948   -2.8387309   -2.8387309   -2.2148047   0.03855017   -2.8387309   0.62392628   363249 
 4920000   0.48587656   -2.8394357   -2.8394357    -2.214294  0.026735517   -2.8394357   0.62514171   363131 
 4930000   0.48453972   -2.8380101   -2.8380101   -2.2143857  0.026849905   -2.8380101   0.62362433   363013 
 4940000   0.48420876   -2.8392808   -2.8392808   -2.2158815  0.024511972   -2.8392808   0.62339929   362896 
 4950000   0.48412049   -2.8380483   -2.8380483   -2.2145599 0.0099030028   -2.8380483   0.62348838   362778 
 4960000   0.48467359   -2.8376181   -2.8376181    -2.213216  0.024564787   -2.8376181   0.62440209   362661 
 4970000   0.48461539   -2.8381456   -2.8381456   -2.2136153   0.01917109   -2.8381456   0.62453032   362543 
 4980000   0.48427545   -2.8357718   -2.8357718   -2.2114763  0.028025916   -2.8357718   0.62429543   362425 
 4990000   0.48322702   -2.8373645   -2.8373645   -2.2142194   0.02779726   -2.8373645   0.62314503   362308 
 5000000   0.48195262   -2.8356444   -2.8356444   -2.2139402  0.025941558   -2.8356444   0.62170411   362190 
 5010000   0.48293235   -2.8379523   -2.8379523   -2.2147813  0.039695797   -2.8379523   0.62317096   362072 
 5020000   0.48274265   -2.8361452   -2.8361452   -2.2130177  0.028375841   -2.8361452   0.62312753   361955 
 5030000   0.48167025   -2.8360731   -2.8360731   -2.2141271  0.011725596   -2.8360731   0.62194602   361837 
 5040000   0.48319277   -2.8375114   -2.8375114   -2.2133959 0.0085257806   -2.8375114   0.62411548   361719 
 5050000   0.48214565   -2.8360985   -2.8360985   -2.2131341  0.029251233   -2.8360985   0.62296446   361602 
 5060000   0.48310549   -2.8375874   -2.8375874   -2.2131789  0.025116517   -2.8375874    0.6244084   361484 
 5070000   0.48217606   -2.8366462   -2.8366462   -2.2132356  0.013630119   -2.8366462   0.62341062   361366 
 5080000   0.48096775   -2.8369085   -2.8369085   -2.2148587  0.026833458   -2.8369085   0.62204979   361249 
 5090000   0.48182607   -2.8398366   -2.8398366   -2.2164731  0.024508788   -2.8398366   0.62336351   361131 
 5100000   0.48096122   -2.8387707   -2.8387707   -2.2163228   0.02230977   -2.8387707   0.62244798   361013 
 5110000   0.47985294   -2.8379591   -2.8379591   -2.2167441  0.029628338   -2.8379591   0.62121501   360896 
 5120000   0.48064339   -2.8405979   -2.8405979    -2.218156  0.023767117   -2.8405979   0.62244183   360778 
 5130000   0.47808036   -2.8359255   -2.8359255    -2.216602  0.030072917   -2.8359255   0.61932352   360661 
 5140000   0.47886915    -2.835942    -2.835942   -2.2153937  0.028735889    -2.835942   0.62054837   360543 
 5150000   0.47953005   -2.8341132   -2.8341132    -2.212505  0.026741375   -2.8341132   0.62160825   360425 
 5160000   0.47978266   -2.8356012   -2.8356012   -2.2134636  0.028379025   -2.8356012   0.62213766   360308 
 5170000   0.48039233   -2.8365653   -2.8365653    -2.213433  0.030275321   -2.8365653    0.6231323   360190 
 5180000   0.48040216   -2.8383628   -2.8383628   -2.2150135  0.029837483   -2.8383628   0.62334925   360072 
 5190000   0.47901341   -2.8362584   -2.8362584   -2.2145091  0.025247267   -2.8362584   0.62174931   359955 
 5200000   0.47995826   -2.8372297   -2.8372297   -2.2140497  0.024741098   -2.8372297   0.62317999   359837 
 5210000   0.47961433   -2.8374066   -2.8374066   -2.2144689  0.029437687   -2.8374066   0.62293771   359719 
 5220000   0.47744164   -2.8349021   -2.8349021   -2.2145845  0.015004007   -2.8349021   0.62031752   359602 
 5230000   0.47836106   -2.8363919   -2.8363919   -2.2146758  0.022459637   -2.8363919   0.62171609   359484 
 5240000   0.47941277   -2.8386346   -2.8386346   -2.2153471  0.020940595   -2.8386346   0.62328756   359366 
 5250000   0.47830786   -2.8374433   -2.8374433   -2.2153897  0.021297248   -2.8374433   0.62205359   359249 
 5260000   0.47758718   -2.8363527   -2.8363527   -2.2150323  0.026239295   -2.8363527    0.6213204   359131 
 5270000   0.47723614   -2.8384364   -2.8384364   -2.2173686  0.028053583   -2.8384364   0.62106777   359013 
 5280000   0.47763825   -2.8372893   -2.8372893   -2.2154956  0.022262859   -2.8372893   0.62179371   358896 
 5290000   0.47796431     -2.83942     -2.83942   -2.2169971  0.024723897     -2.83942   0.62242283   358778 
 5300000   0.47886972   -2.8381676   -2.8381676   -2.2143623  0.016649126   -2.8381676   0.62380532   358661 
 5310000   0.47760602   -2.8369981   -2.8369981   -2.2146342  0.024457508   -2.8369981    0.6223639   358543 
 5320000   0.47801145   -2.8380997   -2.8380997   -2.2150025  0.026285559   -2.8380997   0.62309727   358425 
 5330000   0.47617521   -2.8369578   -2.8369578   -2.2160514   0.03838257   -2.8369578   0.62090639   358308 
 5340000    0.4763793   -2.8380905   -2.8380905   -2.2167133  0.021671605   -2.8380905   0.62137714   358190 
 5350000     0.476592   -2.8374931   -2.8374931   -2.2156336  0.031663704   -2.8374931   0.62185944   358072 
 5360000   0.47627281   -2.8373262   -2.8373262   -2.2156801  0.028019181   -2.8373262   0.62164608   357955 
 5370000   0.47654217   -2.8367519   -2.8367519   -2.2145492  0.029708267   -2.8367519   0.62220278   357837 
 5380000   0.47451174   -2.8352563   -2.8352563   -2.2155003  0.022174831   -2.8352563   0.61975609   357719 
 5390000   0.47493902   -2.8348678   -2.8348678   -2.2143507  0.034042431   -2.8348678   0.62051711   357602 
 5400000   0.47539906   -2.8370185   -2.8370185   -2.2156953  0.028992299   -2.8370185   0.62132318   357484 
 5410000   0.47448049   -2.8383027   -2.8383027   -2.2179753  0.012650532   -2.8383027   0.62032742   357366 
 5420000   0.47372594    -2.837808    -2.837808   -2.2182642  0.029772219    -2.837808   0.61954376   357249 
 5430000   0.47306161   -2.8376516   -2.8376516   -2.2187723  0.019968028   -2.8376516   0.61887937   357131 
 5440000    0.4739848   -2.8373248   -2.8373248   -2.2170327  0.019679772   -2.8373248   0.62029207   357013 
 5450000   0.47186295   -2.8367356   -2.8367356   -2.2190179  0.021069808   -2.8367356   0.61771769   356896 
 5460000   0.47361693   -2.8374073   -2.8374073   -2.2171884   0.02846917   -2.8374073   0.62021891   356778 
 5470000   0.47319792   -2.8359503   -2.8359503   -2.2160768  0.018539361   -2.8359503   0.61987347   356661 
 5480000   0.47286646   -2.8352311   -2.8352311   -2.2155869  0.019895578   -2.8352311   0.61964428   356543 
 5490000   0.47204947   -2.8335788   -2.8335788   -2.2148003  0.027442855   -2.8335788   0.61877848   356425 
 5500000   0.47239784   -2.8360884   -2.8360884   -2.2166499  0.026151708   -2.8360884   0.61943848   356308 
 5510000   0.47098074   -2.8361301   -2.8361301   -2.2183453  0.013988128   -2.8361301   0.61778488   356190 
 5520000   0.47146861   -2.8382638   -2.8382638   -2.2196341  0.024250858   -2.8382638   0.61862976   356072 
 5530000   0.47062992   -2.8368482   -2.8368482   -2.2191159  0.018807183   -2.8368482   0.61773227   355955 
 5540000   0.47121372   -2.8389758   -2.8389758   -2.2202721  0.012593335   -2.8389758   0.61870364   355837 
 5550000   0.47071004   -2.8388063   -2.8388063    -2.220559  0.030883757   -2.8388063   0.61824733   355719 
 5560000   0.47111312   -2.8404694   -2.8404694   -2.2214891  0.021928585   -2.8404694   0.61898034   355602 
 5570000   0.47003528   -2.8370241   -2.8370241   -2.2192549  0.012880293   -2.8370241   0.61776919   355484 
 5580000   0.46972422    -2.837411    -2.837411   -2.2198456  0.034308389    -2.837411   0.61756536   355366 
 5590000   0.47080636   -2.8376496   -2.8376496   -2.2184577  0.033792463   -2.8376496   0.61919196   355249 
 5600000   0.47021635   -2.8368953   -2.8368953   -2.2182739  0.022738575   -2.8368953   0.61862147   355131 
 5610000   0.47005844   -2.8377331   -2.8377331   -2.2191138  0.031827982   -2.8377331   0.61861927   355013 
 5620000    0.4695881   -2.8377193   -2.8377193   -2.2195153  0.022769505   -2.8377193   0.61820402   354896 
 5630000   0.46892105   -2.8382217   -2.8382217   -2.2206905  0.026185087   -2.8382217   0.61753119   354778 
 5640000   0.46788528   -2.8355808   -2.8355808   -2.2192104  0.021122986   -2.8355808   0.61637043   354661 
 5650000   0.46915448   -2.8375113   -2.8375113   -2.2192631  0.024260509   -2.8375113   0.61824811   354543 
 5660000   0.46854976   -2.8363963   -2.8363963   -2.2187395  0.026987014   -2.8363963   0.61765679   354425 
 5670000   0.46918739   -2.8384592   -2.8384592   -2.2197577  0.020298139   -2.8384592   0.61870158   354308 
 5680000   0.46808314   -2.8347317   -2.8347317   -2.2172806  0.016818941   -2.8347317   0.61745108   354190 
 5690000   0.46875364   -2.8361078   -2.8361078   -2.2175662  0.036960056   -2.8361078   0.61854161   354072 
 5700000   0.46861904   -2.8359879   -2.8359879   -2.2174195   0.01285362   -2.8359879    0.6185684   353955 
 5710000   0.46762578   -2.8351357   -2.8351357   -2.2176726  0.023646298   -2.8351357   0.61746315   353837 
 5720000   0.46832596   -2.8380134   -2.8380134   -2.2194194  0.022598203   -2.8380134   0.61859398   353719 
 5730000   0.46723683   -2.8378791   -2.8378791   -2.2205195  0.028088122   -2.8378791    0.6173596   353602 
 5740000   0.46705743    -2.839759    -2.839759   -2.2224305   0.03777105    -2.839759   0.61732856   353484 
 5750000    0.4670364   -2.8394117   -2.8394117   -2.2219048  0.026216713   -2.8394117    0.6175069   353366 
 5760000   0.46719957   -2.8388069   -2.8388069   -2.2208797  0.036129477   -2.8388069   0.61792724   353249 
 5770000   0.46608562   -2.8390385   -2.8390385   -2.2223786  0.024188039   -2.8390385    0.6166599   353131 
 5780000   0.46629308   -2.8418858   -2.8418858   -2.2247452  0.021819329   -2.8418858   0.61714061   353013 
 5790000   0.46476131   -2.8402278   -2.8402278   -2.2249106  0.028952868   -2.8402278   0.61531724   352896 
 5800000   0.46580924   -2.8406926   -2.8406926   -2.2237817  0.020883675   -2.8406926   0.61691092   352778 
 5810000   0.46555213   -2.8410455   -2.8410455   -2.2242705  0.019473737   -2.8410455   0.61677496   352661 
 5820000   0.46465883   -2.8391902   -2.8391902   -2.2233927  0.029062668   -2.8391902   0.61579753   352543 
 5830000   0.46514551   -2.8387703   -2.8387703   -2.2221214  0.032319482   -2.8387703   0.61664892   352425 
 5840000   0.46362166   -2.8387119   -2.8387119    -2.223879  0.021193354   -2.8387119   0.61483285   352308 
 5850000   0.46501811   -2.8398493   -2.8398493   -2.2229579  0.024855168   -2.8398493   0.61689137   352190 
 5860000   0.46472824   -2.8396627   -2.8396627   -2.2229493  0.015961428   -2.8396627   0.61671346   352072 
 5870000   0.46308874    -2.839778    -2.839778   -2.2250359  0.037078814    -2.839778   0.61474206   351955 
 5880000   0.46284774   -2.8396936   -2.8396936   -2.2250654  0.022848297   -2.8396936   0.61462821   351837 
 5890000   0.46365309   -2.8388756   -2.8388756   -2.2229714  0.013964383   -2.8388756   0.61590422   351719 
 5900000   0.46340422   -2.8385869   -2.8385869   -2.2228085  0.020190367   -2.8385869   0.61577846   351602 
 5910000   0.46375709   -2.8394173   -2.8394173    -2.222963  0.021359161   -2.8394173   0.61645424   351484 
 5920000   0.46367775   -2.8398045   -2.8398045   -2.2232487  0.033204599   -2.8398045   0.61655578   351366 
 5930000    0.4634086   -2.8405791   -2.8405791    -2.224176  0.017266827   -2.8405791   0.61640314   351249 
 5940000   0.46371497   -2.8405316   -2.8405316   -2.2235137  0.015179874   -2.8405316   0.61701793   351131 
 5950000   0.46224763   -2.8384346   -2.8384346   -2.2231624  0.028397863   -2.8384346   0.61527226   351013 
 5960000   0.46256531   -2.8392932   -2.8392932   -2.2233928  0.013166014   -2.8392932    0.6159004   350896 
 5970000   0.46226664   -2.8401601   -2.8401601   -2.2244503  0.023991981   -2.8401601   0.61570978   350778 
 5980000   0.46064082    -2.839656    -2.839656    -2.225907   0.03736326    -2.839656   0.61374901   350661 
 5990000   0.46172854   -2.8407041   -2.8407041   -2.2252987  0.031898114   -2.8407041   0.61540535   350543 
 6000000   0.46202594    -2.842983    -2.842983   -2.2269739  0.025792558    -2.842983   0.61600909   350425 
 6010000   0.45970899   -2.8398113   -2.8398113   -2.2266866  0.028370334   -2.8398113   0.61312467   350308 
 6020000   0.46066168   -2.8415112   -2.8415112   -2.2269089  0.022834287   -2.8415112   0.61460232   350190 
 6030000   0.46097399   -2.8390542   -2.8390542   -2.2238279   0.03538976   -2.8390542    0.6152263   350072 
 6040000   0.45986286   -2.8388054   -2.8388054   -2.2248568  0.022686286   -2.8388054   0.61394855   349955 
 6050000   0.46028703   -2.8407081   -2.8407081    -2.225986  0.022821782   -2.8407081   0.61472212   349837 
 6060000   0.46031202   -2.8392214   -2.8392214   -2.2242585  0.022872864   -2.8392214   0.61496293   349719 
 6070000   0.45833886   -2.8384607   -2.8384607   -2.2259289  0.019313411   -2.8384607   0.61253178   349602 
 6080000   0.45962329   -2.8396704   -2.8396704   -2.2252147  0.030251808   -2.8396704    0.6144557   349484 
 6090000   0.45823484   -2.8415812   -2.8415812   -2.2287747   0.03037052   -2.8415812   0.61280643   349366 
 6100000   0.45790149   -2.8403643   -2.8403643   -2.2277985  0.017252562   -2.8403643   0.61256578   349249 
 6110000   0.45922293   -2.8406126   -2.8406126   -2.2260714  0.021047605   -2.8406126   0.61454119   349131 
 6120000   0.45876951   -2.8428442   -2.8428442   -2.2287022  0.021140333   -2.8428442   0.61414199   349013 
 6130000   0.45749633    -2.839464    -2.839464    -2.226821  0.022246744    -2.839464   0.61264299   348896 
 6140000   0.45871231   -2.8414362   -2.8414362    -2.226957  0.030328962   -2.8414362   0.61447916   348778 
 6150000   0.45872133   -2.8409597   -2.8409597   -2.2262622  0.032121959   -2.8409597   0.61469745   348661 
 6160000   0.45852645   -2.8406409   -2.8406409   -2.2259966  0.025480777   -2.8406409   0.61464432   348543 
 6170000   0.45854562   -2.8406791   -2.8406791   -2.2258009  0.031851026   -2.8406791   0.61487819   348425 
 6180000   0.45690024   -2.8400649   -2.8400649   -2.2271872  0.031612346   -2.8400649   0.61287765   348308 
 6190000   0.45732909   -2.8386908   -2.8386908     -2.22503  0.037054677   -2.8386908   0.61366079   348190 
 6200000   0.45732365    -2.840192    -2.840192   -2.2263304  0.030812094    -2.840192   0.61386154   348072 
 6210000   0.45711635   -2.8385845   -2.8385845   -2.2247949  0.023145612   -2.8385845    0.6137896   347955 
 6220000   0.45511583   -2.8382651   -2.8382651   -2.2269543  0.020515494   -2.8382651   0.61131072   347837 
 6230000   0.45503244   -2.8380952   -2.8380952   -2.2266891  0.014912165   -2.8380952   0.61140612   347719 
 6240000   0.45593885    -2.839738    -2.839738   -2.2269078  0.023169647    -2.839738   0.61283023   347602 
 6250000   0.45448224   -2.8379726   -2.8379726   -2.2268928   0.03158076   -2.8379726   0.61107984   347484 
 6260000   0.45578026   -2.8419773   -2.8419773    -2.228944  0.027208666   -2.8419773   0.61303328   347366 
 6270000   0.45507124   -2.8391561   -2.8391561   -2.2268703  0.022696332   -2.8391561   0.61228587   347249 
 6280000   0.45632874   -2.8410075   -2.8410075    -2.226821   0.02086136   -2.8410075   0.61418651   347131 
 6290000   0.45527552   -2.8414133   -2.8414133    -2.228436  0.024288845   -2.8414133   0.61297731   347013 
 6300000   0.45404765   -2.8406511   -2.8406511   -2.2291208  0.012153639   -2.8406511   0.61153032   346896 
 6310000   0.45478852   -2.8421212   -2.8421212   -2.2293847  0.032710843   -2.8421212   0.61273657   346778 
 6320000   0.45444966   -2.8431645   -2.8431645   -2.2306778  0.024143468   -2.8431645   0.61248667   346661 
 6330000   0.45444966   -2.8418811   -2.8418811   -2.2291859  0.035812414   -2.8418811   0.61269524   346543 
 6340000   0.45334009   -2.8410019   -2.8410019   -2.2295944  0.018906433   -2.8410019   0.61140748   346425 
 6350000   0.45337752    -2.840837    -2.840837   -2.2291725  0.032415309    -2.840837   0.61166454   346308 
 6360000   0.45376332   -2.8418004   -2.8418004   -2.2294067  0.023759128   -2.8418004    0.6123937   346190 
 6370000   0.45255143    -2.839968    -2.839968   -2.2290016  0.023714248    -2.839968    0.6109664   346072 
 6380000   0.45205802   -2.8418735   -2.8418735   -2.2313669  0.030488147   -2.8418735   0.61050667   345955 
 6390000   0.45188075   -2.8411783   -2.8411783   -2.2307028  0.025545593   -2.8411783   0.61047549   345837 
 6400000   0.45347465   -2.8440107   -2.8440107   -2.2311728  0.024391348   -2.8440107    0.6128379   345719 
 6410000   0.45230904   -2.8411792   -2.8411792   -2.2297096  0.022869204   -2.8411792    0.6114696   345602 
 6420000    0.4507876   -2.8385197   -2.8385197   -2.2288988  0.030727346   -2.8385197   0.60962093   345484 
 6430000   0.45217338   -2.8404299   -2.8404299    -2.228726  0.024976525   -2.8404299   0.61170392   345366 
 6440000   0.45235904   -2.8415838   -2.8415838   -2.2294213   0.02976228   -2.8415838   0.61216246   345249 
 6450000   0.45079725   -2.8400038   -2.8400038   -2.2297463  0.026460994   -2.8400038   0.61025751   345131 
 6460000   0.45137775   -2.8387863   -2.8387863    -2.227534  0.027413543   -2.8387863   0.61125234   345013 
 6470000   0.45074566   -2.8392188   -2.8392188   -2.2286154  0.032226081   -2.8392188   0.61060344   344896 
 6480000   0.45013605   -2.8410243   -2.8410243    -2.231038  0.024879668   -2.8410243   0.60998633   344778 
 6490000   0.45013644   -2.8417318   -2.8417318   -2.2315379   0.02892101   -2.8417318   0.61019392   344661 
 6500000   0.45024452   -2.8421634   -2.8421634   -2.2316139  0.028802719   -2.8421634   0.61054946   344543 
 6510000   0.44948828   -2.8394816   -2.8394816   -2.2297488  0.021073878   -2.8394816   0.60973279   344425 
[...]
18290000   0.18366506      -2.9902      -2.9902   -2.5733125 0.0097481917      -2.9902   0.41688757   205837 
18300000   0.18398508   -2.9886384   -2.9886384   -2.5707849 -0.0069604126   -2.9886384    0.4178535   205719 
18310000   0.18287643   -2.9892587   -2.9892587   -2.5736867 -0.0044987658   -2.9892587   0.41557196   205602 
18320000   0.18293647   -2.9892543   -2.9892543   -2.5733071  0.002508832   -2.9892543   0.41594712   205484 
18330000   0.18296457   -2.9925787   -2.9925787   -2.5763286 0.0029665718   -2.9925787   0.41625005   205366 
18340000   0.18235657   -2.9902584   -2.9902584    -2.575155 -8.3878865e-05   -2.9902584   0.41510333   205249 
18350000   0.18203006   -2.9918077   -2.9918077   -2.5772092 -0.0026474878   -2.9918077   0.41459844   205131 
18360000   0.18224501    -2.993271    -2.993271   -2.5779441 -0.0045202698    -2.993271   0.41532693   205013 
18370000   0.18289262   -2.9928422   -2.9928422   -2.5758014 0.0076435321   -2.9928422   0.41704081   204896 
18380000   0.18219996   -2.9921752   -2.9921752   -2.5764744 0.00064163011   -2.9921752   0.41570077   204778 
18390000   0.18170447   -2.9942515   -2.9942515   -2.5794442 -0.0025138115   -2.9942515   0.41480729   204661 
18400000   0.18148735   -2.9926121   -2.9926121   -2.5780615 -0.0047518856   -2.9926121   0.41455063   204543 
18410000   0.18101539   -2.9913506   -2.9913506   -2.5776393 -0.0067054531   -2.9913506   0.41371127   204425 
18420000   0.18069135   -2.9912506   -2.9912506   -2.5780434 -0.00061022129   -2.9912506   0.41320716   204308 
18430000   0.18060028   -2.9909876   -2.9909876   -2.5777501 0.0032654216   -2.9909876   0.41323758   204190 
18440000   0.18036137    -2.993708    -2.993708   -2.5807785 0.0004081178    -2.993708   0.41292953   204072 
18450000   0.18023461   -2.9939316   -2.9939316   -2.5810555 -0.0025963684   -2.9939316   0.41287605   203955 
18460000   0.17951326   -2.9927178   -2.9927178   -2.5812562 0.0064913394   -2.9927178   0.41146164   203837 
18470000   0.17973204   -2.9920555   -2.9920555   -2.5798537 -0.00013831137   -2.9920555   0.41220173   203719 
18480000   0.17944321   -2.9910815   -2.9910815   -2.5793057  0.006042839   -2.9910815   0.41177582   203602 
18490000   0.17933087    -2.992531    -2.992531   -2.5807744 0.0022843101    -2.992531   0.41175666   203484 
18500000   0.17972814   -2.9944171   -2.9944171   -2.5815088 0.00023766162   -2.9944171   0.41290827   203366 
18510000   0.17885172   -2.9937112   -2.9937112   -2.5825799 0.0044245527   -2.9937112   0.41113132   203249 
18520000   0.17921809   -2.9932421   -2.9932421   -2.5810293 -3.7919311e-05   -2.9932421    0.4122128   203131 
18530000   0.17835179   -2.9939945   -2.9939945   -2.5835358 0.0072925359   -2.9939945    0.4104587   203013 
18540000   0.17847063   -2.9957627   -2.9957627   -2.5847936 0.0066095262   -2.9957627   0.41096904   202896 
18550000   0.17802028   -2.9947272   -2.9947272   -2.5845567 0.0060476011   -2.9947272   0.41017057   202778 
18560000   0.17741877   -2.9937784   -2.9937784   -2.5847577 0.0050732963   -2.9937784   0.40902066   202661 
18570000   0.17853692   -2.9981564   -2.9981564   -2.5863181 -0.0023323166   -2.9981564   0.41183822   202543 
18580000   0.17766543   -2.9966994   -2.9966994   -2.5866326 -0.0097496893   -2.9966994   0.41006682   202425 
18590000   0.17742182   -2.9969135   -2.9969135   -2.5871721 0.0049061767   -2.9969135   0.40974139   202308 
18600000   0.17719674   -2.9984626   -2.9984626   -2.5890022 0.0063865435   -2.9984626   0.40946041   202190 
18610000   0.17673558   -2.9994447   -2.9994447   -2.5908114 -0.0035188836   -2.9994447   0.40863324   202072 
18620000   0.17649516   -3.0005973   -3.0005973   -2.5922835  0.010478572   -3.0005973   0.40831378   201955 
18630000    0.1755615   -3.0008901   -3.0008901   -2.5944988 -0.00021910542   -3.0008901   0.40639126   201837 
18640000   0.17582857    -3.000558    -3.000558   -2.5933104 0.0030347574    -3.000558   0.40724755   201719 
18650000   0.17555435    -3.002422    -3.002422   -2.5955736 -0.00054545207    -3.002422    0.4068484   201602 
18660000   0.17588097   -3.0041541   -3.0041541     -2.59631 -0.0041823208   -3.0041541   0.40784406   201484 
18670000   0.17495385   -3.0015989   -3.0015989    -2.595667 -0.004106279   -3.0015989   0.40593192   201366 
18680000   0.17489608   -3.0023096   -3.0023096   -2.5962758 -0.00077406112   -3.0023096    0.4060338   201249 
18690000   0.17510188   -3.0038246   -3.0038246   -2.5970745 0.00083743083   -3.0038246   0.40675007   201131 
18700000   0.17391999   -3.0043219   -3.0043219   -2.6000801 -0.0029423283   -3.0043219   0.40424179   201013 
18710000    0.1733537   -3.0057731   -3.0057731   -2.6026129 0.0035261779   -3.0057731   0.40316021   200896 
18720000   0.17380943   -3.0035925   -3.0035925   -2.5991348 0.0045775751   -3.0035925   0.40445767   200778 
18730000   0.17341431   -3.0043237   -3.0043237   -2.6005502  0.010348625   -3.0043237   0.40377348   200661 
18740000   0.17395049    -3.004609    -3.004609   -2.5993487 -0.0047178968    -3.004609   0.40526024   200543 
18750000   0.17259675    -3.002294    -3.002294   -2.5999508 -0.010339123    -3.002294   0.40234312   200425 
18760000   0.17307328   -3.0027518   -3.0027518   -2.5990622 -0.0047873464   -3.0027518   0.40368962   200308 
18770000   0.17225543    -3.004991    -3.004991   -2.6029722 -0.0058106987    -3.004991   0.40201883   200190 
18780000   0.17358111   -3.0061418   -3.0061418   -2.6007901 0.0051816215   -3.0061418   0.40535171   200072 
18790000   0.17264527   -3.0055783   -3.0055783   -2.6021761 0.0015662135   -3.0055783   0.40340221   199955 
18800000   0.17234454   -3.0055491   -3.0055491   -2.6026118 0.0061410192   -3.0055491    0.4029373   199837 
18810000    0.1719106   -3.0044374   -3.0044374   -2.6022772   -0.0074977   -3.0044374   0.40216023   199719 
18820000   0.17154704   -3.0063132   -3.0063132   -2.6047682 -4.4800798e-07   -3.0063132   0.40154496   199602 
18830000   0.17199009   -3.0051194   -3.0051194   -2.6022992 -0.016472503   -3.0051194   0.40282016   199484 
18840000   0.17192268    -3.006009    -3.006009   -2.6031084 0.0033959081    -3.006009   0.40290061   199366 
18850000   0.17095971   -3.0062083   -3.0062083   -2.6053291 -0.010363246   -3.0062083   0.40087915   199249 
18860000   0.17115758   -3.0054323   -3.0054323   -2.6038513 -0.012098473   -3.0054323   0.40158095   199131 
18870000   0.17068172   -3.0055721   -3.0055721   -2.6048702 -0.006020295   -3.0055721   0.40070191   199013 
18880000   0.17060417   -3.0066706   -3.0066706   -2.6059152 0.0056656565   -3.0066706   0.40075545   198896 
18890000   0.17045679   -3.0044228   -3.0044228   -2.6037758 0.00045126452   -3.0044228   0.40064696   198778 
18900000    0.1709405    -3.005632    -3.005632   -2.6036115 -0.0071084003    -3.005632    0.4020205   198661 
18910000   0.16946361   -3.0073673   -3.0073673   -2.6085833 -0.00081111331   -3.0073673   0.39878399   198543 
18920000   0.16900144   -3.0078956   -3.0078956   -2.6099627 0.0010540858   -3.0078956   0.39793291   198425 
18930000   0.16932485   -3.0092802   -3.0092802   -2.6103506 -0.0093498585   -3.0092802   0.39892965   198308 
18940000    0.1691975   -3.0063568   -3.0063568   -2.6074898 -0.007245481   -3.0063568   0.39886694   198190 
18950000   0.16902516   -3.0079881   -3.0079881   -2.6092901 -0.0054524191   -3.0079881   0.39869806   198072 
18960000   0.16835932   -3.0073991   -3.0073991    -2.610037 -0.0042785958   -3.0073991   0.39736218   197955 
18970000   0.16837285   -3.0066412   -3.0066412   -2.6090101 -0.0035393613   -3.0066412   0.39763114   197837 
18980000    0.1678814   -3.0053828   -3.0053828   -2.6086756  0.013760576   -3.0053828   0.39670715   197719 
18990000   0.16790553    -3.006135    -3.006135   -2.6091359 0.00058813375    -3.006135   0.39699909   197602 
19000000   0.16843423   -3.0056616   -3.0056616   -2.6071745 0.0028714659   -3.0056616   0.39848711   197484 
19010000   0.16773292   -3.0077575   -3.0077575   -2.6106923 0.00095312913   -3.0077575    0.3970652   197366 
19020000    0.1667711   -3.0093641   -3.0093641   -2.6143416 -0.00021299153   -3.0093641   0.39502249   197249 
19030000    0.1673415   -3.0094245   -3.0094245   -2.6128137 -0.0091537503   -3.0094245   0.39661085   197131 
19040000   0.16649001    -3.008582    -3.008582   -2.6137529 -0.0042564504    -3.008582   0.39482908   197013 
19050000   0.16707637   -3.0087023   -3.0087023   -2.6122472 -0.008534231   -3.0087023   0.39645508   196896 
19060000   0.16635021   -3.0087856   -3.0087856   -2.6138169 -0.009419656   -3.0087856   0.39496867   196778 
19070000   0.16612677   -3.0094279   -3.0094279   -2.6147551 0.0045738977   -3.0094279   0.39467281   196661 
19080000   0.16641445   -3.0098944   -3.0098944   -2.6143007 -0.0033574392   -3.0098944   0.39559365   196543 
19090000   0.16609028   -3.0096664   -3.0096664   -2.6146062   0.01023322   -3.0096664   0.39506021   196425 
19100000   0.16576349   -3.0089054   -3.0089054   -2.6143875 0.0014583059   -3.0089054   0.39451791   196308 
19110000   0.16555804   -3.0094529   -3.0094529    -2.615187  0.001238097   -3.0094529   0.39426595   196190 
19120000   0.16524026   -3.0097864   -3.0097864   -2.6160404 0.0023866915   -3.0097864   0.39374598   196072 
19130000   0.16428646   -3.0100841   -3.0100841   -2.6183772  -0.00785153   -3.0100841   0.39170694   195955 
19140000   0.16475286   -3.0114746   -3.0114746   -2.6184189 0.0014182551   -3.0114746   0.39305566   195837 
19150000   0.16372196   -3.0121429   -3.0121429   -2.6213112 -0.0049899715   -3.0121429    0.3908317   195719 
19160000   0.16379298   -3.0123778   -3.0123778   -2.6211427 -0.010841308   -3.0123778   0.39123512   195602 
19170000    0.1638349   -3.0130682   -3.0130682   -2.6214967 -0.0018080669   -3.0130682   0.39157147   195484 
19180000   0.16272004   -3.0111355   -3.0111355   -2.6219937 -0.0080586116   -3.0111355   0.38914181   195366 
19190000   0.16368281   -3.0136112   -3.0136112   -2.6219324 0.0030108091   -3.0136112   0.39167882   195249 
19200000   0.16257288   -3.0121535   -3.0121535   -2.6228954 -0.010542321   -3.0121535   0.38925811   195131 
19210000   0.16266268   -3.0150007   -3.0150007   -2.6252919 -0.005902533   -3.0150007    0.3897088   195013 
19220000   0.16311558   -3.0162277   -3.0162277   -2.6251993 -0.0015247369   -3.0162277   0.39102846   194896 
19230000    0.1619425   -3.0131419   -3.0131419   -2.6246904 -0.018554013   -3.0131419   0.38845148   194778 
19240000   0.16241275   -3.0157169   -3.0157169   -2.6259033 0.0024285176   -3.0157169   0.38981363   194661 
19250000   0.16152239   -3.0150727   -3.0150727   -2.6271609 -0.0057240712   -3.0150727   0.38791177   194543 
19260000   0.16183169   -3.0145961   -3.0145961   -2.6257057 0.0058722836   -3.0145961   0.38889047   194425 
19270000   0.16224591   -3.0157081   -3.0157081   -2.6255875 -0.0026857409   -3.0157081   0.39012064   194308 
19280000   0.16156419   -3.0152436   -3.0152436   -2.6265261 -0.0073599185   -3.0152436   0.38871751   194190 
19290000   0.16159151   -3.0187213   -3.0187213   -2.6297017 0.0064715886   -3.0187213   0.38901962   194072 
19300000   0.16132355   -3.0178811   -3.0178811   -2.6292723 0.00079666766   -3.0178811    0.3886088   193955 
19310000   0.16082816   -3.0173594   -3.0173594   -2.6297081 0.0023596055   -3.0173594   0.38765131   193837 
19320000   0.15998303   -3.0199869   -3.0199869   -2.6341378 -0.0055698394   -3.0199869   0.38584916   193719 
19330000   0.16044633   -3.0177827   -3.0177827   -2.6305823 -0.014880422   -3.0177827   0.38720041   193602 
19340000   0.15997858   -3.0193666   -3.0193666   -2.6330595 -0.0061673505   -3.0193666   0.38630704   193484 
19350000   0.16032727   -3.0218956   -3.0218956   -2.6345103 -0.00097795798   -3.0218956    0.3873853   193366 
19360000   0.15933009   -3.0196888   -3.0196888   -2.6344798 -0.003468996   -3.0196888   0.38520896   193249 
19370000   0.15852875   -3.0222862   -3.0222862   -2.6387804 -0.011151007   -3.0222862   0.38350576   193131 
19380000   0.15811414   -3.0213586   -3.0213586    -2.638622 -0.011061071   -3.0213586    0.3827366   193013 
19390000   0.15829951   -3.0220334   -3.0220334   -2.6386157 -0.0010112677   -3.0220334   0.38341774   192896 
19400000   0.15768987   -3.0219911   -3.0219911   -2.6398162 -0.0056476432   -3.0219911    0.3821749   192778 
19410000   0.15757325   -3.0248584   -3.0248584   -2.6427343  0.007625987   -3.0248584   0.38212418   192661 
19420000   0.15740056   -3.0238222   -3.0238222   -2.6418829 -0.0016129764   -3.0238222   0.38193932   192543 
19430000     0.157099   -3.0243346   -3.0243346   -2.6428933 -0.0037366513   -3.0243346   0.38144135   192425 
19440000   0.15680674   -3.0231057   -3.0231057   -2.6421423 -0.006863511   -3.0231057   0.38096336   192308 
19450000   0.15701226   -3.0233907   -3.0233907   -2.6416938 -0.0075819756   -3.0233907    0.3816969   192190 
19460000   0.15748871   -3.0230915   -3.0230915   -2.6400011 0.0019663431   -3.0230915   0.38309035   192072 
19470000   0.15675071   -3.0238151   -3.0238151   -2.6422876 -0.005430293   -3.0238151   0.38152757   191955 
19480000   0.15661135    -3.021034    -3.021034   -2.6396111 -0.0021590126    -3.021034   0.38142284   191837 
19490000   0.15641296   -3.0232768   -3.0232768   -2.6421026 -0.0086522741   -3.0232768   0.38117415   191719 
19500000    0.1559764   -3.0221425   -3.0221425   -2.6418001  -0.01010532   -3.0221425   0.38034237   191602 
19510000    0.1554605   -3.0233083   -3.0233083   -2.6439903 -0.0099645398   -3.0233083   0.37931797   191484 
19520000    0.1560374   -3.0240344   -3.0240344   -2.6430741 0.0018945821   -3.0240344   0.38096034   191366 
19530000   0.15555308    -3.023282    -3.023282   -2.6432717 -0.0064913122    -3.023282   0.38001023   191249 
19540000   0.15551352   -3.0248655   -3.0248655   -2.6447174 -0.00010205233   -3.0248655   0.38014815   191131 
19550000   0.15533816   -3.0249598   -3.0249598   -2.6450058  0.003214098   -3.0249598   0.37995404   191013 
19560000   0.15472326   -3.0244729   -3.0244729   -2.6457909 -0.0040637047   -3.0244729   0.37868197   190896 
19570000   0.15345356   -3.0249832   -3.0249832   -2.6491765 -0.0063941793   -3.0249832   0.37580671   190778 
19580000   0.15338268   -3.0222058   -3.0222058   -2.6463422 -0.0033729407   -3.0222058   0.37586364   190661 
19590000   0.15380006   -3.0248959   -3.0248959   -2.6477761 -0.0086426783   -3.0248959   0.37711982   190543 
19600000   0.15356292   -3.0245061   -3.0245061   -2.6477345 -0.0051205645   -3.0245061   0.37677166   190425 
19610000   0.15312278   -3.0268124   -3.0268124   -2.6508897  0.011233152   -3.0268124   0.37592274   190308 
19620000    0.1528425   -3.0236035   -3.0236035    -2.648136 -0.0016052971   -3.0236035   0.37546747   190190 
19630000   0.15290177   -3.0240508   -3.0240508   -2.6482045 0.00035851676   -3.0240508   0.37584625   190072 
19640000   0.15239353   -3.0251652   -3.0251652   -2.6503375  -0.00571372   -3.0251652   0.37482768   189955 
19650000    0.1522565    -3.023769    -3.023769   -2.6490456  -0.00672315    -3.023769    0.3747234   189837 
19660000   0.15175865   -3.0233254   -3.0233254   -2.6495949 -0.0064474391   -3.0233254   0.37373044   189719 
19670000   0.15189835    -3.020872    -3.020872   -2.6465667 0.0016651341    -3.020872    0.3743053   189602 
19680000   0.15137668   -3.0229437   -3.0229437   -2.6496916 0.0047061358   -3.0229437   0.37325212   189484 
19690000   0.15158583   -3.0255873   -3.0255873   -2.6515865 -0.010598833   -3.0255873   0.37400073   189366 
19700000   0.15155336   -3.0264674   -3.0264674   -2.6523156 0.00030503167   -3.0264674   0.37415179   189249 
19710000   0.15097922    -3.025892    -3.025892   -2.6529251 -0.006771981    -3.025892   0.37296692   189131 
19720000   0.15106032   -3.0256172   -3.0256172   -2.6522169 0.0053352071   -3.0256172   0.37340021   189013 
19730000   0.15096961   -3.0252443   -3.0252443   -2.6518372 -0.0054891302   -3.0252443   0.37340714   188896 
19740000   0.15052563    -3.025582    -3.025582   -2.6530403 -0.0027154899    -3.025582   0.37254174   188778 
19750000   0.15040701   -3.0267979   -3.0267979   -2.6543189 -0.0031888287   -3.0267979     0.372479   188661 
19760000   0.15017173    -3.025669    -3.025669   -2.6535399 -0.0086404965    -3.025669    0.3721291   188543 
19770000   0.15012293   -3.0273253   -3.0273253   -2.6550842 0.0068681221   -3.0273253   0.37224112   188425 
19780000   0.14938325   -3.0239155   -3.0239155   -2.6532784 -0.0099467838   -3.0239155   0.37063717   188308 
19790000   0.14945583   -3.0255798   -3.0255798     -2.65453 0.0018758462   -3.0255798   0.37104976   188190 
19800000   0.14893688   -3.0263283   -3.0263283   -2.6563349 -0.011916076   -3.0263283   0.36999337   188072 
19810000   0.14846042   -3.0245098   -3.0245098   -2.6554704 -0.010044864   -3.0245098   0.36903934   187955 
19820000   0.14904491   -3.0262269   -3.0262269    -2.655502 -0.0094796379   -3.0262269   0.37072499   187837 
19830000   0.14868141   -3.0257405   -3.0257405   -2.6556872 -0.010726632   -3.0257405    0.3700533   187719 
19840000   0.14825263   -3.0266208   -3.0266208   -2.6574046 -0.0024012803   -3.0266208   0.36921624   187602 
19850000   0.14822824   -3.0274586   -3.0274586   -2.6580707 -0.0051173966   -3.0274586   0.36938782   187484 
19860000   0.14786049   -3.0290424   -3.0290424    -2.660339 -0.0030272921   -3.0290424   0.36870345   187366 
19870000   0.14685864   -3.0288582   -3.0288582   -2.6624241 -0.0060416097   -3.0288582   0.36643408   187249 
19880000   0.14721188   -3.0281145   -3.0281145   -2.6605674 -0.0026247149   -3.0281145   0.36754708   187131 
19890000     0.147031    -3.028855    -3.028855   -2.6615279 -0.0031003469    -3.028855   0.36732709   187013 
19900000   0.14724356   -3.0282128   -3.0282128   -2.6601244 -0.0089567006   -3.0282128   0.36808843   186896 
19910000   0.14638204   -3.0260125   -3.0260125   -2.6598466 -0.0064856097   -3.0260125   0.36616593   186778 
19920000   0.14668255   -3.0263037   -3.0263037   -2.6591561 -0.0016549904   -3.0263037   0.36714761   186661 
19930000   0.14690455   -3.0299578   -3.0299578    -2.662022 -0.0049271743   -3.0299578   0.36793588   186543 
19940000   0.14573964    -3.027143    -3.027143   -2.6618937 -0.0099305127    -3.027143   0.36524931   186425 
19950000   0.14615691       -3.028       -3.028   -2.6614749 -0.0023612279       -3.028   0.36652508   186308 
19960000   0.14600818   -3.0275498   -3.0275498   -2.6611656 0.0013601601   -3.0275498   0.36638417   186190 
19970000   0.14485865   -3.0277414   -3.0277414   -2.6640113 -0.0012015161   -3.0277414   0.36373012   186072 
19980000   0.14574686     -3.03002     -3.03002   -2.6638294 0.0015599887     -3.03002    0.3661906   185955 
19990000   0.14502561   -3.0287557   -3.0287557   -2.6641458 -0.0068755327   -3.0287557   0.36460982   185837 
20000000     0.144629   -3.0247634   -3.0247634   -2.6609197 -0.0033145516   -3.0247634   0.36384374   185719 
20010000   0.14527095   -3.0277198   -3.0277198   -2.6620307 -0.0056576761   -3.0277198   0.36568905   185602 
20020000   0.14463597   -3.0276981   -3.0276981   -2.6633759 -0.0048928027   -3.0276981   0.36432227   185484 
20030000   0.14440756   -3.0277079   -3.0277079   -2.6637295 -0.011313651   -3.0277079   0.36397847   185366 
20040000    0.1432649   -3.0286409   -3.0286409   -2.6673145 -0.0063699328   -3.0286409   0.36132647   185249 
20050000   0.14347988   -3.0294867   -3.0294867   -2.6673874 -0.0095915572   -3.0294867   0.36209931   185131 
20060000   0.14306937   -3.0290176   -3.0290176    -2.667724 -0.0036400739   -3.0290176    0.3612936   185013 
20070000   0.14298071   -3.0293458   -3.0293458   -2.6680476 -0.0031487001   -3.0293458   0.36129818   184896 
20080000    0.1423397    -3.029381    -3.029381   -2.6694729  0.002874708    -3.029381   0.3