LAMMPS (29 Oct 2020)
  using 1 OpenMP thread(s) per MPI task
Created orthogonal box = (0.0000000 0.0000000 0.0000000) to (80.000000 80.000000 160.00000)
  2 by 4 by 8 MPI processor grid
Lattice spacing in x,y,z = 1.1485556 1.1485556 1.1485556
Created 421400 atoms
  create_atoms CPU = 0.020 seconds
Lattice spacing in x,y,z = 2.8114422 2.8114422 2.8114422
Created 17661 atoms
  create_atoms CPU = 0.006 seconds
439061 atoms in group solvent
System init for delete_atoms ...
Neighbor list info ...
  update every 1 steps, delay 10 steps, check yes
  max neighbors/atom: 2000, page size: 100000
  master list distance cutoff = 2.9
  ghost atom cutoff = 2.9
  binsize = 1.45, bins = 56 56 111
  2 neighbor lists, perpetual/occasional/extra = 1 1 0
  (1) command delete_atoms, occasional
      attributes: full, newton on
      pair build: full/bin
      stencil: full/bin/3d
      bin: standard
  (2) pair lj/cut/opt, perpetual
      attributes: half, newton on
      pair build: half/bin/newton
      stencil: half/bin/3d/newton
      bin: standard
WARNING: Ignoring 'compress yes' for molecular system (src/delete_atoms.cpp:125)
Deleted 0 atoms, new total = 439061
Balancing ...
Neighbor list info ...
  update every 1 steps, delay 10 steps, check yes
  max neighbors/atom: 2000, page size: 100000
  master list distance cutoff = 2.9
  ghost atom cutoff = 2.9
  binsize = 1.45, bins = 56 56 111
  1 neighbor lists, perpetual/occasional/extra = 1 0 0
  (1) pair lj/cut/opt, perpetual
      attributes: half, newton on
      pair build: half/bin/newton
      stencil: half/bin/3d/newton
      bin: standard
 rebalancing time: 0.043 seconds
  iteration count = 5
  initial/final maximal load/proc = 11340.000 8190.0000
  initial/final imbalance factor  = 1.6529822 1.1938204
  x cuts: 0.0000000 0.5 1.0000000
  y cuts: 0.0000000 0.25 0.5 0.75 1.0000000
  z cuts: 0.0000000 0.08984375 0.17578125 0.25390625 0.3359375 0.4140625 0.50390625 0.58203125 1.0000000
dynamic group thermo defined
New timer settings: style=full  mode=nosync  timeout=off
Setting up Verlet run ...
  Unit style    : lj
  Current step  : 0
  Time step     : 0.005
Per MPI rank memory allocation (min/avg/max) = 11.32 | 15.17 | 18.40 Mbytes
Step Temp E_pair E_vdwl TotEng Press PotEng KinEng Atoms 
       0         0.85   -1.2273921   -1.2273921  0.047605043    3.9963079   -1.2273921    1.2749971   439061 
    1000     1.897494   -3.2831734   -3.2831734  -0.43693895    1.9484033   -3.2831734    2.8462345   439061 
    2000     1.770548   -3.2797313   -3.2797313  -0.62391538    1.0939072   -3.2797313    2.6558159   439061 
    3000    1.5837989   -3.1646313   -3.1646313  -0.78893836   0.75340687   -3.1646313     2.375693   439061 
    4000    1.4929075    -3.144594    -3.144594  -0.90523779   0.58167442    -3.144594    2.2393562   439061 
    5000    1.4371282   -3.1199048   -3.1199048  -0.96421749   0.46105024   -3.1199048    2.1556873   439061 
    6000    1.3970666    -3.078405    -3.078405  -0.98280998    0.3499985    -3.078405    2.0955951   439061 
    7000    1.3698116   -3.0382347   -3.0382347  -0.98352197   0.31040627   -3.0382347    2.0547127   439061 
    8000    1.3550574   -3.0129486   -3.0129486  -0.98036713   0.32986013   -3.0129486    2.0325815   439061 
    9000    1.3609069   -3.0182067   -3.0182067  -0.97685092   0.38558735   -3.0182067    2.0413557   439061 
   10000    1.3743909    -3.038043    -3.038043  -0.97646139   0.42019042    -3.038043    2.0615817   439061 
   11000    1.3840547   -3.0543386   -3.0543386  -0.97826122   0.45572537   -3.0543386    2.0760773   439061 
   12000    1.3856898   -3.0611745   -3.0611745  -0.98264453   0.45973882   -3.0611745      2.07853   439061 
   13000    1.3795887    -3.055621    -3.055621  -0.98624272   0.45695114    -3.055621    2.0693783   439061 
   14000      1.36615   -3.0386289   -3.0386289   -0.9894086   0.43220713   -3.0386289    2.0492203   439061 
   15000    1.3436553   -3.0073747   -3.0073747  -0.99189629   0.38670362   -3.0073747    2.0154784   439061 
   16000     1.320353   -2.9729237   -2.9729237  -0.99239871   0.34613945   -2.9729237     1.980525   439061 
   17000     1.302183   -2.9477312   -2.9477312  -0.99446119   0.32510973   -2.9477312    1.9532701   439061 
   18000     1.287452   -2.9292799   -2.9292799  -0.99810635   0.31990945   -2.9292799    1.9311736   439061 
   19000    1.2780437      -2.9254      -2.9254   -1.0083387   0.33585857      -2.9254    1.9170612   439061 
   20000    1.2659243    -2.935017    -2.935017   -1.0361349   0.36237115    -2.935017    1.8988821   439061 
   21000    1.2514998   -2.9452829   -2.9452829   -1.0680374   0.36356203   -2.9452829    1.8772455   439061 
   22000    1.2351237   -2.9497937   -2.9497937   -1.0971123   0.34513447   -2.9497937    1.8526814   439061 
   23000    1.2248939   -2.9553998   -2.9553998   -1.1180631   0.33248287   -2.9553998    1.8373367   439061 
   24000    1.2174514   -2.9646391   -2.9646391   -1.1384662   0.33258383   -2.9646391    1.8261729   439061 
   25000    1.2131113   -2.9773688   -2.9773688   -1.1577059   0.34080192   -2.9773688    1.8196629   439061 
   26000    1.2095091   -2.9914468   -2.9914468   -1.1771874    0.3416709   -2.9914468    1.8142595   439061 
   27000    1.2044532   -3.0013388   -3.0013388   -1.1946631   0.33734008   -3.0013388    1.8066757   439061 
   28000    1.1973059   -3.0034774   -3.0034774   -1.2075227   0.32830076   -3.0034774    1.7959547   439061 
   29000    1.1886968   -3.0035799   -3.0035799   -1.2205388   0.30967411   -3.0035799    1.7830411   439061 
   30000    1.1775213   -2.9991128   -2.9991128   -1.2328349   0.29900285   -2.9991128    1.7662779   439061 
   31000    1.1699904   -2.9983164   -2.9983164   -1.2433348   0.28508075   -2.9983164    1.7549816   439061 
   32000    1.1600456   -2.9926596   -2.9926596   -1.2525952   0.26609862   -2.9926596    1.7400645   439061 
   33000    1.1481034   -2.9806581   -2.9806581   -1.2585069   0.25661472   -2.9806581    1.7221512   439061 
   34000    1.1412127   -2.9780205   -2.9780205   -1.2662052   0.23323535   -2.9780205    1.7118152   439061 
   35000    1.1267032    -2.963068    -2.963068   -1.2730171   0.21820166    -2.963068     1.690051   439061 
   36000    1.1185816   -2.9548807   -2.9548807   -1.2770121    0.2005628   -2.9548807    1.6778686   439061 
   37000     1.110569    -2.946879    -2.946879   -1.2810294   0.18662421    -2.946879    1.6658497   439061 
   38000    1.1049677   -2.9416911   -2.9416911   -1.2842433   0.17851138   -2.9416911    1.6574478   439061 
   39000    1.1025631   -2.9391122   -2.9391122   -1.2852713   0.17343046   -2.9391122    1.6538409   439061 
   40000    1.0982375   -2.9363699   -2.9363699   -1.2890174   0.16835563   -2.9363699    1.6473525   439061 
   41000    1.0970545   -2.9359375   -2.9359375   -1.2903595   0.17370578   -2.9359375     1.645578   439061 
   42000    1.0963943   -2.9366383   -2.9366383   -1.2920506   0.16794026   -2.9366383    1.6445878   439061 
   43000    1.0934356   -2.9336729   -2.9336729   -1.2935232   0.16434079   -2.9336729    1.6401497   439061 
   44000    1.0930299    -2.935439    -2.935439   -1.2958979   0.16262254    -2.935439    1.6395411   439061 
   45000    1.0942674   -2.9391944   -2.9391944    -1.297797   0.16342648   -2.9391944    1.6413974   439061 
   46000    1.0923677   -2.9378287   -2.9378287   -1.2992809    0.1657929   -2.9378287    1.6385478   439061 
   47000    1.0930229   -2.9409768   -2.9409768   -1.3014462   0.16481392   -2.9409768    1.6395307   439061 
   48000    1.0919885   -2.9422541   -2.9422541    -1.304275   0.16345904   -2.9422541     1.637979   439061 
   49000    1.0900516   -2.9425532   -2.9425532   -1.3074796   0.16165964   -2.9425532    1.6350736   439061 
   50000    1.0897304   -2.9428558   -2.9428558   -1.3082639   0.16071024   -2.9428558    1.6345919   439061 
   51000    1.0890469   -2.9430677   -2.9430677    -1.309501   0.15022937   -2.9430677    1.6335667   439061 
   52000    1.0833096   -2.9388743   -2.9388743   -1.3139137   0.15227054   -2.9388743    1.6249606   439061 
   53000    1.0818014   -2.9392929   -2.9392929   -1.3165945   0.14575568   -2.9392929    1.6226985   439061 
   54000    1.0784328   -2.9379629   -2.9379629   -1.3203174   0.14747804   -2.9379629    1.6176455   439061 
   55000    1.0770415   -2.9408436   -2.9408436    -1.325285   0.15221751   -2.9408436    1.6155586   439061 
   56000    1.0757581   -2.9453226   -2.9453226   -1.3316892   0.15296775   -2.9453226    1.6136334   439061 
   57000    1.0756263   -2.9517242   -2.9517242   -1.3382883   0.15581156   -2.9517242    1.6134358   439061 
   58000    1.0744332   -2.9591702   -2.9591702   -1.3475241   0.16363609   -2.9591702    1.6116461   439061 
   59000    1.0740343   -2.9662351   -2.9662351   -1.3551873   0.16688946   -2.9662351    1.6110478   439061 
   60000    1.0719691   -2.9688217   -2.9688217   -1.3608718   0.16480648   -2.9688217    1.6079499   439061 
   61000    1.0721889   -2.9752412   -2.9752412   -1.3669614   0.16419326   -2.9752412    1.6082797   439061 
   62000    1.0716451   -2.9795881   -2.9795881    -1.372124   0.16774072   -2.9795881    1.6074641   439061 
   63000     1.071038   -2.9845941   -2.9845941   -1.3780408   0.16290317   -2.9845941    1.6065533   439061 
   64000    1.0704932   -2.9887983   -2.9887983   -1.3830622   0.16154974   -2.9887983    1.6057361   439061 
   65000    1.0681017   -2.9905783   -2.9905783   -1.3884294   0.16351099   -2.9905783    1.6021489   439061 
   66000    1.0677948   -2.9923118   -2.9923118   -1.3906232   0.16681625   -2.9923118    1.6016885   439061 
   67000    1.0681609   -2.9982908   -2.9982908   -1.3960531    0.1648075   -2.9982908    1.6022377   439061 
   68000    1.0657606   -2.9993784   -2.9993784   -1.4007412   0.15836448   -2.9993784    1.5986372   439061 
   69000    1.0644065   -3.0016844   -3.0016844   -1.4050783   0.16100781   -3.0016844     1.596606   439061 
   70000    1.0625931   -3.0033143   -3.0033143   -1.4094284   0.15960232   -3.0033143     1.593886   439061 
   71000     1.059845   -3.0020729   -3.0020729    -1.412309   0.15203853   -3.0020729    1.5897638   439061 
   72000    1.0581088   -3.0020395   -3.0020395   -1.4148799   0.14716004   -3.0020395    1.5871596   439061 
   73000    1.0536955   -2.9986734   -2.9986734   -1.4181338   0.15197585   -2.9986734    1.5805397   439061 
   74000    1.0507668   -2.9991486   -2.9991486    -1.423002   0.13744382   -2.9991486    1.5761466   439061 
   75000    1.0483869   -2.9982319   -2.9982319    -1.425655    0.1329717   -2.9982319    1.5725768   439061 
   76000     1.044835   -2.9949339   -2.9949339    -1.427685   0.13415785   -2.9949339    1.5672489   439061 
   77000    1.0413778   -2.9934383   -2.9934383   -1.4313751   0.12596184   -2.9934383    1.5620631   439061 
   78000    1.0392613   -2.9918672   -2.9918672   -1.4329788   0.12545023   -2.9918672    1.5588883   439061 
   79000    1.0381286   -2.9923435   -2.9923435   -1.4351542   0.12471469   -2.9923435    1.5571893   439061 
   80000    1.0346899   -2.9897196   -2.9897196   -1.4376883   0.11451985   -2.9897196    1.5520313   439061 
   81000    1.0335103   -2.9890235   -2.9890235   -1.4387615   0.11567155   -2.9890235     1.550262   439061 
   82000    1.0318789   -2.9885824   -2.9885824   -1.4407675   0.11405153   -2.9885824    1.5478149   439061 
   83000    1.0294007   -2.9863803   -2.9863803   -1.4422828   0.11445807   -2.9863803    1.5440975   439061 
   84000    1.0314636   -2.9903795   -2.9903795   -1.4431876   0.10748489   -2.9903795    1.5471919   439061 
   85000    1.0296147   -2.9899226   -2.9899226    -1.445504    0.1063651   -2.9899226    1.5444186   439061 
   86000    1.0285094   -2.9908227   -2.9908227   -1.4480622   0.10581771   -2.9908227    1.5427605   439061 
   87000    1.0288436   -2.9919746   -2.9919746   -1.4487128   0.10854624   -2.9919746    1.5432619   439061 
   88000    1.0278552   -2.9925171   -2.9925171   -1.4507379   0.10037135   -2.9925171    1.5417792   439061 
   89000    1.0291278   -2.9950964   -2.9950964   -1.4514081   0.10132474   -2.9950964    1.5436882   439061 
   90000    1.0273709   -2.9939261   -2.9939261   -1.4528733   0.10727404   -2.9939261    1.5410528   439061 
   91000    1.0276902   -2.9970005   -2.9970005   -1.4554687    0.1077019   -2.9970005    1.5415318   439061 
   92000    1.0280745   -2.9985731   -2.9985731   -1.4564649   0.10959448   -2.9985731    1.5421083   439061 
   93000    1.0276522   -3.0009871   -3.0009871   -1.4595123   0.10600652   -3.0009871    1.5414748   439061 
   94000    1.0251602   -2.9999245   -2.9999245   -1.4621877   0.10894941   -2.9999245    1.5377368   439061 
   95000    1.0259331   -3.0044806   -3.0044806   -1.4655846   0.10887844   -3.0044806    1.5388961   439061 
   96000    1.0269458   -3.0074079   -3.0074079   -1.4669928   0.10970857   -3.0074079    1.5404151   439061 
   97000    1.0268624   -3.0112151   -3.0112151    -1.470925   0.10880916   -3.0112151    1.5402901   439061 
   98000    1.0265682   -3.0149216   -3.0149216   -1.4750727   0.11104449   -3.0149216    1.5398488   439061 
   99000    1.0260923    -3.017726    -3.017726    -1.478591   0.10888667    -3.017726     1.539135   439061 
  100000    1.0253845   -3.0191997   -3.0191997   -1.4811265   0.11413664   -3.0191997    1.5380732   439061 
  101000    1.0250025   -3.0228181   -3.0228181   -1.4853179   0.11128273   -3.0228181    1.5375002   439061 
  102000    1.0246198   -3.0259281   -3.0259281   -1.4890019   0.11686029   -3.0259281    1.5369262   439061 
  103000    1.0237122   -3.0283551   -3.0283551   -1.4927902   0.11441182   -3.0283551    1.5355649   439061 
  104000    1.0246395   -3.0326259   -3.0326259   -1.4956702   0.11581591   -3.0326259    1.5369557   439061 
  105000    1.0217905   -3.0312355   -3.0312355   -1.4985532   0.11193046   -3.0312355    1.5326822   439061 
  106000    1.0224146   -3.0353482   -3.0353482   -1.5017298   0.11364945   -3.0353482    1.5336183   439061 
  107000    1.0229024   -3.0372223   -3.0372223   -1.5028722   0.11714889   -3.0372223    1.5343501   439061 
  108000     1.021949   -3.0398496   -3.0398496   -1.5069296   0.11882639   -3.0398496      1.53292   439061 
  109000    1.0224361   -3.0447287   -3.0447287    -1.511078   0.11617067   -3.0447287    1.5336507   439061 
  110000    1.0217354   -3.0458279   -3.0458279   -1.5132283    0.1130916   -3.0458279    1.5325996   439061 
  111000     1.021712   -3.0474941   -3.0474941   -1.5149297   0.11488686   -3.0474941    1.5325645   439061 
  112000    1.0213886   -3.0495338   -3.0495338   -1.5174544   0.11690813   -3.0495338    1.5320794   439061 
  113000    1.0191606   -3.0491027   -3.0491027   -1.5203654   0.11928208   -3.0491027    1.5287373   439061 
  114000    1.0186931    -3.052587    -3.052587   -1.5245508   0.11697253    -3.052587    1.5280362   439061 
  115000    1.0189745   -3.0551512   -3.0551512   -1.5266928   0.10885452   -3.0551512    1.5284583   439061 
  116000    1.0172325   -3.0561476   -3.0561476   -1.5303024   0.10572299   -3.0561476    1.5258452   439061 
  117000    1.0148558   -3.0546665   -3.0546665   -1.5323863   0.11193554   -3.0546665    1.5222802   439061 
  118000    1.0164121   -3.0585887   -3.0585887    -1.533974   0.10934031   -3.0585887    1.5246146   439061 
  119000    1.0143058   -3.0569177   -3.0569177   -1.5354624   0.10800117   -3.0569177    1.5214552   439061 
  120000    1.0125527    -3.056467    -3.056467   -1.5376415   0.10896039    -3.056467    1.5188255   439061 
  121000    1.0113586   -3.0568511   -3.0568511   -1.5398166   0.10211594   -3.0568511    1.5170345   439061 
  122000    1.0115887   -3.0591249   -3.0591249   -1.5417452   0.10376197   -3.0591249    1.5173796   439061 
  123000     1.011579   -3.0598932   -3.0598932   -1.5425281   0.10073486   -3.0598932    1.5173651   439061 
  124000    1.0110206   -3.0592978   -3.0592978   -1.5427704   0.10001106   -3.0592978    1.5165274   439061 
  125000    1.0101774   -3.0598297   -3.0598297   -1.5445669   0.10174711   -3.0598297    1.5152627   439061 
  126000     1.007709   -3.0583149   -3.0583149   -1.5467548   0.10144203   -3.0583149    1.5115601   439061 
  127000    1.0073073   -3.0583122   -3.0583122   -1.5473547  0.094366934   -3.0583122    1.5109575   439061 
  128000    1.0051697   -3.0565346   -3.0565346   -1.5487835  0.095445174   -3.0565346    1.5077511   439061 
  129000    1.0057691   -3.0591137   -3.0591137   -1.5504635  0.095316898   -3.0591137    1.5086503   439061 
  130000    1.0047329   -3.0589696   -3.0589696   -1.5518737  0.093524386   -3.0589696     1.507096   439061 
  131000    1.0046821   -3.0610427   -3.0610427    -1.554023  0.092098917   -3.0610427    1.5070197   439061 
  132000    1.0044153   -3.0630148   -3.0630148   -1.5563952   0.09426046   -3.0630148    1.5066196   439061 
  133000    1.0051582   -3.0669192   -3.0669192   -1.5591854  0.092680585   -3.0669192    1.5077338   439061 
  134000     1.004353   -3.0662855   -3.0662855   -1.5597594  0.096081432   -3.0662855    1.5065261   439061 
  135000    1.0049517    -3.067781    -3.067781   -1.5603568   0.10328079    -3.067781    1.5074241   439061 
  136000    1.0038905   -3.0698808   -3.0698808   -1.5640485  0.098042183   -3.0698808    1.5058324   439061 
  137000    1.0030134   -3.0693604   -3.0693604   -1.5648438  0.092267225   -3.0693604    1.5045166   439061 
  138000    1.0031288   -3.0726208   -3.0726208   -1.5679311  0.092674032   -3.0726208    1.5046897   439061 
  139000    1.0030371   -3.0744071   -3.0744071   -1.5698549  0.094928067   -3.0744071    1.5045522   439061 
  140000    1.0016284   -3.0743769   -3.0743769   -1.5719378  0.090311219   -3.0743769    1.5024391   439061 
  141000    1.0014048   -3.0755613   -3.0755613   -1.5734575  0.092649983   -3.0755613    1.5021038   439061 
  142000    0.9994582   -3.0757592   -3.0757592   -1.5765753  0.090811416   -3.0757592    1.4991839   439061 
  143000    1.0002836   -3.0791619   -3.0791619   -1.5787399  0.089281453   -3.0791619     1.500422   439061 
  144000    1.0010903    -3.082682    -3.082682     -1.58105  0.092421914    -3.082682     1.501632   439061 
  145000    1.0013273   -3.0846326   -3.0846326   -1.5826452  0.095344127   -3.0846326    1.5019875   439061 
  146000    1.0008457   -3.0881176   -3.0881176   -1.5868525  0.093061094   -3.0881176    1.5012651   439061 
  147000    1.0006367   -3.0894869   -3.0894869   -1.5885352  0.097437019   -3.0894869    1.5009517   439061 
  148000    1.0007779   -3.0916249   -3.0916249   -1.5904615  0.098976471   -3.0916249    1.5011634   439061 
  149000    1.0017073   -3.0952057   -3.0952057   -1.5926481  0.099047917   -3.0952057    1.5025576   439061 
  150000    1.0008971   -3.0960522   -3.0960522   -1.5947101   0.10053111   -3.0960522    1.5013422   439061 
  151000    1.0006879   -3.0963586   -3.0963586   -1.5953301   0.10081821   -3.0963586    1.5010285   439061 
  152000   0.99992925   -3.0989922   -3.0989922   -1.5991017  0.095681983   -3.0989922    1.4998905   439061 
  153000    0.9986374   -3.0997763   -3.0997763   -1.6018236  0.092322041   -3.0997763    1.4979527   439061 
  154000   0.99932483   -3.1025637   -3.1025637   -1.6035799  0.091797602   -3.1025637    1.4989838   439061 
  155000   0.99929557    -3.103812    -3.103812   -1.6048721  0.098090401    -3.103812    1.4989399   439061 
  156000   0.99889067   -3.1050496   -3.1050496    -1.606717  0.096196164   -3.1050496    1.4983326   439061 
  157000   0.99928814   -3.1079955   -3.1079955   -1.6090667  0.093097355   -3.1079955    1.4989288   439061 
  158000   0.99615533   -3.1059025   -3.1059025    -1.611673  0.093177055   -3.1059025    1.4942296   439061 
  159000   0.99785312   -3.1103806   -3.1103806   -1.6136044  0.094697834   -3.1103806    1.4967763   439061 
  160000   0.99770177   -3.1111538   -3.1111538   -1.6146045  0.099670223   -3.1111538    1.4965493   439061 
  161000     0.998618   -3.1133772   -3.1133772   -1.6154536  0.099649992   -3.1133772    1.4979236   439061 
  162000   0.99844022   -3.1135495   -3.1135495   -1.6158926  0.096294413   -3.1135495    1.4976569   439061 
  163000    0.9984446   -3.1169594   -3.1169594   -1.6192959  0.094931701   -3.1169594    1.4976635   439061 
  164000   0.99673156   -3.1150612   -3.1150612   -1.6199673   0.10008217   -3.1150612    1.4950939   439061 
  165000   0.99738402   -3.1168929   -3.1168929   -1.6208203  0.093861449   -3.1168929    1.4960726   439061 
  166000   0.99687703   -3.1177759   -3.1177759   -1.6224638  0.097480279   -3.1177759    1.4953121   439061 
  167000   0.99666863   -3.1199366   -3.1199366   -1.6249371  0.093255542   -3.1199366    1.4949995   439061 
  168000   0.99548167   -3.1210714   -3.1210714   -1.6278523  0.092212463   -3.1210714    1.4932191   439061 
  169000   0.99492885   -3.1213882   -3.1213882   -1.6289983  0.095006403   -3.1213882    1.4923899   439061 
  170000   0.99392621   -3.1225613   -3.1225613   -1.6316754  0.091754796   -3.1225613    1.4908859   439061 
  171000   0.99341158   -3.1234813   -3.1234813   -1.6333673  0.090854446   -3.1234813     1.490114   439061 
  172000   0.99268654   -3.1251376   -3.1251376   -1.6361112  0.092863529   -3.1251376    1.4890264   439061 
  173000    0.9929117   -3.1256895   -3.1256895   -1.6363253   0.08956903   -3.1256895    1.4893642   439061 
  174000   0.99144875   -3.1259689   -3.1259689   -1.6387992   0.08696729   -3.1259689    1.4871697   439061 
  175000   0.99054054   -3.1259873   -3.1259873   -1.6401798  0.088238717   -3.1259873    1.4858074   439061 
  176000   0.98943523   -3.1263031   -3.1263031   -1.6421536  0.086726885   -3.1263031    1.4841495   439061 
  177000   0.99160856   -3.1296246   -3.1296246   -1.6422152  0.088482692   -3.1296246    1.4874095   439061 
  178000   0.99056942   -3.1296325   -3.1296325   -1.6437817  0.091219986   -3.1296325    1.4858507   439061 
  179000    0.9906085    -3.132847    -3.132847   -1.6469376  0.092561031    -3.132847    1.4859094   439061 
  180000   0.98903377    -3.133476    -3.133476   -1.6499287  0.092246352    -3.133476    1.4835473   439061 
  181000   0.98810795   -3.1354908   -3.1354908   -1.6533323  0.083450071   -3.1354908    1.4821586   439061 
  182000    0.9887392   -3.1365122   -3.1365122   -1.6534067  0.088542602   -3.1365122    1.4831054   439061 
  183000   0.98885644   -3.1380225   -3.1380225   -1.6547412  0.088626467   -3.1380225    1.4832813   439061 
  184000   0.98753011   -3.1369461   -3.1369461   -1.6556543  0.088409404   -3.1369461    1.4812918   439061 
  185000    0.9877965   -3.1397473   -3.1397473   -1.6580559  0.086960056   -3.1397473    1.4816914   439061 
  186000   0.98690357   -3.1392478   -3.1392478   -1.6588958   0.08495255   -3.1392478     1.480352   439061 
  187000   0.98732725    -3.140058    -3.140058   -1.6590705  0.086310431    -3.140058    1.4809875   439061 
  188000   0.98789242   -3.1418234   -3.1418234   -1.6599882  0.089278418   -3.1418234    1.4818353   439061 
  189000   0.98800907   -3.1444371   -3.1444371   -1.6624269  0.086228746   -3.1444371    1.4820102   439061 
  190000   0.98765691   -3.1451996   -3.1451996   -1.6637176  0.086687583   -3.1451996     1.481482   439061 
  191000   0.98940024   -3.1488017   -3.1488017   -1.6647048  0.091199241   -3.1488017     1.484097   439061 
  192000   0.98729805   -3.1460703   -3.1460703   -1.6651266  0.085310652   -3.1460703    1.4809437   439061 
  193000   0.98645356   -3.1481786   -3.1481786   -1.6685016  0.087836954   -3.1481786     1.479677   439061 
  194000   0.98569562   -3.1482773   -3.1482773   -1.6697372  0.079835749   -3.1482773    1.4785401   439061 
  195000   0.98533426   -3.1496494   -3.1496494   -1.6716513  0.084248311   -3.1496494     1.477998   439061 
  196000   0.98351559   -3.1487708   -3.1487708   -1.6735008  0.085234448   -3.1487708      1.47527   439061 
  197000   0.98523406   -3.1522836   -3.1522836   -1.6744359   0.08416481   -3.1522836    1.4778477   439061 
  198000   0.98444681   -3.1522059   -3.1522059    -1.675539  0.086089546   -3.1522059    1.4766668   439061 
  199000   0.98727123    -3.158631    -3.158631   -1.6777276  0.080356728    -3.158631    1.4809035   439061 
  200000   0.98612101    -3.159156    -3.159156   -1.6799778  0.084263343    -3.159156    1.4791781   439061 
  201000   0.98595806   -3.1588245   -3.1588245   -1.6798908  0.093022342   -3.1588245    1.4789337   439061 
  202000   0.98555894   -3.1617796   -3.1617796   -1.6834446  0.084789693   -3.1617796     1.478335   439061 
  203000   0.98525863   -3.1624115   -3.1624115   -1.6845269  0.090960442   -3.1624115    1.4778846   439061 
  204000   0.98532457   -3.1646429   -3.1646429   -1.6866595  0.082413536   -3.1646429    1.4779835   439061 
  205000   0.98598688   -3.1680587   -3.1680587   -1.6890817  0.087015978   -3.1680587     1.478977   439061 
  206000   0.98575015   -3.1688882   -3.1688882   -1.6902663  0.088028499   -3.1688882    1.4786219   439061 
  207000   0.98455863   -3.1691694   -3.1691694   -1.6923348  0.084540079   -3.1691694    1.4768346   439061 
  208000   0.98499629   -3.1715922   -3.1715922   -1.6941012  0.080994995   -3.1715922    1.4774911   439061 
  209000   0.98157625   -3.1676479   -3.1676479   -1.6952869  0.086717532   -3.1676479     1.472361   439061 
  210000   0.98277758   -3.1709436   -3.1709436   -1.6967806  0.089022042   -3.1709436     1.474163   439061 
  211000     0.984181   -3.1739101   -3.1739101   -1.6976419   0.08599224   -3.1739101    1.4762681   439061 
  212000   0.98095083    -3.171679    -3.171679   -1.7002561  0.086025598    -3.171679    1.4714229   439061 
  213000   0.98123168   -3.1738014   -3.1738014   -1.7019572  0.087376122   -3.1738014    1.4718442   439061 
  214000    0.9829285   -3.1770988   -3.1770988   -1.7027094  0.086823917   -3.1770988    1.4743894   439061 
  215000   0.98261387   -3.1790852   -3.1790852   -1.7051677  0.086725137   -3.1790852    1.4739175   439061 
  216000   0.98368067   -3.1807998   -3.1807998   -1.7052821  0.087962051   -3.1807998    1.4755177   439061 
  217000   0.98269768   -3.1808529   -3.1808529   -1.7068098  0.082654784   -3.1808529    1.4740432   439061 
  218000   0.98106937   -3.1806031   -3.1806031   -1.7090024  0.080747846   -3.1806031    1.4716007   439061 
  219000     0.980855   -3.1818892   -3.1818892   -1.7106101  0.087303834   -3.1818892    1.4712791   439061 
  220000   0.98114938     -3.18447     -3.18447   -1.7127493  0.084002968     -3.18447    1.4717207   439061 
  221000   0.98029181   -3.1851186   -3.1851186   -1.7146843  0.084551849   -3.1851186    1.4704344   439061 
  222000   0.97923733   -3.1874245   -3.1874245   -1.7185718  0.080084509   -3.1874245    1.4688526   439061 
  223000   0.97824797   -3.1870046   -3.1870046    -1.719636  0.081547913   -3.1870046    1.4673686   439061 
  224000   0.97804554    -3.187027    -3.187027    -1.719962  0.082915787    -3.187027     1.467065   439061 
  225000   0.97974784   -3.1897069   -3.1897069   -1.7200885  0.082859427   -3.1897069    1.4696184   439061 
  226000   0.97742271   -3.1881979   -3.1881979   -1.7220672   0.08480743   -3.1881979    1.4661307   439061 
  227000   0.97765724   -3.1905652   -3.1905652   -1.7240827  0.080616599   -3.1905652    1.4664825   439061 
  228000   0.97807734   -3.1933376   -3.1933376    -1.726225  0.080453409   -3.1933376    1.4671127   439061 
  229000   0.97736101   -3.1931919   -3.1931919   -1.7271538   0.07912032   -3.1931919    1.4660382   439061 
  230000     0.977039   -3.1929832   -3.1929832    -1.727428  0.086761687   -3.1929832    1.4655552   439061 
  231000   0.97814821   -3.1976812   -3.1976812   -1.7304623  0.086057076   -3.1976812     1.467219   439061 
  232000   0.97890746   -3.1997894   -3.1997894   -1.7314315  0.084548505   -3.1997894    1.4683578   439061 
  233000   0.98061361    -3.202388    -3.202388    -1.731471  0.083878288    -3.202388    1.4709171   439061 
  234000   0.97983635   -3.2027559   -3.2027559   -1.7330047  0.086498647   -3.2027559    1.4697512   439061 
  235000   0.97903657   -3.2035567   -3.2035567   -1.7350052  0.089534967   -3.2035567    1.4685515   439061 
  236000   0.97765578   -3.2024743   -3.2024743    -1.735994  0.079348435   -3.2024743    1.4664803   439061 
  237000   0.97568913   -3.2022726   -3.2022726   -1.7387423  0.082069205   -3.2022726    1.4635304   439061 
  238000   0.97811859   -3.2051344   -3.2051344   -1.7379598  0.078150674   -3.2051344    1.4671745   439061 
  239000   0.97806477   -3.2063692   -3.2063692   -1.7392754   0.08359476   -3.2063692    1.4670938   439061 
  240000   0.97669952   -3.2066907   -3.2066907   -1.7416447  0.085520957   -3.2066907    1.4650459   439061 
  241000    0.9779949   -3.2099398   -3.2099398   -1.7429508  0.082450358   -3.2099398     1.466989   439061 
  242000   0.97592958   -3.2073158   -3.2073158   -1.7434248  0.085253562   -3.2073158     1.463891   439061 
  243000   0.97645767   -3.2098051   -3.2098051   -1.7451219   0.08094612   -3.2098051    1.4646832   439061 
  244000   0.97802633     -3.21386     -3.21386   -1.7468239  0.085861842     -3.21386    1.4670361   439061 
  245000   0.97827151   -3.2145647   -3.2145647   -1.7471608  0.084567701   -3.2145647    1.4674039   439061 
  246000   0.97676624   -3.2129746   -3.2129746   -1.7478286  0.088253134   -3.2129746     1.465146   439061 
  247000    0.9777907   -3.2158744   -3.2158744   -1.7491917   0.08408898   -3.2158744    1.4666827   439061 
  248000   0.97632724   -3.2148494   -3.2148494   -1.7503619  0.084667619   -3.2148494    1.4644875   439061 
  249000   0.97559222   -3.2150661   -3.2150661   -1.7516811  0.083316109   -3.2150661     1.463385   439061 
  250000   0.97515731   -3.2144312   -3.2144312   -1.7516986  0.088052132   -3.2144312    1.4627326   439061 
  251000   0.97637874   -3.2172182   -3.2172182   -1.7526534  0.082967983   -3.2172182    1.4645648   439061 
  252000   0.97569085   -3.2182688   -3.2182688   -1.7547358   0.08519067   -3.2182688    1.4635329   439061 
  253000   0.97442883   -3.2188346   -3.2188346   -1.7571947  0.083698795   -3.2188346    1.4616399   439061 
  254000   0.97474299    -3.220284    -3.220284   -1.7581729  0.084580045    -3.220284    1.4621111   439061 
  255000   0.97562966   -3.2230486   -3.2230486   -1.7596075  0.080799748   -3.2230486    1.4634412   439061 
  256000   0.97552174   -3.2229726   -3.2229726   -1.7596934  0.086292346   -3.2229726    1.4632793   439061 
  257000    0.9751734   -3.2238053   -3.2238053   -1.7610485  0.084189032   -3.2238053    1.4627568   439061 
  258000   0.97316818    -3.224174    -3.224174    -1.764425  0.080753267    -3.224174    1.4597489   439061 
  259000   0.97409702   -3.2269527   -3.2269527   -1.7658105  0.082808102   -3.2269527    1.4611422   439061 
  260000   0.97383927   -3.2278279   -3.2278279   -1.7670723  0.080820462   -3.2278279    1.4607556   439061 
  261000   0.97318202   -3.2298123   -3.2298123   -1.7700426  0.084100966   -3.2298123    1.4597697   439061 
  262000   0.97383792    -3.231248    -3.231248   -1.7704945  0.080244046    -3.231248    1.4607536   439061 
  263000    0.9729728   -3.2319692   -3.2319692   -1.7725134  0.080478801   -3.2319692    1.4594559   439061 
  264000    0.9747071   -3.2338193   -3.2338193    -1.771762  0.080442931   -3.2338193    1.4620573   439061 
  265000   0.97241286   -3.2325055   -3.2325055   -1.7738895  0.082954912   -3.2325055     1.458616   439061 
  266000   0.97296828   -3.2346755   -3.2346755   -1.7752264  0.085486851   -3.2346755    1.4594491   439061 
  267000   0.97359494   -3.2359545   -3.2359545   -1.7755654  0.075985445   -3.2359545    1.4603891   439061 
  268000   0.97404742   -3.2373221   -3.2373221   -1.7762543  0.085481549   -3.2373221    1.4610678   439061 
  269000   0.97457909   -3.2394349   -3.2394349   -1.7775696  0.083569868   -3.2394349    1.4618653   439061 
  270000   0.97405933   -3.2396596   -3.2396596    -1.778574  0.086159617   -3.2396596    1.4610857   439061 
  271000   0.97295997    -3.239904    -3.239904   -1.7804674  0.082798032    -3.239904    1.4594366   439061 
  272000   0.97353769   -3.2420929   -3.2420929   -1.7817897  0.086362692   -3.2420929    1.4603032   439061 
  273000   0.97300928   -3.2420403   -3.2420403   -1.7825297  0.080599184   -3.2420403    1.4595106   439061 
  274000   0.97217025   -3.2425992   -3.2425992   -1.7843472  0.084485716   -3.2425992    1.4582521   439061 
  275000   0.96996011   -3.2419864   -3.2419864   -1.7870496  0.079774132   -3.2419864    1.4549368   439061 
  276000   0.97100747   -3.2435918   -3.2435918   -1.7870839   0.07862901   -3.2435918    1.4565079   439061 
  277000   0.97232365   -3.2465298   -3.2465298   -1.7880477  0.078963599   -3.2465298    1.4584822   439061 
  278000    0.9719066   -3.2469172   -3.2469172   -1.7890606  0.076911214   -3.2469172    1.4578566   439061 
  279000   0.97152363   -3.2487212   -3.2487212   -1.7914391  0.079573578   -3.2487212    1.4572821   439061 
  280000   0.97136616   -3.2502149   -3.2502149    -1.793169  0.084794301   -3.2502149    1.4570459   439061 
  281000   0.97303548   -3.2526893   -3.2526893   -1.7931394  0.085588741   -3.2526893    1.4595499   439061 
  282000   0.97363837   -3.2548718   -3.2548718   -1.7944176  0.084862135   -3.2548718    1.4604542   439061 
  283000   0.97272987   -3.2539575   -3.2539575    -1.794866  0.087738341   -3.2539575    1.4590915   439061 
  284000   0.97253916   -3.2551825   -3.2551825   -1.7963771  0.084829353   -3.2551825    1.4588054   439061 
  285000   0.97117986   -3.2565397   -3.2565397   -1.7997732    0.0821651   -3.2565397    1.4567665   439061 
  286000   0.96902696   -3.2536699   -3.2536699   -1.8001328  0.076225134   -3.2536699    1.4535371   439061 
  287000   0.96881371   -3.2543754   -3.2543754   -1.8011581  0.083547618   -3.2543754    1.4532172   439061 
  288000   0.96988807   -3.2582101   -3.2582101   -1.8033813  0.075245627   -3.2582101    1.4548288   439061 
  289000   0.96941727   -3.2573434   -3.2573434   -1.8032208   0.07910841   -3.2573434    1.4541226   439061 
  290000    0.9704635   -3.2613551   -3.2613551   -1.8056632  0.075052243   -3.2613551    1.4556919   439061 
  291000   0.97069955   -3.2619864   -3.2619864   -1.8059404  0.075338542   -3.2619864     1.456046   439061 
  292000   0.96988398    -3.261393    -3.261393   -1.8065703  0.077048513    -3.261393    1.4548227   439061 
  293000   0.96867789    -3.261316    -3.261316   -1.8083025  0.075851059    -3.261316    1.4530135   439061 
  294000   0.96986382    -3.264058    -3.264058   -1.8092656   0.07883141    -3.264058    1.4547924   439061 
  295000   0.97014211    -3.265517    -3.265517   -1.8103071  0.077558252    -3.265517    1.4552098   439061 
  296000   0.96997446   -3.2646797   -3.2646797   -1.8097213  0.081855722   -3.2646797    1.4549584   439061 
  297000   0.96857754   -3.2648293   -3.2648293   -1.8119662  0.083911681   -3.2648293     1.452863   439061 
  298000   0.96849693   -3.2665806   -3.2665806   -1.8138385  0.079772725   -3.2665806    1.4527421   439061 
  299000   0.96887152   -3.2685959   -3.2685959    -1.815292  0.082924956   -3.2685959     1.453304   439061 
  300000   0.97017839   -3.2715896   -3.2715896   -1.8163253  0.080298872   -3.2715896    1.4552643   439061 
  301000   0.96977596   -3.2732057   -3.2732057   -1.8185451  0.077392719   -3.2732057    1.4546606   439061 
  302000   0.96768265   -3.2717721   -3.2717721   -1.8202515  0.079125551   -3.2717721    1.4515207   439061 
  303000    0.9667801   -3.2715894   -3.2715894   -1.8214225  0.080723804   -3.2715894    1.4501668   439061 
  304000   0.96776235    -3.274274    -3.274274   -1.8226338  0.076938344    -3.274274    1.4516402   439061 
  305000   0.96728212    -3.274984    -3.274984   -1.8240641  0.083391143    -3.274984    1.4509199   439061 
  306000   0.96804604   -3.2774794   -3.2774794   -1.8254137  0.081707042   -3.2774794    1.4520657   439061 
  307000   0.96685297   -3.2782756   -3.2782756   -1.8279994  0.082330501   -3.2782756    1.4502761   439061 
  308000   0.96813163   -3.2814712   -3.2814712   -1.8292771  0.079815474   -3.2814712    1.4521941   439061 
  309000   0.96703453   -3.2798944   -3.2798944   -1.8293459  0.082175316   -3.2798944    1.4505485   439061 
  310000   0.96775677   -3.2806186   -3.2806186   -1.8289868  0.082098357   -3.2806186    1.4516319   439061 
  311000   0.96886902   -3.2852533   -3.2852533   -1.8319531  0.076257344   -3.2852533    1.4533002   439061 
  312000   0.96824602   -3.2845372   -3.2845372   -1.8321715   0.08765683   -3.2845372    1.4523657   439061 
  313000   0.96696646   -3.2840985   -3.2840985   -1.8336521  0.080079657   -3.2840985    1.4504464   439061 
  314000   0.96740004   -3.2862265   -3.2862265   -1.8351297  0.084230698   -3.2862265    1.4510968   439061 
  315000   0.96759647   -3.2871159   -3.2871159   -1.8357245  0.077709847   -3.2871159    1.4513914   439061 
  316000   0.96479716    -3.285206    -3.285206   -1.8380136  0.081638354    -3.285206    1.4471924   439061 
  317000   0.96569035    -3.287854    -3.287854   -1.8393218  0.075697923    -3.287854    1.4485322   439061 
  318000   0.96705437   -3.2891537   -3.2891537   -1.8385755  0.078523718   -3.2891537    1.4505783   439061 
  319000   0.96689118   -3.2906432   -3.2906432   -1.8403097  0.077160874   -3.2906432    1.4503335   439061 
  320000   0.96541325   -3.2902985   -3.2902985   -1.8421819  0.084752759   -3.2902985    1.4481166   439061 
  321000   0.96583643   -3.2931362   -3.2931362   -1.8443848  0.080575008   -3.2931362    1.4487513   439061 
  322000   0.96599158   -3.2943442   -3.2943442   -1.8453601  0.083906089   -3.2943442    1.4489841   439061 
  323000   0.96467155   -3.2946629   -3.2946629   -1.8476589  0.081220408   -3.2946629     1.447004   439061 
  324000   0.96493499   -3.2974121   -3.2974121    -1.850013  0.077176716   -3.2974121    1.4473992   439061 
  325000   0.96595061   -3.3004778   -3.3004778   -1.8515552  0.077978701   -3.3004778    1.4489226   439061 
  326000   0.96607681   -3.3010931   -3.3010931   -1.8519812  0.075531657   -3.3010931    1.4491119   439061 
  327000   0.96429141   -3.2988969   -3.2988969    -1.852463  0.085145652   -3.2988969    1.4464338   439061 
  328000   0.96465951   -3.3003741   -3.3003741   -1.8533882  0.083621687   -3.3003741     1.446986   439061 
  329000   0.96448982   -3.3012671   -3.3012671   -1.8545357  0.078388986   -3.3012671    1.4467314   439061 
  330000   0.96381148   -3.3018736   -3.3018736   -1.8561596  0.074930218   -3.3018736    1.4457139   439061 
  331000   0.96292701   -3.3008297   -3.3008297   -1.8564425  0.078474069   -3.3008297    1.4443872   439061 
  332000   0.96404013   -3.3039986   -3.3039986   -1.8579417  0.075541154   -3.3039986    1.4460569   439061 
  333000   0.96466454   -3.3059744   -3.3059744   -1.8589808  0.078333781   -3.3059744    1.4469935   439061 
  334000   0.96484289   -3.3068752   -3.3068752   -1.8596141  0.073589078   -3.3068752     1.447261   439061 
  335000   0.96606666   -3.3082892   -3.3082892   -1.8591925  0.077049772   -3.3082892    1.4490967   439061 
  336000   0.96664378   -3.3095523   -3.3095523   -1.8595899  0.079385688   -3.3095523    1.4499624   439061 
  337000   0.96508765   -3.3083031   -3.3083031    -1.860675  0.078442148   -3.3083031    1.4476282   439061 
  338000   0.96335734    -3.306888    -3.306888   -1.8618553  0.078918622    -3.306888    1.4450327   439061 
  339000   0.96293146   -3.3082741   -3.3082741   -1.8638802   0.07934304   -3.3082741    1.4443939   439061 
  340000   0.96215938   -3.3090477   -3.3090477   -1.8658119  0.077389784   -3.3090477    1.4432358   439061 
  341000   0.96197961    -3.310973    -3.310973   -1.8680069  0.077877717    -3.310973    1.4429661   439061 
  342000   0.96169997   -3.3108314   -3.3108314   -1.8682848  0.080692135   -3.3108314    1.4425467   439061 
  343000   0.96266932   -3.3140948   -3.3140948   -1.8700941  0.081223063   -3.3140948    1.4440007   439061 
  344000    0.9632494   -3.3161221   -3.3161221   -1.8712513  0.080788706   -3.3161221    1.4448708   439061 
  345000    0.9644364    -3.317428    -3.317428   -1.8707767  0.083095473    -3.317428    1.4466513   439061 
  346000   0.96604556   -3.3208816   -3.3208816   -1.8718166  0.081158701   -3.3208816     1.449065   439061 
  347000   0.96333701   -3.3183178   -3.3183178   -1.8733156  0.083945004   -3.3183178    1.4450022   439061 
  348000   0.96309414   -3.3196073   -3.3196073   -1.8749693  0.082874048   -3.3196073    1.4446379   439061 
  349000   0.96409341   -3.3225828   -3.3225828    -1.876446  0.081799792   -3.3225828    1.4461368   439061 
  350000   0.96161634   -3.3195628   -3.3195628   -1.8771416  0.080650839   -3.3195628    1.4424212   439061 
  351000   0.96256523   -3.3230435   -3.3230435    -1.879199  0.072491775   -3.3230435    1.4438446   439061 
  352000   0.96259248    -3.322914    -3.322914   -1.8790286  0.079325625    -3.322914    1.4438854   439061 
  353000    0.9636187   -3.3252266   -3.3252266   -1.8798019  0.079356361   -3.3252266    1.4454248   439061 
  354000   0.96325985   -3.3263401   -3.3263401   -1.8814536  0.074282842   -3.3263401    1.4448865   439061 
  355000   0.96307459   -3.3278564   -3.3278564   -1.8832478  0.074958637   -3.3278564    1.4446086   439061 
  356000   0.96276642   -3.3279969   -3.3279969   -1.8838505  0.077099887   -3.3279969    1.4441463   439061 
  357000   0.96432875   -3.3310033   -3.3310033   -1.8845134  0.078261353   -3.3310033    1.4464898   439061 
  358000   0.96183651   -3.3286896   -3.3286896   -1.8859381  0.077157369   -3.3286896    1.4427515   439061 
  359000   0.96164355   -3.3299708   -3.3299708   -1.8875088  0.081026441   -3.3299708     1.442462   439061 
  360000   0.96257642   -3.3323477   -3.3323477   -1.8884863  0.079700538   -3.3323477    1.4438613   439061 
  361000   0.96303906   -3.3332283   -3.3332283    -1.888673  0.078198561   -3.3332283    1.4445553   439061 
  362000   0.96166585   -3.3331042   -3.3331042   -1.8906087  0.087321656   -3.3331042    1.4424955   439061 
  363000   0.96114235   -3.3338254   -3.3338254   -1.8921152  0.080688744   -3.3338254    1.4417102   439061 
  364000   0.95957297   -3.3343439   -3.3343439   -1.8949877  0.077212448   -3.3343439    1.4393562   439061 
  365000    0.9603037   -3.3361987   -3.3361987   -1.8957465  0.074883201   -3.3361987    1.4404523   439061 
  366000   0.96033309   -3.3358801   -3.3358801   -1.8953837  0.075516546   -3.3358801    1.4404964   439061 
  367000   0.96166723   -3.3394965   -3.3394965    -1.896999  0.068123268   -3.3394965    1.4424976   439061 
  368000   0.95997228   -3.3386545   -3.3386545   -1.8986993  0.079411996   -3.3386545    1.4399551   439061 
  369000   0.96038168   -3.3407931   -3.3407931   -1.9002239  0.074972209   -3.3407931    1.4405692   439061 
  370000   0.95975761   -3.3402794   -3.3402794   -1.9006462  0.079631796   -3.3402794    1.4396331   439061 
  371000    0.9606853   -3.3430831   -3.3430831   -1.9020584  0.077482698   -3.3430831    1.4410247   439061 
  372000   0.95992096   -3.3417716   -3.3417716   -1.9018935  0.076525478   -3.3417716    1.4398782   439061 
  373000   0.96058619   -3.3429788   -3.3429788   -1.9021028  0.081589757   -3.3429788     1.440876   439061 
  374000   0.96167433   -3.3454181   -3.3454181   -1.9029099  0.072779349   -3.3454181    1.4425082   439061 
  375000   0.96032436    -3.344514    -3.344514   -1.9040308   0.07758352    -3.344514    1.4404833   439061 
  376000   0.95963506   -3.3444315   -3.3444315   -1.9049821  0.075572737   -3.3444315    1.4394493   439061 
  377000   0.95962294   -3.3455848   -3.3455848   -1.9061537  0.079589411   -3.3455848    1.4394311   439061 
  378000   0.95903179   -3.3456764   -3.3456764    -1.907132  0.077639368   -3.3456764    1.4385444   439061 
  379000   0.96015996   -3.3474482   -3.3474482   -1.9072116  0.079051131   -3.3474482    1.4402367   439061 
  380000    0.9584697   -3.3465927   -3.3465927   -1.9088914  0.080793422   -3.3465927    1.4377013   439061 
  381000   0.96022545   -3.3501181   -3.3501181   -1.9097832  0.077998496   -3.3501181    1.4403349   439061 
  382000   0.95898759   -3.3507227   -3.3507227   -1.9122446  0.076646307   -3.3507227    1.4384781   439061 
  383000   0.95719231   -3.3497276   -3.3497276   -1.9139424   0.07543748   -3.3497276    1.4357852   439061 
  384000   0.95994226   -3.3536771   -3.3536771    -1.913767  0.075219964   -3.3536771    1.4399101   439061 
  385000   0.95869196   -3.3527186   -3.3527186   -1.9146839  0.080068227   -3.3527186    1.4380347   439061 
  386000   0.95951619   -3.3546223   -3.3546223   -1.9153513  0.080707343   -3.3546223     1.439271   439061 
  387000   0.95902277   -3.3564748   -3.3564748   -1.9179439  0.075261242   -3.3564748    1.4385309   439061 
  388000   0.95724789   -3.3547851   -3.3547851   -1.9189165  0.080639622   -3.3547851    1.4358686   439061 
  389000   0.95723148   -3.3570243   -3.3570243   -1.9211803  0.075141413   -3.3570243    1.4358439   439061 
  390000   0.95786097   -3.3577645   -3.3577645   -1.9209764  0.075435546   -3.3577645    1.4367882   439061 
  391000   0.95668736   -3.3585665   -3.3585665   -1.9235387  0.078426605   -3.3585665    1.4350278   439061 
  392000   0.95681908   -3.3598235   -3.3598235   -1.9245982  0.079914074   -3.3598235    1.4352254   439061 
  393000   0.95777822   -3.3614269   -3.3614269   -1.9247629  0.073170727   -3.3614269    1.4366641   439061 
  394000   0.95698117   -3.3618502   -3.3618502   -1.9263817   0.07855898   -3.3618502    1.4354685   439061 
  395000   0.95830388    -3.363911    -3.363911   -1.9264585  0.077208701    -3.363911    1.4374526   439061 
  396000   0.95763894   -3.3639296   -3.3639296   -1.9274745  0.078784806   -3.3639296    1.4364551   439061 
  397000   0.95869871   -3.3659921   -3.3659921   -1.9279473  0.076582162   -3.3659921    1.4380448   439061 
  398000   0.95759426   -3.3655278   -3.3655278   -1.9291397  0.079938378   -3.3655278    1.4363881   439061 
  399000   0.95613299   -3.3655113   -3.3655113    -1.931315  0.079622688   -3.3655113    1.4341962   439061 
  400000   0.95745738   -3.3690114   -3.3690114   -1.9328286  0.075982808   -3.3690114    1.4361828   439061 
  401000   0.95615835   -3.3668127   -3.3668127   -1.9325785  0.076454553   -3.3668127    1.4342343   439061 
  402000   0.95474211    -3.366876    -3.366876   -1.9347661  0.078656021    -3.366876    1.4321099   439061 
  403000   0.95533491   -3.3687767   -3.3687767   -1.9357776  0.075765716   -3.3687767    1.4329991   439061 
  404000   0.95561876   -3.3700685   -3.3700685   -1.9366436  0.070739026   -3.3700685    1.4334249   439061 
  405000   0.95666012   -3.3706919   -3.3706919    -1.935705  0.075585476   -3.3706919    1.4349869   439061 
  406000   0.95516379   -3.3688636   -3.3688636   -1.9361212   0.08069066   -3.3688636    1.4327424   439061 
  407000   0.95587303   -3.3712404   -3.3712404   -1.9374341  0.076684534   -3.3712404    1.4338063   439061 
  408000   0.95797454    -3.373499    -3.373499   -1.9365404  0.079762315    -3.373499    1.4369585   439061 
  409000   0.95687869   -3.3742222   -3.3742222   -1.9389074  0.076166008   -3.3742222    1.4353148   439061 
  410000   0.95553213   -3.3742599   -3.3742599    -1.940965  0.082039257   -3.3742599    1.4332949   439061 
  411000   0.95592293   -3.3765033   -3.3765033   -1.9426222  0.068801878   -3.3765033    1.4338811   439061 
  412000   0.95441366   -3.3764063   -3.3764063    -1.944789  0.072230238   -3.3764063    1.4316172   439061 
  413000   0.95452056   -3.3766114   -3.3766114   -1.9448338  0.077839706   -3.3766114    1.4317776   439061 
  414000   0.95396583   -3.3770843   -3.3770843   -1.9461388  0.074434702   -3.3770843    1.4309455   439061 
  415000   0.95339885   -3.3782973   -3.3782973   -1.9482023  0.072256872   -3.3782973     1.430095   439061 
  416000   0.95336454   -3.3793127   -3.3793127   -1.9492691  0.068213341   -3.3793127    1.4300436   439061 
  417000   0.95512123   -3.3822802   -3.3822802   -1.9496016  0.068332749   -3.3822802    1.4326786   439061 
  418000    0.9547776   -3.3833171   -3.3833171   -1.9511539  0.071837544   -3.3833171    1.4321631   439061 
  419000    0.9543231    -3.383347    -3.383347   -1.9518656  0.067931151    -3.383347    1.4314814   439061 
  420000   0.95440154   -3.3851234   -3.3851234   -1.9535243  0.076926869   -3.3851234    1.4315991   439061 
  421000   0.95345649   -3.3848546   -3.3848546   -1.9546731  0.075600849   -3.3848546    1.4301815   439061 
  422000   0.95403712   -3.3845879   -3.3845879   -1.9535355  0.081521782   -3.3845879    1.4310524   439061 
  423000   0.95402812   -3.3851595   -3.3851595   -1.9541206  0.078177027   -3.3851595    1.4310389   439061 
  424000   0.95442128   -3.3876605   -3.3876605   -1.9560318  0.080005879   -3.3876605    1.4316287   439061 
  425000   0.95305155   -3.3861543   -3.3861543   -1.9565802  0.077975115   -3.3861543    1.4295741   439061 
  426000   0.95496133    -3.390615    -3.390615   -1.9581763  0.075195485    -3.390615    1.4324387   439061 
  427000   0.95468128   -3.3897652   -3.3897652   -1.9577466  0.077406664   -3.3897652    1.4320187   439061 
  428000   0.95345749    -3.390151    -3.390151    -1.959968  0.074736195    -3.390151     1.430183   439061 
  429000   0.95381331   -3.3911179   -3.3911179   -1.9604012  0.073308707   -3.3911179    1.4307167   439061 
  430000   0.95423412   -3.3932164   -3.3932164   -1.9618685  0.073310236   -3.3932164    1.4313479   439061 
  431000   0.95313741   -3.3919284   -3.3919284   -1.9622256  0.078259665   -3.3919284    1.4297029   439061 
  432000   0.95305352   -3.3920989   -3.3920989   -1.9625219  0.074013465   -3.3920989     1.429577   439061 
  433000   0.95419292   -3.3949319   -3.3949319   -1.9636458  0.075299888   -3.3949319    1.4312861   439061 
  434000    0.9523945   -3.3950066   -3.3950066   -1.9664181  0.072651622   -3.3950066    1.4285885   439061 
  435000   0.95270128   -3.3945346   -3.3945346   -1.9654859  0.078770273   -3.3945346    1.4290487   439061 
  436000   0.95304165   -3.3979015   -3.3979015   -1.9683423  0.073934735   -3.3979015    1.4295592   439061 
  437000   0.95088862   -3.3951899   -3.3951899   -1.9688602  0.078778274   -3.3951899    1.4263297   439061 
  438000   0.95191055   -3.3973365   -3.3973365   -1.9694739  0.076344875   -3.3973365    1.4278626   439061 
  439000   0.95327907   -3.4002919   -3.4002919   -1.9703765  0.073410725   -3.4002919    1.4299153   439061 
  440000   0.95357997   -3.4016297   -3.4016297    -1.971263  0.079228149   -3.4016297    1.4303667   439061 
  441000   0.95411159   -3.4025242   -3.4025242   -1.9713601  0.073710205   -3.4025242    1.4311641   439061 
  442000   0.95190866     -3.40047     -3.40047   -1.9726103  0.080056389     -3.40047    1.4278597   439061 
  443000   0.95236228    -3.401579    -3.401579   -1.9730388  0.075370677    -3.401579    1.4285402   439061 
  444000   0.95199485    -3.402872    -3.402872    -1.974883  0.072383088    -3.402872     1.427989   439061 
  445000   0.95155658   -3.4020834   -3.4020834   -1.9747517   0.07688004   -3.4020834    1.4273316   439061 
  446000   0.95149944   -3.4035004   -3.4035004   -1.9762544  0.074805022   -3.4035004    1.4272459   439061 
  447000   0.95125777   -3.4040848   -3.4040848   -1.9772014   0.07625158   -3.4040848    1.4268834   439061 
  448000   0.95145962   -3.4042073   -3.4042073   -1.9770211  0.070399916   -3.4042073    1.4271862   439061 
  449000   0.95004166   -3.4031027   -3.4031027   -1.9780435  0.074207934   -3.4031027    1.4250592   439061 
  450000   0.95082537    -3.405828    -3.405828   -1.9795931  0.071754007    -3.405828    1.4262348   439061 
  451000   0.94903084   -3.4043486   -3.4043486   -1.9808055  0.075635443   -3.4043486     1.423543   439061 
  452000   0.94907325   -3.4049297   -3.4049297   -1.9813231  0.074581335   -3.4049297    1.4236066   439061 
  453000   0.95031531   -3.4068011   -3.4068011   -1.9813314  0.073411519   -3.4068011    1.4254697   439061 
  454000   0.95039995   -3.4076845   -3.4076845   -1.9820878  0.076514516   -3.4076845    1.4255967   439061 
  455000   0.95021482   -3.4066448   -3.4066448   -1.9813258   0.07856646   -3.4066448     1.425319   439061 
  456000   0.95083991   -3.4084319   -3.4084319   -1.9821753  0.075569289   -3.4084319    1.4262566   439061 
  457000   0.95246404   -3.4127174   -3.4127174   -1.9840246  0.072920785   -3.4127174    1.4286928   439061 
  458000   0.95174369   -3.4122791   -3.4122791   -1.9846668  0.077042819   -3.4122791    1.4276123   439061 
  459000   0.95182833   -3.4132299   -3.4132299   -1.9854907  0.075613374   -3.4132299    1.4277392   439061 
  460000   0.95119894   -3.4144387   -3.4144387   -1.9876435  0.076028191   -3.4144387    1.4267952   439061 
  461000   0.95101967   -3.4158419   -3.4158419   -1.9893157  0.074711693   -3.4158419    1.4265263   439061 
  462000   0.94962942    -3.414816    -3.414816   -1.9903751  0.079427484    -3.414816    1.4244409   439061 
  463000   0.95154478   -3.4187255   -3.4187255   -1.9914116  0.076266933   -3.4187255    1.4273139   439061 
  464000   0.95058647   -3.4172836   -3.4172836   -1.9914071  0.080002575   -3.4172836    1.4258765   439061 
  465000   0.94938708   -3.4176993   -3.4176993   -1.9936219  0.078226791   -3.4176993    1.4240774   439061 
  466000   0.94931747   -3.4189936   -3.4189936   -1.9950206  0.075916679   -3.4189936     1.423973   439061 
  467000   0.94932328   -3.4197657   -3.4197657   -1.9957841  0.071991801   -3.4197657    1.4239817   439061 
  468000    0.9499156   -3.4209914   -3.4209914   -1.9961213  0.072255526   -3.4209914    1.4248702   439061 
  469000   0.94992425   -3.4222949   -3.4222949   -1.9974117  0.072733987   -3.4222949    1.4248831   439061 
  470000   0.94710315   -3.4213373   -3.4213373   -2.0006858  0.074590422   -3.4213373    1.4206515   439061 
  471000    0.9483654   -3.4236214   -3.4236214   -2.0010765  0.072953089   -3.4236214    1.4225449   439061 
  472000   0.94790537   -3.4240686   -3.4240686   -2.0022138  0.073655009   -3.4240686    1.4218548   439061 
  473000   0.94744645   -3.4220329   -3.4220329   -2.0008664  0.075408984   -3.4220329    1.4211664   439061 
  474000    0.9482397   -3.4226694   -3.4226694   -2.0003131  0.074752699   -3.4226694    1.4223563   439061 
  475000   0.94838068   -3.4235271   -3.4235271   -2.0009593  0.075781209   -3.4235271    1.4225678   439061 
  476000   0.94895376   -3.4243791   -3.4243791   -2.0009517  0.077584188   -3.4243791    1.4234274   439061 
  477000   0.95034246   -3.4283966   -3.4283966   -2.0028862  0.076205754   -3.4283966    1.4255104   439061 
  478000   0.94908117   -3.4270499   -3.4270499   -2.0034314  0.072133969   -3.4270499    1.4236185   439061 
  479000   0.94910819   -3.4279942   -3.4279942   -2.0043352   0.06939714   -3.4279942     1.423659   439061 
  480000   0.94775901   -3.4272051   -3.4272051   -2.0055699  0.079150519   -3.4272051    1.4216353   439061 
  481000   0.94963745   -3.4313117   -3.4313117   -2.0068588  0.071632931   -3.4313117    1.4244529   439061 
  482000   0.94874158   -3.4301281   -3.4301281    -2.007019  0.074242573   -3.4301281    1.4231091   439061 
  483000   0.94736019   -3.4300409   -3.4300409   -2.0090038  0.072759919   -3.4300409     1.421037   439061 
  484000    0.9464719   -3.4301001   -3.4301001   -2.0103955  0.071482014   -3.4301001    1.4197046   439061 
  485000   0.94937167   -3.4347225   -3.4347225   -2.0106683   0.07119149   -3.4347225    1.4240543   439061 
  486000   0.94648846   -3.4309452   -3.4309452   -2.0112158  0.075405432   -3.4309452    1.4197295   439061 
  487000   0.94666958   -3.4338022   -3.4338022   -2.0138011  0.072074995   -3.4338022    1.4200011   439061 
  488000   0.94649701   -3.4342443   -3.4342443    -2.014502  0.072837403   -3.4342443    1.4197423   439061 
  489000   0.94876281   -3.4372139   -3.4372139    -2.014073  0.076907904   -3.4372139     1.423141   439061 
  490000   0.94640501   -3.4353373   -3.4353373    -2.015733  0.074666185   -3.4353373    1.4196043   439061 
  491000   0.94639682   -3.4350169   -3.4350169   -2.0154249   0.07270391   -3.4350169     1.419592   439061 
  492000   0.94665375   -3.4361521   -3.4361521   -2.0161747  0.073927617   -3.4361521    1.4199774   439061 
  493000   0.94804412   -3.4390319   -3.4390319    -2.016969   0.07068745   -3.4390319    1.4220629   439061 
  494000    0.9474946   -3.4393966   -3.4393966   -2.0181579  0.075460196   -3.4393966    1.4212387   439061 
  495000   0.94682441   -3.4389121   -3.4389121   -2.0186788  0.075923051   -3.4389121    1.4202334   439061 
  496000   0.94557254   -3.4381882   -3.4381882   -2.0198326  0.074417081   -3.4381882    1.4183556   439061 
  497000   0.94789755     -3.44348     -3.44348    -2.021637  0.073332379     -3.44348    1.4218431   439061 
  498000   0.94661896   -3.4431203   -3.4431203   -2.0231951   0.07089575   -3.4431203    1.4199252   439061 
  499000   0.94680382   -3.4436609   -3.4436609   -2.0234584   0.07074011   -3.4436609    1.4202025   439061 
  500000   0.94652658   -3.4436304   -3.4436304   -2.0238438  0.073070165   -3.4436304    1.4197866   439061 
  501000   0.94560628   -3.4442926   -3.4442926   -2.0258864  0.071646972   -3.4442926    1.4184062   439061 
  502000   0.94482232   -3.4442596   -3.4442596   -2.0270293  0.073950279   -3.4442596    1.4172302   439061 
  503000    0.9450229   -3.4444813   -3.4444813   -2.0269502  0.072569211   -3.4444813    1.4175311   439061 
  504000   0.94465686   -3.4450266   -3.4450266   -2.0280446  0.069813486   -3.4450266    1.4169821   439061 
  505000   0.94540524   -3.4471343   -3.4471343   -2.0290297  0.072880763   -3.4471343    1.4181046   439061 
  506000   0.94457063   -3.4470968   -3.4470968   -2.0302441  0.068087796   -3.4470968    1.4168527   439061 
  507000   0.94540602   -3.4482508   -3.4482508    -2.030145  0.070077091   -3.4482508    1.4181058   439061 
  508000   0.94462528   -3.4484562   -3.4484562   -2.0315215  0.072516483   -3.4484562    1.4169347   439061 
  509000   0.94473499   -3.4488744   -3.4488744   -2.0317751  0.076113375   -3.4488744    1.4170993   439061 
  510000   0.94491988   -3.4504166   -3.4504166     -2.03304  0.077860284   -3.4504166    1.4173766   439061 
  511000   0.94449078   -3.4518396   -3.4518396   -2.0351066  0.070097422   -3.4518396     1.416733   439061 
  512000   0.94535747    -3.453051    -3.453051    -2.035018  0.070604418    -3.453051     1.418033   439061 
  513000   0.94438307   -3.4527938   -3.4527938   -2.0362224  0.070228329   -3.4527938    1.4165714   439061 
  514000   0.94543222   -3.4553001   -3.4553001    -2.037155  0.074474801   -3.4553001    1.4181451   439061 
  515000   0.94447416   -3.4556976   -3.4556976   -2.0389896  0.074287996   -3.4556976     1.416708   439061 
  516000   0.94579521   -3.4582303   -3.4582303   -2.0395407  0.073306086   -3.4582303    1.4186896   439061 
  517000   0.94474484   -3.4566107   -3.4566107   -2.0394966  0.076208243   -3.4566107     1.417114   439061 
  518000    0.9453902   -3.4597413   -3.4597413   -2.0416593  0.074405601   -3.4597413    1.4180821   439061 
  519000   0.94569768   -3.4607506   -3.4607506   -2.0422073    0.0739463   -3.4607506    1.4185433   439061 
  520000    0.9447482   -3.4599917   -3.4599917   -2.0428727  0.070164355   -3.4599917    1.4171191   439061 
  521000   0.94371924   -3.4602116   -3.4602116    -2.044636  0.071642144   -3.4602116    1.4155756   439061 
  522000   0.94370215   -3.4602269   -3.4602269   -2.0446769  0.076763813   -3.4602269      1.41555   439061 
  523000   0.94287294   -3.4606766   -3.4606766   -2.0463704  0.075233728   -3.4606766    1.4143062   439061 
  524000   0.94285052   -3.4596431   -3.4596431   -2.0453705  0.071377168   -3.4596431    1.4142726   439061 
  525000   0.94386785    -3.462886    -3.462886   -2.0470875  0.078309523    -3.462886    1.4157986   439061 
  526000   0.94359768   -3.4633341   -3.4633341   -2.0479408  0.075794448   -3.4633341    1.4153933   439061 
  527000   0.94464733   -3.4655569   -3.4655569   -2.0485892    0.0731956   -3.4655569    1.4169678   439061 
  528000   0.94431697   -3.4652785   -3.4652785   -2.0488063  0.075370252   -3.4652785    1.4164722   439061 
  529000   0.94374346   -3.4652747   -3.4652747   -2.0496627  0.073796864   -3.4652747     1.415612   439061 
  530000    0.9427696   -3.4657443   -3.4657443   -2.0515932  0.077152487   -3.4657443    1.4141512   439061 
  531000   0.94266048   -3.4671934   -3.4671934   -2.0532059  0.078241813   -3.4671934    1.4139875   439061 
  532000   0.94258087   -3.4683922   -3.4683922   -2.0545241  0.075899297   -3.4683922    1.4138681   439061 
  533000   0.94238803     -3.47018     -3.47018   -2.0566012  0.072822887     -3.47018    1.4135788   439061 
  534000   0.94232713   -3.4710148   -3.4710148   -2.0575273  0.069145717   -3.4710148    1.4134875   439061 
  535000   0.94147431   -3.4707307   -3.4707307   -2.0585224  0.070710672   -3.4707307    1.4122083   439061 
  536000   0.94190677   -3.4731274   -3.4731274   -2.0602704  0.067688335   -3.4731274    1.4128569   439061 
  537000   0.94148272   -3.4723602   -3.4723602   -2.0601393  0.070014711   -3.4723602    1.4122209   439061 
  538000   0.94081114   -3.4718001   -3.4718001   -2.0605866  0.072533473   -3.4718001    1.4112135   439061 
  539000   0.94063975   -3.4746169   -3.4746169   -2.0636605  0.068631867   -3.4746169    1.4109564   439061 
  540000   0.93968386   -3.4721173   -3.4721173   -2.0625947  0.074766601   -3.4721173    1.4095226   439061 
  541000   0.94136487   -3.4759189   -3.4759189   -2.0638748  0.067194083   -3.4759189    1.4120441   439061 
  542000    0.9398559    -3.474818    -3.474818   -2.0650374  0.076162903    -3.474818    1.4097806   439061 
  543000   0.93939073   -3.4752083   -3.4752083   -2.0661254   0.07431919   -3.4752083    1.4090829   439061 
  544000   0.94095236   -3.4773642   -3.4773642   -2.0659389  0.070329582   -3.4773642    1.4114253   439061 
  545000   0.94081996   -3.4778567   -3.4778567     -2.06663  0.067245733   -3.4778567    1.4112267   439061 
  546000   0.94149734   -3.4799188   -3.4799188   -2.0676761  0.065937894   -3.4799188    1.4122428   439061 
  547000   0.94163608   -3.4808619   -3.4808619    -2.068411  0.071186204   -3.4808619    1.4124509   439061 
  548000   0.94157751   -3.4805207   -3.4805207   -2.0681577  0.075358814   -3.4805207    1.4123631   439061 
  549000   0.94285415   -3.4831058   -3.4831058   -2.0688278  0.072914161   -3.4831058     1.414278   439061 
  550000   0.94097095    -3.482247    -3.482247   -2.0707938  0.073613045    -3.482247    1.4114532   439061 
  551000    0.9412484   -3.4838437   -3.4838437   -2.0719743  0.076719372   -3.4838437    1.4118694   439061 
  552000   0.93974634   -3.4833778   -3.4833778   -2.0737615  0.072490694   -3.4833778    1.4096163   439061 
  553000   0.94050361   -3.4855806   -3.4855806   -2.0748284  0.069968719   -3.4855806    1.4107522   439061 
  554000   0.93895399   -3.4848471   -3.4848471   -2.0764193   0.07019085   -3.4848471    1.4084278   439061 
  555000   0.93832464   -3.4868784   -3.4868784   -2.0793947  0.068118573   -3.4868784    1.4074837   439061 
  556000   0.93867684   -3.4871986   -3.4871986   -2.0791866  0.068024183   -3.4871986    1.4080121   439061 
  557000   0.93956172   -3.4868938   -3.4868938   -2.0775544  0.072120153   -3.4868938    1.4093394   439061 
  558000   0.93850929   -3.4862684   -3.4862684   -2.0785077  0.075584036   -3.4862684    1.4077607   439061 
  559000   0.93854263   -3.4878412   -3.4878412   -2.0800305  0.067392004   -3.4878412    1.4078107   439061 
  560000   0.93771239    -3.487139    -3.487139   -2.0805736  0.073515118    -3.487139    1.4065654   439061 
  561000   0.93881914    -3.489543    -3.489543   -2.0813175  0.070261156    -3.489543    1.4082255   439061 
  562000   0.93931449   -3.4895651   -3.4895651   -2.0805966  0.073570977   -3.4895651    1.4089685   439061 
  563000   0.93860476   -3.4892252   -3.4892252   -2.0813213  0.073718956   -3.4892252    1.4079039   439061 
  564000   0.93816555   -3.4886157   -3.4886157   -2.0813706  0.074968568   -3.4886157    1.4072451   439061 
  565000   0.93986894   -3.4926616   -3.4926616   -2.0828614  0.071942919   -3.4926616    1.4098002   439061 
  566000   0.94051706   -3.4953591   -3.4953591   -2.0845868  0.066343678   -3.4953591    1.4107724   439061 
  567000   0.93825342   -3.4926287   -3.4926287   -2.0852518  0.070213277   -3.4926287    1.4073769   439061 
  568000   0.93842525   -3.4946259   -3.4946259   -2.0869912  0.072363692   -3.4946259    1.4076347   439061 
  569000   0.93675724   -3.4931074   -3.4931074   -2.0879747  0.070357782   -3.4931074    1.4051327   439061 
  570000   0.93817213   -3.4953838   -3.4953838   -2.0881288   0.07040636   -3.4953838     1.407255   439061 
  571000   0.93895671   -3.4973188   -3.4973188   -2.0888869   0.07082223   -3.4973188    1.4084319   439061 
  572000   0.93941069   -3.4988054   -3.4988054   -2.0896926  0.074291761   -3.4988054    1.4091128   439061 
  573000    0.9395878   -3.4991391   -3.4991391   -2.0897606  0.072180861   -3.4991391    1.4093785   439061 
  574000   0.93868622   -3.4999259   -3.4999259   -2.0918997  0.068673542   -3.4999259    1.4080261   439061 
  575000   0.93888481   -3.5007373   -3.5007373   -2.0924133  0.070586375   -3.5007373     1.408324   439061 
  576000   0.93774212    -3.500896    -3.500896    -2.094286  0.076149396    -3.500896      1.40661   439061 
  577000   0.93810918   -3.5030745   -3.5030745    -2.095914  0.072206558   -3.5030745    1.4071606   439061 
  578000   0.93773533   -3.5037537   -3.5037537   -2.0971539  0.069510991   -3.5037537    1.4065998   439061 
  579000   0.93743647   -3.5041474   -3.5041474   -2.0979959  0.069040405   -3.5041474    1.4061515   439061 
  580000    0.9370321   -3.5039774   -3.5039774   -2.0984324  0.073354266   -3.5039774     1.405545   439061 
  581000   0.93747863   -3.5044086   -3.5044086   -2.0981939  0.070950269   -3.5044086    1.4062147   439061 
  582000   0.93776717   -3.5071695   -3.5071695   -2.1005219  0.071986201   -3.5071695    1.4066476   439061 
  583000   0.93719673   -3.5069296   -3.5069296   -2.1011377  0.073182018   -3.5069296    1.4057919   439061 
  584000   0.93667758   -3.5078516   -3.5078516   -2.1028384  0.071504443   -3.5078516    1.4050132   439061 
  585000   0.93672458   -3.5089146   -3.5089146   -2.1038309  0.066903558   -3.5089146    1.4050837   439061 
  586000   0.93644493   -3.5083183   -3.5083183   -2.1036541  0.073663807   -3.5083183    1.4046642   439061 
  587000   0.93785112   -3.5110309   -3.5110309   -2.1042574  0.070534088   -3.5110309    1.4067735   439061 
  588000   0.93683954   -3.5111788   -3.5111788   -2.1059227  0.072514561   -3.5111788    1.4052561   439061 
  589000   0.93623459   -3.5113937   -3.5113937   -2.1070451  0.074985427   -3.5113937    1.4043487   439061 
  590000    0.9348847   -3.5096745   -3.5096745   -2.1073506  0.067290541   -3.5096745    1.4023239   439061 
  591000   0.93617297   -3.5107669   -3.5107669   -2.1065106  0.071123194   -3.5107669    1.4042563   439061 
  592000   0.93446604   -3.5112652   -3.5112652   -2.1095693  0.072611173   -3.5112652    1.4016959   439061 
  593000   0.93643232   -3.5137354   -3.5137354   -2.1090901  0.064941184   -3.5137354    1.4046453   439061 
  594000   0.93559065   -3.5126891   -3.5126891   -2.1093063  0.071290993   -3.5126891    1.4033828   439061 
  595000   0.93588799   -3.5140853   -3.5140853   -2.1102565  0.068872634   -3.5140853    1.4038288   439061 
  596000   0.93495858   -3.5132153   -3.5132153   -2.1107806  0.073985362   -3.5132153    1.4024347   439061 
  597000    0.9351764   -3.5149552   -3.5149552   -2.1121938  0.070646126   -3.5149552    1.4027614   439061 
  598000   0.93654039   -3.5172596   -3.5172596   -2.1124522  0.065620178   -3.5172596    1.4048074   439061 
  599000   0.93503758   -3.5141061   -3.5141061    -2.111553  0.074981052   -3.5141061    1.4025532   439061 
  600000    0.9339029   -3.5156775   -3.5156775   -2.1148264  0.071756672   -3.5156775    1.4008512   439061 
  601000   0.93495481   -3.5171824   -3.5171824   -2.1147534  0.069579166   -3.5171824     1.402429   439061 
  602000   0.93618091    -3.519927    -3.519927   -2.1156589  0.068440286    -3.519927    1.4042682   439061 
  603000   0.93400798   -3.5189485   -3.5189485   -2.1179397  0.068867899   -3.5189485    1.4010088   439061 
  604000   0.93577712   -3.5205045   -3.5205045    -2.116842  0.068868243   -3.5205045    1.4036625   439061 
  605000   0.93627289   -3.5222436   -3.5222436   -2.1178375  0.072227014   -3.5222436    1.4044061   439061 
  606000   0.93558191    -3.520935    -3.520935   -2.1175654  0.069308535    -3.520935    1.4033697   439061 
  607000   0.93618156   -3.5227133   -3.5227133   -2.1184441  0.068006742   -3.5227133    1.4042691   439061 
  608000    0.9335913   -3.5199919   -3.5199919   -2.1196082  0.067376798   -3.5199919    1.4003838   439061 
  609000     0.934033   -3.5205866   -3.5205866   -2.1195403  0.070128067   -3.5205866    1.4010463   439061 
  610000   0.93353528   -3.5208099   -3.5208099   -2.1205102  0.070675847   -3.5208099    1.4002997   439061 
  611000   0.93664574   -3.5233756   -3.5233756   -2.1184102  0.068875798   -3.5233756    1.4049654   439061 
  612000   0.93440639   -3.5221471   -3.5221471   -2.1205407  0.072581394   -3.5221471    1.4016064   439061 
  613000   0.93393287   -3.5215962   -3.5215962   -2.1207001  0.069409588   -3.5215962    1.4008961   439061 
  614000   0.93355184   -3.5221207   -3.5221207   -2.1217961  0.073607456   -3.5221207    1.4003246   439061 
  615000   0.93504259   -3.5252661   -3.5252661   -2.1227054  0.068413882   -3.5252661    1.4025607   439061 
  616000   0.93359346   -3.5243187   -3.5243187   -2.1239317  0.068572459   -3.5243187     1.400387   439061 
  617000   0.93295788   -3.5246978   -3.5246978   -2.1252642  0.069335074   -3.5246978    1.3994336   439061 
  618000   0.93238021   -3.5248837   -3.5248837   -2.1263166  0.070550437   -3.5248837    1.3985671   439061 
  619000   0.93404449   -3.5263266   -3.5263266   -2.1252631  0.067164296   -3.5263266    1.4010635   439061 
  620000   0.93397788   -3.5275537   -3.5275537   -2.1265901  0.065444818   -3.5275537    1.4009636   439061 
  621000   0.93254077   -3.5278518   -3.5278518   -2.1290439  0.067984361   -3.5278518     1.398808   439061 
  622000   0.93370094   -3.5302308   -3.5302308   -2.1296826  0.067762327   -3.5302308    1.4005482   439061 
  623000   0.93419371   -3.5310904   -3.5310904    -2.129803  0.069269756   -3.5310904    1.4012874   439061 
  624000   0.93437592   -3.5311202   -3.5311202   -2.1295595  0.063843433   -3.5311202    1.4015607   439061 
  625000   0.93316025   -3.5309212   -3.5309212    -2.131184  0.071635515   -3.5309212    1.3997372   439061 
  626000   0.93418668   -3.5330214   -3.5330214   -2.1317446  0.075471498   -3.5330214    1.4012768   439061 
  627000   0.93497327   -3.5350038   -3.5350038   -2.1325471  0.072499596   -3.5350038    1.4024567   439061 
  628000   0.93464183   -3.5356424   -3.5356424   -2.1336828  0.072368769   -3.5356424    1.4019596   439061 
  629000   0.93518886    -3.537373    -3.537373   -2.1345929  0.070126462    -3.537373    1.4027801   439061 
  630000   0.93537384   -3.5372223   -3.5372223   -2.1341648  0.075704425   -3.5372223    1.4030576   439061 
  631000   0.93608379   -3.5391266   -3.5391266   -2.1350041  0.069641135   -3.5391266    1.4041225   439061 
  632000   0.93345489   -3.5370352   -3.5370352   -2.1368561   0.07064612   -3.5370352    1.4001791   439061 
  633000   0.93352533   -3.5370935   -3.5370935   -2.1368087  0.070306892   -3.5370935    1.4002848   439061 
  634000   0.93259752   -3.5387834   -3.5387834   -2.1398903  0.068575252   -3.5387834    1.3988931   439061 
  635000   0.93217156   -3.5373138   -3.5373138   -2.1390597  0.066125532   -3.5373138    1.3982542   439061 
  636000   0.93118318   -3.5374877   -3.5374877   -2.1407161  0.069308533   -3.5374877    1.3967716   439061 
  637000   0.93105187   -3.5385469   -3.5385469   -2.1419722  0.066820095   -3.5385469    1.3965746   439061 
  638000   0.93151618   -3.5400537   -3.5400537   -2.1427827  0.068127995   -3.5400537    1.3972711   439061 
  639000   0.93120608   -3.5394362   -3.5394362   -2.1426302  0.066466074   -3.5394362    1.3968059   439061 
  640000   0.93260519   -3.5401295   -3.5401295   -2.1412249  0.074839275   -3.5401295    1.3989046   439061 
  641000    0.9323811   -3.5398821   -3.5398821   -2.1413137  0.073182976   -3.5398821    1.3985685   439061 
  642000   0.93260589   -3.5412537   -3.5412537   -2.1423481  0.071499324   -3.5412537    1.3989056   439061 
  643000   0.93227908   -3.5421851   -3.5421851   -2.1437697  0.067334556   -3.5421851    1.3984154   439061 
  644000   0.93012601   -3.5402722   -3.5402722   -2.1450864  0.071760908   -3.5402722    1.3951858   439061 
  645000   0.93055779   -3.5424448   -3.5424448   -2.1466113  0.067935972   -3.5424448    1.3958335   439061 
  646000   0.92875502    -3.541412    -3.541412   -2.1482826  0.068049346    -3.541412    1.3931294   439061 
  647000     0.930121   -3.5436992   -3.5436992   -2.1485209  0.065105593   -3.5436992    1.3951783   439061 
  648000   0.93077402   -3.5438709   -3.5438709    -2.147713  0.066711306   -3.5438709    1.3961578   439061 
  649000   0.93059865   -3.5442628   -3.5442628    -2.148368  0.067498555   -3.5442628    1.3958948   439061 
  650000     0.932737   -3.5476477   -3.5476477   -2.1485453  0.064580014   -3.5476477    1.3991023   439061 
  651000    0.9310742    -3.546701    -3.546701   -2.1500929  0.065302079    -3.546701    1.3966081   439061 
  652000   0.93159084   -3.5475975   -3.5475975   -2.1502144  0.069701809   -3.5475975    1.3973831   439061 
  653000   0.93103123   -3.5477139   -3.5477139   -2.1511703  0.069076036   -3.5477139    1.3965437   439061 
  654000   0.93032229   -3.5478438   -3.5478438   -2.1523635  0.064189883   -3.5478438    1.3954803   439061 
  655000   0.93083172   -3.5488502   -3.5488502   -2.1526058  0.071957884   -3.5488502    1.3962444   439061 
  656000   0.93046334    -3.549629    -3.549629   -2.1539371  0.068098391    -3.549629    1.3956918   439061 
  657000   0.93152015   -3.5511218   -3.5511218   -2.1538448  0.068274223   -3.5511218     1.397277   439061 
  658000   0.92969353    -3.550422    -3.550422   -2.1558849  0.066183712    -3.550422    1.3945371   439061 
  659000   0.92868419   -3.5493907   -3.5493907   -2.1563675  0.065549923   -3.5493907    1.3930231   439061 
  660000   0.92871373   -3.5499565   -3.5499565   -2.1568891  0.069362623   -3.5499565    1.3930674   439061 
  661000   0.92980717   -3.5521979   -3.5521979   -2.1574903  0.064570686   -3.5521979    1.3947076   439061 
  662000   0.92924713   -3.5514214   -3.5514214   -2.1575539  0.068814688   -3.5514214    1.3938675   439061 
  663000   0.93123375   -3.5551313   -3.5551313   -2.1582838  0.065237586   -3.5551313    1.3968474   439061 
  664000    0.9297782   -3.5547243   -3.5547243   -2.1600602  0.064340065   -3.5547243    1.3946641   439061 
  665000   0.93055568   -3.5561862   -3.5561862   -2.1603558  0.063447164   -3.5561862    1.3958303   439061 
  666000   0.93029814   -3.5556908   -3.5556908   -2.1602468  0.068128243   -3.5556908     1.395444   439061 
  667000   0.93101601    -3.555372    -3.555372   -2.1588512  0.066695769    -3.555372    1.3965208   439061 
  668000   0.92985181   -3.5551848   -3.5551848   -2.1604102  0.074409704   -3.5551848    1.3947745   439061 
  669000   0.92981659    -3.557483    -3.557483   -2.1627613  0.069343812    -3.557483    1.3947217   439061 
  670000   0.92942901   -3.5582561   -3.5582561   -2.1641158  0.073299559   -3.5582561    1.3941403   439061 
  671000   0.92807593   -3.5571163   -3.5571163   -2.1650056  0.070596441   -3.5571163    1.3921107   439061 
  672000   0.92961031   -3.5595327   -3.5595327   -2.1651204   0.07111545   -3.5595327    1.3944123   439061 
  673000   0.92994744   -3.5627744   -3.5627744   -2.1678564  0.066045123   -3.5627744     1.394918   439061 
  674000   0.92791466   -3.5616655   -3.5616655   -2.1697966  0.065054175   -3.5616655    1.3918688   439061 
  675000   0.92935348   -3.5643094   -3.5643094   -2.1702823  0.061384045   -3.5643094     1.394027   439061 
  676000   0.92708726   -3.5614924   -3.5614924   -2.1708647  0.067235707   -3.5614924    1.3906277   439061 
  677000   0.92702321   -3.5627518   -3.5627518   -2.1722201  0.065537052   -3.5627518    1.3905316   439061 
  678000   0.92796342   -3.5643373   -3.5643373   -2.1723953  0.063457478   -3.5643373     1.391942   439061 
  679000   0.92826451    -3.565551    -3.565551   -2.1731574  0.066435271    -3.565551    1.3923936   439061 
  680000   0.92919051    -3.566235    -3.566235   -2.1724524  0.069519961    -3.566235    1.3937826   439061 
  681000   0.92938936   -3.5664837   -3.5664837   -2.1724029  0.067056457   -3.5664837    1.3940809   439061 
  682000   0.92977417   -3.5683604   -3.5683604   -2.1737023  0.070870697   -3.5683604    1.3946581   439061 
  683000   0.92801539   -3.5655711   -3.5655711   -2.1735512  0.071734878   -3.5655711    1.3920199   439061 
  684000   0.92830418   -3.5681792   -3.5681792   -2.1757261  0.057152971   -3.5681792    1.3924531   439061 
  685000   0.92734382    -3.568307    -3.568307   -2.1772945  0.068479891    -3.568307    1.3910126   439061 
  686000    0.9278562     -3.56854     -3.56854   -2.1767589  0.065249657     -3.56854    1.3917811   439061 
  687000   0.92708114   -3.5667119   -3.5667119   -2.1760933  0.066818374   -3.5667119    1.3906185   439061 
  688000   0.92847107    -3.567772    -3.567772   -2.1750686  0.066123564    -3.567772    1.3927034   439061 
  689000   0.92778446   -3.5667206   -3.5667206   -2.1750471  0.062038254   -3.5667206    1.3916735   439061 
  690000   0.92798117   -3.5671737   -3.5671737   -2.1752052   0.06424618   -3.5671737    1.3919686   439061 
  691000    0.9276619    -3.566928    -3.566928   -2.1754383  0.066859451    -3.566928    1.3914897   439061 
  692000   0.92648693   -3.5663948   -3.5663948   -2.1766675   0.06505872   -3.5663948    1.3897272   439061 
  693000   0.92778332   -3.5688278   -3.5688278    -2.177156  0.063555732   -3.5688278    1.3916718   439061 
  694000   0.92583863   -3.5661919   -3.5661919   -2.1774371  0.065365187   -3.5661919    1.3887548   439061 
  695000   0.92744158   -3.5700184   -3.5700184   -2.1788592  0.065848731   -3.5700184    1.3911592   439061 
  696000   0.92713819   -3.5701978   -3.5701978   -2.1794937  0.059808107   -3.5701978    1.3907041   439061 
  697000     0.927081   -3.5707177   -3.5707177   -2.1800993  0.061977094   -3.5707177    1.3906183   439061 
  698000    0.9273297   -3.5719552   -3.5719552   -2.1809638  0.061933206   -3.5719552    1.3909914   439061 
  699000   0.92667514   -3.5724126   -3.5724126   -2.1824031  0.065509066   -3.5724126    1.3900095   439061 
  700000   0.92541553   -3.5723201   -3.5723201   -2.1841999  0.062275962   -3.5723201    1.3881201   439061 
  701000   0.92610102   -3.5736412   -3.5736412   -2.1844928  0.067390331   -3.5736412    1.3891484   439061 
  702000   0.92690299   -3.5759292   -3.5759292   -2.1855778  0.069525194   -3.5759292    1.3903513   439061 
  703000   0.92551625   -3.5751347   -3.5751347   -2.1868635   0.06794705   -3.5751347    1.3882712   439061 
  704000   0.92600868   -3.5751124   -3.5751124   -2.1861025  0.064655102   -3.5751124    1.3890099   439061 
  705000   0.92644683   -3.5772557   -3.5772557   -2.1875886  0.067344591   -3.5772557    1.3896671   439061 
[...]
 4833000   0.85165774   -4.0915811   -4.0915811   -2.8140975   0.02425525   -4.0915811    1.2774837   439061 
 4834000   0.85063465   -4.0907231   -4.0907231    -2.814774  0.026225669   -4.0907231    1.2759491   439061 
 4835000   0.85096801   -4.0910088   -4.0910088   -2.8145597  0.022450977   -4.0910088    1.2764491   439061 
 4836000   0.85062249   -4.0897502   -4.0897502   -2.8138194  0.024257388   -4.0897502    1.2759308   439061 
 4837000   0.85087514   -4.0896324   -4.0896324   -2.8133226  0.017176226   -4.0896324    1.2763098   439061 
 4838000   0.84992456   -4.0894527   -4.0894527   -2.8145688  0.023655087   -4.0894527    1.2748839   439061 
 4839000   0.85201725   -4.0919441   -4.0919441   -2.8139211  0.022735836   -4.0919441     1.278023   439061 
 4840000   0.85159054   -4.0906786   -4.0906786   -2.8132957  0.021562154   -4.0906786    1.2773829   439061 
 4841000   0.85102087   -4.0892958   -4.0892958   -2.8127674  0.025642609   -4.0892958    1.2765284   439061 
 4842000   0.85119685   -4.0898239   -4.0898239   -2.8130315  0.023204866   -4.0898239    1.2767924   439061 
 4843000   0.85014946   -4.0895388   -4.0895388   -2.8143175  0.026829716   -4.0895388    1.2752213   439061 
 4844000   0.85118304   -4.0912331   -4.0912331   -2.8144615  0.020247979   -4.0912331    1.2767717   439061 
 4845000   0.85133886   -4.0922073   -4.0922073   -2.8152019  0.019233123   -4.0922073    1.2770054   439061 
 4846000   0.85085121   -4.0905197   -4.0905197   -2.8142458  0.024094597   -4.0905197    1.2762739   439061 
 4847000   0.85133883   -4.0909737   -4.0909737   -2.8139683  0.024209763   -4.0909737    1.2770053   439061 
 4848000   0.85304686    -4.092294    -4.092294   -2.8127266   0.02205294    -4.092294    1.2795674   439061 
 4849000   0.85260561   -4.0908556   -4.0908556   -2.8119501   0.02675031   -4.0908556    1.2789055   439061 
 4850000   0.85447134   -4.0936611   -4.0936611    -2.811957  0.022393051   -4.0936611    1.2817041   439061 
 4851000   0.85169878   -4.0914473   -4.0914473    -2.813902  0.021542606   -4.0914473    1.2775453   439061 
 4852000   0.85117008   -4.0907488   -4.0907488   -2.8139965  0.019894009   -4.0907488    1.2767522   439061 
 4853000   0.85122497   -4.0900363   -4.0900363   -2.8132017  0.025638519   -4.0900363    1.2768345   439061 
 4854000   0.85168841   -4.0918042   -4.0918042   -2.8142745  0.018985652   -4.0918042    1.2775297   439061 
 4855000   0.85225946   -4.0937084   -4.0937084   -2.8153221  0.018523065   -4.0937084    1.2783863   439061 
 4856000   0.85118803   -4.0910727   -4.0910727   -2.8142936  0.021134169   -4.0910727    1.2767791   439061 
 4857000   0.85004644   -4.0893527   -4.0893527    -2.814286  0.025440629   -4.0893527    1.2750668   439061 
 4858000   0.85227514   -4.0923301   -4.0923301   -2.8139203  0.018744555   -4.0923301    1.2784098   439061 
 4859000   0.85028692   -4.0899974   -4.0899974   -2.8145699   0.02556072   -4.0899974    1.2754275   439061 
 4860000   0.85083946   -4.0894383   -4.0894383    -2.813182  0.025603769   -4.0894383    1.2762563   439061 
 4861000   0.85208026   -4.0919186   -4.0919186   -2.8138011  0.021910221   -4.0919186    1.2781175   439061 
 4862000   0.85199815   -4.0916521   -4.0916521   -2.8136578  0.026577247   -4.0916521    1.2779943   439061 
 4863000   0.85259514   -4.0918462   -4.0918462   -2.8129565  0.026369853   -4.0918462    1.2788898   439061 
 4864000   0.85307715   -4.0924874   -4.0924874   -2.8128746  0.026607855   -4.0924874    1.2796128   439061 
 4865000   0.85122223   -4.0900794   -4.0900794    -2.813249  0.026866529   -4.0900794    1.2768304   439061 
 4866000   0.85044364   -4.0901019   -4.0901019   -2.8144394  0.027245079   -4.0901019    1.2756625   439061 
 4867000   0.84998252   -4.0894669   -4.0894669   -2.8144961  0.028207985   -4.0894669    1.2749709   439061 
 4868000   0.85117109    -4.092985    -4.092985   -2.8162313  0.021222424    -4.092985    1.2767537   439061 
 4869000   0.84889146   -4.0900674   -4.0900674   -2.8167331  0.021387611   -4.0900674    1.2733343   439061 
 4870000   0.85069645   -4.0925071   -4.0925071   -2.8164653  0.020361339   -4.0925071    1.2760418   439061 
 4871000   0.84999658   -4.0913545   -4.0913545   -2.8163625  0.022846616   -4.0913545     1.274992   439061 
 4872000   0.85119889   -4.0933476   -4.0933476   -2.8165522  0.021869315   -4.0933476    1.2767954   439061 
 4873000   0.85130064   -4.0922354   -4.0922354   -2.8152874  0.027031616   -4.0922354     1.276948   439061 
 4874000   0.85208146   -4.0934329   -4.0934329   -2.8153136  0.026193982   -4.0934329    1.2781193   439061 
 4875000   0.85204552    -4.092582    -4.092582   -2.8145166  0.028117264    -4.092582    1.2780654   439061 
 4876000   0.85115021   -4.0921809   -4.0921809   -2.8154585  0.028027864   -4.0921809    1.2767224   439061 
 4877000   0.85210362   -4.0930372   -4.0930372   -2.8148847  0.027382665   -4.0930372    1.2781525   439061 
 4878000    0.8509564   -4.0928651   -4.0928651   -2.8164334   0.02627951   -4.0928651    1.2764317   439061 
 4879000   0.85243836   -4.0940547   -4.0940547   -2.8154001  0.024993284   -4.0940547    1.2786546   439061 
 4880000   0.85040959   -4.0920754   -4.0920754    -2.816464  0.026605208   -4.0920754    1.2756115   439061 
 4881000   0.85159076    -4.093283    -4.093283   -2.8158997   0.02220496    -4.093283    1.2773832   439061 
 4882000   0.84914857   -4.0908609   -4.0908609    -2.817141   0.02385352   -4.0908609    1.2737199   439061 
 4883000   0.84934346   -4.0925413   -4.0925413    -2.818529  0.020466422   -4.0925413    1.2740123   439061 
 4884000    0.8493317   -4.0917145   -4.0917145   -2.8177199  0.020996983   -4.0917145    1.2739947   439061 
 4885000   0.84941983   -4.0926256   -4.0926256   -2.8184988  0.022491318   -4.0926256    1.2741268   439061 
 4886000   0.84966273   -4.0926077   -4.0926077   -2.8181165  0.022959559   -4.0926077    1.2744912   439061 
 4887000   0.84992509   -4.0915001   -4.0915001   -2.8166154  0.022728099   -4.0915001    1.2748847   439061 
 4888000   0.85089046   -4.0921937   -4.0921937   -2.8158609  0.024041359   -4.0921937    1.2763328   439061 
 4889000   0.85322806   -4.0970655   -4.0970655   -2.8172264  0.020517771   -4.0970655    1.2798392   439061 
 4890000   0.85228128   -4.0945503   -4.0945503   -2.8161313  0.026531079   -4.0945503     1.278419   439061 
 4891000   0.85271845   -4.0956541   -4.0956541   -2.8165793  0.024342535   -4.0956541    1.2790748   439061 
 4892000    0.8518037   -4.0940729   -4.0940729   -2.8163703  0.028526154   -4.0940729    1.2777026   439061 
 4893000   0.85143926     -4.09252     -4.09252    -2.815364  0.023553668     -4.09252     1.277156   439061 
 4894000   0.85061856   -4.0919057   -4.0919057   -2.8159808  0.025924484   -4.0919057    1.2759249   439061 
 4895000   0.85099213   -4.0935451   -4.0935451   -2.8170598   0.02581146   -4.0935451    1.2764853   439061 
 4896000   0.85004443   -4.0926445   -4.0926445   -2.8175807  0.023055426   -4.0926445    1.2750637   439061 
 4897000   0.85039421   -4.0925624   -4.0925624    -2.816974  0.028088491   -4.0925624    1.2755884   439061 
 4898000   0.85136674   -4.0937159   -4.0937159   -2.8166687  0.024347266   -4.0937159    1.2770472   439061 
 4899000   0.85081909   -4.0924254   -4.0924254   -2.8161997  0.025355515   -4.0924254    1.2762257   439061 
 4900000   0.85025442   -4.0932234   -4.0932234   -2.8178447  0.019038315   -4.0932234    1.2753787   439061 
 4901000   0.85230294   -4.0949978   -4.0949978   -2.8165463  0.016429911   -4.0949978    1.2784515   439061 
 4902000   0.85068004   -4.0928426   -4.0928426   -2.8168255  0.025488382   -4.0928426    1.2760172   439061 
 4903000     0.850502   -4.0923906   -4.0923906   -2.8166405  0.025156175   -4.0923906    1.2757501   439061 
 4904000   0.85164019   -4.0927774   -4.0927774     -2.81532  0.026502546   -4.0927774    1.2774574   439061 
 4905000    0.8524716   -4.0939696   -4.0939696   -2.8152651  0.023366151   -4.0939696    1.2787045   439061 
 4906000   0.85136735   -4.0918886   -4.0918886   -2.8148405   0.02343916   -4.0918886    1.2770481   439061 
 4907000   0.85124264     -4.09205     -4.09205   -2.8151889  0.026168917     -4.09205     1.276861   439061 
 4908000   0.85052426   -4.0921473   -4.0921473   -2.8163638  0.024170722   -4.0921473    1.2757835   439061 
 4909000   0.85105641    -4.092549    -4.092549   -2.8159673  0.026702626    -4.092549    1.2765817   439061 
 4910000   0.84988107   -4.0916007   -4.0916007    -2.816782  0.020521801   -4.0916007    1.2748187   439061 
 4911000    0.8508359   -4.0934132   -4.0934132   -2.8171622  0.020482691   -4.0934132    1.2762509   439061 
 4912000   0.85035675   -4.0921184   -4.0921184   -2.8165862  0.020987502   -4.0921184    1.2755322   439061 
 4913000   0.85095548   -4.0927062   -4.0927062   -2.8162759  0.025768563   -4.0927062    1.2764303   439061 
 4914000   0.85164707   -4.0926661   -4.0926661   -2.8151984  0.025703373   -4.0926661    1.2774677   439061 
 4915000   0.85149464   -4.0929999   -4.0929999   -2.8157609  0.029947259   -4.0929999     1.277239   439061 
 4916000   0.85140607   -4.0932695   -4.0932695   -2.8161633  0.031049563   -4.0932695    1.2771062   439061 
 4917000   0.85084844   -4.0934729   -4.0934729   -2.8172032  0.023214142   -4.0934729    1.2762698   439061 
 4918000   0.85029302   -4.0923498   -4.0923498   -2.8169132  0.022257668   -4.0923498    1.2754366   439061 
 4919000   0.85111351   -4.0927616   -4.0927616   -2.8160942  0.020758175   -4.0927616    1.2766674   439061 
 4920000   0.85056107   -4.0934825   -4.0934825   -2.8176438  0.025719201   -4.0934825    1.2758387   439061 
 4921000   0.85013463   -4.0926694   -4.0926694   -2.8174704  0.025639931   -4.0926694     1.275199   439061 
 4922000    0.8510764   -4.0951833   -4.0951833   -2.8185717  0.021228052   -4.0951833    1.2766117   439061 
 4923000   0.85125128   -4.0941164   -4.0941164   -2.8172424  0.026526533   -4.0941164     1.276874   439061 
 4924000   0.85054908   -4.0927294   -4.0927294   -2.8169087   0.02379449   -4.0927294    1.2758207   439061 
 4925000   0.85094132   -4.0944875   -4.0944875   -2.8180785  0.021679888   -4.0944875    1.2764091   439061 
 4926000   0.85132966   -4.0949356   -4.0949356    -2.817944  0.021864584   -4.0949356    1.2769916   439061 
 4927000   0.85093782   -4.0933537   -4.0933537   -2.8169499   0.02869397   -4.0933537    1.2764038   439061 
 4928000   0.85184561   -4.0961825   -4.0961825    -2.818417   0.02475618   -4.0961825    1.2777655   439061 
 4929000   0.85007941   -4.0951636   -4.0951636   -2.8200474  0.026705452   -4.0951636    1.2751162   439061 
 4930000   0.85164351   -4.0962907   -4.0962907   -2.8188284  0.022586137   -4.0962907    1.2774624   439061 
 4931000   0.85029673   -4.0945874   -4.0945874   -2.8191452  0.025355888   -4.0945874    1.2754422   439061 
 4932000   0.85059945   -4.0947356   -4.0947356   -2.8188393  0.025210725   -4.0947356    1.2758963   439061 
 4933000   0.85043117   -4.0944717   -4.0944717   -2.8188278  0.026970524   -4.0944717    1.2756439   439061 
 4934000   0.85260987   -4.0975339   -4.0975339    -2.818622  0.027927927   -4.0975339    1.2789119   439061 
 4935000    0.8511837   -4.0954317   -4.0954317   -2.8186591  0.027286509   -4.0954317    1.2767726   439061 
 4936000    0.8514389   -4.0954393   -4.0954393   -2.8182839   0.02651865   -4.0954393    1.2771554   439061 
 4937000   0.85051408    -4.093513    -4.093513   -2.8177448  0.028544743    -4.093513    1.2757682   439061 
 4938000   0.85167133   -4.0955361   -4.0955361    -2.818032  0.019190726   -4.0955361    1.2775041   439061 
 4939000   0.85119371   -4.0954681   -4.0954681   -2.8186804  0.018155922   -4.0954681    1.2767877   439061 
 4940000   0.85114857   -4.0950088   -4.0950088   -2.8182888  0.020669685   -4.0950088      1.27672   439061 
 4941000   0.85043033   -4.0936972   -4.0936972   -2.8180546  0.022179502   -4.0936972    1.2756426   439061 
 4942000   0.85112258   -4.0943988   -4.0943988   -2.8177178  0.025516892   -4.0943988     1.276681   439061 
 4943000   0.85012167   -4.0929715   -4.0929715   -2.8177919  0.020476557   -4.0929715    1.2751796   439061 
 4944000   0.85060861   -4.0943023   -4.0943023   -2.8183923   0.01404665   -4.0943023      1.27591   439061 
 4945000   0.85007502   -4.0930968   -4.0930968   -2.8179872  0.023098656   -4.0930968    1.2751096   439061 
 4946000   0.84990727   -4.0927841   -4.0927841   -2.8179261  0.025748398   -4.0927841     1.274858   439061 
 4947000   0.84985313   -4.0920825   -4.0920825   -2.8173057  0.027573966   -4.0920825    1.2747768   439061 
 4948000   0.85018265   -4.0913574   -4.0913574   -2.8160864   0.03043226   -4.0913574    1.2752711   439061 
 4949000   0.85157834   -4.0949245   -4.0949245   -2.8175599  0.021340958   -4.0949245    1.2773646   439061 
 4950000    0.8511709   -4.0947686   -4.0947686   -2.8180151  0.022903747   -4.0947686    1.2767534   439061 
 4951000   0.85094756   -4.0937576   -4.0937576   -2.8173392  0.028316329   -4.0937576    1.2764184   439061 
 4952000   0.85143623    -4.095245    -4.095245   -2.8180936  0.024836841    -4.095245    1.2771514   439061 
 4953000   0.85141232   -4.0951815   -4.0951815   -2.8180659  0.024388868   -4.0951815    1.2771156   439061 
 4954000   0.85109683   -4.0962145   -4.0962145   -2.8195722  0.019660951   -4.0962145    1.2766423   439061 
 4955000   0.85039733   -4.0950218   -4.0950218   -2.8194287  0.020282613   -4.0950218    1.2755931   439061 
 4956000   0.85077651   -4.0952849   -4.0952849   -2.8191231  0.023698698   -4.0952849    1.2761619   439061 
 4957000   0.85027708   -4.0951791   -4.0951791   -2.8197664  0.021530586   -4.0951791    1.2754127   439061 
 4958000   0.85051533   -4.0948904   -4.0948904   -2.8191203  0.025051742   -4.0948904    1.2757701   439061 
 4959000   0.85144771   -4.0959671   -4.0959671   -2.8187984  0.022900364   -4.0959671    1.2771687   439061 
 4960000    0.8519312   -4.0972205   -4.0972205   -2.8193266  0.020889849   -4.0972205    1.2778939   439061 
 4961000    0.8503111    -4.095292    -4.095292   -2.8198283  0.023313342    -4.095292    1.2754637   439061 
 4962000    0.8497359   -4.0956992   -4.0956992   -2.8210982  0.021948818   -4.0956992    1.2746009   439061 
 4963000   0.85173568   -4.0966465   -4.0966465   -2.8190459  0.023541113   -4.0966465    1.2776006   439061 
 4964000    0.8507896   -4.0952541   -4.0952541   -2.8190726   0.02661265   -4.0952541    1.2761815   439061 
 4965000   0.85137196   -4.0969589   -4.0969589   -2.8199039   0.02067084   -4.0969589     1.277055   439061 
 4966000   0.85158514   -4.0969317   -4.0969317   -2.8195569  0.025810138   -4.0969317    1.2773748   439061 
 4967000   0.85030019   -4.0952107   -4.0952107   -2.8197633  0.021981177   -4.0952107    1.2754474   439061 
 4968000   0.84974966   -4.0939413   -4.0939413   -2.8193197  0.029604344   -4.0939413    1.2746216   439061 
 4969000   0.84924748   -4.0937661   -4.0937661   -2.8198977  0.022676368   -4.0937661    1.2738683   439061 
 4970000   0.84939934   -4.0936819   -4.0936819   -2.8195858   0.02516228   -4.0936819    1.2740961   439061 
 4971000   0.85030031     -4.09414     -4.09414   -2.8186925  0.017568061     -4.09414    1.2754476   439061 
 4972000   0.84844616   -4.0926882   -4.0926882   -2.8200218  0.023323671   -4.0926882    1.2726663   439061 
 4973000   0.85005527   -4.0947331   -4.0947331   -2.8196531  0.019733429   -4.0947331      1.27508   439061 
 4974000    0.8512522   -4.0952343   -4.0952343   -2.8183589  0.022320214   -4.0952343    1.2768754   439061 
 4975000   0.85242334   -4.0955646   -4.0955646   -2.8169325  0.020633077   -4.0955646    1.2786321   439061 
 4976000   0.85092469   -4.0934493   -4.0934493   -2.8170652  0.025599389   -4.0934493    1.2763841   439061 
 4977000   0.85054932   -4.0932797   -4.0932797   -2.8174587  0.027704866   -4.0932797    1.2758211   439061 
 4978000   0.85185929   -4.0961368   -4.0961368   -2.8183508  0.019125436   -4.0961368     1.277786   439061 
 4979000   0.85099332   -4.0944362   -4.0944362   -2.8179491  0.022362037   -4.0944362    1.2764871   439061 
 4980000   0.85150856   -4.0932661   -4.0932661   -2.8160062  0.023851707   -4.0932661    1.2772599   439061 
 4981000   0.85094415   -4.0929702   -4.0929702   -2.8165569  0.020410713   -4.0929702    1.2764133   439061 
 4982000   0.85100214   -4.0930299   -4.0930299   -2.8165296  0.028638498   -4.0930299    1.2765003   439061 
 4983000   0.85186365   -4.0937536   -4.0937536   -2.8159611  0.021399035   -4.0937536    1.2777926   439061 
 4984000   0.85127834   -4.0926625   -4.0926625   -2.8157479  0.022338876   -4.0926625    1.2769146   439061 
 4985000   0.85108675   -4.0915467   -4.0915467   -2.8149195  0.021657701   -4.0915467    1.2766272   439061 
 4986000   0.85096542   -4.0927131   -4.0927131   -2.8162679  0.017793808   -4.0927131    1.2764452   439061 
 4987000   0.84994868   -4.0910678   -4.0910678   -2.8161477  0.017738486   -4.0910678    1.2749201   439061 
 4988000   0.85001422   -4.0909177   -4.0909177   -2.8158993   0.02287585   -4.0909177    1.2750184   439061 
 4989000   0.85032395   -4.0913115   -4.0913115   -2.8158284   0.02016505   -4.0913115     1.275483   439061 
 4990000   0.85123103   -4.0934398   -4.0934398   -2.8165962  0.021000116   -4.0934398    1.2768436   439061 
 4991000   0.85120766   -4.0930707   -4.0930707   -2.8162621  0.022234622   -4.0930707    1.2768086   439061 
 4992000   0.85294813   -4.0954422   -4.0954422   -2.8160229  0.019926903   -4.0954422    1.2794193   439061 
 4993000    0.8509707   -4.0933185   -4.0933185   -2.8168653  0.022013803   -4.0933185    1.2764531   439061 
 4994000   0.85018974   -4.0930256   -4.0930256   -2.8177439  0.024099976   -4.0930256    1.2752817   439061 
 4995000   0.85162561    -4.094003    -4.094003   -2.8165675  0.026842654    -4.094003    1.2774355   439061 
 4996000   0.85267542   -4.0965831   -4.0965831   -2.8175729   0.02383357   -4.0965831    1.2790102   439061 
 4997000   0.85215277   -4.0950574   -4.0950574   -2.8168312  0.024777755   -4.0950574    1.2782262   439061 
 4998000    0.8512893   -4.0938595   -4.0938595   -2.8169284  0.025812415   -4.0938595     1.276931   439061 
 4999000   0.85063548   -4.0936246   -4.0936246   -2.8176743  0.027112197   -4.0936246    1.2759503   439061 
 5000000   0.85137702   -4.0953198   -4.0953198   -2.8182572  0.028671434   -4.0953198    1.2770626   439061 
Loop time of 36635.7 on 64 procs for 5000000 steps with 439061 atoms

Performance: 58958.944 tau/day, 136.479 timesteps/s
99.0% CPU use with 64 MPI tasks x 1 OpenMP threads

MPI task timing breakdown:
Section |  min time  |  avg time  |  max time  |%varavg|  %CPU | %total
-----------------------------------------------------------------------
Pair    | 8450.6     | 14442      | 22712      |2078.3 |  99.0 | 39.42
Bond    | 2.1686     | 5.3672     | 6.9134     |  60.0 | 100.0 |  0.01
Neigh   | 3230       | 5046.3     | 7652.1     |1058.1 |  99.6 | 13.77
Comm    | 4932.4     | 15575      | 23718      |2791.5 |  98.8 | 42.51
Output  | 207.83     | 208.11     | 208.17     |   0.3 |  98.4 |  0.57
Modify  | 508.09     | 883.28     | 2274.4     |2083.6 |  99.6 |  2.41
Other   |            | 474.9      |            |       |       |  1.30

Nlocal:        6860.33 ave        7297 max        6357 min
Histogram: 1 0 0 2 10 47 1 1 0 2
Nghost:        7454.16 ave        8172 max        5536 min
Histogram: 16 0 0 0 0 0 0 0 0 48
Neighs:       230224.0 ave      244939 max      148569 min
Histogram: 1 4 2 1 0 0 0 0 4 52

Total # of neighbors = 14734365
Ave neighs/atom = 33.558811
Ave special neighs/atom = 0.0000000
Neighbor list builds = 500000
Dangerous builds = 495000
System init for write_data ...
WARNING: Not all mixed pair coeffs generated from mixing. Use write_data with 'pair ij' option to store all pair coeffs. (src/write_data.cpp:312)
Total wall time: 10:10:39
