#LAMMPS data file for rigid bodies
1143 atoms
3 atom types

0 17.14   xlo xhi
0 17.14   ylo yhi
0 16   zlo zhi

Masses

1 1.0
2 1.0
3 1.0

Atoms

15	1	2	0	4.57	6.57	3
16	1	2	0	4.57	7.57	3
17	1	2	0	4.57	8.57	3
18	1	2	0	4.57	9.57	3
19	1	2	0	4.57	10.57	3
25	1	2	0	5.57	5.57	3
26	1	2	0	5.57	6.57	3
27	1	2	0	5.57	7.57	3
28	1	2	0	5.57	8.57	3
29	1	2	0	5.57	9.57	3
30	1	2	0	5.57	10.57	3
31	1	2	0	5.57	11.57	3
35	1	2	0	6.57	4.57	3
36	1	2	0	6.57	5.57	3
37	1	2	0	6.57	6.57	3
38	1	2	0	6.57	7.57	3
39	1	2	0	6.57	8.57	3
40	1	2	0	6.57	9.57	3
41	1	2	0	6.57	10.57	3
42	1	2	0	6.57	11.57	3
43	1	2	0	6.57	12.57	3
46	1	2	0	7.57	4.57	3
47	1	2	0	7.57	5.57	3
48	1	2	0	7.57	6.57	3
49	1	2	0	7.57	7.57	3
50	1	2	0	7.57	8.57	3
51	1	2	0	7.57	9.57	3
52	1	2	0	7.57	10.57	3
53	1	2	0	7.57	11.57	3
54	1	2	0	7.57	12.57	3
57	1	2	0	8.57	4.57	3
58	1	2	0	8.57	5.57	3
59	1	2	0	8.57	6.57	3
60	1	2	0	8.57	7.57	3
61	1	2	0	8.57	8.57	3
62	1	2	0	8.57	9.57	3
63	1	2	0	8.57	10.57	3
64	1	2	0	8.57	11.57	3
65	1	2	0	8.57	12.57	3
68	1	2	0	9.57	4.57	3
69	1	2	0	9.57	5.57	3
70	1	2	0	9.57	6.57	3
71	1	2	0	9.57	7.57	3
72	1	2	0	9.57	8.57	3
73	1	2	0	9.57	9.57	3
74	1	2	0	9.57	10.57	3
75	1	2	0	9.57	11.57	3
76	1	2	0	9.57	12.57	3
79	1	2	0	10.57	4.57	3
80	1	2	0	10.57	5.57	3
81	1	2	0	10.57	6.57	3
82	1	2	0	10.57	7.57	3
83	1	2	0	10.57	8.57	3
84	1	2	0	10.57	9.57	3
85	1	2	0	10.57	10.57	3
86	1	2	0	10.57	11.57	3
87	1	2	0	10.57	12.57	3
91	1	2	0	11.57	5.57	3
92	1	2	0	11.57	6.57	3
93	1	2	0	11.57	7.57	3
94	1	2	0	11.57	8.57	3
95	1	2	0	11.57	9.57	3
96	1	2	0	11.57	10.57	3
97	1	2	0	11.57	11.57	3
103	1	2	0	12.57	6.57	3
104	1	2	0	12.57	7.57	3
105	1	2	0	12.57	8.57	3
106	1	2	0	12.57	9.57	3
107	1	2	0	12.57	10.57	3
125	1	2	0	3.57	6.57	4
126	1	2	0	3.57	7.57	4
127	1	2	0	3.57	8.57	4
128	1	2	0	3.57	9.57	4
129	1	2	0	3.57	10.57	4
134	1	2	0	4.57	4.57	4
135	1	2	0	4.57	5.57	4
136	1	3	0	4.57	6.57	4
137	1	3	0	4.57	7.57	4
138	1	3	0	4.57	8.57	4
139	1	3	0	4.57	9.57	4
140	1	3	0	4.57	10.57	4
141	1	2	0	4.57	11.57	4
142	1	2	0	4.57	12.57	4
145	1	2	0	5.57	4.57	4
146	1	3	0	5.57	5.57	4
147	1	3	0	5.57	6.57	4
148	1	3	0	5.57	7.57	4
149	1	3	0	5.57	8.57	4
150	1	3	0	5.57	9.57	4
151	1	3	0	5.57	10.57	4
152	1	3	0	5.57	11.57	4
153	1	2	0	5.57	12.57	4
155	1	2	0	6.57	3.57	4
156	1	3	0	6.57	4.57	4
157	1	3	0	6.57	5.57	4
158	1	3	0	6.57	6.57	4
159	1	3	0	6.57	7.57	4
160	1	3	0	6.57	8.57	4
161	1	3	0	6.57	9.57	4
162	1	3	0	6.57	10.57	4
163	1	3	0	6.57	11.57	4
164	1	3	0	6.57	12.57	4
165	1	2	0	6.57	13.57	4
166	1	2	0	7.57	3.57	4
167	1	3	0	7.57	4.57	4
168	1	3	0	7.57	5.57	4
169	1	3	0	7.57	6.57	4
170	1	3	0	7.57	7.57	4
171	1	3	0	7.57	8.57	4
172	1	3	0	7.57	9.57	4
173	1	3	0	7.57	10.57	4
174	1	3	0	7.57	11.57	4
175	1	3	0	7.57	12.57	4
176	1	2	0	7.57	13.57	4
177	1	2	0	8.57	3.57	4
178	1	3	0	8.57	4.57	4
179	1	3	0	8.57	5.57	4
180	1	3	0	8.57	6.57	4
181	1	3	0	8.57	7.57	4
182	1	3	0	8.57	8.57	4
183	1	3	0	8.57	9.57	4
184	1	3	0	8.57	10.57	4
185	1	3	0	8.57	11.57	4
186	1	3	0	8.57	12.57	4
187	1	2	0	8.57	13.57	4
188	1	2	0	9.57	3.57	4
189	1	3	0	9.57	4.57	4
190	1	3	0	9.57	5.57	4
191	1	3	0	9.57	6.57	4
192	1	3	0	9.57	7.57	4
193	1	3	0	9.57	8.57	4
194	1	3	0	9.57	9.57	4
195	1	3	0	9.57	10.57	4
196	1	3	0	9.57	11.57	4
197	1	3	0	9.57	12.57	4
198	1	2	0	9.57	13.57	4
199	1	2	0	10.57	3.57	4
200	1	3	0	10.57	4.57	4
201	1	3	0	10.57	5.57	4
202	1	3	0	10.57	6.57	4
203	1	3	0	10.57	7.57	4
204	1	3	0	10.57	8.57	4
205	1	3	0	10.57	9.57	4
206	1	3	0	10.57	10.57	4
207	1	3	0	10.57	11.57	4
208	1	3	0	10.57	12.57	4
209	1	2	0	10.57	13.57	4
211	1	2	0	11.57	4.57	4
212	1	3	0	11.57	5.57	4
213	1	3	0	11.57	6.57	4
214	1	3	0	11.57	7.57	4
215	1	3	0	11.57	8.57	4
216	1	3	0	11.57	9.57	4
217	1	3	0	11.57	10.57	4
218	1	3	0	11.57	11.57	4
219	1	2	0	11.57	12.57	4
222	1	2	0	12.57	4.57	4
223	1	2	0	12.57	5.57	4
224	1	3	0	12.57	6.57	4
225	1	3	0	12.57	7.57	4
226	1	3	0	12.57	8.57	4
227	1	3	0	12.57	9.57	4
228	1	3	0	12.57	10.57	4
229	1	2	0	12.57	11.57	4
230	1	2	0	12.57	12.57	4
235	1	2	0	13.57	6.57	4
236	1	2	0	13.57	7.57	4
237	1	2	0	13.57	8.57	4
238	1	2	0	13.57	9.57	4
239	1	2	0	13.57	10.57	4
245	1	2	0	3.57	5.57	5
246	1	2	0	3.57	6.57	5
247	1	2	0	3.57	7.57	5
248	1	2	0	3.57	8.57	5
249	1	2	0	3.57	9.57	5
250	1	2	0	3.57	10.57	5
251	1	2	0	3.57	11.57	5
255	1	2	0	4.57	4.57	5
256	1	3	0	4.57	5.57	5
257	1	3	0	4.57	6.57	5
258	1	3	0	4.57	7.57	5
259	1	3	0	4.57	8.57	5
260	1	3	0	4.57	9.57	5
261	1	3	0	4.57	10.57	5
262	1	3	0	4.57	11.57	5
263	1	2	0	4.57	12.57	5
265	1	2	0	5.57	3.57	5
266	1	3	0	5.57	4.57	5
267	1	3	0	5.57	5.57	5
268	1	3	0	5.57	6.57	5
269	1	3	0	5.57	7.57	5
270	1	3	0	5.57	8.57	5
271	1	3	0	5.57	9.57	5
272	1	3	0	5.57	10.57	5
273	1	3	0	5.57	11.57	5
274	1	3	0	5.57	12.57	5
275	1	2	0	5.57	13.57	5
276	1	2	0	6.57	3.57	5
277	1	3	0	6.57	4.57	5
278	1	3	0	6.57	5.57	5
279	1	3	0	6.57	6.57	5
280	1	3	0	6.57	7.57	5
281	1	3	0	6.57	8.57	5
282	1	3	0	6.57	9.57	5
283	1	3	0	6.57	10.57	5
284	1	3	0	6.57	11.57	5
285	1	3	0	6.57	12.57	5
286	1	2	0	6.57	13.57	5
287	1	2	0	7.57	3.57	5
288	1	3	0	7.57	4.57	5
289	1	3	0	7.57	5.57	5
290	1	3	0	7.57	6.57	5
291	1	3	0	7.57	7.57	5
292	1	3	0	7.57	8.57	5
293	1	3	0	7.57	9.57	5
294	1	3	0	7.57	10.57	5
295	1	3	0	7.57	11.57	5
296	1	3	0	7.57	12.57	5
297	1	2	0	7.57	13.57	5
298	1	2	0	8.57	3.57	5
299	1	3	0	8.57	4.57	5
300	1	3	0	8.57	5.57	5
301	1	3	0	8.57	6.57	5
302	1	3	0	8.57	7.57	5
303	1	3	0	8.57	8.57	5
304	1	3	0	8.57	9.57	5
305	1	3	0	8.57	10.57	5
306	1	3	0	8.57	11.57	5
307	1	3	0	8.57	12.57	5
308	1	2	0	8.57	13.57	5
309	1	2	0	9.57	3.57	5
310	1	3	0	9.57	4.57	5
311	1	3	0	9.57	5.57	5
312	1	3	0	9.57	6.57	5
313	1	3	0	9.57	7.57	5
314	1	3	0	9.57	8.57	5
315	1	3	0	9.57	9.57	5
316	1	3	0	9.57	10.57	5
317	1	3	0	9.57	11.57	5
318	1	3	0	9.57	12.57	5
319	1	2	0	9.57	13.57	5
320	1	2	0	10.57	3.57	5
321	1	3	0	10.57	4.57	5
322	1	3	0	10.57	5.57	5
323	1	3	0	10.57	6.57	5
324	1	3	0	10.57	7.57	5
325	1	3	0	10.57	8.57	5
326	1	3	0	10.57	9.57	5
327	1	3	0	10.57	10.57	5
328	1	3	0	10.57	11.57	5
329	1	3	0	10.57	12.57	5
330	1	2	0	10.57	13.57	5
331	1	2	0	11.57	3.57	5
332	1	3	0	11.57	4.57	5
333	1	3	0	11.57	5.57	5
334	1	3	0	11.57	6.57	5
335	1	3	0	11.57	7.57	5
336	1	3	0	11.57	8.57	5
337	1	3	0	11.57	9.57	5
338	1	3	0	11.57	10.57	5
339	1	3	0	11.57	11.57	5
340	1	3	0	11.57	12.57	5
341	1	2	0	11.57	13.57	5
343	1	2	0	12.57	4.57	5
344	1	3	0	12.57	5.57	5
345	1	3	0	12.57	6.57	5
346	1	3	0	12.57	7.57	5
347	1	3	0	12.57	8.57	5
348	1	3	0	12.57	9.57	5
349	1	3	0	12.57	10.57	5
350	1	3	0	12.57	11.57	5
351	1	2	0	12.57	12.57	5
355	1	2	0	13.57	5.57	5
356	1	2	0	13.57	6.57	5
357	1	2	0	13.57	7.57	5
358	1	2	0	13.57	8.57	5
359	1	2	0	13.57	9.57	5
360	1	2	0	13.57	10.57	5
361	1	2	0	13.57	11.57	5
365	1	2	0	3.57	4.57	6
366	1	2	0	3.57	5.57	6
367	1	2	0	3.57	6.57	6
368	1	2	0	3.57	7.57	6
369	1	2	0	3.57	8.57	6
370	1	2	0	3.57	9.57	6
371	1	2	0	3.57	10.57	6
372	1	2	0	3.57	11.57	6
373	1	2	0	3.57	12.57	6
375	1	2	0	4.57	3.57	6
376	1	3	0	4.57	4.57	6
377	1	3	0	4.57	5.57	6
378	1	3	0	4.57	6.57	6
379	1	3	0	4.57	7.57	6
380	1	3	0	4.57	8.57	6
381	1	3	0	4.57	9.57	6
382	1	3	0	4.57	10.57	6
383	1	3	0	4.57	11.57	6
384	1	3	0	4.57	12.57	6
385	1	2	0	4.57	13.57	6
386	1	2	0	5.57	3.57	6
387	1	3	0	5.57	4.57	6
388	1	3	0	5.57	5.57	6
389	1	3	0	5.57	6.57	6
390	1	3	0	5.57	7.57	6
391	1	3	0	5.57	8.57	6
392	1	3	0	5.57	9.57	6
393	1	3	0	5.57	10.57	6
394	1	3	0	5.57	11.57	6
395	1	3	0	5.57	12.57	6
396	1	2	0	5.57	13.57	6
397	1	2	0	6.57	3.57	6
398	1	3	0	6.57	4.57	6
399	1	3	0	6.57	5.57	6
400	1	3	0	6.57	6.57	6
401	1	3	0	6.57	7.57	6
402	1	3	0	6.57	8.57	6
403	1	3	0	6.57	9.57	6
404	1	3	0	6.57	10.57	6
405	1	3	0	6.57	11.57	6
406	1	3	0	6.57	12.57	6
407	1	2	0	6.57	13.57	6
408	1	2	0	7.57	3.57	6
409	1	3	0	7.57	4.57	6
410	1	3	0	7.57	5.57	6
411	1	3	0	7.57	6.57	6
412	1	3	0	7.57	7.57	6
413	1	3	0	7.57	8.57	6
414	1	3	0	7.57	9.57	6
415	1	3	0	7.57	10.57	6
416	1	3	0	7.57	11.57	6
417	1	3	0	7.57	12.57	6
418	1	2	0	7.57	13.57	6
419	1	2	0	8.57	3.57	6
420	1	3	0	8.57	4.57	6
421	1	3	0	8.57	5.57	6
422	1	3	0	8.57	6.57	6
423	1	3	0	8.57	7.57	6
424	1	3	0	8.57	8.57	6
425	1	3	0	8.57	9.57	6
426	1	3	0	8.57	10.57	6
427	1	3	0	8.57	11.57	6
428	1	3	0	8.57	12.57	6
429	1	2	0	8.57	13.57	6
430	1	2	0	9.57	3.57	6
431	1	3	0	9.57	4.57	6
432	1	3	0	9.57	5.57	6
433	1	3	0	9.57	6.57	6
434	1	3	0	9.57	7.57	6
435	1	3	0	9.57	8.57	6
436	1	3	0	9.57	9.57	6
437	1	3	0	9.57	10.57	6
438	1	3	0	9.57	11.57	6
439	1	3	0	9.57	12.57	6
440	1	2	0	9.57	13.57	6
441	1	2	0	10.57	3.57	6
442	1	3	0	10.57	4.57	6
443	1	3	0	10.57	5.57	6
444	1	3	0	10.57	6.57	6
445	1	3	0	10.57	7.57	6
446	1	3	0	10.57	8.57	6
447	1	3	0	10.57	9.57	6
448	1	3	0	10.57	10.57	6
449	1	3	0	10.57	11.57	6
450	1	3	0	10.57	12.57	6
451	1	2	0	10.57	13.57	6
452	1	2	0	11.57	3.57	6
453	1	3	0	11.57	4.57	6
454	1	3	0	11.57	5.57	6
455	1	3	0	11.57	6.57	6
456	1	3	0	11.57	7.57	6
457	1	3	0	11.57	8.57	6
458	1	3	0	11.57	9.57	6
459	1	3	0	11.57	10.57	6
460	1	3	0	11.57	11.57	6
461	1	3	0	11.57	12.57	6
462	1	2	0	11.57	13.57	6
463	1	2	0	12.57	3.57	6
464	1	3	0	12.57	4.57	6
465	1	3	0	12.57	5.57	6
466	1	3	0	12.57	6.57	6
467	1	3	0	12.57	7.57	6
468	1	3	0	12.57	8.57	6
469	1	3	0	12.57	9.57	6
470	1	3	0	12.57	10.57	6
471	1	3	0	12.57	11.57	6
472	1	3	0	12.57	12.57	6
473	1	2	0	12.57	13.57	6
475	1	2	0	13.57	4.57	6
476	1	2	0	13.57	5.57	6
477	1	2	0	13.57	6.57	6
478	1	2	0	13.57	7.57	6
479	1	2	0	13.57	8.57	6
480	1	2	0	13.57	9.57	6
481	1	2	0	13.57	10.57	6
482	1	2	0	13.57	11.57	6
483	1	2	0	13.57	12.57	6
486	1	2	0	3.57	4.57	7
487	1	2	0	3.57	5.57	7
488	1	2	0	3.57	6.57	7
489	1	2	0	3.57	7.57	7
490	1	2	0	3.57	8.57	7
491	1	2	0	3.57	9.57	7
492	1	2	0	3.57	10.57	7
493	1	2	0	3.57	11.57	7
494	1	2	0	3.57	12.57	7
496	1	2	0	4.57	3.57	7
497	1	3	0	4.57	4.57	7
498	1	3	0	4.57	5.57	7
499	1	3	0	4.57	6.57	7
500	1	3	0	4.57	7.57	7
501	1	3	0	4.57	8.57	7
502	1	3	0	4.57	9.57	7
503	1	3	0	4.57	10.57	7
504	1	3	0	4.57	11.57	7
505	1	3	0	4.57	12.57	7
506	1	2	0	4.57	13.57	7
507	1	2	0	5.57	3.57	7
508	1	3	0	5.57	4.57	7
509	1	3	0	5.57	5.57	7
510	1	3	0	5.57	6.57	7
511	1	3	0	5.57	7.57	7
512	1	3	0	5.57	8.57	7
513	1	3	0	5.57	9.57	7
514	1	3	0	5.57	10.57	7
515	1	3	0	5.57	11.57	7
516	1	3	0	5.57	12.57	7
517	1	2	0	5.57	13.57	7
518	1	2	0	6.57	3.57	7
519	1	3	0	6.57	4.57	7
520	1	3	0	6.57	5.57	7
521	1	3	0	6.57	6.57	7
522	1	3	0	6.57	7.57	7
523	1	3	0	6.57	8.57	7
524	1	3	0	6.57	9.57	7
525	1	3	0	6.57	10.57	7
526	1	3	0	6.57	11.57	7
527	1	3	0	6.57	12.57	7
528	1	2	0	6.57	13.57	7
529	1	2	0	7.57	3.57	7
530	1	3	0	7.57	4.57	7
531	1	3	0	7.57	5.57	7
532	1	3	0	7.57	6.57	7
533	1	3	0	7.57	7.57	7
534	1	3	0	7.57	8.57	7
535	1	3	0	7.57	9.57	7
536	1	3	0	7.57	10.57	7
537	1	3	0	7.57	11.57	7
538	1	3	0	7.57	12.57	7
539	1	2	0	7.57	13.57	7
540	1	2	0	8.57	3.57	7
541	1	3	0	8.57	4.57	7
542	1	3	0	8.57	5.57	7
543	1	3	0	8.57	6.57	7
544	1	3	0	8.57	7.57	7
545	1	3	0	8.57	8.57	7
546	1	3	0	8.57	9.57	7
547	1	3	0	8.57	10.57	7
548	1	3	0	8.57	11.57	7
549	1	3	0	8.57	12.57	7
550	1	2	0	8.57	13.57	7
551	1	2	0	9.57	3.57	7
552	1	3	0	9.57	4.57	7
553	1	3	0	9.57	5.57	7
554	1	3	0	9.57	6.57	7
555	1	3	0	9.57	7.57	7
556	1	3	0	9.57	8.57	7
557	1	3	0	9.57	9.57	7
558	1	3	0	9.57	10.57	7
559	1	3	0	9.57	11.57	7
560	1	3	0	9.57	12.57	7
561	1	2	0	9.57	13.57	7
562	1	2	0	10.57	3.57	7
563	1	3	0	10.57	4.57	7
564	1	3	0	10.57	5.57	7
565	1	3	0	10.57	6.57	7
566	1	3	0	10.57	7.57	7
567	1	3	0	10.57	8.57	7
568	1	3	0	10.57	9.57	7
569	1	3	0	10.57	10.57	7
570	1	3	0	10.57	11.57	7
571	1	3	0	10.57	12.57	7
572	1	2	0	10.57	13.57	7
573	1	2	0	11.57	3.57	7
574	1	3	0	11.57	4.57	7
575	1	3	0	11.57	5.57	7
576	1	3	0	11.57	6.57	7
577	1	3	0	11.57	7.57	7
578	1	3	0	11.57	8.57	7
579	1	3	0	11.57	9.57	7
580	1	3	0	11.57	10.57	7
581	1	3	0	11.57	11.57	7
582	1	3	0	11.57	12.57	7
583	1	2	0	11.57	13.57	7
584	1	2	0	12.57	3.57	7
585	1	3	0	12.57	4.57	7
586	1	3	0	12.57	5.57	7
587	1	3	0	12.57	6.57	7
588	1	3	0	12.57	7.57	7
589	1	3	0	12.57	8.57	7
590	1	3	0	12.57	9.57	7
591	1	3	0	12.57	10.57	7
592	1	3	0	12.57	11.57	7
593	1	3	0	12.57	12.57	7
594	1	2	0	12.57	13.57	7
596	1	2	0	13.57	4.57	7
597	1	2	0	13.57	5.57	7
598	1	2	0	13.57	6.57	7
599	1	2	0	13.57	7.57	7
600	1	2	0	13.57	8.57	7
601	1	2	0	13.57	9.57	7
602	1	2	0	13.57	10.57	7
603	1	2	0	13.57	11.57	7
604	1	2	0	13.57	12.57	7
607	1	2	0	3.57	4.57	8
608	1	2	0	3.57	5.57	8
609	1	2	0	3.57	6.57	8
610	1	2	0	3.57	7.57	8
611	1	2	0	3.57	8.57	8
612	1	2	0	3.57	9.57	8
613	1	2	0	3.57	10.57	8
614	1	2	0	3.57	11.57	8
615	1	2	0	3.57	12.57	8
617	1	2	0	4.57	3.57	8
618	1	3	0	4.57	4.57	8
619	1	3	0	4.57	5.57	8
620	1	3	0	4.57	6.57	8
621	1	3	0	4.57	7.57	8
622	1	3	0	4.57	8.57	8
623	1	3	0	4.57	9.57	8
624	1	3	0	4.57	10.57	8
625	1	3	0	4.57	11.57	8
626	1	3	0	4.57	12.57	8
627	1	2	0	4.57	13.57	8
628	1	2	0	5.57	3.57	8
629	1	3	0	5.57	4.57	8
630	1	3	0	5.57	5.57	8
631	1	3	0	5.57	6.57	8
632	1	3	0	5.57	7.57	8
633	1	3	0	5.57	8.57	8
634	1	3	0	5.57	9.57	8
635	1	3	0	5.57	10.57	8
636	1	3	0	5.57	11.57	8
637	1	3	0	5.57	12.57	8
638	1	2	0	5.57	13.57	8
639	1	2	0	6.57	3.57	8
640	1	3	0	6.57	4.57	8
641	1	3	0	6.57	5.57	8
642	1	3	0	6.57	6.57	8
643	1	3	0	6.57	7.57	8
644	1	3	0	6.57	8.57	8
645	1	3	0	6.57	9.57	8
646	1	3	0	6.57	10.57	8
647	1	3	0	6.57	11.57	8
648	1	3	0	6.57	12.57	8
649	1	2	0	6.57	13.57	8
650	1	2	0	7.57	3.57	8
651	1	3	0	7.57	4.57	8
652	1	3	0	7.57	5.57	8
653	1	3	0	7.57	6.57	8
654	1	3	0	7.57	7.57	8
655	1	3	0	7.57	8.57	8
656	1	3	0	7.57	9.57	8
657	1	3	0	7.57	10.57	8
658	1	3	0	7.57	11.57	8
659	1	3	0	7.57	12.57	8
660	1	2	0	7.57	13.57	8
661	1	2	0	8.57	3.57	8
662	1	3	0	8.57	4.57	8
663	1	3	0	8.57	5.57	8
664	1	3	0	8.57	6.57	8
665	1	3	0	8.57	7.57	8
666	1	3	0	8.57	8.57	8
667	1	3	0	8.57	9.57	8
668	1	3	0	8.57	10.57	8
669	1	3	0	8.57	11.57	8
670	1	3	0	8.57	12.57	8
671	1	2	0	8.57	13.57	8
672	1	2	0	9.57	3.57	8
673	1	3	0	9.57	4.57	8
674	1	3	0	9.57	5.57	8
675	1	3	0	9.57	6.57	8
676	1	3	0	9.57	7.57	8
677	1	3	0	9.57	8.57	8
678	1	3	0	9.57	9.57	8
679	1	3	0	9.57	10.57	8
680	1	3	0	9.57	11.57	8
681	1	3	0	9.57	12.57	8
682	1	2	0	9.57	13.57	8
683	1	2	0	10.57	3.57	8
684	1	3	0	10.57	4.57	8
685	1	3	0	10.57	5.57	8
686	1	3	0	10.57	6.57	8
687	1	3	0	10.57	7.57	8
688	1	3	0	10.57	8.57	8
689	1	3	0	10.57	9.57	8
690	1	3	0	10.57	10.57	8
691	1	3	0	10.57	11.57	8
692	1	3	0	10.57	12.57	8
693	1	2	0	10.57	13.57	8
694	1	2	0	11.57	3.57	8
695	1	3	0	11.57	4.57	8
696	1	3	0	11.57	5.57	8
697	1	3	0	11.57	6.57	8
698	1	3	0	11.57	7.57	8
699	1	3	0	11.57	8.57	8
700	1	3	0	11.57	9.57	8
701	1	3	0	11.57	10.57	8
702	1	3	0	11.57	11.57	8
703	1	3	0	11.57	12.57	8
704	1	2	0	11.57	13.57	8
705	1	2	0	12.57	3.57	8
706	1	3	0	12.57	4.57	8
707	1	3	0	12.57	5.57	8
708	1	3	0	12.57	6.57	8
709	1	3	0	12.57	7.57	8
710	1	3	0	12.57	8.57	8
711	1	3	0	12.57	9.57	8
712	1	3	0	12.57	10.57	8
713	1	3	0	12.57	11.57	8
714	1	3	0	12.57	12.57	8
715	1	2	0	12.57	13.57	8
717	1	2	0	13.57	4.57	8
718	1	2	0	13.57	5.57	8
719	1	2	0	13.57	6.57	8
720	1	2	0	13.57	7.57	8
721	1	2	0	13.57	8.57	8
722	1	2	0	13.57	9.57	8
723	1	2	0	13.57	10.57	8
724	1	2	0	13.57	11.57	8
725	1	2	0	13.57	12.57	8
728	1	2	0	3.57	4.57	9
729	1	2	0	3.57	5.57	9
730	1	2	0	3.57	6.57	9
731	1	2	0	3.57	7.57	9
732	1	2	0	3.57	8.57	9
733	1	2	0	3.57	9.57	9
734	1	2	0	3.57	10.57	9
735	1	2	0	3.57	11.57	9
736	1	2	0	3.57	12.57	9
738	1	2	0	4.57	3.57	9
739	1	3	0	4.57	4.57	9
740	1	3	0	4.57	5.57	9
741	1	3	0	4.57	6.57	9
742	1	3	0	4.57	7.57	9
743	1	3	0	4.57	8.57	9
744	1	3	0	4.57	9.57	9
745	1	3	0	4.57	10.57	9
746	1	3	0	4.57	11.57	9
747	1	3	0	4.57	12.57	9
748	1	2	0	4.57	13.57	9
749	1	2	0	5.57	3.57	9
750	1	3	0	5.57	4.57	9
751	1	3	0	5.57	5.57	9
752	1	3	0	5.57	6.57	9
753	1	3	0	5.57	7.57	9
754	1	3	0	5.57	8.57	9
755	1	3	0	5.57	9.57	9
756	1	3	0	5.57	10.57	9
757	1	3	0	5.57	11.57	9
758	1	3	0	5.57	12.57	9
759	1	2	0	5.57	13.57	9
760	1	2	0	6.57	3.57	9
761	1	3	0	6.57	4.57	9
762	1	3	0	6.57	5.57	9
763	1	3	0	6.57	6.57	9
764	1	3	0	6.57	7.57	9
765	1	3	0	6.57	8.57	9
766	1	3	0	6.57	9.57	9
767	1	3	0	6.57	10.57	9
768	1	3	0	6.57	11.57	9
769	1	3	0	6.57	12.57	9
770	1	2	0	6.57	13.57	9
771	1	2	0	7.57	3.57	9
772	1	3	0	7.57	4.57	9
773	1	3	0	7.57	5.57	9
774	1	3	0	7.57	6.57	9
775	1	3	0	7.57	7.57	9
776	1	3	0	7.57	8.57	9
777	1	3	0	7.57	9.57	9
778	1	3	0	7.57	10.57	9
779	1	3	0	7.57	11.57	9
780	1	3	0	7.57	12.57	9
781	1	2	0	7.57	13.57	9
782	1	2	0	8.57	3.57	9
783	1	3	0	8.57	4.57	9
784	1	3	0	8.57	5.57	9
785	1	3	0	8.57	6.57	9
786	1	3	0	8.57	7.57	9
787	1	3	0	8.57	8.57	9
788	1	3	0	8.57	9.57	9
789	1	3	0	8.57	10.57	9
790	1	3	0	8.57	11.57	9
791	1	3	0	8.57	12.57	9
792	1	2	0	8.57	13.57	9
793	1	2	0	9.57	3.57	9
794	1	3	0	9.57	4.57	9
795	1	3	0	9.57	5.57	9
796	1	3	0	9.57	6.57	9
797	1	3	0	9.57	7.57	9
798	1	3	0	9.57	8.57	9
799	1	3	0	9.57	9.57	9
800	1	3	0	9.57	10.57	9
801	1	3	0	9.57	11.57	9
802	1	3	0	9.57	12.57	9
803	1	2	0	9.57	13.57	9
804	1	2	0	10.57	3.57	9
805	1	3	0	10.57	4.57	9
806	1	3	0	10.57	5.57	9
807	1	3	0	10.57	6.57	9
808	1	3	0	10.57	7.57	9
809	1	3	0	10.57	8.57	9
810	1	3	0	10.57	9.57	9
811	1	3	0	10.57	10.57	9
812	1	3	0	10.57	11.57	9
813	1	3	0	10.57	12.57	9
814	1	2	0	10.57	13.57	9
815	1	2	0	11.57	3.57	9
816	1	3	0	11.57	4.57	9
817	1	3	0	11.57	5.57	9
818	1	3	0	11.57	6.57	9
819	1	3	0	11.57	7.57	9
820	1	3	0	11.57	8.57	9
821	1	3	0	11.57	9.57	9
822	1	3	0	11.57	10.57	9
823	1	3	0	11.57	11.57	9
824	1	3	0	11.57	12.57	9
825	1	2	0	11.57	13.57	9
826	1	2	0	12.57	3.57	9
827	1	3	0	12.57	4.57	9
828	1	3	0	12.57	5.57	9
829	1	3	0	12.57	6.57	9
830	1	3	0	12.57	7.57	9
831	1	3	0	12.57	8.57	9
832	1	3	0	12.57	9.57	9
833	1	3	0	12.57	10.57	9
834	1	3	0	12.57	11.57	9
835	1	3	0	12.57	12.57	9
836	1	2	0	12.57	13.57	9
838	1	2	0	13.57	4.57	9
839	1	2	0	13.57	5.57	9
840	1	2	0	13.57	6.57	9
841	1	2	0	13.57	7.57	9
842	1	2	0	13.57	8.57	9
843	1	2	0	13.57	9.57	9
844	1	2	0	13.57	10.57	9
845	1	2	0	13.57	11.57	9
846	1	2	0	13.57	12.57	9
849	1	2	0	3.57	4.57	10
850	1	2	0	3.57	5.57	10
851	1	2	0	3.57	6.57	10
852	1	2	0	3.57	7.57	10
853	1	2	0	3.57	8.57	10
854	1	2	0	3.57	9.57	10
855	1	2	0	3.57	10.57	10
856	1	2	0	3.57	11.57	10
857	1	2	0	3.57	12.57	10
859	1	2	0	4.57	3.57	10
860	1	3	0	4.57	4.57	10
861	1	3	0	4.57	5.57	10
862	1	3	0	4.57	6.57	10
863	1	3	0	4.57	7.57	10
864	1	3	0	4.57	8.57	10
865	1	3	0	4.57	9.57	10
866	1	3	0	4.57	10.57	10
867	1	3	0	4.57	11.57	10
868	1	3	0	4.57	12.57	10
869	1	2	0	4.57	13.57	10
870	1	2	0	5.57	3.57	10
871	1	3	0	5.57	4.57	10
872	1	3	0	5.57	5.57	10
873	1	3	0	5.57	6.57	10
874	1	3	0	5.57	7.57	10
875	1	3	0	5.57	8.57	10
876	1	3	0	5.57	9.57	10
877	1	3	0	5.57	10.57	10
878	1	3	0	5.57	11.57	10
879	1	3	0	5.57	12.57	10
880	1	2	0	5.57	13.57	10
881	1	2	0	6.57	3.57	10
882	1	3	0	6.57	4.57	10
883	1	3	0	6.57	5.57	10
884	1	3	0	6.57	6.57	10
885	1	3	0	6.57	7.57	10
886	1	3	0	6.57	8.57	10
887	1	3	0	6.57	9.57	10
888	1	3	0	6.57	10.57	10
889	1	3	0	6.57	11.57	10
890	1	3	0	6.57	12.57	10
891	1	2	0	6.57	13.57	10
892	1	2	0	7.57	3.57	10
893	1	3	0	7.57	4.57	10
894	1	3	0	7.57	5.57	10
895	1	3	0	7.57	6.57	10
896	1	3	0	7.57	7.57	10
897	1	3	0	7.57	8.57	10
898	1	3	0	7.57	9.57	10
899	1	3	0	7.57	10.57	10
900	1	3	0	7.57	11.57	10
901	1	3	0	7.57	12.57	10
902	1	2	0	7.57	13.57	10
903	1	2	0	8.57	3.57	10
904	1	3	0	8.57	4.57	10
905	1	3	0	8.57	5.57	10
906	1	3	0	8.57	6.57	10
907	1	3	0	8.57	7.57	10
908	1	3	0	8.57	8.57	10
909	1	3	0	8.57	9.57	10
910	1	3	0	8.57	10.57	10
911	1	3	0	8.57	11.57	10
912	1	3	0	8.57	12.57	10
913	1	2	0	8.57	13.57	10
914	1	2	0	9.57	3.57	10
915	1	3	0	9.57	4.57	10
916	1	3	0	9.57	5.57	10
917	1	3	0	9.57	6.57	10
918	1	3	0	9.57	7.57	10
919	1	3	0	9.57	8.57	10
920	1	3	0	9.57	9.57	10
921	1	3	0	9.57	10.57	10
922	1	3	0	9.57	11.57	10
923	1	3	0	9.57	12.57	10
924	1	2	0	9.57	13.57	10
925	1	2	0	10.57	3.57	10
926	1	3	0	10.57	4.57	10
927	1	3	0	10.57	5.57	10
928	1	3	0	10.57	6.57	10
929	1	3	0	10.57	7.57	10
930	1	3	0	10.57	8.57	10
931	1	3	0	10.57	9.57	10
932	1	3	0	10.57	10.57	10
933	1	3	0	10.57	11.57	10
934	1	3	0	10.57	12.57	10
935	1	2	0	10.57	13.57	10
936	1	2	0	11.57	3.57	10
937	1	3	0	11.57	4.57	10
938	1	3	0	11.57	5.57	10
939	1	3	0	11.57	6.57	10
940	1	3	0	11.57	7.57	10
941	1	3	0	11.57	8.57	10
942	1	3	0	11.57	9.57	10
943	1	3	0	11.57	10.57	10
944	1	3	0	11.57	11.57	10
945	1	3	0	11.57	12.57	10
946	1	2	0	11.57	13.57	10
947	1	2	0	12.57	3.57	10
948	1	3	0	12.57	4.57	10
949	1	3	0	12.57	5.57	10
950	1	3	0	12.57	6.57	10
951	1	3	0	12.57	7.57	10
952	1	3	0	12.57	8.57	10
953	1	3	0	12.57	9.57	10
954	1	3	0	12.57	10.57	10
955	1	3	0	12.57	11.57	10
956	1	3	0	12.57	12.57	10
957	1	2	0	12.57	13.57	10
959	1	2	0	13.57	4.57	10
960	1	2	0	13.57	5.57	10
961	1	2	0	13.57	6.57	10
962	1	2	0	13.57	7.57	10
963	1	2	0	13.57	8.57	10
964	1	2	0	13.57	9.57	10
965	1	2	0	13.57	10.57	10
966	1	2	0	13.57	11.57	10
967	1	2	0	13.57	12.57	10
971	1	2	0	3.57	5.57	11
972	1	2	0	3.57	6.57	11
973	1	2	0	3.57	7.57	11
974	1	2	0	3.57	8.57	11
975	1	2	0	3.57	9.57	11
976	1	2	0	3.57	10.57	11
977	1	2	0	3.57	11.57	11
981	1	2	0	4.57	4.57	11
982	1	3	0	4.57	5.57	11
983	1	3	0	4.57	6.57	11
984	1	3	0	4.57	7.57	11
985	1	3	0	4.57	8.57	11
986	1	3	0	4.57	9.57	11
987	1	3	0	4.57	10.57	11
988	1	3	0	4.57	11.57	11
989	1	2	0	4.57	12.57	11
991	1	2	0	5.57	3.57	11
992	1	3	0	5.57	4.57	11
993	1	3	0	5.57	5.57	11
994	1	3	0	5.57	6.57	11
995	1	3	0	5.57	7.57	11
996	1	3	0	5.57	8.57	11
997	1	3	0	5.57	9.57	11
998	1	3	0	5.57	10.57	11
999	1	3	0	5.57	11.57	11
1000	1	3	0	5.57	12.57	11
1001	1	2	0	5.57	13.57	11
1002	1	2	0	6.57	3.57	11
1003	1	3	0	6.57	4.57	11
1004	1	3	0	6.57	5.57	11
1005	1	3	0	6.57	6.57	11
1006	1	3	0	6.57	7.57	11
1007	1	3	0	6.57	8.57	11
1008	1	3	0	6.57	9.57	11
1009	1	3	0	6.57	10.57	11
1010	1	3	0	6.57	11.57	11
1011	1	3	0	6.57	12.57	11
1012	1	2	0	6.57	13.57	11
1013	1	2	0	7.57	3.57	11
1014	1	3	0	7.57	4.57	11
1015	1	3	0	7.57	5.57	11
1016	1	3	0	7.57	6.57	11
1017	1	3	0	7.57	7.57	11
1018	1	3	0	7.57	8.57	11
1019	1	3	0	7.57	9.57	11
1020	1	3	0	7.57	10.57	11
1021	1	3	0	7.57	11.57	11
1022	1	3	0	7.57	12.57	11
1023	1	2	0	7.57	13.57	11
1024	1	2	0	8.57	3.57	11
1025	1	3	0	8.57	4.57	11
1026	1	3	0	8.57	5.57	11
1027	1	3	0	8.57	6.57	11
1028	1	3	0	8.57	7.57	11
1029	1	3	0	8.57	8.57	11
1030	1	3	0	8.57	9.57	11
1031	1	3	0	8.57	10.57	11
1032	1	3	0	8.57	11.57	11
1033	1	3	0	8.57	12.57	11
1034	1	2	0	8.57	13.57	11
1035	1	2	0	9.57	3.57	11
1036	1	3	0	9.57	4.57	11
1037	1	3	0	9.57	5.57	11
1038	1	3	0	9.57	6.57	11
1039	1	3	0	9.57	7.57	11
1040	1	3	0	9.57	8.57	11
1041	1	3	0	9.57	9.57	11
1042	1	3	0	9.57	10.57	11
1043	1	3	0	9.57	11.57	11
1044	1	3	0	9.57	12.57	11
1045	1	2	0	9.57	13.57	11
1046	1	2	0	10.57	3.57	11
1047	1	3	0	10.57	4.57	11
1048	1	3	0	10.57	5.57	11
1049	1	3	0	10.57	6.57	11
1050	1	3	0	10.57	7.57	11
1051	1	3	0	10.57	8.57	11
1052	1	3	0	10.57	9.57	11
1053	1	3	0	10.57	10.57	11
1054	1	3	0	10.57	11.57	11
1055	1	3	0	10.57	12.57	11
1056	1	2	0	10.57	13.57	11
1057	1	2	0	11.57	3.57	11
1058	1	3	0	11.57	4.57	11
1059	1	3	0	11.57	5.57	11
1060	1	3	0	11.57	6.57	11
1061	1	3	0	11.57	7.57	11
1062	1	3	0	11.57	8.57	11
1063	1	3	0	11.57	9.57	11
1064	1	3	0	11.57	10.57	11
1065	1	3	0	11.57	11.57	11
1066	1	3	0	11.57	12.57	11
1067	1	2	0	11.57	13.57	11
1069	1	2	0	12.57	4.57	11
1070	1	3	0	12.57	5.57	11
1071	1	3	0	12.57	6.57	11
1072	1	3	0	12.57	7.57	11
1073	1	3	0	12.57	8.57	11
1074	1	3	0	12.57	9.57	11
1075	1	3	0	12.57	10.57	11
1076	1	3	0	12.57	11.57	11
1077	1	2	0	12.57	12.57	11
1081	1	2	0	13.57	5.57	11
1082	1	2	0	13.57	6.57	11
1083	1	2	0	13.57	7.57	11
1084	1	2	0	13.57	8.57	11
1085	1	2	0	13.57	9.57	11
1086	1	2	0	13.57	10.57	11
1087	1	2	0	13.57	11.57	11
1093	1	2	0	3.57	6.57	12
1094	1	2	0	3.57	7.57	12
1095	1	2	0	3.57	8.57	12
1096	1	2	0	3.57	9.57	12
1097	1	2	0	3.57	10.57	12
1102	1	2	0	4.57	4.57	12
1103	1	2	0	4.57	5.57	12
1104	1	3	0	4.57	6.57	12
1105	1	3	0	4.57	7.57	12
1106	1	3	0	4.57	8.57	12
1107	1	3	0	4.57	9.57	12
1108	1	3	0	4.57	10.57	12
1109	1	2	0	4.57	11.57	12
1110	1	2	0	4.57	12.57	12
1113	1	2	0	5.57	4.57	12
1114	1	3	0	5.57	5.57	12
1115	1	3	0	5.57	6.57	12
1116	1	3	0	5.57	7.57	12
1117	1	3	0	5.57	8.57	12
1118	1	3	0	5.57	9.57	12
1119	1	3	0	5.57	10.57	12
1120	1	3	0	5.57	11.57	12
1121	1	2	0	5.57	12.57	12
1123	1	2	0	6.57	3.57	12
1124	1	3	0	6.57	4.57	12
1125	1	3	0	6.57	5.57	12
1126	1	3	0	6.57	6.57	12
1127	1	3	0	6.57	7.57	12
1128	1	3	0	6.57	8.57	12
1129	1	3	0	6.57	9.57	12
1130	1	3	0	6.57	10.57	12
1131	1	3	0	6.57	11.57	12
1132	1	3	0	6.57	12.57	12
1133	1	2	0	6.57	13.57	12
1134	1	2	0	7.57	3.57	12
1135	1	3	0	7.57	4.57	12
1136	1	3	0	7.57	5.57	12
1137	1	3	0	7.57	6.57	12
1138	1	3	0	7.57	7.57	12
1139	1	3	0	7.57	8.57	12
1140	1	3	0	7.57	9.57	12
1141	1	3	0	7.57	10.57	12
1142	1	3	0	7.57	11.57	12
1143	1	3	0	7.57	12.57	12
1144	1	2	0	7.57	13.57	12
1145	1	2	0	8.57	3.57	12
1146	1	3	0	8.57	4.57	12
1147	1	3	0	8.57	5.57	12
1148	1	3	0	8.57	6.57	12
1149	1	3	0	8.57	7.57	12
1150	1	3	0	8.57	8.57	12
1151	1	3	0	8.57	9.57	12
1152	1	3	0	8.57	10.57	12
1153	1	3	0	8.57	11.57	12
1154	1	3	0	8.57	12.57	12
1155	1	2	0	8.57	13.57	12
1156	1	2	0	9.57	3.57	12
1157	1	3	0	9.57	4.57	12
1158	1	3	0	9.57	5.57	12
1159	1	3	0	9.57	6.57	12
1160	1	3	0	9.57	7.57	12
1161	1	3	0	9.57	8.57	12
1162	1	3	0	9.57	9.57	12
1163	1	3	0	9.57	10.57	12
1164	1	3	0	9.57	11.57	12
1165	1	3	0	9.57	12.57	12
1166	1	2	0	9.57	13.57	12
1167	1	2	0	10.57	3.57	12
1168	1	3	0	10.57	4.57	12
1169	1	3	0	10.57	5.57	12
1170	1	3	0	10.57	6.57	12
1171	1	3	0	10.57	7.57	12
1172	1	3	0	10.57	8.57	12
1173	1	3	0	10.57	9.57	12
1174	1	3	0	10.57	10.57	12
1175	1	3	0	10.57	11.57	12
1176	1	3	0	10.57	12.57	12
1177	1	2	0	10.57	13.57	12
1179	1	2	0	11.57	4.57	12
1180	1	3	0	11.57	5.57	12
1181	1	3	0	11.57	6.57	12
1182	1	3	0	11.57	7.57	12
1183	1	3	0	11.57	8.57	12
1184	1	3	0	11.57	9.57	12
1185	1	3	0	11.57	10.57	12
1186	1	3	0	11.57	11.57	12
1187	1	2	0	11.57	12.57	12
1190	1	2	0	12.57	4.57	12
1191	1	2	0	12.57	5.57	12
1192	1	3	0	12.57	6.57	12
1193	1	3	0	12.57	7.57	12
1194	1	3	0	12.57	8.57	12
1195	1	3	0	12.57	9.57	12
1196	1	3	0	12.57	10.57	12
1197	1	2	0	12.57	11.57	12
1198	1	2	0	12.57	12.57	12
1203	1	2	0	13.57	6.57	12
1204	1	2	0	13.57	7.57	12
1205	1	2	0	13.57	8.57	12
1206	1	2	0	13.57	9.57	12
1207	1	2	0	13.57	10.57	12
1225	1	2	0	4.57	6.57	13
1226	1	2	0	4.57	7.57	13
1227	1	2	0	4.57	8.57	13
1228	1	2	0	4.57	9.57	13
1229	1	2	0	4.57	10.57	13
1235	1	2	0	5.57	5.57	13
1236	1	2	0	5.57	6.57	13
1237	1	2	0	5.57	7.57	13
1238	1	2	0	5.57	8.57	13
1239	1	2	0	5.57	9.57	13
1240	1	2	0	5.57	10.57	13
1241	1	2	0	5.57	11.57	13
1245	1	2	0	6.57	4.57	13
1246	1	2	0	6.57	5.57	13
1247	1	2	0	6.57	6.57	13
1248	1	2	0	6.57	7.57	13
1249	1	2	0	6.57	8.57	13
1250	1	2	0	6.57	9.57	13
1251	1	2	0	6.57	10.57	13
1252	1	2	0	6.57	11.57	13
1253	1	2	0	6.57	12.57	13
1256	1	2	0	7.57	4.57	13
1257	1	2	0	7.57	5.57	13
1258	1	2	0	7.57	6.57	13
1259	1	2	0	7.57	7.57	13
1260	1	2	0	7.57	8.57	13
1261	1	2	0	7.57	9.57	13
1262	1	2	0	7.57	10.57	13
1263	1	2	0	7.57	11.57	13
1264	1	2	0	7.57	12.57	13
1267	1	2	0	8.57	4.57	13
1268	1	2	0	8.57	5.57	13
1269	1	2	0	8.57	6.57	13
1270	1	2	0	8.57	7.57	13
1271	1	2	0	8.57	8.57	13
1272	1	2	0	8.57	9.57	13
1273	1	2	0	8.57	10.57	13
1274	1	2	0	8.57	11.57	13
1275	1	2	0	8.57	12.57	13
1278	1	2	0	9.57	4.57	13
1279	1	2	0	9.57	5.57	13
1280	1	2	0	9.57	6.57	13
1281	1	2	0	9.57	7.57	13
1282	1	2	0	9.57	8.57	13
1283	1	2	0	9.57	9.57	13
1284	1	2	0	9.57	10.57	13
1285	1	2	0	9.57	11.57	13
1286	1	2	0	9.57	12.57	13
1289	1	2	0	10.57	4.57	13
1290	1	2	0	10.57	5.57	13
1291	1	2	0	10.57	6.57	13
1292	1	2	0	10.57	7.57	13
1293	1	2	0	10.57	8.57	13
1294	1	2	0	10.57	9.57	13
1295	1	2	0	10.57	10.57	13
1296	1	2	0	10.57	11.57	13
1297	1	2	0	10.57	12.57	13
1301	1	2	0	11.57	5.57	13
1302	1	2	0	11.57	6.57	13
1303	1	2	0	11.57	7.57	13
1304	1	2	0	11.57	8.57	13
1305	1	2	0	11.57	9.57	13
1306	1	2	0	11.57	10.57	13
1307	1	2	0	11.57	11.57	13
1313	1	2	0	12.57	6.57	13
1314	1	2	0	12.57	7.57	13
1315	1	2	0	12.57	8.57	13
1316	1	2	0	12.57	9.57	13
1317	1	2	0	12.57	10.57	13