LAMMPS (24 Dec 2020)
OMP_NUM_THREADS environment is not set. Defaulting to 1 thread. (src/comm.cpp:94)
  using 1 OpenMP thread(s) per MPI task
# Simple rigid body system
# needed variables:


units		lj
atom_style	full
dimension 	3
boundary	p p f
pair_style	lj/cut/opt 2.5


variable 	sigma		equal 1.0
variable 	epsilon 	equal 1.0

region		box block 0 80 0 80 0 160
create_box 	3 box
Created orthogonal box = (0.0000000 0.0000000 0.0000000) to (80.000000 80.000000 160.00000)
  2 by 3 by 8 MPI processor grid


lattice 	sc 0.66   # fluid phase
Lattice spacing in x,y,z = 1.1485556 1.1485556 1.1485556
region		fluid block EDGE EDGE EDGE EDGE 2 82
create_atoms 	1 region fluid
Created 396900 atoms
  create_atoms CPU = 0.009 seconds

lattice 	sc 0.045    # gas phase
Lattice spacing in x,y,z = 2.8114422 2.8114422 2.8114422
region		gas   block EDGE EDGE EDGE EDGE 83 158
create_atoms	1 region gas
Created 0 atoms
  create_atoms CPU = 0.004 seconds


mass		1 1.0
mass		2 1.0
mass		3 1.0

group		solvent type 1
396900 atoms in group solvent
velocity 	solvent create ${startTemp} 563435 loop geom
velocity 	solvent create 1.0 563435 loop geom

neighbor 	0.4 bin

pair_coeff	1 1 1.0 1.0
pair_coeff	2 2 0.0 0.0
pair_coeff	3 3 0.0 0.0
pair_coeff	2 3 0.0 0.0
pair_coeff	1 2*3 0.0 0.0

pair_modify 	shift yes


balance 	1.05 shift z 10 1.05
Balancing ...
Neighbor list info ...
  update every 1 steps, delay 10 steps, check yes
  max neighbors/atom: 2000, page size: 100000
  master list distance cutoff = 2.9
  ghost atom cutoff = 2.9
  binsize = 1.45, bins = 56 56 111
  1 neighbor lists, perpetual/occasional/extra = 1 0 0
  (1) pair lj/cut/opt, perpetual
      attributes: half, newton on
      pair build: half/bin/newton
      stencil: half/bin/3d/newton
      bin: standard
 rebalancing time: 0.013 seconds
  iteration count = 4
  initial/final maximal load/proc = 15120.000 9240.0000
  initial/final imbalance factor  = 1.8285714 1.1174603
  x cuts: 0.0000000 0.50000000 1.0000000
  y cuts: 0.0000000 0.33333333 0.66666667 1.0000000
  z cuts: 0.0000000 0.085937500 0.16406250 0.23437500 0.29687500 0.36718750 0.44531250 0.52343750 1.0000000


####################### WALLS ###########################


variable       epsilonWall equal 2*${epsilon}
variable       epsilonWall equal 2*1

variable       cutoffTop   equal   0.7147*${sigma}
variable       cutoffTop   equal   0.7147*1

variable       cutoffLow   equal   3*${sigma}
variable       cutoffLow   equal   3*1


fix            topWall all wall/lj93 zhi EDGE                ${epsilonWall} ${sigma} ${cutoffTop} units box
fix            topWall all wall/lj93 zhi EDGE                2 ${sigma} ${cutoffTop} units box
fix            topWall all wall/lj93 zhi EDGE                2 1 ${cutoffTop} units box
fix            topWall all wall/lj93 zhi EDGE                2 1 0.7147 units box

fix            lowWall all wall/lj93 zlo EDGE                ${epsilonWall} ${sigma} ${cutoffLow} units box
fix            lowWall all wall/lj93 zlo EDGE                2 ${sigma} ${cutoffLow} units box
fix            lowWall all wall/lj93 zlo EDGE                2 1 ${cutoffLow} units box
fix            lowWall all wall/lj93 zlo EDGE                2 1 3 units box


###################### COMPUTES ##########################

compute        bin1 solvent chunk/atom bin/1d z upper 1.0


######################	FIXES ############################


fix 		peclet solvent ave/chunk 1000 1 1000 bin1 density/number norm 		 none ave one file density.profile

fix 		 temp solvent ave/chunk 1000 1 1000 bin1 temp norm 		 none ave one file temp.profile

fix 		2 solvent nve


## Thermostat


region		regthermo block EDGE EDGE EDGE EDGE 0 20

group 		thermo dynamic solvent region regthermo every 1000
dynamic group thermo defined

fix 		3 thermo langevin ${startTemp} ${temp} 10 156453
fix 		3 thermo langevin 1.0 ${temp} 10 156453
fix 		3 thermo langevin 1.0 .7 10 156453



#### Load balancing


fix 		bal all balance 1000 1.05 shift z 10 1.05


############### Diagnostics and computes ###################
#compute 	com cube	  rigid/local	1 mol x y z
#compute 	quat cube	  rigid/local	1 mol quatw quati quatj quatk

thermo 		1000
thermo_style 	custom step temp epair evdwl etotal press pe ke atoms

dump		1 all custom 100000 dump.lammpstrj id mol type x y z
dump 		2 all image 10000 image.*.png type type
dump 		3 all movie 1000 movie.avi type type

#dump 		com cube local 1000 dump.*.xyz c_com[*]
#dump		quat cube      local 1000 dump.*.quat c_quat[*]


restart 	1000000 restart.dat
timestep 	0.005
timer 		full
New timer settings: style=full  mode=nosync  timeout=off

run		3000000
Per MPI rank memory allocation (min/avg/max) = 11.94 | 16.69 | 18.65 Mbytes
Step Temp E_pair E_vdwl TotEng Press PotEng KinEng Atoms 
       0            1   -1.2728193   -1.2728193   0.22717689    3.8122416   -1.2728193    1.4999962   396900 
    1000    1.7826493   -3.4563625   -3.4563625   -0.7823952    1.4292539   -3.4563625    2.6739673   396900 
    2000    1.5128598   -3.4587852   -3.4587852   -1.1895012   0.67512631   -3.4587852     2.269284   396900 
    3000    1.3215666   -3.3581615   -3.3581615   -1.3758166   0.33907558   -3.3581615    1.9823449   396900 
    4000    1.2464518   -3.3142782   -3.3142782   -1.4446052   0.25207043   -3.3142782     1.869673   396900 
    5000    1.2168367   -3.2853038   -3.2853038   -1.4600533   0.20171856   -3.2853038    1.8252505   396900 
    6000    1.2003955   -3.2516679   -3.2516679   -1.4510793   0.17949295   -3.2516679    1.8005886   396900 
    7000    1.1919678   -3.2184735   -3.2184735   -1.4305264   0.17447039   -3.2184735    1.7879471   396900 
    8000    1.1926536   -3.1953753   -3.1953753   -1.4063994   0.18463143   -3.1953753    1.7889759   396900 
    9000    1.1927053   -3.1751672   -3.1751672   -1.3861138   0.19140943   -3.1751672    1.7890534   396900 
   10000    1.1903397   -3.1501057   -3.1501057   -1.3646007   0.19606866   -3.1501057     1.785505   396900 
   11000     1.185046   -3.1252884   -3.1252884   -1.3477239   0.18937956   -3.1252884    1.7775645   396900 
   12000    1.1759558   -3.0981298   -3.0981298   -1.3342006    0.1779323   -3.0981298    1.7639293   396900 
   13000    1.1638655   -3.0679143   -3.0679143   -1.3221204   0.17377024   -3.0679143    1.7457939   396900 
   14000    1.1526674   -3.0388283   -3.0388283   -1.3098317   0.16050154   -3.0388283    1.7289967   396900 
   15000    1.1406949   -3.0134552   -3.0134552   -1.3024171   0.15344305   -3.0134552    1.7110381   396900 
   16000    1.1347307   -2.9952469   -2.9952469   -1.2931552   0.15252284   -2.9952469    1.7020917   396900 
   17000    1.1323119     -2.98885     -2.98885   -1.2903864   0.15921582     -2.98885    1.6984636   396900 
   18000    1.1278111   -2.9938868   -2.9938868   -1.3021744   0.16796699   -2.9938868    1.6917124   396900 
   19000    1.1205732   -3.0089612   -3.0089612   -1.3281056   0.17295765   -3.0089612    1.6808556   396900 
   20000    1.1136385   -3.0249178   -3.0249178   -1.3544643   0.16824198   -3.0249178    1.6704535   396900 
   21000    1.0998027   -3.0277644   -3.0277644   -1.3780645   0.17271972   -3.0277644    1.6496999   396900 
   22000    1.0903625   -3.0352924   -3.0352924   -1.3997527    0.1639116   -3.0352924    1.6355397   396900 
   23000    1.0815311   -3.0411966   -3.0411966   -1.4189041   0.16011062   -3.0411966    1.6222925   396900 
   24000    1.0728816   -3.0453903   -3.0453903    -1.436072   0.15422021   -3.0453903    1.6093183   396900 
   25000    1.0673015   -3.0491137   -3.0491137   -1.4481655   0.14698044   -3.0491137    1.6009482   396900 
   26000    1.0616597    -3.052145    -3.052145   -1.4596594   0.13572127    -3.052145    1.5924856   396900 
   27000    1.0574475   -3.0523193   -3.0523193    -1.466152    0.1372577   -3.0523193    1.5861673   396900 
   28000    1.0552657   -3.0505388   -3.0505388   -1.4676443   0.13044275   -3.0505388    1.5828945   396900 
   29000    1.0527378   -3.0483417   -3.0483417   -1.4692389   0.13158859   -3.0483417    1.5791028   396900 
   30000     1.051427   -3.0466313   -3.0466313   -1.4694948   0.12521749   -3.0466313    1.5771365   396900 
   31000    1.0484253   -3.0428612   -3.0428612   -1.4702272   0.12461394   -3.0428612     1.572634   396900 
   32000    1.0483906   -3.0419362   -3.0419362   -1.4693542   0.12373199   -3.0419362     1.572582   396900 
   33000    1.0471168   -3.0364864   -3.0364864   -1.4658152   0.12220283   -3.0364864    1.5706713   396900 
   34000    1.0435254   -3.0335406   -3.0335406   -1.4682564    0.1182534   -3.0335406    1.5652842   396900 
   35000    1.0415964   -3.0300713   -3.0300713   -1.4676806    0.1147024   -3.0300713    1.5623907   396900 
   36000    1.0436265   -3.0279236   -3.0279236   -1.4624878   0.11459679   -3.0279236    1.5654358   396900 
   37000    1.0426668    -3.023242    -3.023242   -1.4592458   0.10994308    -3.023242    1.5639962   396900 
   38000    1.0397917   -3.0155784   -3.0155784   -1.4558948   0.10976023   -3.0155784    1.5596836   396900 
   39000    1.0398367   -3.0125841   -3.0125841    -1.452833   0.10926894   -3.0125841    1.5597511   396900 
   40000    1.0383459   -3.0099046   -3.0099046   -1.4523897   0.10517323   -3.0099046    1.5575149   396900 
   41000    1.0366492   -3.0075846   -3.0075846   -1.4526147   0.10704077   -3.0075846    1.5549699   396900 
   42000     1.036177   -3.0039428   -3.0039428   -1.4496812   0.10065475   -3.0039428    1.5542616   396900 
   43000    1.0341611   -3.0000776   -3.0000776   -1.4488398   0.10286791   -3.0000776    1.5512378   396900 
   44000    1.0328567   -2.9952365   -2.9952365   -1.4459554   0.10042303   -2.9952365    1.5492811   396900 
   45000    1.0332499   -2.9936813   -2.9936813   -1.4438103  0.097159101   -2.9936813     1.549871   396900 
   46000    1.0330492   -2.9926505   -2.9926505   -1.4430806  0.094982804   -2.9926505    1.5495699   396900 
   47000    1.0324976    -2.989809    -2.989809   -1.4410666   0.10219737    -2.989809    1.5487424   396900 
   48000    1.0326341   -2.9883108   -2.9883108   -1.4393636    0.1021097   -2.9883108    1.5489472   396900 
   49000    1.0324375   -2.9897335   -2.9897335   -1.4410812  0.098349194   -2.9897335    1.5486523   396900 
   50000    1.0319956   -2.9901319   -2.9901319   -1.4421424   0.10185897   -2.9901319    1.5479895   396900 
   51000    1.0311655   -2.9897252   -2.9897252   -1.4429809   0.10102589   -2.9897252    1.5467443   396900 
   52000    1.0295132   -2.9898792   -2.9898792   -1.4456133   0.10214941   -2.9898792    1.5442659   396900 
   53000    1.0280527   -2.9886945   -2.9886945   -1.4466193  0.095141089   -2.9886945    1.5420752   396900 
   54000    1.0267716   -2.9906837   -2.9906837   -1.4505302  0.098748581   -2.9906837    1.5401535   396900 
   55000    1.0235697   -2.9905374   -2.9905374   -1.4551867  0.093096323   -2.9905374    1.5353507   396900 
   56000    1.0234186   -2.9917429   -2.9917429   -1.4566189  0.099246078   -2.9917429     1.535124   396900 
   57000    1.0253729   -2.9949998   -2.9949998   -1.4569444  0.090007181   -2.9949998    1.5380554   396900 
   58000    1.0246439   -2.9935391   -2.9935391    -1.456577  0.095065246   -2.9935391     1.536962   396900 
   59000    1.0236351   -2.9923433   -2.9923433   -1.4568944    0.1001372   -2.9923433    1.5354488   396900 
   60000    1.0235143   -2.9940595   -2.9940595   -1.4587919  0.095448903   -2.9940595    1.5352676   396900 
   61000    1.0239125   -2.9963123   -2.9963123   -1.4604474  0.090934774   -2.9963123    1.5358649   396900 
   62000     1.024351   -2.9963659   -2.9963659   -1.4598432  0.093276325   -2.9963659    1.5365227   396900 
   63000    1.0237399    -2.997857    -2.997857   -1.4622511  0.087526543    -2.997857     1.535606   396900 
   64000    1.0222281   -2.9962774   -2.9962774   -1.4629391  0.093464242   -2.9962774    1.5333383   396900 
   65000     1.022311   -2.9962421   -2.9962421   -1.4627795  0.087210857   -2.9962421    1.5334627   396900 
   66000    1.0201598   -2.9975065   -2.9975065   -1.4672706  0.087244198   -2.9975065    1.5302358   396900 
   67000    1.0223579   -2.9964712   -2.9964712   -1.4629382  0.091792013   -2.9964712     1.533533   396900 
   68000    1.0224338   -2.9978632   -2.9978632   -1.4642163  0.093664683   -2.9978632    1.5336468   396900 
   69000    1.0212108   -2.9960469   -2.9960469   -1.4642345   0.08922972   -2.9960469    1.5318124   396900 
   70000    1.0178875   -2.9939439   -2.9939439   -1.4671165  0.089560857   -2.9939439    1.5268273   396900 
   71000    1.0185485   -2.9927226   -2.9927226   -1.4649037  0.088934136   -2.9927226    1.5278189   396900 
   72000    1.0193176   -2.9944991   -2.9944991   -1.4655265   0.08658537   -2.9944991    1.5289726   396900 
   73000    1.0187475   -2.9957273   -2.9957273   -1.4676099  0.087722384   -2.9957273    1.5281174   396900 
   74000    1.0181848   -2.9951979   -2.9951979   -1.4679245  0.083737151   -2.9951979    1.5272734   396900 
   75000    1.0185764   -2.9973365   -2.9973365   -1.4694758    0.0892122   -2.9973365    1.5278607   396900 
   76000    1.0182508   -2.9977825   -2.9977825   -1.4704102  0.085286159   -2.9977825    1.5273724   396900 
   77000    1.0177515    -2.997004    -2.997004   -1.4703806  0.089507913    -2.997004    1.5266235   396900 
   78000    1.0165999   -2.9959056   -2.9959056   -1.4710096  0.087668496   -2.9959056     1.524896   396900 
   79000    1.0162787   -2.9972945   -2.9972945   -1.4728803  0.084642761   -2.9972945    1.5244142   396900 
   80000    1.0160473   -2.9982821   -2.9982821   -1.4742151  0.080761559   -2.9982821     1.524067   396900 
   81000    1.0182804   -2.9996583   -2.9996583   -1.4722415  0.084273203   -2.9996583    1.5274168   396900 
   82000    1.0153614   -2.9956408   -2.9956408   -1.4726026  0.088421442   -2.9956408    1.5230382   396900 
   83000    1.0183929   -2.9996679   -2.9996679   -1.4720824  0.085388981   -2.9996679    1.5275855   396900 
   84000    1.0146424   -2.9970273   -2.9970273   -1.4750675  0.082819248   -2.9970273    1.5219598   396900 
   85000    1.0156126   -2.9997718   -2.9997718   -1.4763568  0.086094352   -2.9997718     1.523415   396900 
   86000    1.0178845   -3.0007198   -3.0007198   -1.4738968  0.081814795   -3.0007198    1.5268229   396900 
   87000    1.0166433   -2.9991325   -2.9991325   -1.4741715  0.081494914   -2.9991325    1.5249611   396900 
   88000    1.0147374   -2.9988915   -2.9988915   -1.4767892  0.082870324   -2.9988915    1.5221023   396900 
   89000    1.0159713   -3.0023155   -3.0023155   -1.4783623  0.080145155   -3.0023155    1.5239532   396900 
   90000    1.0118769   -2.9983775   -2.9983775   -1.4805659  0.084562011   -2.9983775    1.5178116   396900 
   91000    1.0128873   -3.0004325   -3.0004325   -1.4811053  0.076873971   -3.0004325    1.5193272   396900 
   92000    1.0125787   -2.9998713   -2.9998713    -1.481007  0.084329169   -2.9998713    1.5188643   396900 
   93000    1.0136204   -3.0023486   -3.0023486   -1.4819218  0.084807965   -3.0023486    1.5204267   396900 
   94000    1.0103327   -2.9984988   -2.9984988   -1.4830036  0.082235107   -2.9984988    1.5154952   396900 
   95000    1.0122378    -3.002401    -3.002401    -1.484048  0.083866989    -3.002401    1.5183529   396900 
   96000    1.0133545   -3.0049922   -3.0049922   -1.4849643  0.086017496   -3.0049922    1.5200279   396900 
   97000    1.0113491   -3.0026883   -3.0026883   -1.4856684  0.078518045   -3.0026883    1.5170199   396900 
   98000    1.0114809   -3.0050337   -3.0050337   -1.4878161  0.083401156   -3.0050337    1.5172176   396900 
   99000    1.0125128   -3.0077852   -3.0077852   -1.4890198  0.081793508   -3.0077852    1.5187654   396900 
  100000    1.0109415   -3.0078756   -3.0078756   -1.4914671   0.08418115   -3.0078756    1.5164085   396900 
  101000     1.011823   -3.0094897   -3.0094897    -1.491759  0.083037744   -3.0094897    1.5177307   396900 
  102000    1.0129907   -3.0116311   -3.0116311   -1.4921489  0.084080608   -3.0116311    1.5194822   396900 
  103000    1.0128052   -3.0120919   -3.0120919    -1.492888  0.080592135   -3.0120919    1.5192039   396900 
  104000    1.0125018   -3.0132141   -3.0132141   -1.4944652  0.085546334   -3.0132141    1.5187488   396900 
  105000    1.0078525   -3.0083639   -3.0083639    -1.496589  0.079792432   -3.0083639     1.511775   396900 
  106000    1.0101989   -3.0121547   -3.0121547   -1.4968601  0.084114378   -3.0121547    1.5152946   396900 
  107000    1.0108732   -3.0129916   -3.0129916   -1.4966857  0.083830135   -3.0129916     1.516306   396900 
  108000    1.0112349   -3.0158331   -3.0158331   -1.4989846  0.078457677   -3.0158331    1.5168485   396900 
  109000    1.0108941   -3.0140665   -3.0140665   -1.4977293  0.083802547   -3.0140665    1.5163373   396900 
  110000    1.0115041   -3.0155265   -3.0155265   -1.4982742  0.078231306   -3.0155265    1.5172523   396900 
  111000    1.0098659   -3.0153572   -3.0153572   -1.5005621  0.079453541   -3.0153572    1.5147951   396900 
  112000      1.00849    -3.015232    -3.015232   -1.5025008  0.078315757    -3.015232    1.5127313   396900 
  113000    1.0093928   -3.0183957   -3.0183957   -1.5043103  0.079565418   -3.0183957    1.5140854   396900 
  114000    1.0080666   -3.0182385   -3.0182385   -1.5061423  0.079704545   -3.0182385    1.5120961   396900 
  115000    1.0103245   -3.0228801   -3.0228801   -1.5073972  0.078771618   -3.0228801    1.5154829   396900 
  116000    1.0083842    -3.022812    -3.022812   -1.5102396  0.081422704    -3.022812    1.5125724   396900 
  117000    1.0070981   -3.0230545   -3.0230545   -1.5124111  0.077568427   -3.0230545    1.5106434   396900 
  118000    1.0088165    -3.023302    -3.023302   -1.5100811  0.082236129    -3.023302    1.5132209   396900 
  119000    1.0103574   -3.0265543   -3.0265543    -1.511022  0.076703807   -3.0265543    1.5155323   396900 
  120000    1.0057423   -3.0217829   -3.0217829   -1.5131732  0.080635794   -3.0217829    1.5086097   396900 
  121000    1.0072305   -3.0250409   -3.0250409    -1.514199  0.080219648   -3.0250409    1.5108419   396900 
  122000    1.0079907   -3.0268052   -3.0268052   -1.5148229  0.074435519   -3.0268052    1.5119823   396900 
  123000    1.0069985   -3.0261423   -3.0261423   -1.5156483  0.080264017   -3.0261423     1.510494   396900 
  124000    1.0071346   -3.0287416   -3.0287416   -1.5180435  0.080477631   -3.0287416    1.5106981   396900 
  125000    1.0083037   -3.0296598   -3.0296598   -1.5172081  0.077414959   -3.0296598    1.5124518   396900 
  126000    1.0069252   -3.0275595   -3.0275595   -1.5171755  0.080006582   -3.0275595     1.510384   396900 
  127000    1.0073403    -3.029422    -3.029422   -1.5184154  0.071547514    -3.029422    1.5110067   396900 
  128000    1.0084771   -3.0314988   -3.0314988   -1.5187869  0.076645007   -3.0314988    1.5127118   396900 
  129000    1.0065125   -3.0292307   -3.0292307   -1.5194658  0.076593215   -3.0292307    1.5097649   396900 
  130000    1.0061853   -3.0295541   -3.0295541     -1.52028  0.077208453   -3.0295541    1.5092742   396900 
  131000    1.0077733   -3.0313163   -3.0313163   -1.5196601  0.074954906   -3.0313163    1.5116561   396900 
  132000    1.0084342   -3.0328975   -3.0328975   -1.5202499  0.074795019   -3.0328975    1.5126475   396900 
  133000    1.0067977   -3.0339821   -3.0339821   -1.5237894  0.083444526   -3.0339821    1.5101927   396900 
  134000    1.0073332   -3.0360672   -3.0360672   -1.5250712  0.077462499   -3.0360672     1.510996   396900 
  135000    1.0081393   -3.0359775   -3.0359775   -1.5237724  0.082675634   -3.0359775    1.5122051   396900 
  136000    1.0060932   -3.0345654   -3.0345654   -1.5254294  0.076113299   -3.0345654     1.509136   396900 
  137000    1.0051453   -3.0352288   -3.0352288   -1.5275146  0.074387141   -3.0352288    1.5077142   396900 
  138000    1.0036664    -3.034046    -3.034046   -1.5285502  0.074909721    -3.034046    1.5054958   396900 
  139000    1.0040943   -3.0340294   -3.0340294   -1.5278918  0.081652142   -3.0340294    1.5061376   396900 
  140000    1.0071669   -3.0386811   -3.0386811   -1.5279345   0.08020836   -3.0386811    1.5107466   396900 
  141000    1.0047722   -3.0382721   -3.0382721   -1.5311176  0.077473664   -3.0382721    1.5071545   396900 
  142000    1.0045701   -3.0388956   -3.0388956   -1.5320442  0.073819101   -3.0388956    1.5068514   396900 
  143000    1.0041674   -3.0387602   -3.0387602   -1.5325129  0.073057693   -3.0387602    1.5062473   396900 
  144000    1.0052622   -3.0436439   -3.0436439   -1.5357543  0.073207111   -3.0436439    1.5078895   396900 
  145000    1.0058101   -3.0435797   -3.0435797   -1.5348684  0.080597922   -3.0435797    1.5087113   396900 
  146000    1.0034349   -3.0441766   -3.0441766   -1.5390279  0.075048884   -3.0441766    1.5051486   396900 
  147000    1.0041501   -3.0453637   -3.0453637   -1.5391424  0.074464989   -3.0453637    1.5062213   396900 
  148000    1.0032359   -3.0475579   -3.0475579   -1.5427078   0.07137262   -3.0475579      1.50485   396900 
  149000    1.0034813   -3.0474829   -3.0474829   -1.5422648  0.077661338   -3.0474829    1.5052181   396900 
  150000    1.0034673   -3.0474858   -3.0474858   -1.5422887   0.07548732   -3.0474858    1.5051971   396900 
  151000    1.0032996   -3.0504665   -3.0504665   -1.5455209  0.077448992   -3.0504665    1.5049456   396900 
  152000     1.004272    -3.050843    -3.050843   -1.5444388  0.078280756    -3.050843    1.5064042   396900 
  153000    1.0029577   -3.0522582   -3.0522582   -1.5478253  0.078380341   -3.0522582    1.5044328   396900 
  154000    1.0037154   -3.0510181   -3.0510181   -1.5454488  0.078146311   -3.0510181    1.5055693   396900 
  155000    1.0038986   -3.0534978   -3.0534978   -1.5476537  0.072010262   -3.0534978    1.5058442   396900 
  156000    1.0028033   -3.0536134   -3.0536134   -1.5494122  0.075381337   -3.0536134    1.5042012   396900 
  157000    1.0029359    -3.054325    -3.054325   -1.5499249  0.075052737    -3.054325    1.5044001   396900 
  158000    1.0025456   -3.0568186   -3.0568186    -1.553004  0.076585998   -3.0568186    1.5038146   396900 
  159000    1.0016999     -3.05782     -3.05782   -1.5552739  0.079245551     -3.05782    1.5025461   396900 
  160000    1.0032097   -3.0605829   -3.0605829   -1.5557721    0.0768163   -3.0605829    1.5048108   396900 
  161000    1.0030701   -3.0588781   -3.0588781   -1.5542768  0.078939464   -3.0588781    1.5046014   396900 
  162000    1.0034656   -3.0629281   -3.0629281   -1.5577335  0.073433115   -3.0629281    1.5051946   396900 
  163000    1.0016351   -3.0607715   -3.0607715   -1.5583226  0.073517807   -3.0607715    1.5024489   396900 
  164000    1.0028612   -3.0635101   -3.0635101   -1.5592221  0.076066043   -3.0635101    1.5042881   396900 
  165000    1.0011374   -3.0653517   -3.0653517   -1.5636493  0.076594948   -3.0653517    1.5017023   396900 
  166000    1.0010852   -3.0666014   -3.0666014   -1.5649773  0.072776079   -3.0666014     1.501624   396900 
  167000    1.0027665   -3.0687866   -3.0687866   -1.5646406  0.077444841   -3.0687866     1.504146   396900 
  168000    1.0018627   -3.0689075   -3.0689075   -1.5661173  0.077897863   -3.0689075    1.5027903   396900 
  169000    1.0018026   -3.0701753   -3.0701753   -1.5674751  0.078923412   -3.0701753    1.5027001   396900 
  170000    1.0033352   -3.0727739   -3.0727739   -1.5677749  0.076338109   -3.0727739    1.5049989   396900 
  171000    1.0029862   -3.0735368   -3.0735368   -1.5690613  0.076047552   -3.0735368    1.5044755   396900 
  172000    1.0004093   -3.0698942   -3.0698942    -1.569284  0.081043161   -3.0698942    1.5006102   396900 
  173000   0.99748632   -3.0697235   -3.0697235   -1.5734978  0.072479218   -3.0697235    1.4962257   396900 
  174000   0.99823212   -3.0712583   -3.0712583   -1.5739139  0.072698548   -3.0712583    1.4973444   396900 
  175000    1.0013134    -3.074177    -3.074177   -1.5722107  0.070841601    -3.074177    1.5019663   396900 
  176000   0.99945343   -3.0759797   -3.0759797   -1.5768034  0.070817177   -3.0759797    1.4991764   396900 
  177000   0.99953125   -3.0768908   -3.0768908   -1.5775977  0.071310818   -3.0768908    1.4992931   396900 
  178000    1.0005263   -3.0772436   -3.0772436   -1.5764579  0.074867598   -3.0772436    1.5007856   396900 
  179000   0.99983655   -3.0773398   -3.0773398   -1.5775887  0.075581771   -3.0773398     1.499751   396900 
  180000    1.0003769   -3.0810375   -3.0810375   -1.5804759  0.072484114   -3.0810375    1.5005615   396900 
  181000    1.0015609   -3.0819585   -3.0819585   -1.5796209  0.070303039   -3.0819585    1.5023376   396900 
  182000    1.0007873   -3.0825457   -3.0825457   -1.5813685  0.080781593   -3.0825457    1.5011772   396900 
  183000   0.99856649   -3.0799776   -3.0799776   -1.5821316  0.076114668   -3.0799776     1.497846   396900 
  184000   0.99937197   -3.0825285   -3.0825285   -1.5834743   0.07618376   -3.0825285    1.4990542   396900 
  185000   0.99728908   -3.0846761   -3.0846761   -1.5887463  0.075529416   -3.0846761    1.4959299   396900 
  186000   0.99809349   -3.0852357   -3.0852357   -1.5880992  0.079431266   -3.0852357    1.4971365   396900 
  187000    1.0000124   -3.0897785   -3.0897785   -1.5897637  0.077875521   -3.0897785    1.5000148   396900 
  188000    1.0004465   -3.0912101   -3.0912101   -1.5905442  0.074011947   -3.0912101    1.5006659   396900 
  189000    0.9980044   -3.0888775   -3.0888775   -1.5918747  0.072548996   -3.0888775    1.4970028   396900 
  190000   0.99972958   -3.0899972   -3.0899972   -1.5904066  0.078892298   -3.0899972    1.4995906   396900 
  191000   0.99752932   -3.0895433   -3.0895433   -1.5932531  0.074998326   -3.0895433    1.4962902   396900 
  192000   0.99771439   -3.0921123   -3.0921123   -1.5955445  0.075530929   -3.0921123    1.4965678   396900 
  193000   0.99811993   -3.0929786   -3.0929786   -1.5958025  0.074427016   -3.0929786    1.4971761   396900 
  194000   0.99799029   -3.0911756   -3.0911756   -1.5941939  0.080932007   -3.0911756    1.4969817   396900 
  195000   0.99814435   -3.0942462   -3.0942462   -1.5970335  0.071404138   -3.0942462    1.4972128   396900 
  196000   0.99742608   -3.0941135   -3.0941135   -1.5979782  0.075397753   -3.0941135    1.4961353   396900 
  197000   0.99653045   -3.0943282   -3.0943282   -1.5995363  0.076003171   -3.0943282    1.4947919   396900 
  198000   0.99923179   -3.0955098   -3.0955098   -1.5966659  0.079512514   -3.0955098    1.4988439   396900 
  199000   0.99804106   -3.0944687   -3.0944687   -1.5974109  0.070195963   -3.0944687    1.4970578   396900 
  200000   0.99963615   -3.0985877   -3.0985877   -1.5991373  0.072751821   -3.0985877    1.4994504   396900 
  201000   0.99830217   -3.0983368   -3.0983368   -1.6008873  0.074980996   -3.0983368    1.4974495   396900 
  202000   0.99943085   -3.1005004   -3.1005004   -1.6013579  0.073021264   -3.1005004    1.4991425   396900 
  203000   0.99901116   -3.0981794   -3.0981794   -1.5996664   0.07498155   -3.0981794     1.498513   396900 
  204000   0.99910514   -3.0985881   -3.0985881   -1.5999342  0.077793168   -3.0985881    1.4986539   396900 
  205000   0.99881924   -3.1004128   -3.1004128   -1.6021878  0.078925115   -3.1004128    1.4982251   396900 
  206000   0.99680306   -3.1005301   -3.1005301   -1.6053292  0.071273202   -3.1005301    1.4952008   396900 
  207000   0.99542308   -3.0995956   -3.0995956   -1.6064648  0.074045412   -3.0995956    1.4931309   396900 
  208000   0.99621995   -3.1016439   -3.1016439   -1.6073177  0.071223504   -3.1016439    1.4943262   396900 
  209000   0.99855807   -3.1042542   -3.1042542   -1.6064209  0.072408716   -3.1042542    1.4978333   396900 
  210000   0.99818035   -3.1022755   -3.1022755   -1.6050088  0.080547496   -3.1022755    1.4972667   396900 
  211000   0.99562702   -3.1030413   -3.1030413   -1.6096045  0.073798867   -3.1030413    1.4934368   396900 
  212000    0.9970143   -3.1043982   -3.1043982   -1.6088806   0.07025757   -3.1043982    1.4955177   396900 
  213000   0.99645522   -3.1041264   -3.1041264   -1.6094474  0.070764431   -3.1041264    1.4946791   396900 
  214000   0.99552438   -3.1025812   -3.1025812   -1.6092984  0.071156937   -3.1025812    1.4932828   396900 
  215000   0.99638284   -3.1045729   -3.1045729   -1.6100024  0.069941515   -3.1045729    1.4945705   396900 
  216000   0.99607403   -3.1060997   -3.1060997   -1.6119924  0.076785615   -3.1060997    1.4941073   396900 
  217000   0.99503554   -3.1077098   -3.1077098   -1.6151602  0.071775694   -3.1077098    1.4925496   396900 
  218000   0.99665518   -3.1133493   -3.1133493   -1.6183703  0.070463034   -3.1133493     1.494979   396900 
  219000   0.99485897   -3.1113722   -3.1113722   -1.6190875  0.070049925   -3.1113722    1.4922847   396900 
  220000   0.99403725   -3.1113983   -3.1113983   -1.6203462  0.071477175   -3.1113983    1.4910521   396900 
  221000   0.99544899   -3.1142312   -3.1142312   -1.6210615  0.067569254   -3.1142312    1.4931697   396900 
  222000   0.99175022   -3.1119288   -3.1119288   -1.6243072  0.068023216   -3.1119288    1.4876216   396900 
  223000   0.99352318    -3.113371    -3.113371     -1.62309  0.067026149    -3.113371     1.490281   396900 
  224000   0.99321636   -3.1136796   -3.1136796   -1.6238588  0.069559301   -3.1136796    1.4898208   396900 
  225000   0.99526678   -3.1166652   -3.1166652   -1.6237688  0.076046917   -3.1166652    1.4928964   396900 
  226000   0.99259152   -3.1173766   -3.1173766   -1.6284931     0.071481   -3.1173766    1.4888835   396900 
  227000   0.99304083   -3.1192939   -3.1192939   -1.6297364  0.068172556   -3.1192939    1.4895575   396900 
  228000   0.99305052   -3.1188963   -3.1188963   -1.6293243  0.073214519   -3.1188963     1.489572   396900 
  229000   0.99354356   -3.1207398   -3.1207398   -1.6304283  0.074223152   -3.1207398    1.4903116   396900 
  230000   0.99526755   -3.1231867   -3.1231867   -1.6302892  0.070430686   -3.1231867    1.4928976   396900 
  231000   0.99244193   -3.1225869   -3.1225869   -1.6339278  0.069309899   -3.1225869    1.4886591   396900 
  232000    0.9920066   -3.1220841   -3.1220841    -1.634078  0.072886742   -3.1220841    1.4880062   396900 
  233000   0.99376836   -3.1253076   -3.1253076   -1.6346589  0.073532515   -3.1253076    1.4906488   396900 
  234000   0.99385659   -3.1260337   -3.1260337   -1.6352525  0.067283408   -3.1260337    1.4907811   396900 
  235000   0.99350853   -3.1254651   -3.1254651   -1.6352061  0.075118207   -3.1254651     1.490259   396900 
  236000   0.99221176   -3.1255262   -3.1255262   -1.6372123  0.076054381   -3.1255262    1.4883139   396900 
  237000   0.99257803   -3.1272533   -3.1272533     -1.63839  0.072145608   -3.1272533    1.4888633   396900 
  238000   0.99439263   -3.1283092   -3.1283092    -1.636724  0.071765905   -3.1283092    1.4915852   396900 
  239000   0.99422329   -3.1281409   -3.1281409   -1.6368098  0.071271606   -3.1281409    1.4913312   396900 
  240000     0.991933   -3.1283363   -3.1283363   -1.6404406  0.065534715   -3.1283363    1.4878958   396900 
  241000   0.99301136   -3.1289321   -3.1289321   -1.6394189  0.068080857   -3.1289321    1.4895133   396900 
  242000    0.9918315   -3.1286992   -3.1286992   -1.6409557  0.072454542   -3.1286992    1.4877435   396900 
  243000   0.99313498   -3.1332189   -3.1332189   -1.6435201  0.067002905   -3.1332189    1.4896987   396900 
  244000   0.99224575   -3.1311724   -3.1311724   -1.6428075  0.074675061   -3.1311724    1.4883649   396900 
  245000   0.99152822    -3.132084    -3.132084   -1.6447954  0.072247901    -3.132084    1.4872886   396900 
  246000      0.99296   -3.1340295   -3.1340295   -1.6445932  0.074679252   -3.1340295    1.4894362   396900 
  247000   0.99155756   -3.1343947   -3.1343947   -1.6470621  0.067005374   -3.1343947    1.4873326   396900 
  248000   0.99132452   -3.1344607   -3.1344607   -1.6474777  0.068948295   -3.1344607     1.486983   396900 
  249000   0.99339487   -3.1359783   -3.1359783   -1.6458897  0.068765052   -3.1359783    1.4900885   396900 
  250000   0.99129206   -3.1343964   -3.1343964    -1.647462   0.07205477   -3.1343964    1.4869343   396900 
  251000   0.99221222   -3.1352403   -3.1352403   -1.6469257  0.071049309   -3.1352403    1.4883146   396900 
  252000   0.99239267   -3.1389795   -3.1389795   -1.6503942  0.073762516   -3.1389795    1.4885853   396900 
  253000   0.99363081   -3.1394415   -3.1394415   -1.6489991  0.072105226   -3.1394415    1.4904425   396900 
  254000   0.99204787   -3.1409772   -3.1409772   -1.6529092   0.06892611   -3.1409772    1.4880681   396900 
  255000   0.99204726   -3.1411341   -3.1411341    -1.653067  0.076602743   -3.1411341    1.4880671   396900 
  256000   0.99400611   -3.1436934   -3.1436934   -1.6526879  0.069044158   -3.1436934    1.4910054   396900 
  257000   0.99323564   -3.1459311   -3.1459311   -1.6560814  0.072271347   -3.1459311    1.4898497   396900 
  258000   0.99324502   -3.1478549   -3.1478549   -1.6579912    0.0695904   -3.1478549    1.4898638   396900 
  259000     0.992968   -3.1479515   -3.1479515   -1.6585032  0.079080551   -3.1479515    1.4894482   396900 
  260000   0.99192562   -3.1477736   -3.1477736   -1.6598889  0.071969867   -3.1477736    1.4878847   396900 
  261000   0.99051152   -3.1466942   -3.1466942   -1.6609307  0.073614767   -3.1466942    1.4857635   396900 
  262000   0.99065777   -3.1465459   -3.1465459    -1.660563   0.07255199   -3.1465459    1.4859829   396900 
  263000     0.989268   -3.1454861   -3.1454861   -1.6615878  0.070958329   -3.1454861    1.4838983   396900 
  264000   0.99015347   -3.1474517   -3.1474517   -1.6622252  0.070568619   -3.1474517    1.4852265   396900 
  265000   0.98991866    -3.147781    -3.147781   -1.6629067  0.069804576    -3.147781    1.4848742   396900 
  266000   0.99071971   -3.1479696   -3.1479696   -1.6618938  0.070204296   -3.1479696    1.4860758   396900 
  267000   0.99025454   -3.1482716   -3.1482716   -1.6628936  0.073443754   -3.1482716    1.4853781   396900 
  268000   0.99101588   -3.1501734   -3.1501734   -1.6636534  0.071517602   -3.1501734    1.4865201   396900 
  269000   0.98952572   -3.1478718   -3.1478718   -1.6635869  0.063495866   -3.1478718    1.4842848   396900 
  270000   0.98948221   -3.1480395   -3.1480395     -1.66382  0.074257089   -3.1480395    1.4842196   396900 
  271000   0.98848085   -3.1488467   -3.1488467   -1.6661292   0.06980616   -3.1488467    1.4827175   396900 
  272000   0.99058989   -3.1524656   -3.1524656   -1.6665845   0.07161307   -3.1524656    1.4858811   396900 
  273000   0.98990004   -3.1514188   -3.1514188   -1.6665725  0.074177848   -3.1514188    1.4848463   396900 
  274000   0.99182913   -3.1524676   -3.1524676   -1.6647277  0.074100544   -3.1524676    1.4877399   396900 
  275000   0.98784957   -3.1510131   -3.1510131   -1.6692425     0.076469   -3.1510131    1.4817706   396900 
  276000   0.98961182   -3.1514463   -3.1514463   -1.6670323  0.072026637   -3.1514463     1.484414   396900 
  277000   0.99128993    -3.154664    -3.154664   -1.6677328  0.069528165    -3.154664    1.4869312   396900 
  278000   0.98953803   -3.1562571   -3.1562571   -1.6719538  0.073509968   -3.1562571    1.4843033   396900 
  279000    0.9864379   -3.1536023   -3.1536023   -1.6739492  0.068739314   -3.1536023    1.4796531   396900 
  280000   0.98855765   -3.1559872   -3.1559872   -1.6731544  0.069097047   -3.1559872    1.4828327   396900 
  281000   0.98847976   -3.1569967   -3.1569967   -1.6742808  0.069247007   -3.1569967    1.4827159   396900 
  282000   0.98923794     -3.15757     -3.15757   -1.6737168   0.06237794     -3.15757    1.4838532   396900 
  283000   0.98835883   -3.1576264   -3.1576264   -1.6750919  0.069987483   -3.1576264    1.4825345   396900 
  284000   0.98947446   -3.1611498   -3.1611498   -1.6769418  0.069834261   -3.1611498     1.484208   396900 
  285000   0.98849401   -3.1600194   -3.1600194   -1.6772822  0.074119184   -3.1600194    1.4827373   396900 
  286000   0.98716568   -3.1596834   -3.1596834   -1.6789386  0.064789222   -3.1596834    1.4807448   396900 
  287000   0.98703632   -3.1606922   -3.1606922   -1.6801415  0.070016334   -3.1606922    1.4805507   396900 
  288000   0.98616453    -3.162167    -3.162167    -1.682924  0.068211937    -3.162167    1.4792431   396900 
  289000    0.9873319   -3.1618014   -3.1618014   -1.6808073  0.069033784   -3.1618014    1.4809941   396900 
  290000    0.9871815   -3.1639817   -3.1639817   -1.6832132  0.071106092   -3.1639817    1.4807685   396900 
  291000   0.98764221   -3.1631744   -3.1631744   -1.6817149  0.065909225   -3.1631744    1.4814596   396900 
  292000    0.9859751   -3.1609326   -3.1609326   -1.6819736  0.071913162   -3.1609326    1.4789589   396900 
  293000   0.98510699   -3.1621446   -3.1621446   -1.6844878  0.071304869   -3.1621446    1.4776568   396900 
  294000   0.98869119   -3.1670418   -3.1670418   -1.6840087  0.070702891   -3.1670418    1.4830331   396900 
  295000   0.98785654   -3.1671352   -3.1671352   -1.6853541  0.068737221   -3.1671352    1.4817811   396900 
  296000   0.98473632   -3.1626514   -3.1626514   -1.6855507  0.066338727   -3.1626514    1.4771008   396900 
  297000   0.98619036   -3.1663787   -3.1663787   -1.6870969  0.068269063   -3.1663787    1.4792818   396900 
  298000   0.98743593   -3.1693114   -3.1693114   -1.6881612  0.067396781   -3.1693114    1.4811502   396900 
  299000   0.98587153   -3.1705406   -3.1705406    -1.691737  0.065088833   -3.1705406    1.4788036   396900 
  300000   0.98534907   -3.1688642   -3.1688642   -1.6908443  0.068668502   -3.1688642    1.4780199   396900 
  301000   0.98693687   -3.1723687   -3.1723687   -1.6919671    0.0713782   -3.1723687    1.4804016   396900 
  302000   0.98738453   -3.1720305   -3.1720305   -1.6909575  0.070166863   -3.1720305    1.4810731   396900 
  303000    0.9868346   -3.1722789   -3.1722789   -1.6920307  0.069969959   -3.1722789    1.4802482   396900 
  304000   0.98487989   -3.1694096   -3.1694096   -1.6920935  0.071643805   -3.1694096    1.4773161   396900 
  305000   0.98729847   -3.1707987   -3.1707987   -1.6898548  0.063902942   -3.1707987     1.480944   396900 
  306000   0.98500935   -3.1708417   -3.1708417   -1.6933314  0.064042608   -3.1708417    1.4775103   396900 
  307000   0.98412632   -3.1690164   -3.1690164   -1.6928307   0.07456208   -3.1690164    1.4761858   396900 
  308000    0.9877835   -3.1742498   -3.1742498   -1.6925783   0.06552894   -3.1742498    1.4816715   396900 
  309000   0.98820572   -3.1745806   -3.1745806   -1.6922758  0.068803741   -3.1745806    1.4823048   396900 
  310000   0.98707197   -3.1752288   -3.1752288   -1.6946246  0.068776344   -3.1752288    1.4806042   396900 
  311000     0.987056   -3.1742495   -3.1742495   -1.6936692  0.068219242   -3.1742495    1.4805803   396900 
  312000   0.98607404   -3.1760431   -3.1760431   -1.6969358  0.072173248   -3.1760431    1.4791073   396900 
  313000   0.98538552   -3.1778777   -3.1778777   -1.6998032  0.067615296   -3.1778777    1.4780746   396900 
  314000   0.98785023   -3.1812922   -3.1812922   -1.6995206  0.069893832   -3.1812922    1.4817716   396900 
  315000   0.98486985    -3.180737    -3.180737   -1.7034359  0.067893594    -3.180737     1.477301   396900 
  316000   0.98517895   -3.1815838   -3.1815838   -1.7038191   0.06587126   -3.1815838    1.4777647   396900 
  317000   0.98458871   -3.1827322   -3.1827322   -1.7058529  0.066423165   -3.1827322    1.4768793   396900 
  318000   0.98295813   -3.1846017   -3.1846017   -1.7101682  0.065355565   -3.1846017    1.4744335   396900 
  319000    0.9803895   -3.1827104   -3.1827104   -1.7121299  0.062302313   -3.1827104    1.4705805   396900 
  320000   0.98464275   -3.1882384   -3.1882384    -1.711278  0.065364686   -3.1882384    1.4769604   396900 
  321000   0.98444967   -3.1894314   -3.1894314   -1.7127606  0.062658911   -3.1894314    1.4766708   396900 
  322000   0.98292407   -3.1904589   -3.1904589   -1.7160765  0.067735701   -3.1904589    1.4743824   396900 
  323000   0.98505643   -3.1926036   -3.1926036   -1.7150227  0.063979045   -3.1926036    1.4775809   396900 
  324000   0.98574327   -3.1945895   -3.1945895   -1.7159783  0.066878293   -3.1945895    1.4786112   396900 
  325000   0.98249943   -3.1926276   -3.1926276   -1.7188821  0.066250614   -3.1926276    1.4737454   396900 
  326000   0.98404776   -3.1941825   -3.1941825   -1.7181146   0.06581025   -3.1941825    1.4760679   396900 
  327000   0.98038789   -3.1930564   -3.1930564   -1.7224783  0.064570672   -3.1930564    1.4705781   396900 
  328000   0.98203359   -3.1972197   -3.1972197    -1.724173  0.061760422   -3.1972197    1.4730467   396900 
  329000   0.98117345   -3.1962372   -3.1962372   -1.7244807  0.064898869   -3.1962372    1.4717565   396900 
  330000   0.98140729   -3.1965931   -3.1965931   -1.7244859  0.074049017   -3.1965931    1.4721072   396900 
  331000   0.98271972    -3.200158    -3.200158   -1.7260821  0.064784277    -3.200158    1.4740759   396900 
  332000   0.98312094   -3.2007393   -3.2007393   -1.7260616  0.071824222   -3.2007393    1.4746777   396900 
  333000   0.98379326   -3.2030877   -3.2030877   -1.7274015  0.070601523   -3.2030877    1.4756862   396900 
  334000   0.98447167   -3.2017781   -3.2017781   -1.7250743  0.074079582   -3.2017781    1.4767038   396900 
  335000   0.98383309   -3.2023806   -3.2023806   -1.7266346   0.06505924   -3.2023806    1.4757459   396900 
  336000    0.9858127   -3.2043594   -3.2043594   -1.7256441  0.066550738   -3.2043594    1.4787153   396900 
  337000   0.98369766   -3.2030301   -3.2030301   -1.7274873  0.070034688   -3.2030301    1.4755428   396900 
  338000   0.98353813   -3.2046451   -3.2046451   -1.7293417  0.070979108   -3.2046451    1.4753035   396900 
  339000   0.98327041   -3.2064509   -3.2064509    -1.731549  0.063366261   -3.2064509    1.4749019   396900 
  340000   0.98242508   -3.2072567   -3.2072567   -1.7336228  0.063409754   -3.2072567    1.4736339   396900 
  341000   0.98186759   -3.2069995   -3.2069995   -1.7342018  0.069904599   -3.2069995    1.4727977   396900 
  342000   0.98389046   -3.2090068   -3.2090068   -1.7331748  0.069490245   -3.2090068     1.475832   396900 
  343000   0.98158228   -3.2078375   -3.2078375   -1.7354678  0.068311951   -3.2078375    1.4723697   396900 
  344000   0.98239869   -3.2086313   -3.2086313   -1.7350369  0.070040295   -3.2086313    1.4735943   396900 
  345000   0.98296501   -3.2109615   -3.2109615   -1.7365177  0.067292404   -3.2109615    1.4744438   396900 
  346000   0.98166822   -3.2126782   -3.2126782   -1.7401796  0.069981085   -3.2126782    1.4724986   396900 
  347000   0.98141574   -3.2105074   -3.2105074   -1.7383875  0.071248508   -3.2105074    1.4721199   396900 
  348000    0.9828476   -3.2152437   -3.2152437    -1.740976  0.061959113   -3.2152437    1.4742677   396900 
  349000   0.98163274    -3.213606    -3.213606   -1.7411606  0.068476832    -3.213606    1.4724454   396900 
  350000   0.98036225   -3.2141517   -3.2141517    -1.743612  0.065747892   -3.2141517    1.4705397   396900 
  351000   0.98012777   -3.2156657   -3.2156657   -1.7454777  0.065634641   -3.2156657    1.4701879   396900 
  352000   0.97941352   -3.2138369   -3.2138369   -1.7447203  0.063471578   -3.2138369    1.4691166   396900 
  353000   0.98073772    -3.215546    -3.215546   -1.7444431    0.0672794    -3.215546    1.4711029   396900 
  354000   0.98241569   -3.2165611   -3.2165611   -1.7429413  0.071150156   -3.2165611    1.4736198   396900 
  355000   0.98071487   -3.2179364   -3.2179364   -1.7468678  0.069639159   -3.2179364    1.4710686   396900 
  356000   0.98054657   -3.2191581   -3.2191581    -1.748342  0.065932666   -3.2191581    1.4708161   396900 
  357000   0.98150267   -3.2215102   -3.2215102     -1.74926  0.065464351   -3.2215102    1.4722503   396900 
  358000   0.98020198   -3.2197326   -3.2197326   -1.7494334  0.065897949   -3.2197326    1.4702993   396900 
  359000   0.98054434   -3.2237073   -3.2237073   -1.7528945  0.066686149   -3.2237073    1.4708128   396900 
  360000   0.97815573   -3.2242904   -3.2242904   -1.7570605  0.065037296   -3.2242904    1.4672299   396900 
  361000   0.97923598   -3.2273924   -3.2273924   -1.7585421  0.061923378   -3.2273924    1.4688503   396900 
  362000   0.97898525   -3.2291147   -3.2291147   -1.7606405  0.064464166   -3.2291147    1.4684742   396900 
  363000   0.97876285   -3.2291535   -3.2291535   -1.7610129  0.057851662   -3.2291535    1.4681406   396900 
  364000   0.98145158    -3.229282    -3.229282   -1.7571084  0.067150888    -3.229282    1.4721737   396900 
  365000   0.98115976   -3.2275388   -3.2275388   -1.7558029  0.071609543   -3.2275388    1.4717359   396900 
  366000   0.98024987    -3.229742    -3.229742   -1.7593709  0.062535483    -3.229742    1.4703711   396900 
  367000   0.97891848   -3.2295197   -3.2295197   -1.7611456  0.066953925   -3.2295197     1.468374   396900 
  368000   0.97984095   -3.2311282   -3.2311282   -1.7613705  0.065591599   -3.2311282    1.4697577   396900 
  369000   0.98043679   -3.2294581   -3.2294581   -1.7588066  0.070952504   -3.2294581    1.4706515   396900 
  370000   0.97905708   -3.2296973   -3.2296973   -1.7611153   0.06676343   -3.2296973    1.4685819   396900 
  371000   0.97854042   -3.2316192   -3.2316192   -1.7638123  0.065784044   -3.2316192    1.4678069   396900 
  372000   0.97840812   -3.2311404   -3.2311404   -1.7635319  0.062051341   -3.2311404    1.4676085   396900 
  373000    0.9770706   -3.2308545   -3.2308545   -1.7652523  0.064307485   -3.2308545    1.4656022   396900 
  374000   0.97667425   -3.2324899   -3.2324899   -1.7674822  0.063023273   -3.2324899    1.4650077   396900 
  375000   0.97828569   -3.2316745   -3.2316745   -1.7642496  0.067758404   -3.2316745    1.4674248   396900 
  376000   0.97864014   -3.2353727   -3.2353727   -1.7674162  0.066861386   -3.2353727    1.4679565   396900 
  377000   0.97891297   -3.2329467   -3.2329467    -1.764581  0.061993812   -3.2329467    1.4683657   396900 
  378000     0.975864   -3.2303898   -3.2303898   -1.7665975  0.066577496   -3.2303898    1.4637923   396900 
  379000   0.97727719   -3.2348363   -3.2348363   -1.7689242  0.058830845   -3.2348363    1.4659121   396900 
  380000   0.97535359   -3.2323156   -3.2323156   -1.7692889  0.063475366   -3.2323156    1.4630267   396900 
  381000   0.97712518   -3.2349642   -3.2349642   -1.7692801   0.06451371   -3.2349642    1.4656841   396900 
  382000   0.97752479   -3.2363247   -3.2363247   -1.7700412  0.070295959   -3.2363247    1.4662835   396900 
  383000   0.97976007   -3.2394126   -3.2394126   -1.7697762  0.065033898   -3.2394126    1.4696364   396900 
  384000   0.97555485   -3.2364824   -3.2364824   -1.7731538  0.066474064   -3.2364824    1.4633286   396900 
  385000   0.97504225   -3.2369486   -3.2369486   -1.7743889  0.065084946   -3.2369486    1.4625597   396900 
  386000   0.97800739   -3.2406077   -3.2406077   -1.7736003  0.063642424   -3.2406077    1.4670074   396900 
  387000   0.97809032    -3.241334    -3.241334   -1.7742022  0.069221594    -3.241334    1.4671318   396900 
  388000   0.97848316   -3.2432754   -3.2432754   -1.7755543  0.063864352   -3.2432754     1.467721   396900 
  389000   0.97719628    -3.241989    -3.241989   -1.7761983  0.066399545    -3.241989    1.4657907   396900 
  390000    0.9754471   -3.2423754   -3.2423754   -1.7792084  0.064697834   -3.2423754     1.463167   396900 
  391000    0.9759847   -3.2451956   -3.2451956   -1.7812222  0.063542004   -3.2451956    1.4639734   396900 
  392000   0.97439455   -3.2473566   -3.2473566   -1.7857684    0.0588335   -3.2473566    1.4615881   396900 
  393000   0.97432511   -3.2446046   -3.2446046   -1.7831206  0.061240785   -3.2446046     1.461484   396900 
  394000   0.97490281   -3.2463415   -3.2463415    -1.783991  0.065784297   -3.2463415    1.4623505   396900 
  395000   0.97563761    -3.246058    -3.246058   -1.7826053  0.066466018    -3.246058    1.4634527   396900 
  396000   0.97526776   -3.2460891   -3.2460891   -1.7831911  0.068497996   -3.2460891     1.462898   396900 
  397000   0.97619843   -3.2482111   -3.2482111   -1.7839171  0.064505169   -3.2482111     1.464294   396900 
  398000   0.97488731   -3.2478597   -3.2478597   -1.7855324  0.072706239   -3.2478597    1.4623273   396900 
  399000   0.97663784    -3.247692    -3.247692   -1.7827389  0.068685147    -3.247692    1.4649531   396900 
  400000   0.97500863   -3.2489302   -3.2489302   -1.7864209  0.067835368   -3.2489302    1.4625093   396900 
  401000    0.9754554   -3.2519133   -3.2519133   -1.7887338  0.064579476   -3.2519133    1.4631794   396900 
  402000   0.97452374   -3.2533101   -3.2533101   -1.7915282  0.059423105   -3.2533101    1.4617819   396900 
  403000   0.97526055   -3.2536737   -3.2536737   -1.7907865  0.064994638   -3.2536737    1.4628871   396900 
  404000    0.9747829    -3.255337    -3.255337   -1.7931663  0.067633812    -3.255337    1.4621707   396900 
  405000   0.97464635   -3.2556679   -3.2556679   -1.7937021  0.062483762   -3.2556679    1.4619658   396900 
  406000   0.97508287   -3.2572208   -3.2572208   -1.7946002  0.063097083   -3.2572208    1.4626206   396900 
  407000   0.97512352   -3.2584611   -3.2584611   -1.7957795   0.06215081   -3.2584611    1.4626816   396900 
  408000   0.97495264    -3.257363    -3.257363   -1.7949377  0.070143283    -3.257363    1.4624253   396900 
  409000   0.97465464   -3.2586873   -3.2586873    -1.796709  0.066906483   -3.2586873    1.4619783   396900 
  410000   0.97434068   -3.2595993   -3.2595993    -1.798092  0.065623521   -3.2595993    1.4615073   396900 
  411000   0.97484818   -3.2618158   -3.2618158   -1.7995472  0.069017472   -3.2618158    1.4622686   396900 
  412000   0.97293028   -3.2618867   -3.2618867    -1.802495  0.068534154   -3.2618867    1.4593917   396900 
  413000   0.97412927   -3.2639673   -3.2639673   -1.8027771  0.063710778   -3.2639673    1.4611902   396900 
  414000   0.97412067   -3.2622721   -3.2622721   -1.8010948  0.073152465   -3.2622721    1.4611773   396900 
  415000   0.97425106   -3.2642835   -3.2642835   -1.8029106  0.065081299   -3.2642835    1.4613729   396900 
  416000   0.97534335   -3.2671442   -3.2671442   -1.8041328  0.065378616   -3.2671442    1.4630113   396900 
  417000   0.97554023    -3.263668    -3.263668   -1.8003613  0.071862325    -3.263668    1.4633067   396900 
  418000   0.97447487   -3.2658994   -3.2658994   -1.8041908  0.064953581   -3.2658994    1.4617086   396900 
  419000   0.97504554   -3.2663872   -3.2663872   -1.8038226  0.065683323   -3.2663872    1.4625646   396900 
  420000   0.97395054   -3.2662233   -3.2662233   -1.8053012  0.060417523   -3.2662233    1.4609221   396900 
  421000   0.97240194   -3.2643163   -3.2643163   -1.8057171  0.064059253   -3.2643163    1.4585992   396900 
  422000   0.97115475   -3.2659055   -3.2659055   -1.8091771  0.058038498   -3.2659055    1.4567285   396900 
  423000   0.97277187   -3.2689153   -3.2689153   -1.8097611  0.058265982   -3.2689153    1.4591541   396900 
  424000   0.97151843   -3.2687213   -3.2687213   -1.8114474   0.06346828   -3.2687213     1.457274   396900 
  425000    0.9721988   -3.2689231   -3.2689231   -1.8106286  0.066785884   -3.2689231    1.4582945   396900 
  426000   0.97320839   -3.2721522   -3.2721522   -1.8123433  0.065705892   -3.2721522    1.4598089   396900 
  427000   0.97270582   -3.2707362   -3.2707362   -1.8116812  0.060838928   -3.2707362    1.4590551   396900 
  428000    0.9714849   -3.2716044   -3.2716044   -1.8143807  0.061480008   -3.2716044    1.4572237   396900 
  429000   0.97193322   -3.2718588   -3.2718588   -1.8139627  0.065153052   -3.2718588    1.4578962   396900 
  430000   0.97150719   -3.2729222   -3.2729222   -1.8156651  0.065176905   -3.2729222    1.4572571   396900 
  431000    0.9740019   -3.2740153   -3.2740153   -1.8130161  0.061601591   -3.2740153    1.4609992   396900 
  432000   0.97349773   -3.2753791   -3.2753791   -1.8151362  0.059238642   -3.2753791    1.4602429   396900 
  433000   0.97109136   -3.2707192   -3.2707192   -1.8140858  0.062424187   -3.2707192    1.4566334   396900 
  434000    0.9720274   -3.2717864   -3.2717864    -1.813749  0.066286793   -3.2717864    1.4580374   396900 
  435000   0.97246072   -3.2733814   -3.2733814   -1.8146939  0.064092961   -3.2733814    1.4586874   396900 
  436000   0.97375293   -3.2737355   -3.2737355   -1.8131098  0.061091254   -3.2737355    1.4606257   396900 
  437000   0.97174513   -3.2740083   -3.2740083   -1.8163943  0.061626563   -3.2740083     1.457614   396900 
  438000   0.97041268   -3.2736212   -3.2736212   -1.8180058  0.058764241   -3.2736212    1.4556153   396900 
  439000    0.9708198   -3.2738715   -3.2738715   -1.8176454  0.064838093   -3.2738715     1.456226   396900 
  440000   0.97197825   -3.2759968   -3.2759968   -1.8180331  0.065072543   -3.2759968    1.4579637   396900 
  441000   0.97026785   -3.2771754   -3.2771754   -1.8217772  0.066808035   -3.2771754    1.4553981   396900 
  442000   0.97021463   -3.2767108   -3.2767108   -1.8213925  0.063389605   -3.2767108    1.4553183   396900 
  443000    0.9722649   -3.2801984   -3.2801984   -1.8218047  0.057903399   -3.2801984    1.4583937   396900 
  444000   0.97358546   -3.2821974   -3.2821974   -1.8218229  0.062428449   -3.2821974    1.4603745   396900 
  445000   0.97053291   -3.2796651   -3.2796651   -1.8238694  0.066888487   -3.2796651    1.4557957   396900 
  446000   0.97127866   -3.2833234   -3.2833234   -1.8264091  0.060933143   -3.2833234    1.4569143   396900 
  447000   0.96992787   -3.2841425   -3.2841425   -1.8292544  0.058984034   -3.2841425    1.4548881   396900 
  448000   0.97023186   -3.2837088   -3.2837088   -1.8283647  0.061670334   -3.2837088    1.4553441   396900 
  449000   0.97157625   -3.2868986   -3.2868986   -1.8295379  0.063329394   -3.2868986    1.4573607   396900 
  450000   0.97017641   -3.2874222   -3.2874222   -1.8321613  0.059658288   -3.2874222    1.4552609   396900 
  451000   0.97149992   -3.2886529   -3.2886529   -1.8314067  0.063864135   -3.2886529    1.4572462   396900 
  452000   0.97036882   -3.2891637   -3.2891637   -1.8336141   0.06101053   -3.2891637    1.4555496   396900 
  453000   0.97174907   -3.2909459   -3.2909459    -1.833326  0.060588667   -3.2909459    1.4576199   396900 
  454000   0.96821343   -3.2887393   -3.2887393   -1.8364228  0.061314459   -3.2887393    1.4523165   396900 
  455000   0.96893765   -3.2888895   -3.2888895   -1.8354866  0.061350315   -3.2888895    1.4534028   396900 
  456000   0.96913702   -3.2910645   -3.2910645   -1.8373626  0.061860097   -3.2910645    1.4537019   396900 
  457000   0.96937104   -3.2886959   -3.2886959    -1.834643  0.065625955   -3.2886959    1.4540529   396900 
  458000   0.97039312   -3.2897572   -3.2897572   -1.8341711  0.064742414   -3.2897572     1.455586   396900 
  459000   0.97019384   -3.2904415   -3.2904415   -1.8351544  0.066571426   -3.2904415    1.4552871   396900 
  460000   0.96908798    -3.292093    -3.292093   -1.8384647  0.063288407    -3.292093    1.4536283   396900 
  461000   0.97022394    -3.294225    -3.294225   -1.8388927  0.060268453    -3.294225    1.4553322   396900 
  462000   0.97047118   -3.2961929   -3.2961929   -1.8404898  0.061487904   -3.2961929    1.4557031   396900 
  463000    0.9695855    -3.297929    -3.297929   -1.8435545  0.059105197    -3.297929    1.4543746   396900 
  464000   0.96679631   -3.2972518   -3.2972518    -1.847061  0.058367815   -3.2972518    1.4501908   396900 
  465000   0.96650863    -3.298007    -3.298007   -1.8482478  0.060937734    -3.298007    1.4497593   396900 
  466000   0.96756108   -3.2997428   -3.2997428   -1.8484049  0.062866827   -3.2997428     1.451338   396900 
  467000   0.96991275   -3.3031648   -3.3031648   -1.8482993  0.061195854   -3.3031648    1.4548655   396900 
  468000   0.96717148   -3.3031517   -3.3031517   -1.8523981  0.059666149   -3.3031517    1.4507536   396900 
  469000    0.9684686   -3.3051746   -3.3051746   -1.8524754   0.06724647   -3.3051746    1.4526992   396900 
  470000   0.96867466   -3.3080838   -3.3080838   -1.8550755   0.06016665   -3.3080838    1.4530083   396900 
  471000   0.96764649   -3.3074147   -3.3074147   -1.8559486  0.061141749   -3.3074147    1.4514661   396900 
  472000   0.96830406   -3.3072397   -3.3072397   -1.8547873  0.061163017   -3.3072397    1.4524524   396900 
  473000   0.96697784   -3.3055915   -3.3055915   -1.8551284  0.057681217   -3.3055915    1.4504631   396900 
  474000   0.96550149   -3.3023045   -3.3023045   -1.8540559  0.062580837   -3.3023045    1.4482486   396900 
  475000   0.96667766   -3.3039276   -3.3039276   -1.8539148  0.058360467   -3.3039276    1.4500128   396900 
  476000   0.96573569   -3.3054168   -3.3054168   -1.8568169  0.057550796   -3.3054168    1.4485999   396900 
  477000   0.96625501   -3.3054922   -3.3054922   -1.8561134   0.05460416   -3.3054922    1.4493789   396900 
  478000   0.96510061   -3.3020345   -3.3020345   -1.8543872  0.065667218   -3.3020345    1.4476473   396900 
  479000   0.96567015   -3.3037019   -3.3037019   -1.8552003  0.062222706   -3.3037019    1.4485016   396900 
  480000   0.96633847   -3.3057933   -3.3057933   -1.8562893  0.061765452   -3.3057933     1.449504   396900 
  481000    0.9661929   -3.3046059   -3.3046059   -1.8553202  0.059993977   -3.3046059    1.4492857   396900 
  482000   0.96695338   -3.3054087   -3.3054087   -1.8549822   0.05895011   -3.3054087    1.4504264   396900 
  483000   0.96584054   -3.3070173   -3.3070173   -1.8582602  0.061132601   -3.3070173    1.4487572   396900 
  484000   0.96648249   -3.3087714   -3.3087714   -1.8590513  0.059228924   -3.3087714    1.4497201   396900 
  485000    0.9649308   -3.3096743   -3.3096743   -1.8622818  0.059801977   -3.3096743    1.4473926   396900 
  486000   0.96569248   -3.3111946   -3.3111946   -1.8626595  0.063291345   -3.3111946    1.4485351   396900 
  487000   0.96516086   -3.3127848   -3.3127848   -1.8650471  0.067447529   -3.3127848    1.4477376   396900 
  488000   0.96697257   -3.3150103   -3.3150103   -1.8645551  0.058559737   -3.3150103    1.4504552   396900 
  489000   0.96573726   -3.3171195   -3.3171195   -1.8685172   0.05816791   -3.3171195    1.4486022   396900 
  490000   0.96460673   -3.3163691   -3.3163691   -1.8694626   0.06260155   -3.3163691    1.4469065   396900 
  491000   0.96564909   -3.3193044   -3.3193044   -1.8708344   0.06323731   -3.3193044      1.44847   396900 
  492000   0.96532988   -3.3206296   -3.3206296   -1.8726384  0.061963447   -3.3206296    1.4479912   396900 
  493000   0.96465705   -3.3195308   -3.3195308   -1.8725488  0.059638276   -3.3195308    1.4469819   396900 
  494000   0.96292497   -3.3242995   -3.3242995   -1.8799157  0.056902547   -3.3242995    1.4443838   396900 
  495000   0.96469821   -3.3279634   -3.3279634   -1.8809197  0.060503719   -3.3279634    1.4470437   396900 
  496000   0.96542245   -3.3270031   -3.3270031   -1.8788731  0.061140969   -3.3270031      1.44813   396900 
  497000   0.96767495   -3.3293211   -3.3293211   -1.8778124    0.0633473   -3.3293211    1.4515088   396900 
  498000   0.96578361   -3.3284039   -3.3284039   -1.8797322  0.059708171   -3.3284039    1.4486718   396900 
  499000   0.96540981   -3.3264131   -3.3264131   -1.8783021  0.061300993   -3.3264131    1.4481111   396900 
  500000   0.96717517   -3.3271143   -3.3271143   -1.8763552  0.061171237   -3.3271143    1.4507591   396900 
  501000    0.9644407   -3.3253201   -3.3253201   -1.8786627  0.058888082   -3.3253201    1.4466574   396900 
  502000   0.96422589   -3.3273031   -3.3273031   -1.8809679  0.057562802   -3.3273031    1.4463352   396900 
  503000   0.96358872   -3.3275884   -3.3275884    -1.882209  0.059558544   -3.3275884    1.4453794   396900 
  504000   0.96410804   -3.3281768   -3.3281768   -1.8820183  0.057797764   -3.3281768    1.4461584   396900 
  505000   0.96641521   -3.3305281   -3.3305281   -1.8809089  0.054672066   -3.3305281    1.4496192   396900 
  506000   0.96512821   -3.3298062   -3.3298062   -1.8821175  0.058413774   -3.3298062    1.4476887   396900 
  507000   0.96247159   -3.3282208   -3.3282208    -1.884517  0.063039253   -3.3282208    1.4437037   396900 
  508000   0.96363721   -3.3303647   -3.3303647   -1.8849125  0.057831252   -3.3303647    1.4454522   396900 
  509000   0.96219976    -3.330299    -3.330299    -1.887003   0.06081801    -3.330299     1.443296   396900 
  510000   0.96290771   -3.3322968   -3.3322968   -1.8879389   0.05896211   -3.3322968    1.4443579   396900 
  511000   0.96375758   -3.3327105   -3.3327105   -1.8870778  0.058035625   -3.3327105    1.4456327   396900 
  512000   0.96448961   -3.3339719   -3.3339719   -1.8872411  0.053833473   -3.3339719    1.4467308   396900 
  513000   0.96534947   -3.3356601   -3.3356601   -1.8876395  0.061799134   -3.3356601    1.4480206   396900 
  514000   0.96196659   -3.3341058   -3.3341058   -1.8911596  0.055008097   -3.3341058    1.4429463   396900 
  515000   0.96208883   -3.3354536   -3.3354536    -1.892324  0.055080814   -3.3354536    1.4431296   396900 
  516000   0.96482828   -3.3390463   -3.3390463   -1.8918076  0.056790155   -3.3390463    1.4472388   396900 
  517000   0.96291901   -3.3375715   -3.3375715   -1.8931967  0.056871025   -3.3375715    1.4443749   396900 
  518000   0.96256517   -3.3387096   -3.3387096   -1.8948655  0.056762462   -3.3387096    1.4438441   396900 
  519000   0.96277557   -3.3401875   -3.3401875   -1.8960278  0.063132667   -3.3401875    1.4441597   396900 
  520000   0.96329923   -3.3428333   -3.3428333    -1.897888  0.059790881   -3.3428333    1.4449452   396900 
  521000   0.96078849   -3.3411507   -3.3411507   -1.8999715  0.060636701   -3.3411507    1.4411791   396900 
  522000   0.96230864   -3.3410411   -3.3410411   -1.8975818  0.062104308   -3.3410411    1.4434593   396900 
  523000   0.96269437   -3.3418079   -3.3418079     -1.89777  0.060666326   -3.3418079    1.4440379   396900 
  524000   0.96322296   -3.3410798   -3.3410798    -1.896249  0.060183777   -3.3410798    1.4448308   396900 
  525000   0.96383685   -3.3423503   -3.3423503   -1.8965987  0.064062075   -3.3423503    1.4457516   396900 
  526000    0.9630402   -3.3444485   -3.3444485   -1.8998919  0.061357878   -3.3444485    1.4445567   396900 
  527000   0.96409089   -3.3466236   -3.3466236   -1.9004909  0.059261381   -3.3466236    1.4461327   396900 
  528000   0.96228132   -3.3449641   -3.3449641   -1.9015457  0.062587999   -3.3449641    1.4434183   396900 
  529000   0.96068216   -3.3440021   -3.3440021   -1.9029825  0.059104757   -3.3440021    1.4410196   396900 
  530000   0.96177169   -3.3447751   -3.3447751   -1.9021212   0.05881312   -3.3447751    1.4426539   396900 
  531000   0.96226278   -3.3476896   -3.3476896    -1.904299  0.059938229   -3.3476896    1.4433905   396900 
  532000   0.96221022   -3.3472497   -3.3472497    -1.903938  0.061084545   -3.3472497    1.4433117   396900 
  533000   0.96108035   -3.3471171   -3.3471171   -1.9055002  0.059613182   -3.3471171    1.4416169   396900 
  534000   0.96321822   -3.3506751   -3.3506751   -1.9058514  0.064181465   -3.3506751    1.4448237   396900 
  535000   0.96188149   -3.3500406   -3.3500406    -1.907222  0.059412174   -3.3500406    1.4428186   396900 
  536000   0.96084276   -3.3492613   -3.3492613   -1.9080008  0.055799356   -3.3492613    1.4412605   396900 
  537000   0.96079277   -3.3491974   -3.3491974   -1.9080119  0.061685913   -3.3491974    1.4411855   396900 
  538000   0.96057179   -3.3505892   -3.3505892   -1.9097351  0.063325342   -3.3505892     1.440854   396900 
  539000   0.96090438   -3.3509728   -3.3509728   -1.9096199  0.063699462   -3.3509728    1.4413529   396900 
  540000   0.95878663   -3.3486334   -3.3486334   -1.9104571  0.065332352   -3.3486334    1.4381763   396900 
  541000   0.95990817   -3.3520402   -3.3520402   -1.9121816  0.060340932   -3.3520402    1.4398586   396900 
  542000   0.95749356   -3.3509771   -3.3509771   -1.9147403  0.057057052   -3.3509771    1.4362367   396900 
  543000   0.96192748   -3.3537675   -3.3537675   -1.9108799  0.060196177   -3.3537675    1.4428876   396900 
  544000   0.96039356   -3.3548007   -3.3548007    -1.914214  0.058608343   -3.3548007    1.4405867   396900 
  545000   0.95879524   -3.3562463   -3.3562463   -1.9180571  0.058110846   -3.3562463    1.4381892   396900 
  546000   0.95888656   -3.3553373   -3.3553373   -1.9170111  0.060200298   -3.3553373    1.4383262   396900 
  547000   0.95990771     -3.35539     -3.35539    -1.915532  0.060583809     -3.35539    1.4398579   396900 
  548000   0.96220717   -3.3610507   -3.3610507   -1.9177436  0.059080698   -3.3610507    1.4433071   396900 
  549000   0.96018732   -3.3589387   -3.3589387   -1.9186613  0.060456584   -3.3589387    1.4402773   396900 
  550000   0.95991539    -3.359719    -3.359719   -1.9198495  0.057930679    -3.359719    1.4398695   396900 
  551000   0.95884266   -3.3581368   -3.3581368   -1.9198764  0.058153084   -3.3581368    1.4382604   396900 
  552000   0.95880879   -3.3586248   -3.3586248   -1.9204152  0.059099386   -3.3586248    1.4382096   396900 
  553000   0.95820618   -3.3591038   -3.3591038   -1.9217982  0.059147507   -3.3591038    1.4373057   396900 
  554000   0.95948559   -3.3614529   -3.3614529   -1.9222281  0.056372775   -3.3614529    1.4392248   396900 
  555000   0.95954136   -3.3615089   -3.3615089   -1.9222005  0.059854295   -3.3615089    1.4393084   396900 
  556000   0.96057339     -3.36313     -3.36313   -1.9222735   0.05759499     -3.36313    1.4408565   396900 
  557000   0.95835103   -3.3611004   -3.3611004   -1.9235775  0.059218437   -3.3611004    1.4375229   396900 
  558000   0.95944605   -3.3641833   -3.3641833   -1.9250179  0.061180167   -3.3641833    1.4391654   396900 
  559000    0.9576092   -3.3645817   -3.3645817   -1.9281715  0.056892046   -3.3645817    1.4364102   396900 
  560000   0.95881544   -3.3653959   -3.3653959   -1.9271764  0.060969517   -3.3653959    1.4382195   396900 
  561000   0.95923274   -3.3670295   -3.3670295    -1.928184  0.055991576   -3.3670295    1.4388455   396900 
  562000   0.95830292   -3.3658895   -3.3658895   -1.9284387  0.062968588   -3.3658895    1.4374508   396900 
  563000   0.95861784   -3.3668223   -3.3668223   -1.9288992  0.057879164   -3.3668223    1.4379231   396900 
  564000   0.95640201   -3.3643662   -3.3643662   -1.9297668  0.066672518   -3.3643662    1.4345994   396900 
  565000   0.95765005   -3.3677841   -3.3677841   -1.9313126  0.059172167   -3.3677841    1.4364715   396900 
  566000   0.95758519   -3.3681547   -3.3681547   -1.9317805  0.055282712   -3.3681547    1.4363742   396900 
  567000   0.95944898   -3.3686484   -3.3686484   -1.9294786  0.064056321   -3.3686484    1.4391698   396900 
  568000   0.95939287   -3.3690672   -3.3690672   -1.9299815  0.059546769   -3.3690672    1.4390857   396900 
  569000   0.95874842   -3.3689227   -3.3689227   -1.9308037  0.054006861   -3.3689227     1.438119   396900 
  570000   0.95819458   -3.3676933   -3.3676933   -1.9304051  0.056986811   -3.3676933    1.4372883   396900 
  571000   0.95698801   -3.3655279   -3.3655279   -1.9300495  0.055793115   -3.3655279    1.4354784   396900 
  572000    0.9570654   -3.3663544   -3.3663544     -1.93076   0.05784908   -3.3663544    1.4355945   396900 
  573000   0.95783573    -3.365581    -3.365581   -1.9288311  0.056600051    -3.365581      1.43675   396900 
  574000   0.95620544   -3.3655727   -3.3655727   -1.9312681  0.053796024   -3.3655727    1.4343045   396900 
  575000   0.95809298   -3.3680086   -3.3680086   -1.9308728  0.059517026   -3.3680086    1.4371359   396900 
  576000   0.95669145   -3.3677726   -3.3677726   -1.9327391  0.053026014   -3.3677726    1.4350336   396900 
  577000   0.95784673   -3.3720952   -3.3720952   -1.9353287  0.054829601   -3.3720952    1.4367665   396900 
  578000   0.95694186   -3.3698146   -3.3698146   -1.9344054  0.055991276   -3.3698146    1.4354092   396900 
  579000   0.95698823   -3.3708006   -3.3708006   -1.9353219  0.055538187   -3.3708006    1.4354787   396900 
  580000   0.95572564   -3.3686822   -3.3686822   -1.9350973  0.056126338   -3.3686822    1.4335848   396900 
  581000   0.95481289   -3.3706395   -3.3706395   -1.9384237  0.057892627   -3.3706395    1.4322157   396900 
  582000   0.95752564   -3.3744752   -3.3744752   -1.9381904  0.058946735   -3.3744752    1.4362848   396900 
  583000   0.95751615   -3.3739571   -3.3739571   -1.9376864  0.059939235   -3.3739571    1.4362706   396900 
  584000     0.956675   -3.3746781   -3.3746781   -1.9396692  0.059588222   -3.3746781    1.4350089   396900 
  585000   0.95767002   -3.3741442   -3.3741442   -1.9376428  0.059858783   -3.3741442    1.4365014   396900 
  586000   0.95470253   -3.3740296   -3.3740296   -1.9419794  0.054685864   -3.3740296    1.4320502   396900 
  587000   0.95328157   -3.3724883   -3.3724883   -1.9425696  0.056466236   -3.3724883    1.4299187   396900 
  588000    0.9543797   -3.3756513   -3.3756513   -1.9440853  0.049906444   -3.3756513    1.4315659   396900 
  589000   0.95416009   -3.3755487   -3.3755487   -1.9443121  0.057811862   -3.3755487    1.4312365   396900 
  590000   0.95486427    -3.375923    -3.375923   -1.9436302  0.057971857    -3.375923    1.4322928   396900 
  591000   0.95541689   -3.3784711   -3.3784711   -1.9453494  0.059598438   -3.3784711    1.4331217   396900 
  592000   0.95554393    -3.379411    -3.379411   -1.9460987  0.056800306    -3.379411    1.4333123   396900 
  593000   0.95704122    -3.382547    -3.382547   -1.9469888  0.057718258    -3.382547    1.4355582   396900 
  594000   0.95647027   -3.3825436   -3.3825436   -1.9478418  0.053693033   -3.3825436    1.4347018   396900 
  595000   0.95586549   -3.3821858   -3.3821858   -1.9483912  0.057106602   -3.3821858    1.4337946   396900 
  596000    0.9545898   -3.3805007   -3.3805007   -1.9486196  0.056886274   -3.3805007    1.4318811   396900 
  597000   0.95479105   -3.3832837   -3.3832837   -1.9511008  0.050893015   -3.3832837     1.432183   396900 
  598000    0.9559388    -3.384541    -3.384541   -1.9506364  0.056036923    -3.384541    1.4339046   396900 
  599000   0.95482343   -3.3816773   -3.3816773   -1.9494458  0.055731641   -3.3816773    1.4322315   396900 
  600000   0.95355209    -3.382869    -3.382869   -1.9525444  0.056627182    -3.382869    1.4303245   396900 
  601000   0.95377609   -3.3831758   -3.3831758   -1.9525153  0.055934326   -3.3831758    1.4306605   396900 
  602000   0.95545361    -3.386925    -3.386925   -1.9537482  0.053920975    -3.386925    1.4331768   396900 
  603000   0.95251123   -3.3841007   -3.3841007   -1.9553374  0.054450939   -3.3841007    1.4287632   396900 
  604000   0.95355451   -3.3851799   -3.3851799   -1.9548518  0.056926607   -3.3851799    1.4303282   396900 
  605000   0.95428768   -3.3859638   -3.3859638   -1.9545358  0.052927656   -3.3859638    1.4314279   396900 
  606000   0.95480883    -3.385534    -3.385534   -1.9533244  0.058274564    -3.385534    1.4322096   396900 
  607000   0.95507039   -3.3873854   -3.3873854   -1.9547835  0.057952909   -3.3873854     1.432602   396900 
  608000   0.95317255   -3.3867614   -3.3867614   -1.9570062    0.0546527   -3.3867614    1.4297552   396900 
  609000   0.95296841   -3.3878434   -3.3878434   -1.9583944  0.060467555   -3.3878434     1.429449   396900 
  610000   0.95222001   -3.3919707   -3.3919707   -1.9636443  0.056156557   -3.3919707    1.4283264   396900 
  611000   0.95360227   -3.3946638   -3.3946638    -1.964264  0.054520486   -3.3946638    1.4303998   396900 
  612000   0.95220588   -3.3920693   -3.3920693   -1.9637641  0.053951524   -3.3920693    1.4283052   396900 
  613000   0.95336739   -3.3960334   -3.3960334   -1.9659859  0.053656731   -3.3960334    1.4300475   396900 
  614000   0.95238976   -3.3953913   -3.3953913   -1.9668103   0.05097041   -3.3953913     1.428581   396900 
  615000   0.95316111    -3.399144    -3.399144   -1.9694059  0.046798236    -3.399144    1.4297381   396900 
  616000   0.95097711   -3.3965705   -3.3965705   -1.9701084    0.0532427   -3.3965705    1.4264621   396900 
  617000   0.95336996   -3.4010159   -3.4010159   -1.9709645  0.058511774   -3.4010159    1.4300513   396900 
  618000   0.95167139   -3.4006559   -3.4006559   -1.9731524  0.051015816   -3.4006559    1.4275035   396900 
  619000   0.95318579   -3.4031446   -3.4031446   -1.9733695  0.057426806   -3.4031446    1.4297751   396900 
  620000   0.95262795   -3.4034749   -3.4034749   -1.9745366  0.054752956   -3.4034749    1.4289383   396900 
  621000   0.95309079   -3.4062777   -3.4062777   -1.9766451   0.06047391   -3.4062777    1.4296326   396900 
  622000   0.95147278   -3.4074422   -3.4074422   -1.9802366  0.053296623   -3.4074422    1.4272056   396900 
  623000   0.95138115   -3.4078745   -3.4078745   -1.9808063  0.055955936   -3.4078745    1.4270681   396900 
  624000   0.94948798   -3.4117086   -3.4117086   -1.9874803  0.052740761   -3.4117086    1.4242284   396900 
  625000   0.95139235   -3.4140675   -3.4140675   -1.9869825  0.055806243   -3.4140675    1.4270849   396900 
  626000   0.95019727   -3.4117166   -3.4117166   -1.9864243  0.051111398   -3.4117166    1.4252923   396900 
  627000    0.9498648   -3.4151525   -3.4151525   -1.9903589  0.051782085   -3.4151525    1.4247936   396900 
  628000   0.95047519   -3.4149047   -3.4149047   -1.9891955   0.05890309   -3.4149047    1.4257092   396900 
  629000   0.95058981   -3.4148744   -3.4148744   -1.9889933  0.056420736   -3.4148744    1.4258811   396900 
  630000    0.9508058   -3.4153787   -3.4153787   -1.9891736  0.055580665   -3.4153787    1.4262051   396900 
  631000    0.9494539   -3.4166106   -3.4166106   -1.9924334  0.056478225   -3.4166106    1.4241773   396900 
  632000   0.95073375    -3.417201    -3.417201    -1.991104  0.057583781    -3.417201     1.426097   396900 
  633000   0.94940061   -3.4156902   -3.4156902   -1.9915929   0.05337626   -3.4156902    1.4240973   396900 
  634000   0.95085522   -3.4175263   -3.4175263    -1.991247  0.055848399   -3.4175263    1.4262792   396900 
  635000   0.95125023   -3.4157933   -3.4157933   -1.9889216  0.059585372   -3.4157933    1.4268717   396900 
  636000    0.9501995   -3.4133825   -3.4133825   -1.9880869   0.05899308   -3.4133825    1.4252957   396900 
  637000   0.95070648   -3.4158289   -3.4158289   -1.9897728  0.053515415   -3.4158289    1.4260561   396900 
  638000   0.95109169   -3.4154538   -3.4154538   -1.9888199  0.056895051   -3.4154538    1.4266339   396900 
  639000    0.9499112   -3.4154364   -3.4154364   -1.9905731  0.059026142   -3.4154364    1.4248632   396900 
  640000   0.95046457   -3.4156898   -3.4156898   -1.9899966  0.053852019   -3.4156898    1.4256933   396900 
  641000   0.95172775   -3.4201873   -3.4201873   -1.9925992  0.048629746   -3.4201873     1.427588   396900 
  642000   0.94781744   -3.4169266   -3.4169266    -1.995204  0.055484893   -3.4169266    1.4217226   396900 
  643000   0.94985327   -3.4194061   -3.4194061   -1.9946298  0.058064652   -3.4194061    1.4247763   396900 
  644000   0.95064663   -3.4205813   -3.4205813   -1.9946149  0.057717949   -3.4205813    1.4259664   396900 
  645000   0.94821906   -3.4193046   -3.4193046   -1.9969796  0.051298278   -3.4193046     1.422325   396900 
  646000   0.94839556   -3.4210227   -3.4210227   -1.9984329  0.052309979   -3.4210227    1.4225898   396900 
  647000   0.95084824   -3.4226627   -3.4226627    -1.996394  0.055058789   -3.4226627    1.4262688   396900 
  648000   0.94950811   -3.4246265   -3.4246265   -2.0003679   0.04919283   -3.4246265    1.4242586   396900 
  649000    0.9500439   -3.4258699   -3.4258699   -2.0008076  0.053186651   -3.4258699    1.4250623   396900 
  650000   0.94796228   -3.4223065   -3.4223065   -2.0003667  0.059370887   -3.4223065    1.4219398   396900 
  651000   0.94928673   -3.4234481   -3.4234481   -1.9995216  0.054853197   -3.4234481    1.4239265   396900 
  652000    0.9497759   -3.4236536   -3.4236536   -1.9989933  0.056699934   -3.4236536    1.4246603   396900 
  653000   0.94880505    -3.424037    -3.424037    -2.000833  0.052688966    -3.424037     1.423204   396900 
  654000   0.94657775   -3.4229926   -3.4229926   -2.0031296   0.05257397   -3.4229926    1.4198631   396900 
  655000   0.94754265   -3.4231595   -3.4231595   -2.0018492  0.055464103   -3.4231595    1.4213104   396900 
  656000    0.9479163    -3.425937    -3.425937   -2.0040662  0.052394423    -3.425937    1.4218709   396900 
  657000   0.94727273   -3.4257132   -3.4257132   -2.0048077  0.051359424   -3.4257132    1.4209055   396900 
  658000   0.94725752   -3.4271068   -3.4271068   -2.0062241  0.048844131   -3.4271068    1.4208827   396900 
  659000   0.94715861   -3.4281365   -3.4281365   -2.0074021  0.053284964   -3.4281365    1.4207343   396900 
  660000   0.94700004    -3.431891    -3.431891   -2.0113945    0.0532089    -3.431891    1.4204965   396900 
  661000    0.9468524   -3.4315437   -3.4315437   -2.0112687  0.052937658   -3.4315437     1.420275   396900 
  662000   0.94814768   -3.4350818   -3.4350818   -2.0128639  0.052613403   -3.4350818    1.4222179   396900 
  663000   0.94676641    -3.434904    -3.434904    -2.014758  0.057458326    -3.434904     1.420146   396900 
  664000    0.9464584   -3.4349053   -3.4349053   -2.0152213  0.057524484   -3.4349053     1.419684   396900 
  665000   0.94623897   -3.4360319   -3.4360319    -2.016677  0.056568863   -3.4360319    1.4193549   396900 
  666000    0.9469105   -3.4404392   -3.4404392    -2.020077  0.056739732   -3.4404392    1.4203622   396900 
  667000   0.94471133   -3.4380023   -3.4380023   -2.0209389  0.055066611   -3.4380023    1.4170634   396900 
  668000    0.9435712   -3.4380659   -3.4380659   -2.0227127  0.049737623   -3.4380659    1.4153532   396900 
  669000   0.94591636   -3.4395329   -3.4395329    -2.020662  0.056173571   -3.4395329     1.418871   396900 
  670000   0.94472317    -3.436244    -3.436244   -2.0191629  0.055600917    -3.436244    1.4170812   396900 
  671000   0.94462975   -3.4369015   -3.4369015   -2.0199605  0.056027705   -3.4369015    1.4169411   396900 
  672000   0.94529236   -3.4390057   -3.4390057   -2.0210707  0.052373901   -3.4390057     1.417935   396900 
  673000   0.94613481   -3.4399025   -3.4399025   -2.0207039  0.052700042   -3.4399025    1.4191986   396900 
  674000   0.94694797   -3.4402685   -3.4402685   -2.0198501  0.049886576   -3.4402685    1.4204184   396900 
  675000   0.94587396   -3.4392199   -3.4392199   -2.0204126  0.053653279   -3.4392199    1.4188074   396900 
  676000   0.94535577   -3.4391122   -3.4391122   -2.0210821  0.059648746   -3.4391122    1.4180301   396900 
  677000   0.94502258   -3.4415983   -3.4415983    -2.024068  0.051779668   -3.4415983    1.4175303   396900 
  678000   0.94547962   -3.4432235   -3.4432235   -2.0250076  0.049351155   -3.4432235    1.4182159   396900 
  679000   0.94529889    -3.444386    -3.444386   -2.0264413  0.052044042    -3.444386    1.4179448   396900 
  680000   0.94600651   -3.4452283   -3.4452283   -2.0262221  0.047398629   -3.4452283    1.4190062   396900 
  681000   0.94606526   -3.4462911   -3.4462911   -2.0271968  0.049622978   -3.4462911    1.4190943   396900 
  682000   0.94573838   -3.4469673   -3.4469673   -2.0283633  0.052802142   -3.4469673     1.418604   396900 
  683000   0.94468059     -3.44881     -3.44881   -2.0317927  0.053142286     -3.44881    1.4170173   396900 
[...]
 2833000   0.72043925   -4.7016644   -4.7016644   -3.6210083 0.0065249089   -4.7016644    1.0806561   396900 
 2834000   0.71976478   -4.7011148   -4.7011148   -3.6214704 0.0089393875   -4.7011148    1.0796444   396900 
 2835000   0.71946535   -4.7043657   -4.7043657   -3.6251704 0.0011835872   -4.7043657    1.0791953   396900 
 2836000   0.71841097   -4.7017714   -4.7017714   -3.6241577 0.0044150354   -4.7017714    1.0776137   396900 
 2837000     0.719874   -4.7037069   -4.7037069   -3.6238986 0.0068614783   -4.7037069    1.0798083   396900 
 2838000   0.71982599   -4.7034981   -4.7034981   -3.6237619 0.0070702926   -4.7034981    1.0797363   396900 
 2839000   0.71991943   -4.7067456   -4.7067456   -3.6268691  0.011121532   -4.7067456    1.0798764   396900 
 2840000   0.71804148   -4.7048896   -4.7048896   -3.6278301 0.0076015896   -4.7048896    1.0770595   396900 
 2841000   0.71837152   -4.7075036   -4.7075036   -3.6299491 0.0072763562   -4.7075036    1.0775546   396900 
 2842000   0.71857123   -4.7082921   -4.7082921    -3.630438  0.008585697   -4.7082921    1.0778541   396900 
 2843000   0.71809655   -4.7079886   -4.7079886   -3.6308464  0.010331948   -4.7079886    1.0771421   396900 
 2844000   0.71795485   -4.7097767   -4.7097767   -3.6328472 0.0074001296   -4.7097767    1.0769296   396900 
 2845000   0.71976147   -4.7105167   -4.7105167   -3.6308772  0.011460936   -4.7105167    1.0796395   396900 
 2846000   0.71827854   -4.7106673   -4.7106673   -3.6332522  0.012487283   -4.7106673    1.0774151   396900 
 2847000   0.71743183   -4.7106045   -4.7106045   -3.6344595  0.010255658   -4.7106045     1.076145   396900 
 2848000   0.71712953   -4.7107046   -4.7107046   -3.6350131 0.0083280877   -4.7107046    1.0756916   396900 
 2849000   0.71770353   -4.7107987   -4.7107987   -3.6342461 0.0051117906   -4.7107987    1.0765526   396900 
 2850000   0.71677795   -4.7097782   -4.7097782   -3.6346139 0.0046639667   -4.7097782    1.0751642   396900 
 2851000   0.71660633   -4.7099243   -4.7099243   -3.6350175 0.0089939567   -4.7099243    1.0749068   396900 
 2852000   0.71676923   -4.7090012   -4.7090012     -3.63385 0.0054093965   -4.7090012    1.0751511   396900 
 2853000   0.71784412   -4.7105696   -4.7105696   -3.6338061 0.0053334606   -4.7105696    1.0767635   396900 
 2854000   0.71807693   -4.7113795   -4.7113795   -3.6342668 0.0062956223   -4.7113795    1.0771127   396900 
 2855000   0.71652436    -4.708603    -4.708603   -3.6338192  0.013802623    -4.708603    1.0747838   396900 
 2856000   0.71712544   -4.7113662   -4.7113662   -3.6356808  0.011416408   -4.7113662    1.0756854   396900 
 2857000   0.71707179   -4.7130511   -4.7130511   -3.6374461 0.0051913797   -4.7130511     1.075605   396900 
 2858000    0.7159457   -4.7118245   -4.7118245   -3.6379086 0.0045099514   -4.7118245    1.0739158   396900 
 2859000   0.71545086   -4.7120524   -4.7120524   -3.6388789 0.0060782884   -4.7120524    1.0731736   396900 
 2860000   0.71654098   -4.7137088   -4.7137088      -3.6389 0.0074499243   -4.7137088    1.0748088   396900 
 2861000   0.71521034   -4.7142209   -4.7142209   -3.6414081 0.0047868854   -4.7142209    1.0728128   396900 
 2862000   0.71607002   -4.7149461   -4.7149461   -3.6408438 0.0032439438   -4.7149461    1.0741023   396900 
 2863000    0.7169448   -4.7165735   -4.7165735    -3.641159 0.0053705309   -4.7165735    1.0754145   396900 
 2864000   0.71708867   -4.7187194   -4.7187194   -3.6430891 0.0024576211   -4.7187194    1.0756303   396900 
 2865000   0.71671765   -4.7175096   -4.7175096   -3.6424358 0.0075527803   -4.7175096    1.0750738   396900 
 2866000    0.7166829   -4.7174245   -4.7174245   -3.6424029 0.0043239496   -4.7174245    1.0750216   396900 
 2867000   0.71446492    -4.714378    -4.714378   -3.6426833  0.010638122    -4.714378    1.0716947   396900 
 2868000   0.71507373   -4.7178881   -4.7178881   -3.6452802 -0.00078440799   -4.7178881    1.0726079   396900 
 2869000   0.71430627   -4.7178637   -4.7178637    -3.646407 0.0029520838   -4.7178637    1.0714567   396900 
 2870000   0.71498527   -4.7179176   -4.7179176   -3.6454424 0.0060778766   -4.7179176    1.0724752   396900 
 2871000   0.71557795   -4.7209084   -4.7209084   -3.6475442 0.0033824776   -4.7209084    1.0733642   396900 
 2872000   0.71456237   -4.7187039   -4.7187039   -3.6468631 0.0056573057   -4.7187039    1.0718409   396900 
 2873000    0.7158266   -4.7201319   -4.7201319   -3.6463947 0.0075366704   -4.7201319    1.0737372   396900 
 2874000   0.71412793   -4.7204132   -4.7204132    -3.649224 0.0076124078   -4.7204132    1.0711892   396900 
 2875000   0.71419153   -4.7217526   -4.7217526    -3.650468 0.0058931565   -4.7217526    1.0712846   396900 
 2876000   0.71616687   -4.7236114   -4.7236114   -3.6493638  0.010517445   -4.7236114    1.0742476   396900 
 2877000   0.71379385   -4.7229243   -4.7229243   -3.6522362  0.011743375   -4.7229243    1.0706881   396900 
 2878000    0.7128685   -4.7233753   -4.7233753   -3.6540752 0.0079115495   -4.7233753    1.0693001   396900 
 2879000   0.71237428   -4.7255449   -4.7255449   -3.6569862 0.0068509924   -4.7255449    1.0685587   396900 
 2880000   0.71359675   -4.7277083   -4.7277083   -3.6573158 0.0068896921   -4.7277083    1.0703924   396900 
 2881000   0.71397755   -4.7287092   -4.7287092   -3.6577455 0.0073436963   -4.7287092    1.0709636   396900 
 2882000   0.71457657   -4.7299176   -4.7299176   -3.6580555 0.0082584809   -4.7299176    1.0718621   396900 
 2883000   0.71317091   -4.7272651   -4.7272651   -3.6575114 0.0092150948   -4.7272651    1.0697537   396900 
 2884000   0.71489596   -4.7297564   -4.7297564   -3.6574152 0.0049178969   -4.7297564    1.0723412   396900 
 2885000   0.71293301   -4.7278923   -4.7278923   -3.6584955  0.012043548   -4.7278923    1.0693968   396900 
 2886000   0.71340662   -4.7299388   -4.7299388   -3.6598316  0.013108226   -4.7299388    1.0701072   396900 
 2887000   0.71447696   -4.7312551   -4.7312551   -3.6595424 0.0095867113   -4.7312551    1.0717127   396900 
 2888000   0.71305147   -4.7300156   -4.7300156   -3.6604411 0.0075360814   -4.7300156    1.0695745   396900 
 2889000   0.71208016   -4.7295617   -4.7295617   -3.6614442  0.012384543   -4.7295617    1.0681175   396900 
 2890000   0.71284566   -4.7306477   -4.7306477   -3.6613819  0.012769412   -4.7306477    1.0692658   396900 
 2891000   0.71342163   -4.7317844   -4.7317844   -3.6616546  0.011587567   -4.7317844    1.0701298   396900 
 2892000   0.71415795   -4.7316428   -4.7316428   -3.6604085  0.010456932   -4.7316428    1.0712342   396900 
 2893000   0.71340312   -4.7335185   -4.7335185   -3.6634165 0.0051493553   -4.7335185     1.070102   396900 
 2894000   0.71223682   -4.7342505   -4.7342505   -3.6658979 0.0057126188   -4.7342505    1.0683525   396900 
 2895000   0.71234148   -4.7340287   -4.7340287   -3.6655192 0.0034490935   -4.7340287    1.0685095   396900 
 2896000   0.71232228   -4.7341705   -4.7341705   -3.6656898 0.0076064536   -4.7341705    1.0684807   396900 
 2897000   0.71289927   -4.7347226   -4.7347226   -3.6653764 0.0079200151   -4.7347226    1.0693462   396900 
 2898000   0.71259924   -4.7342608   -4.7342608   -3.6653646 0.0093334674   -4.7342608    1.0688962   396900 
 2899000   0.71397651    -4.736393    -4.736393    -3.665431 0.0098790462    -4.736393    1.0709621   396900 
 2900000      0.71265   -4.7338685   -4.7338685   -3.6648962  0.011006464   -4.7338685    1.0689723   396900 
 2901000   0.71252537   -4.7330423   -4.7330423   -3.6642569 0.0081801566   -4.7330423    1.0687854   396900 
 2902000   0.71191047   -4.7336449   -4.7336449   -3.6657819  0.002497287   -4.7336449     1.067863   396900 
 2903000   0.71243871   -4.7351565   -4.7351565   -3.6665011 0.0022689743   -4.7351565    1.0686554   396900 
 2904000   0.71292965     -4.73647     -4.73647   -3.6670782 0.0022850148     -4.73647    1.0693918   396900 
 2905000   0.71282745   -4.7380943   -4.7380943   -3.6688559 0.0043153403   -4.7380943    1.0692385   396900 
 2906000   0.71165881   -4.7360622   -4.7360622   -3.6685767 0.0052514516   -4.7360622    1.0674855   396900 
 2907000   0.71238205   -4.7376839   -4.7376839   -3.6691135 0.0024266085   -4.7376839    1.0685704   396900 
 2908000    0.7115853    -4.737073    -4.737073   -3.6696977 0.0048678984    -4.737073    1.0673753   396900 
 2909000   0.71175313   -4.7367016   -4.7367016   -3.6690746  0.011540962   -4.7367016     1.067627   396900 
 2910000   0.71155927   -4.7397104   -4.7397104   -3.6723741 0.0065623021   -4.7397104    1.0673362   396900 
 2911000   0.71326843   -4.7407776   -4.7407776   -3.6708776 0.0056195243   -4.7407776       1.0699   396900 
 2912000   0.71126966   -4.7398562   -4.7398562   -3.6729544 0.0065793596   -4.7398562    1.0669018   396900 
 2913000   0.71154508   -4.7415924   -4.7415924   -3.6742774 0.0094827177   -4.7415924    1.0673149   396900 
 2914000    0.7126104   -4.7450351   -4.7450351   -3.6761222 0.0054746814   -4.7450351    1.0689129   396900 
 2915000   0.71186661   -4.7453435   -4.7453435   -3.6775463 0.0081619968   -4.7453435    1.0677972   396900 
 2916000   0.71084404   -4.7437092   -4.7437092   -3.6774459  0.014875293   -4.7437092    1.0662634   396900 
 2917000   0.71222078   -4.7464115   -4.7464115    -3.678083  0.011622267   -4.7464115    1.0683285   396900 
 2918000    0.7118151   -4.7468032   -4.7468032   -3.6790832  0.010231129   -4.7468032      1.06772   396900 
 2919000   0.71015328   -4.7466255   -4.7466255   -3.6813983  0.006271764   -4.7466255    1.0652272   396900 
 2920000   0.70905559   -4.7455108   -4.7455108   -3.6819301 0.0068107436   -4.7455108    1.0635807   396900 
 2921000   0.70956837   -4.7447783   -4.7447783   -3.6804284  0.010400612   -4.7447783    1.0643499   396900 
 2922000   0.70883802   -4.7468716   -4.7468716   -3.6836173  0.002021875   -4.7468716    1.0632544   396900 
 2923000    0.7098789   -4.7467143   -4.7467143   -3.6818986  0.010181389   -4.7467143    1.0648157   396900 
 2924000   0.70862974    -4.746322    -4.746322     -3.68338 0.0057236553    -4.746322    1.0629419   396900 
 2925000   0.70950898    -4.745754    -4.745754   -3.6814932  0.010951576    -4.745754    1.0642608   396900 
 2926000   0.71085047   -4.7471633   -4.7471633   -3.6808903 0.0078760858   -4.7471633     1.066273   396900 
 2927000   0.70923886   -4.7457999   -4.7457999   -3.6819443  0.011068026   -4.7457999    1.0638556   396900 
 2928000   0.71063091   -4.7496053   -4.7496053   -3.6836616 0.0080651296   -4.7496053    1.0659437   396900 
 2929000   0.70957655   -4.7516215   -4.7516215   -3.6872594 0.0038111764   -4.7516215    1.0643621   396900 
 2930000   0.70871198   -4.7500375   -4.7500375   -3.6869722 0.0079026524   -4.7500375    1.0630653   396900 
 2931000   0.70987766   -4.7518736   -4.7518736   -3.6870598 0.0050579122   -4.7518736    1.0648138   396900 
 2932000   0.70882774    -4.750855    -4.750855   -3.6876161 0.0071164662    -4.750855    1.0632389   396900 
 2933000   0.70851392   -4.7529793   -4.7529793   -3.6902111  0.009253824   -4.7529793    1.0627682   396900 
 2934000   0.71041997   -4.7543504   -4.7543504   -3.6887232 0.0098663165   -4.7543504    1.0656273   396900 
 2935000   0.71001174   -4.7537446   -4.7537446   -3.6887296 0.0043823213   -4.7537446    1.0650149   396900 
 2936000   0.70920754   -4.7536014   -4.7536014   -3.6897927 0.0069127951   -4.7536014    1.0638086   396900 
 2937000   0.70777867   -4.7522941   -4.7522941   -3.6906288  0.010172114   -4.7522941    1.0616653   396900 
 2938000   0.70836519   -4.7538792   -4.7538792   -3.6913341 0.0092558389   -4.7538792    1.0625451   396900 
 2939000   0.70871995    -4.754731    -4.754731   -3.6916537  0.005160419    -4.754731    1.0630772   396900 
 2940000   0.70703402   -4.7534418   -4.7534418   -3.6928935 0.0068846136   -4.7534418    1.0605484   396900 
 2941000   0.70857137   -4.7551659   -4.7551659   -3.6923116  0.004546811   -4.7551659    1.0628544   396900 
 2942000   0.70939259   -4.7558814   -4.7558814   -3.6917952 0.0081338836   -4.7558814    1.0640862   396900 
 2943000    0.7067498   -4.7550723   -4.7550723   -3.6949503 0.0057007779   -4.7550723     1.060122   396900 
 2944000   0.70678012   -4.7554791   -4.7554791   -3.6953116 0.0060193354   -4.7554791    1.0601675   396900 
 2945000   0.70854901   -4.7599442   -4.7599442   -3.6971233 0.0051197494   -4.7599442    1.0628208   396900 
 2946000   0.70860372   -4.7599149   -4.7599149    -3.697012 0.0088747331   -4.7599149    1.0629029   396900 
 2947000   0.70755723   -4.7609429   -4.7609429   -3.6996097  0.003873134   -4.7609429    1.0613332   396900 
 2948000   0.70742372   -4.7597995   -4.7597995   -3.6986666  0.011125744   -4.7597995    1.0611329   396900 
 2949000    0.7067951   -4.7618063   -4.7618063   -3.7016163 0.0089746618   -4.7618063      1.06019   396900 
 2950000   0.70831947   -4.7624951   -4.7624951   -3.7000186  0.014874079   -4.7624951    1.0624765   396900 
 2951000   0.70911781   -4.7637378   -4.7637378   -3.7000638  0.012711029   -4.7637378     1.063674   396900 
 2952000   0.70801111   -4.7619756   -4.7619756   -3.6999616  0.011434505   -4.7619756     1.062014   396900 
 2953000   0.70708063    -4.760446    -4.760446   -3.6998277  0.011441059    -4.760446    1.0606183   396900 
 2954000   0.70747271   -4.7635389   -4.7635389   -3.7023325  0.003955247   -4.7635389    1.0612064   396900 
 2955000   0.70608192    -4.760573    -4.760573   -3.7014528 0.0090271071    -4.760573    1.0591202   396900 
 2956000   0.70744277   -4.7623646   -4.7623646   -3.7012031 0.0073466855   -4.7623646    1.0611615   396900 
 2957000    0.7075472   -4.7622043   -4.7622043   -3.7008862 0.0072607913   -4.7622043    1.0613181   396900 
 2958000   0.70616083   -4.7606596   -4.7606596    -3.701421 0.0082417368   -4.7606596    1.0592386   396900 
 2959000    0.7067711   -4.7628112   -4.7628112   -3.7026572 0.0073293795   -4.7628112     1.060154   396900 
 2960000   0.70590513   -4.7641354   -4.7641354   -3.7052804 0.0034528146   -4.7641354     1.058855   396900 
 2961000   0.70476339   -4.7622351   -4.7622351   -3.7050926  0.011148431   -4.7622351    1.0571424   396900 
 2962000   0.70650559     -4.76466     -4.76466   -3.7049043 0.0021623979     -4.76466    1.0597557   396900 
 2963000   0.70656589   -4.7659773   -4.7659773   -3.7061311 0.0050215613   -4.7659773    1.0598462   396900 
 2964000    0.7049791   -4.7657336   -4.7657336   -3.7082676 0.0060634176   -4.7657336     1.057466   396900 
 2965000   0.70494453   -4.7643383   -4.7643383   -3.7069241 0.0040476534   -4.7643383    1.0574141   396900 
 2966000   0.70545551   -4.7649009   -4.7649009   -3.7067203 0.0068457874   -4.7649009    1.0581806   396900 
 2967000   0.70705068   -4.7697748   -4.7697748   -3.7092015  0.010089412   -4.7697748    1.0605734   396900 
 2968000   0.70582981   -4.7677885   -4.7677885   -3.7090465  0.010592229   -4.7677885     1.058742   396900 
 2969000    0.7058279   -4.7687317   -4.7687317   -3.7099925  0.010344138   -4.7687317    1.0587392   396900 
 2970000   0.70474689   -4.7695485   -4.7695485   -3.7124308  0.008009419   -4.7695485    1.0571177   396900 
 2971000    0.7058041   -4.7716779   -4.7716779   -3.7129744 0.00011129661   -4.7716779    1.0587035   396900 
 2972000   0.70578674   -4.7701687   -4.7701687   -3.7114912 0.0085954744   -4.7701687    1.0586774   396900 
 2973000   0.70591804    -4.771039    -4.771039   -3.7121646 0.0094779726    -4.771039    1.0588744   396900 
 2974000   0.70497747   -4.7710555   -4.7710555    -3.713592 0.0069274803   -4.7710555    1.0574635   396900 
 2975000   0.70450771   -4.7706179   -4.7706179   -3.7138589 0.0065234696   -4.7706179    1.0567589   396900 
 2976000   0.70364843   -4.7707462   -4.7707462   -3.7152762 0.0055211233   -4.7707462      1.05547   396900 
 2977000   0.70641709   -4.7724362   -4.7724362   -3.7128133  0.001874173   -4.7724362     1.059623   396900 
 2978000   0.70586662   -4.7703537   -4.7703537   -3.7115564 0.0042412959   -4.7703537    1.0587973   396900 
 2979000    0.7050877    -4.770386    -4.770386   -3.7127571 0.0096618088    -4.770386    1.0576289   396900 
 2980000    0.7046267   -4.7721798   -4.7721798   -3.7152424 0.0061455679   -4.7721798    1.0569374   396900 
 2981000   0.70345247   -4.7719823   -4.7719823   -3.7168062 0.0046844848   -4.7719823    1.0551761   396900 
 2982000   0.70226358   -4.7728485   -4.7728485   -3.7194558 0.0033904224   -4.7728485    1.0533927   396900 
 2983000   0.70251982   -4.7719935   -4.7719935   -3.7182164  0.010780176   -4.7719935    1.0537771   396900 
 2984000   0.70501455   -4.7760846   -4.7760846   -3.7185655 0.0053548223   -4.7760846    1.0575192   396900 
 2985000   0.70383502   -4.7744261   -4.7744261   -3.7186762  0.011135071   -4.7744261    1.0557499   396900 
 2986000   0.70311672   -4.7746901   -4.7746901   -3.7200177 0.0061270449   -4.7746901    1.0546724   396900 
 2987000    0.7036825   -4.7775802   -4.7775802   -3.7220591 0.0049871563   -4.7775802    1.0555211   396900 
 2988000   0.70543161   -4.7800832   -4.7800832   -3.7219384 0.0075101224   -4.7800832    1.0581448   396900 
 2989000   0.70375342   -4.7797573   -4.7797573   -3.7241298 0.0081400805   -4.7797573    1.0556275   396900 
 2990000    0.7035876   -4.7804017   -4.7804017    -3.725023 0.0080603126   -4.7804017    1.0553787   396900 
 2991000    0.7041115   -4.7801541   -4.7801541   -3.7239895 0.0079967492   -4.7801541    1.0561646   396900 
 2992000   0.70338628   -4.7793973   -4.7793973   -3.7243205 0.0031527061   -4.7793973    1.0550768   396900 
 2993000   0.70353706    -4.782147    -4.782147    -3.726844 0.0013624562    -4.782147    1.0553029   396900 
 2994000   0.70250018   -4.7803664   -4.7803664   -3.7266188 0.0018923328   -4.7803664    1.0537476   396900 
 2995000   0.70265339   -4.7801611   -4.7801611   -3.7261837 0.0079037882   -4.7801611    1.0539774   396900 
 2996000   0.70260708   -4.7798092   -4.7798092   -3.7259012   0.01196877   -4.7798092     1.053908   396900 
 2997000      0.70345   -4.7821932   -4.7821932   -3.7270208 0.0033304507   -4.7821932    1.0551723   396900 
 2998000   0.70221436   -4.7813213   -4.7813213   -3.7280024   0.00639321   -4.7813213    1.0533189   396900 
 2999000   0.70089185   -4.7811261   -4.7811261    -3.729791 0.0043429015   -4.7811261    1.0513351   396900 
 3000000   0.70166842   -4.7818506   -4.7818506   -3.7293506 0.0071187941   -4.7818506       1.0525   396900 
Loop time of 16272.9 on 48 procs for 3000000 steps with 396900 atoms

Performance: 79641.825 tau/day, 184.356 timesteps/s
94.2% CPU use with 48 MPI tasks x 1 OpenMP threads

MPI task timing breakdown:
Section |  min time  |  avg time  |  max time  |%varavg|  %CPU | %total
-----------------------------------------------------------------------
Pair    | 5356.7     | 8064.2     | 8842.9     |1232.3 |  98.4 | 49.56
Bond    | 2.1293     | 2.3244     | 2.5443     |   5.7 | 100.0 |  0.01
Neigh   | 2604.8     | 3587.9     | 3849.8     | 649.2 |  99.5 | 22.05
Comm    | 2080.7     | 3392.5     | 7563       |3083.9 |  85.5 | 20.85
Output  | 79.632     | 79.856     | 79.864     |   0.4 |  70.9 |  0.49
Modify  | 363.5      | 976.34     | 1385.6     |1382.2 |  90.5 |  6.00
Other   |            | 169.7      |            |       |       |  1.04

Nlocal:        8268.75 ave        8492 max        7641 min
Histogram: 1 2 0 1 1 1 0 26 10 6
Nghost:        9185.00 ave       10126 max        6331 min
Histogram: 10 2 0 0 0 0 0 0 0 36
Neighs:        315138.0 ave      333219 max      232196 min
Histogram: 4 2 0 0 0 0 0 0 7 35

Total # of neighbors = 15126643
Ave neighs/atom = 38.111975
Ave special neighs/atom = 0.0000000
Neighbor list builds = 300000
Dangerous builds = 297000

write_data	data.lj
System init for write_data ...
WARNING: Not all mixed pair coeffs generated from mixing. Use write_data with 'pair ij' option to store all pair coeffs. (src/write_data.cpp:312)
Total wall time: 4:31:13
