LAMMPS (24 Dec 2020)
OMP_NUM_THREADS environment is not set. Defaulting to 1 thread. (src/comm.cpp:94)
  using 1 OpenMP thread(s) per MPI task
Created orthogonal box = (0.0000000 0.0000000 0.0000000) to (80.000000 80.000000 160.00000)
  6 by 4 by 8 MPI processor grid
Lattice spacing in x,y,z = 1.1485556 1.1485556 1.1485556
Created 421400 atoms
  create_atoms CPU = 0.143 seconds
421400 atoms in group solvent
Balancing ...
Neighbor list info ...
  update every 1 steps, delay 10 steps, check yes
  max neighbors/atom: 2000, page size: 100000
  master list distance cutoff = 1.9
  ghost atom cutoff = 1.9
  binsize = 0.95, bins = 85 85 169
  1 neighbor lists, perpetual/occasional/extra = 1 0 0
  (1) pair lj/smooth/linear, perpetual
      attributes: half, newton on
      pair build: half/bin/newton
      stencil: half/bin/3d/newton
      bin: standard
 rebalancing time: 0.037 seconds
  iteration count = 5
  initial/final maximal load/proc = 3888.0000 2376.0000
  initial/final imbalance factor  = 1.7714665 1.0825629
  x cuts: 0.0000000 0.16666667 0.33333333 0.50000000 0.66666667 0.83333333 1.0000000
  y cuts: 0.0000000 0.25000000 0.50000000 0.75000000 1.0000000
  z cuts: 0.0000000 0.089843750 0.16796875 0.24218750 0.32031250 0.39843750 0.48046875 0.55859375 1.0000000
dynamic group thermo defined
New timer settings: style=full  mode=nosync  timeout=off
Setting up Verlet run ...
  Unit style    : lj
  Current step  : 0
  Time step     : 0.005
Per MPI rank memory allocation (min/avg/max) = 9.959 | 9.999 | 10.10 Mbytes
Step Temp E_pair E_vdwl TotEng Press PotEng KinEng Atoms 
       0         0.16    2.2548251    2.2548251    2.4948246    5.4896341    2.2548251   0.23999943   421400 
    1000   0.77468339  -0.34164417  -0.34164417   0.82037816    1.4623014  -0.34164417    1.1620223   421400 
    2000   0.45995052  -0.52373907  -0.52373907   0.16618507   0.64113836  -0.52373907   0.68992414   421400 
    3000   0.29373161  -0.58073481  -0.58073481  -0.14013844   0.27958445  -0.58073481   0.44059637   421400 
    4000   0.22038663  -0.60629258  -0.60629258  -0.27571343   0.15393623  -0.60629258   0.33057915   421400 
    5000   0.18875851  -0.62169557  -0.62169557  -0.33855847  0.094692977  -0.62169557    0.2831371   421400 
    6000   0.17397579   -0.6292792   -0.6292792  -0.36831613  0.068457337   -0.6292792   0.26096307   421400 
    7000   0.16707536  -0.63374449  -0.63374449  -0.38313204  0.054401647  -0.63374449   0.25061245   421400 
    8000   0.16402235  -0.63586145  -0.63586145  -0.38982852  0.049242498  -0.63586145   0.24603294   421400 
    9000    0.1618987  -0.63707567  -0.63707567  -0.39422819  0.045051439  -0.63707567   0.24284748   421400 
   10000   0.16093592  -0.63773492  -0.63773492   -0.3963316  0.041637031  -0.63773492   0.24140331   421400 
   11000   0.16035396  -0.63713242  -0.63713242  -0.39660205   0.04054282  -0.63713242   0.24053037   421400 
   12000   0.15997586  -0.63668459  -0.63668459  -0.39672138  0.040562431  -0.63668459   0.23996321   421400 
   13000   0.15972618  -0.63617315  -0.63617315  -0.39658445  0.039470968  -0.63617315    0.2395887   421400 
   14000   0.15965539  -0.63585268  -0.63585268  -0.39637016  0.039091246  -0.63585268   0.23948252   421400 
   15000   0.15975615  -0.63530767  -0.63530767  -0.39567401   0.03887488  -0.63530767   0.23963366   421400 
   16000   0.15958912  -0.63468492  -0.63468492  -0.39530181  0.039997854  -0.63468492   0.23938311   421400 
   17000   0.15938094  -0.63429711  -0.63429711  -0.39522627  0.039932903  -0.63429711   0.23907084   421400 
   18000   0.15933645  -0.63443226  -0.63443226  -0.39542815  0.038379327  -0.63443226    0.2390041   421400 
   19000   0.15946567  -0.63350228  -0.63350228  -0.39430434  0.038703254  -0.63350228   0.23919794   421400 
   20000   0.15971976  -0.63314128  -0.63314128  -0.39356222  0.039724069  -0.63314128   0.23957906   421400 
   21000   0.15957553  -0.63243514  -0.63243514  -0.39307241  0.038281275  -0.63243514   0.23936273   421400 
   22000   0.15991582  -0.63209409  -0.63209409  -0.39222093  0.039618579  -0.63209409   0.23987315   421400 
   23000   0.15938442  -0.63162848  -0.63162848  -0.39255242  0.039158095  -0.63162848   0.23907606   421400 
   24000   0.15952578  -0.63094007  -0.63094007  -0.39165197  0.038304959  -0.63094007    0.2392881   421400 
   25000   0.15971478  -0.63051543  -0.63051543  -0.39094382  0.038720782  -0.63051543    0.2395716   421400 
   26000   0.15962941  -0.63000048  -0.63000048  -0.39055693  0.038845257  -0.63000048   0.23944355   421400 
   27000   0.16001808  -0.62948916  -0.62948916  -0.38946262  0.040220625  -0.62948916   0.24002655   421400 
   28000   0.15946919  -0.62938404  -0.62938404  -0.39018082  0.038794041  -0.62938404   0.23920322   421400 
   29000   0.15961017  -0.62851325  -0.62851325  -0.38909857  0.039086076  -0.62851325   0.23941468   421400 
   30000   0.15948443  -0.62815698  -0.62815698   -0.3889309  0.038711112  -0.62815698   0.23922608   421400 
   31000   0.15977488  -0.62748944  -0.62748944  -0.38782769  0.038327794  -0.62748944   0.23966175   421400 
   32000   0.15989018  -0.62759969  -0.62759969  -0.38776498  0.038335395  -0.62759969   0.23983471   421400 
   33000   0.15985189  -0.62690586  -0.62690586   -0.3871286  0.038716221  -0.62690586   0.23977727   421400 
   34000   0.15947577   -0.6263052   -0.6263052  -0.38709211    0.0372579   -0.6263052   0.23921309   421400 
   35000    0.1599902  -0.62585544  -0.62585544   -0.3858707   0.04047653  -0.62585544   0.23998473   421400 
   36000   0.15934312  -0.62506352  -0.62506352  -0.38604941  0.037737273  -0.62506352   0.23901411   421400 
   37000   0.15954035  -0.62472719  -0.62472719  -0.38541724  0.038131973  -0.62472719   0.23930995   421400 
   38000   0.15969985  -0.62449016  -0.62449016  -0.38494095  0.039442786  -0.62449016   0.23954921   421400 
   39000   0.15974055  -0.62457906  -0.62457906   -0.3849688  0.037772331  -0.62457906   0.23961026   421400 
   40000   0.15948406  -0.62395971  -0.62395971  -0.38473419  0.037559734  -0.62395971   0.23922553   421400 
   41000   0.15987054  -0.62298783  -0.62298783  -0.38318258  0.038605626  -0.62298783   0.23980525   421400 
   42000    0.1597519   -0.6226155   -0.6226155  -0.38298821  0.038136288   -0.6226155   0.23962729   421400 
   43000   0.15968786  -0.62255166  -0.62255166  -0.38302044  0.036830242  -0.62255166   0.23953122   421400 
   44000   0.15958164  -0.62177278  -0.62177278  -0.38240089  0.038098095  -0.62177278   0.23937189   421400 
   45000   0.15966128  -0.62118952  -0.62118952  -0.38169817  0.038290885  -0.62118952   0.23949136   421400 
   46000   0.15986801   -0.6211237   -0.6211237  -0.38132225  0.037007883   -0.6211237   0.23980145   421400 
   47000   0.15979931  -0.62065467  -0.62065467  -0.38095627  0.039157553  -0.62065467    0.2396984   421400 
   48000   0.15966952  -0.62021583  -0.62021583  -0.38071212  0.038252953  -0.62021583   0.23950371   421400 
   49000   0.16006668   -0.6197161   -0.6197161  -0.37961666  0.039778343   -0.6197161   0.24009945   421400 
   50000   0.15944325  -0.61953143  -0.61953143  -0.38036712  0.036568687  -0.61953143    0.2391643   421400 
   51000   0.15966305  -0.61948742  -0.61948742  -0.37999341  0.036580756  -0.61948742   0.23949401   421400 
   52000   0.15990761  -0.61917156  -0.61917156  -0.37931071   0.03798548  -0.61917156   0.23986084   421400 
   53000   0.15987911  -0.61859502  -0.61859502  -0.37877692   0.03634366  -0.61859502    0.2398181   421400 
   54000   0.15952253  -0.61786574  -0.61786574  -0.37858251  0.039541184  -0.61786574   0.23928323   421400 
   55000   0.15971043  -0.61757244  -0.61757244  -0.37800736   0.03545205  -0.61757244   0.23956508   421400 
   56000   0.15972379  -0.61684685  -0.61684685  -0.37726173  0.038600853  -0.61684685   0.23958512   421400 
   57000   0.15993934  -0.61681771  -0.61681771  -0.37690926  0.036340648  -0.61681771   0.23990845   421400 
   58000   0.15974205  -0.61642975  -0.61642975  -0.37681724  0.038017901  -0.61642975   0.23961251   421400 
   59000   0.15978176  -0.61595099  -0.61595099  -0.37627891  0.038321814  -0.61595099   0.23967208   421400 
   60000   0.15967453  -0.61552132  -0.61552132  -0.37601009  0.038021183  -0.61552132   0.23951123   421400 
   61000   0.15992381  -0.61529928  -0.61529928  -0.37541413  0.037653952  -0.61529928   0.23988515   421400 
   62000   0.15963532  -0.61469637  -0.61469637  -0.37524396  0.039203624  -0.61469637   0.23945241   421400 
   63000   0.15984417  -0.61493283  -0.61493283  -0.37516715  0.037894396  -0.61493283   0.23976568   421400 
   64000   0.15958626  -0.61420973  -0.61420973  -0.37483091  0.036282583  -0.61420973   0.23937882   421400 
   65000   0.15985651  -0.61430437  -0.61430437  -0.37452018  0.037249396  -0.61430437   0.23978419   421400 
   66000   0.15967353  -0.61399445  -0.61399445  -0.37448473  0.037621056  -0.61399445   0.23950972   421400 
   67000   0.15977206  -0.61386332  -0.61386332  -0.37420581  0.037863943  -0.61386332   0.23965751   421400 
   68000   0.15962952  -0.61339311  -0.61339311   -0.3739494  0.036675966  -0.61339311   0.23944371   421400 
   69000   0.15952858  -0.61233621  -0.61233621   -0.3730439  0.037767923  -0.61233621    0.2392923   421400 
   70000    0.1599091  -0.61240017  -0.61240017  -0.37253709  0.038293173  -0.61240017   0.23986308   421400 
   71000    0.1596358  -0.61118663  -0.61118663   -0.3717335  0.038086026  -0.61118663   0.23945313   421400 
   72000   0.15987025  -0.61142882  -0.61142882  -0.37162401  0.036325092  -0.61142882   0.23980481   421400 
   73000   0.15966403  -0.61071893  -0.61071893  -0.37122345  0.037680704  -0.61071893   0.23949548   421400 
   74000   0.15989106  -0.61068597  -0.61068597  -0.37084995   0.03706075  -0.61068597   0.23983602   421400 
   75000   0.16002786  -0.60992143  -0.60992143  -0.36988021  0.038412903  -0.60992143   0.24004121   421400 
   76000   0.15966482  -0.60997527  -0.60997527  -0.37047861  0.036401449  -0.60997527   0.23949666   421400 
   77000   0.15983068  -0.60898435  -0.60898435  -0.36923889  0.037212191  -0.60898435   0.23974546   421400 
   78000   0.15969847  -0.60890765  -0.60890765  -0.36936052  0.036564976  -0.60890765   0.23954713   421400 
   79000   0.16026353  -0.60878211  -0.60878211  -0.36838738  0.036950071  -0.60878211   0.24039473   421400 
   80000   0.15999364  -0.60857901  -0.60857901  -0.36858912  0.036941393  -0.60857901   0.23998989   421400 
   81000   0.16000198  -0.60817204  -0.60817204  -0.36816964  0.037345833  -0.60817204    0.2400024   421400 
   82000   0.15986333   -0.6075383   -0.6075383  -0.36774387  0.038606806   -0.6075383   0.23979443   421400 
   83000   0.16008601  -0.60748532  -0.60748532  -0.36735687  0.038087182  -0.60748532   0.24012845   421400 
   84000   0.16005605  -0.60742111  -0.60742111  -0.36733761  0.037539873  -0.60742111    0.2400835   421400 
   85000   0.15988145  -0.60721579  -0.60721579  -0.36739419   0.03728731  -0.60721579    0.2398216   421400 
   86000   0.15968212   -0.6066466   -0.6066466  -0.36712399  0.037018775   -0.6066466    0.2395226   421400 
   87000   0.15998098  -0.60692235  -0.60692235  -0.36695146  0.036290856  -0.60692235   0.23997089   421400 
   88000   0.15981717  -0.60684953  -0.60684953  -0.36712435  0.037050201  -0.60684953   0.23972518   421400 
   89000     0.159717    -0.606646    -0.606646  -0.36707108  0.038370003    -0.606646   0.23957493   421400 
   90000   0.15947897  -0.60659189  -0.60659189    -0.367374  0.035161788  -0.60659189   0.23921789   421400 
   91000   0.15986017  -0.60603075  -0.60603075  -0.36624106  0.037090407  -0.60603075   0.23978969   421400 
   92000   0.15946304  -0.60588827  -0.60588827  -0.36669427  0.036954564  -0.60588827     0.239194   421400 
   93000   0.15962601  -0.60544143  -0.60544143  -0.36600298  0.035262283  -0.60544143   0.23943845   421400 
   94000   0.15961176  -0.60467602  -0.60467602  -0.36525895  0.036157333  -0.60467602   0.23941708   421400 
   95000   0.15981397  -0.60441821  -0.60441821  -0.36469783   0.03687303  -0.60441821   0.23972038   421400 
   96000   0.15984579  -0.60424309  -0.60424309  -0.36447498  0.035073745  -0.60424309   0.23976811   421400 
   97000   0.15987806  -0.60406077  -0.60406077  -0.36424425  0.035504519  -0.60406077   0.23981653   421400 
   98000   0.15973009  -0.60362265  -0.60362265  -0.36402809  0.037456613  -0.60362265   0.23959456   421400 
   99000   0.15974345  -0.60386772  -0.60386772  -0.36425312  0.036478007  -0.60386772    0.2396146   421400 
  100000   0.15979275  -0.60369947  -0.60369947  -0.36401092  0.037050024  -0.60369947   0.23968855   421400 
  101000   0.16023058  -0.60360689  -0.60360689  -0.36326159  0.035926146  -0.60360689   0.24034529   421400 
  102000   0.15944589  -0.60264584  -0.60264584  -0.36347757  0.035959403  -0.60264584   0.23916827   421400 
  103000   0.15962034   -0.6024883   -0.6024883  -0.36305836  0.035283301   -0.6024883   0.23942994   421400 
  104000   0.15976196  -0.60231052  -0.60231052  -0.36266815  0.036346089  -0.60231052   0.23964237   421400 
  105000   0.16002047  -0.60245338  -0.60245338  -0.36242324  0.036363568  -0.60245338   0.24003014   421400 
  106000   0.15973384  -0.60156675  -0.60156675  -0.36196656  0.036423462  -0.60156675   0.23960019   421400 
  107000    0.1598463   -0.6014021   -0.6014021  -0.36163322  0.036552248   -0.6014021   0.23976888   421400 
  108000   0.15966301  -0.60114648  -0.60114648  -0.36165253  0.036684032  -0.60114648   0.23949395   421400 
  109000    0.1602353  -0.60076861  -0.60076861  -0.36041624  0.038600969  -0.60076861   0.24035237   421400 
  110000   0.15987583   -0.6003682   -0.6003682  -0.36055502  0.037958104   -0.6003682   0.23981318   421400 
  111000   0.15983545  -0.60051301  -0.60051301   -0.3607604  0.036286487  -0.60051301   0.23975261   421400 
  112000   0.15965977  -0.59994181  -0.59994181  -0.36045272  0.036879511  -0.59994181   0.23948909   421400 
  113000   0.15992593  -0.59978119  -0.59978119  -0.35989286   0.03635247  -0.59978119   0.23988833   421400 
  114000   0.16009761  -0.59922375  -0.59922375  -0.35907791  0.035693854  -0.59922375   0.24014584   421400 
  115000   0.15972361  -0.59894434  -0.59894434   -0.3593595  0.038274758  -0.59894434   0.23958484   421400 
  116000   0.15976574  -0.59881687  -0.59881687  -0.35916883  0.035699086  -0.59881687   0.23964804   421400 
  117000   0.15989959  -0.59881101  -0.59881101  -0.35896219  0.034201791  -0.59881101   0.23984881   421400 
  118000   0.15983914  -0.59848242  -0.59848242  -0.35872428  0.033972187  -0.59848242   0.23975814   421400 
  119000   0.15978031  -0.59795549  -0.59795549  -0.35828559  0.035981688  -0.59795549    0.2396699   421400 
  120000   0.16010999    -0.597623    -0.597623  -0.35745858   0.03552934    -0.597623   0.24016442   421400 
  121000    0.1599649  -0.59791008  -0.59791008  -0.35796331   0.03480484  -0.59791008   0.23994677   421400 
  122000   0.15981687  -0.59776743  -0.59776743   -0.3580427  0.035710714  -0.59776743   0.23972473   421400 
  123000   0.15956224  -0.59696835  -0.59696835  -0.35762556  0.035238995  -0.59696835   0.23934279   421400 
  124000   0.15965881  -0.59728316  -0.59728316  -0.35779551  0.035544065  -0.59728316   0.23948764   421400 
  125000   0.15988505  -0.59682367  -0.59682367  -0.35699666  0.037454779  -0.59682367   0.23982701   421400 
  126000   0.16006436  -0.59646489  -0.59646489  -0.35636892  0.036350252  -0.59646489   0.24009597   421400 
  127000   0.15985847  -0.59665501  -0.59665501  -0.35686788  0.035389772  -0.59665501   0.23978714   421400 
  128000   0.15969619  -0.59615874  -0.59615874  -0.35661503  0.036907871  -0.59615874   0.23954371   421400 
  129000   0.15984407  -0.59606383  -0.59606383  -0.35629829  0.036267529  -0.59606383   0.23976554   421400 
  130000   0.15976165  -0.59592065  -0.59592065  -0.35627874  0.036513829  -0.59592065   0.23964191   421400 
  131000   0.16002814  -0.59592039  -0.59592039  -0.35587875  0.035939261  -0.59592039   0.24004164   421400 
  132000   0.15983677  -0.59561674  -0.59561674  -0.35586215  0.034122504  -0.59561674   0.23975459   421400 
  133000   0.15977416  -0.59474704  -0.59474704  -0.35508637  0.036305491  -0.59474704   0.23966067   421400 
  134000   0.15977355  -0.59479595  -0.59479595   -0.3551362  0.034403015  -0.59479595   0.23965975   421400 
  135000   0.15992711  -0.59499156  -0.59499156  -0.35510146  0.035897005  -0.59499156   0.23989009   421400 
  136000   0.16001148  -0.59462564  -0.59462564  -0.35460899  0.035533368  -0.59462564   0.24001665   421400 
  137000   0.15966853  -0.59418863  -0.59418863  -0.35468641  0.036125353  -0.59418863   0.23950222   421400 
  138000   0.15948535  -0.59446301  -0.59446301  -0.35523555  0.036725588  -0.59446301   0.23922746   421400 
  139000   0.15960074  -0.59410052  -0.59410052  -0.35469998  0.036290256  -0.59410052   0.23940054   421400 
  140000   0.15969168  -0.59391109  -0.59391109  -0.35437413  0.034533633  -0.59391109   0.23953696   421400 
  141000   0.15953945  -0.59373794  -0.59373794  -0.35442933  0.034964104  -0.59373794   0.23930861   421400 
  142000   0.15981097  -0.59349316  -0.59349316  -0.35377727  0.036594889  -0.59349316   0.23971589   421400 
  143000    0.1595554  -0.59366196  -0.59366196  -0.35432943  0.033689332  -0.59366196   0.23933253   421400 
  144000   0.15985486  -0.59341872  -0.59341872  -0.35363699  0.033110159  -0.59341872   0.23978172   421400 
  145000   0.15981766   -0.5930992   -0.5930992  -0.35337328  0.034596053   -0.5930992   0.23972592   421400 
  146000    0.1600137  -0.59254776  -0.59254776  -0.35252778  0.035118119  -0.59254776   0.24001999   421400 
  147000   0.15984719  -0.59193043  -0.59193043  -0.35216021  0.033885298  -0.59193043   0.23977021   421400 
  148000   0.16012043  -0.59196945  -0.59196945  -0.35178937  0.034903149  -0.59196945   0.24018008   421400 
  149000   0.15992858  -0.59162616  -0.59162616  -0.35173386  0.034470481  -0.59162616   0.23989231   421400 
  150000    0.1599026  -0.59141338  -0.59141338  -0.35156005  0.035531062  -0.59141338   0.23985334   421400 
  151000   0.16019416  -0.59159133  -0.59159133  -0.35130067  0.034655207  -0.59159133   0.24029066   421400 
  152000   0.16006138  -0.59114848  -0.59114848  -0.35105698  0.036207827  -0.59114848    0.2400915   421400 
  153000   0.15972647   -0.5911247   -0.5911247  -0.35153556  0.035715483   -0.5911247   0.23958914   421400 
  154000   0.15965732  -0.59130472  -0.59130472   -0.3518193  0.034604146  -0.59130472   0.23948541   421400 
  155000   0.15996367  -0.59086105  -0.59086105  -0.35091611  0.033836786  -0.59086105   0.23994493   421400 
  156000    0.1599609  -0.59082983  -0.59082983  -0.35088904  0.034184204  -0.59082983   0.23994079   421400 
  157000   0.15948835  -0.59046133  -0.59046133  -0.35122937  0.035752257  -0.59046133   0.23923196   421400 
  158000   0.15980458  -0.59065363  -0.59065363  -0.35094733  0.034838564  -0.59065363    0.2397063   421400 
  159000    0.1598913  -0.59061886  -0.59061886  -0.35078249  0.036362377  -0.59061886   0.23983638   421400 
  160000   0.15969871  -0.58965554  -0.58965554  -0.35010804  0.034059387  -0.58965554   0.23954749   421400 
  161000   0.15970694  -0.58949311  -0.58949311  -0.34993326  0.034065142  -0.58949311   0.23955985   421400 
  162000   0.15985694  -0.58892899  -0.58892899  -0.34914415  0.034055281  -0.58892899   0.23978484   421400 
  163000   0.15996978  -0.58934343  -0.58934343  -0.34938933  0.034387504  -0.58934343   0.23995411   421400 
  164000   0.16009887  -0.58889812  -0.58889812  -0.34875039  0.034777891  -0.58889812   0.24014773   421400 
  165000   0.16011355  -0.58848711  -0.58848711  -0.34831735  0.035573243  -0.58848711   0.24016976   421400 
  166000   0.16018823  -0.58893044  -0.58893044  -0.34864867  0.034973934  -0.58893044   0.24028177   421400 
  167000   0.16002565  -0.58866798  -0.58866798  -0.34863007  0.033367342  -0.58866798   0.24003791   421400 
  168000   0.16005817  -0.58851852  -0.58851852  -0.34843183  0.036123856  -0.58851852   0.24008669   421400 
  169000   0.15967408  -0.58786765  -0.58786765  -0.34835711  0.035146432  -0.58786765   0.23951055   421400 
  170000   0.15976286  -0.58762973  -0.58762973  -0.34798601  0.034288859  -0.58762973   0.23964372   421400 
  171000   0.15964935  -0.58728183  -0.58728183  -0.34780837  0.035909802  -0.58728183   0.23947346   421400 
  172000   0.16026149  -0.58773016  -0.58773016  -0.34733849  0.034811372  -0.58773016   0.24039166   421400 
  173000   0.15959801  -0.58716616  -0.58716616  -0.34776972  0.035447132  -0.58716616   0.23939644   421400 
  174000   0.15999268  -0.58730087  -0.58730087  -0.34731243   0.03474425  -0.58730087   0.23998845   421400 
  175000   0.15987465  -0.58639493  -0.58639493  -0.34658352  0.034904436  -0.58639493   0.23981141   421400 
  176000   0.16011545  -0.58674788  -0.58674788  -0.34657527  0.034692183  -0.58674788   0.24017261   421400 
  177000   0.16007364  -0.58687552  -0.58687552  -0.34676562  0.034400372  -0.58687552    0.2401099   421400 
  178000   0.16014751  -0.58664617  -0.58664617  -0.34642548  0.033296023  -0.58664617   0.24022069   421400 
  179000   0.15986886  -0.58644144  -0.58644144  -0.34663873   0.03360268  -0.58644144   0.23980271   421400 
  180000   0.15981246  -0.58570737  -0.58570737  -0.34598924  0.035730109  -0.58570737   0.23971813   421400 
  181000   0.15981831  -0.58568419  -0.58568419   -0.3459573   0.03553696  -0.58568419    0.2397269   421400 
  182000   0.16024843  -0.58544718  -0.58544718   -0.3450751  0.035468088  -0.58544718   0.24037208   421400 
  183000   0.15999152  -0.58522517  -0.58522517  -0.34523847  0.036172759  -0.58522517    0.2399867   421400 
  184000   0.16053388  -0.58519122  -0.58519122  -0.34439097  0.035780189  -0.58519122   0.24080026   421400 
  185000   0.16014053  -0.58488279  -0.58488279  -0.34467257  0.034555656  -0.58488279   0.24021022   421400 
  186000   0.16028799  -0.58542444  -0.58542444  -0.34499303  0.034522265  -0.58542444   0.24043142   421400 
  187000   0.16002196  -0.58510766  -0.58510766   -0.3450753  0.035212621  -0.58510766   0.24003237   421400 
  188000   0.16026465  -0.58531502  -0.58531502  -0.34491862  0.034494466  -0.58531502    0.2403964   421400 
  189000   0.15988222  -0.58501843  -0.58501843  -0.34519567  0.034061837  -0.58501843   0.23982277   421400 
  190000   0.15996014  -0.58478264  -0.58478264    -0.344843  0.035518425  -0.58478264   0.23993964   421400 
  191000   0.15988201  -0.58431656  -0.58431656  -0.34449411  0.034719137  -0.58431656   0.23982245   421400 
  192000   0.16014696  -0.58418539  -0.58418539  -0.34396551  0.032798206  -0.58418539   0.24021987   421400 
  193000   0.16017344  -0.58460948  -0.58460948  -0.34434989  0.034918069  -0.58460948   0.24025959   421400 
  194000   0.15989265  -0.58426971  -0.58426971  -0.34443131  0.034645875  -0.58426971   0.23983841   421400 
  195000   0.16001215  -0.58429924  -0.58429924  -0.34428159  0.033616017  -0.58429924   0.24001765   421400 
  196000   0.15995339  -0.58423991  -0.58423991  -0.34431039  0.035220205  -0.58423991   0.23992952   421400 
  197000   0.15976592  -0.58380942  -0.58380942  -0.34416111  0.033710126  -0.58380942   0.23964831   421400 
  198000    0.1598266  -0.58344955  -0.58344955  -0.34371022   0.03412943  -0.58344955   0.23973933   421400 
  199000   0.15967657   -0.5836294   -0.5836294  -0.34411511  0.035063047   -0.5836294   0.23951429   421400 
  200000   0.15955476  -0.58364613  -0.58364613  -0.34431456  0.034457359  -0.58364613   0.23933157   421400 
  201000   0.15994041  -0.58327974  -0.58327974  -0.34336969  0.033267036  -0.58327974   0.23991005   421400 
  202000   0.15987157  -0.58305488  -0.58305488   -0.3432481  0.035094431  -0.58305488   0.23980679   421400 
  203000   0.15959037  -0.58285552  -0.58285552  -0.34347053  0.034591925  -0.58285552   0.23938499   421400 
  204000   0.15973975   -0.5823856   -0.5823856  -0.34277654  0.033726491   -0.5823856   0.23960906   421400 
  205000   0.16005222  -0.58211037  -0.58211037   -0.3420326  0.034796849  -0.58211037   0.24007776   421400 
  206000   0.16009241  -0.58171423  -0.58171423  -0.34157618  0.034313598  -0.58171423   0.24013805   421400 
  207000   0.16018632  -0.58183306  -0.58183306  -0.34155415  0.035433036  -0.58183306   0.24027891   421400 
  208000   0.15968918  -0.58089445  -0.58089445  -0.34136125  0.034953892  -0.58089445    0.2395332   421400 
  209000   0.15961705  -0.58168851  -0.58168851   -0.3422635  0.032768214  -0.58168851     0.239425   421400 
  210000   0.15965971  -0.58114542  -0.58114542  -0.34165642  0.035765353  -0.58114542     0.239489   421400 
  211000   0.15986584  -0.58090241  -0.58090241  -0.34110422  0.033567737  -0.58090241   0.23979819   421400 
  212000   0.15956904  -0.58109021  -0.58109021  -0.34173723  0.034079554  -0.58109021   0.23935299   421400 
  213000   0.16001718  -0.58146732  -0.58146732  -0.34144212  0.033122407  -0.58146732   0.24002521   421400 
  214000   0.16000916  -0.58165895  -0.58165895  -0.34164578  0.035220609  -0.58165895   0.24001318   421400 
  215000   0.15981596  -0.58145668  -0.58145668  -0.34173331  0.033131761  -0.58145668   0.23972337   421400 
  216000   0.16002705  -0.58103479  -0.58103479  -0.34099478  0.033578372  -0.58103479   0.24004001   421400 
  217000   0.16011132  -0.58103591  -0.58103591   -0.3408695  0.035525995  -0.58103591   0.24016641   421400 
  218000   0.15983178  -0.58115635  -0.58115635  -0.34140925  0.034134189  -0.58115635    0.2397471   421400 
  219000   0.15973027   -0.5812094   -0.5812094  -0.34161456  0.033872839   -0.5812094   0.23959484   421400 
  220000   0.15979466    -0.580729    -0.580729  -0.34103758  0.034093939    -0.580729   0.23969142   421400 
  221000   0.15970726   -0.5799425   -0.5799425  -0.34038217  0.036092096   -0.5799425   0.23956033   421400 
  222000   0.15990328   -0.5802752   -0.5802752  -0.34042086  0.033343556   -0.5802752   0.23985434   421400 
  223000   0.15991862  -0.58035292  -0.58035292  -0.34047555  0.033209068  -0.58035292   0.23987736   421400 
  224000    0.1598148  -0.58030661  -0.58030661  -0.34058498  0.033167979  -0.58030661   0.23972164   421400 
  225000   0.15984011  -0.57951542  -0.57951542  -0.33975581  0.033808306  -0.57951542    0.2397596   421400 
  226000   0.15978081   -0.5794822   -0.5794822  -0.33981155  0.033872305   -0.5794822   0.23967064   421400 
  227000   0.15975342  -0.57956795  -0.57956795  -0.33993838  0.033744986  -0.57956795   0.23962957   421400 
  228000   0.15990736  -0.57912946  -0.57912946  -0.33926899  0.035186163  -0.57912946   0.23986047   421400 
  229000   0.16011085  -0.57930457  -0.57930457  -0.33913886  0.033267848  -0.57930457   0.24016571   421400 
  230000   0.15984143  -0.57873904  -0.57873904  -0.33897747  0.034081822  -0.57873904   0.23976157   421400 
  231000   0.15995576  -0.57820407  -0.57820407    -0.338271  0.033005335  -0.57820407   0.23993308   421400 
  232000   0.15999257  -0.57865379  -0.57865379  -0.33866551  0.034650616  -0.57865379   0.23998828   421400 
  233000   0.15996036  -0.57857796  -0.57857796  -0.33863799  0.035471053  -0.57857796   0.23993997   421400 
  234000   0.15980383  -0.57815381  -0.57815381  -0.33844863  0.033832072  -0.57815381   0.23970518   421400 
  235000   0.15967526  -0.57830218  -0.57830218  -0.33878985  0.036052586  -0.57830218   0.23951232   421400 
  236000   0.15973223  -0.57863181  -0.57863181  -0.33903403  0.034215887  -0.57863181   0.23959777   421400 
  237000   0.15996848  -0.57866532  -0.57866532  -0.33871317  0.033704915  -0.57866532   0.23995215   421400 
  238000   0.15966556  -0.57818862  -0.57818862  -0.33869086  0.033715724  -0.57818862   0.23949777   421400 
  239000   0.15978893  -0.57802257  -0.57802257  -0.33833974  0.033783553  -0.57802257   0.23968283   421400 
  240000   0.15977397  -0.57744018  -0.57744018   -0.3377798  0.032705032  -0.57744018   0.23966038   421400 
  241000   0.15985365  -0.57762797  -0.57762797  -0.33784806  0.032665319  -0.57762797    0.2397799   421400 
  242000   0.16013401   -0.5774052   -0.5774052  -0.33720476  0.034454768   -0.5774052   0.24020044   421400 
  243000   0.15996914  -0.57720978  -0.57720978  -0.33725664  0.034045018  -0.57720978   0.23995314   421400 
  244000   0.15987264  -0.57711997  -0.57711997  -0.33731158  0.033333492  -0.57711997   0.23980839   421400 
  245000   0.15966115  -0.57704061  -0.57704061  -0.33754945  0.031890079  -0.57704061   0.23949116   421400 
  246000    0.1596137  -0.57675874  -0.57675874  -0.33733877  0.034221106  -0.57675874   0.23941998   421400 
  247000   0.15988692  -0.57666328  -0.57666328  -0.33683347  0.034355239  -0.57666328   0.23982981   421400 
  248000   0.15994635  -0.57653498  -0.57653498  -0.33661602  0.033777492  -0.57653498   0.23991895   421400 
  249000   0.15989256  -0.57645672  -0.57645672  -0.33661845  0.033519786  -0.57645672   0.23983827   421400 
  250000    0.1597117   -0.5764395   -0.5764395  -0.33687251  0.033438593   -0.5764395   0.23956699   421400 
  251000   0.15990309   -0.5767417   -0.5767417  -0.33688764  0.033834293   -0.5767417   0.23985406   421400 
  252000   0.15975197   -0.5764125   -0.5764125   -0.3367851  0.033790737   -0.5764125   0.23962739   421400 
  253000   0.15983294   -0.5758939   -0.5758939  -0.33614505  0.033024633   -0.5758939   0.23974885   421400 
  254000   0.15993689  -0.57599146  -0.57599146  -0.33608668  0.033613655  -0.57599146   0.23990477   421400 
  255000   0.16002596  -0.57579536  -0.57579536  -0.33575699   0.03506112  -0.57579536   0.24003838   421400 
  256000     0.159471  -0.57556972  -0.57556972  -0.33636379  0.034061465  -0.57556972   0.23920593   421400 
  257000   0.15971234  -0.57600378  -0.57600378  -0.33643584  0.034756958  -0.57600378   0.23956794   421400 
  258000   0.15998741  -0.57588607  -0.57588607  -0.33590553  0.033050621  -0.57588607   0.23998054   421400 
  259000   0.16001213  -0.57575128  -0.57575128  -0.33573366  0.033461507  -0.57575128   0.24001762   421400 
  260000   0.16023236  -0.57523231  -0.57523231  -0.33488433  0.034380504  -0.57523231   0.24034798   421400 
  261000   0.16010621  -0.57519292  -0.57519292  -0.33503418  0.033626077  -0.57519292   0.24015875   421400 
  262000   0.15994573  -0.57492443  -0.57492443   -0.3350064  0.033877707  -0.57492443   0.23991803   421400 
  263000   0.16000483  -0.57524582  -0.57524582  -0.33523915  0.033098235  -0.57524582   0.24000668   421400 
  264000   0.16024793  -0.57411821  -0.57411821  -0.33374689  0.034521843  -0.57411821   0.24037132   421400 
  265000   0.16017319  -0.57440039  -0.57440039  -0.33414117  0.033582554  -0.57440039   0.24025922   421400 
  266000   0.16023537  -0.57416257  -0.57416257  -0.33381008  0.034521945  -0.57416257   0.24035249   421400 
  267000   0.16033997  -0.57450691  -0.57450691  -0.33399752  0.032073123  -0.57450691   0.24050939   421400 
  268000   0.16013213  -0.57371618  -0.57371618  -0.33351856  0.034975743  -0.57371618   0.24019762   421400 
  269000    0.1600688   -0.5740732   -0.5740732  -0.33397056  0.034825101   -0.5740732   0.24010263   421400 
  270000   0.16003753  -0.57396124  -0.57396124  -0.33390552  0.035281679  -0.57396124   0.24005572   421400 
  271000   0.15980016  -0.57324867  -0.57324867    -0.333549   0.03456661  -0.57324867   0.23969967   421400 
  272000   0.16033096  -0.57367728  -0.57367728  -0.33318141  0.034784973  -0.57367728   0.24049587   421400 
  273000   0.16009923  -0.57298757  -0.57298757   -0.3328393  0.033826538  -0.57298757   0.24014827   421400 
  274000   0.15991275  -0.57251521  -0.57251521  -0.33264665  0.034706161  -0.57251521   0.23986856   421400 
  275000   0.15978111   -0.5726002   -0.5726002   -0.3329291  0.033999917   -0.5726002    0.2396711   421400 
  276000   0.15968353  -0.57220259  -0.57220259  -0.33267786  0.032982075  -0.57220259   0.23952473   421400 
  277000   0.15963395  -0.57216398  -0.57216398  -0.33271362  0.032081706  -0.57216398   0.23945036   421400 
  278000   0.16028594  -0.57257449  -0.57257449  -0.33214615  0.033341006  -0.57257449   0.24042834   421400 
  279000   0.15982819  -0.57230085  -0.57230085  -0.33255914  0.032089404  -0.57230085   0.23974171   421400 
  280000   0.16004261  -0.57190912  -0.57190912  -0.33184577  0.033231073  -0.57190912   0.24006335   421400 
  281000   0.16003234  -0.57217857  -0.57217857  -0.33213063  0.034202369  -0.57217857   0.24004795   421400 
  282000   0.15935616  -0.57225227  -0.57225227   -0.3332186  0.032462407  -0.57225227   0.23903367   421400 
  283000    0.1599642  -0.57249385  -0.57249385  -0.33254813   0.03459154  -0.57249385   0.23994573   421400 
  284000   0.16005701  -0.57192974  -0.57192974   -0.3318448  0.032716258  -0.57192974   0.24008494   421400 
  285000   0.15979908  -0.57172395  -0.57172395   -0.3320259  0.032351707  -0.57172395   0.23969805   421400 
  286000   0.16003027   -0.5722345   -0.5722345  -0.33218967  0.033684657   -0.5722345   0.24004483   421400 
  287000   0.15992396   -0.5719238   -0.5719238  -0.33203844  0.032580961   -0.5719238   0.23988536   421400 
  288000   0.15972133   -0.5713189   -0.5713189  -0.33173747  0.032595369   -0.5713189   0.23958143   421400 
  289000   0.15981134  -0.57120749  -0.57120749  -0.33149105  0.032854494  -0.57120749   0.23971644   421400 
  290000   0.16002037  -0.57139912  -0.57139912  -0.33136914  0.032843194  -0.57139912   0.24002998   421400 
  291000   0.15989888  -0.57157928  -0.57157928  -0.33173153  0.033096648  -0.57157928   0.23984776   421400 
  292000   0.15995536  -0.57168092  -0.57168092  -0.33174845  0.033178842  -0.57168092   0.23993247   421400 
  293000   0.15997068  -0.57093233  -0.57093233  -0.33097688  0.034663916  -0.57093233   0.23995545   421400 
  294000   0.16005124  -0.57092559  -0.57092559  -0.33084931  0.033018728  -0.57092559   0.24007629   421400 
  295000    0.1599366  -0.57096278  -0.57096278  -0.33105845   0.03350001  -0.57096278   0.23990433   421400 
  296000   0.16001236  -0.57058707  -0.57058707   -0.3305691  0.033438005  -0.57058707   0.24001797   421400 
  297000   0.15980621  -0.57012351  -0.57012351  -0.33041476  0.033647392  -0.57012351   0.23970875   421400 
  298000   0.15956637  -0.57064763  -0.57064763  -0.33129864  0.032809817  -0.57064763   0.23934899   421400 
  299000   0.15990848  -0.57097538  -0.57097538  -0.33111323   0.03358984  -0.57097538   0.23986216   421400 
  300000   0.15958966  -0.57078552  -0.57078552   -0.3314016  0.034852366  -0.57078552   0.23938392   421400 
  301000   0.15952275  -0.56995733  -0.56995733  -0.33067378  0.031705673  -0.56995733   0.23928355   421400 
  302000   0.15975789  -0.56998164  -0.56998164  -0.33034537  0.032894208  -0.56998164   0.23963627   421400 
  303000   0.16006411  -0.57000297  -0.57000297  -0.32990738  0.033402095  -0.57000297    0.2400956   421400 
  304000   0.15996088  -0.56970265  -0.56970265   -0.3297619  0.033210821  -0.56970265   0.23994075   421400 
  305000   0.15974541  -0.56912737  -0.56912737  -0.32950982  0.032669162  -0.56912737   0.23961755   421400 
  306000   0.16009408  -0.56983872  -0.56983872  -0.32969817  0.032370822  -0.56983872   0.24014055   421400 
  307000   0.15996371  -0.56957517  -0.56957517  -0.32963017  0.033163042  -0.56957517     0.239945   421400 
  308000   0.15985311  -0.56890287  -0.56890287  -0.32912377  0.034390722  -0.56890287   0.23977909   421400 
  309000   0.16000327  -0.56889497  -0.56889497  -0.32889063  0.033336512  -0.56889497   0.24000434   421400 
  310000   0.15995958  -0.56872472  -0.56872472  -0.32878592   0.03375971  -0.56872472   0.23993881   421400 
  311000   0.16015295  -0.56868032  -0.56868032  -0.32845147  0.032509872  -0.56868032   0.24022885   421400 
  312000   0.16007164  -0.56857396  -0.56857396  -0.32846707  0.032269275  -0.56857396   0.24010689   421400 
  313000   0.16028413  -0.56896011  -0.56896011  -0.32853448   0.03233571  -0.56896011   0.24042563   421400 
  314000   0.16071063  -0.56877147  -0.56877147   -0.3277061  0.032546368  -0.56877147   0.24106537   421400 
  315000   0.16014191  -0.56773333  -0.56773333  -0.32752103  0.033941018  -0.56773333    0.2402123   421400 
  316000   0.16029498  -0.56824601  -0.56824601  -0.32780411   0.03202545  -0.56824601   0.24044191   421400 
  317000   0.15994985  -0.56850101  -0.56850101  -0.32857681  0.033752429  -0.56850101    0.2399242   421400 
  318000   0.16038327  -0.56828307  -0.56828307  -0.32770874  0.033714631  -0.56828307   0.24057434   421400 
  319000   0.16026252  -0.56772911  -0.56772911  -0.32733591  0.032699365  -0.56772911    0.2403932   421400 
  320000    0.1605238  -0.56770444  -0.56770444  -0.32691931  0.033693344  -0.56770444   0.24078513   421400 
  321000   0.16008107  -0.56762669  -0.56762669  -0.32750565  0.032675822  -0.56762669   0.24012104   421400 
  322000   0.16007016  -0.56781836  -0.56781836   -0.3277137  0.032008426  -0.56781836   0.24010466   421400 
  323000   0.15996169  -0.56772709  -0.56772709  -0.32778512  0.034962635  -0.56772709   0.23994197   421400 
  324000   0.15955415  -0.56785761  -0.56785761  -0.32852695   0.03184279  -0.56785761   0.23933066   421400 
  325000   0.15983955   -0.5681849   -0.5681849  -0.32842614  0.033882141   -0.5681849   0.23975876   421400 
  326000   0.15989044  -0.56805763  -0.56805763  -0.32822254  0.032309556  -0.56805763   0.23983509   421400 
  327000   0.15995777  -0.56797222  -0.56797222  -0.32803614  0.031334685  -0.56797222   0.23993608   421400 
  328000   0.15976331  -0.56733259  -0.56733259  -0.32768819  0.033357107  -0.56733259    0.2396444   421400 
  329000   0.15975682  -0.56727989  -0.56727989  -0.32764523  0.032707759  -0.56727989   0.23963466   421400 
  330000   0.15999034  -0.56781406  -0.56781406  -0.32782912  0.032697898  -0.56781406   0.23998494   421400 
  331000   0.15966854  -0.56704825  -0.56704825  -0.32754601  0.032493341  -0.56704825   0.23950225   421400 
  332000   0.16004526  -0.56757911  -0.56757911   -0.3275118  0.033234646  -0.56757911   0.24006731   421400 
  333000   0.15978375  -0.56717667  -0.56717667  -0.32750162  0.032433567  -0.56717667   0.23967506   421400 
  334000   0.15966307  -0.56695947  -0.56695947  -0.32746543  0.031787413  -0.56695947   0.23949404   421400 
  335000    0.1599713   -0.5667458   -0.5667458  -0.32678942  0.033756448   -0.5667458   0.23995638   421400 
  336000   0.15960025  -0.56624755  -0.56624755  -0.32684773  0.034087636  -0.56624755   0.23939981   421400 
  337000   0.15993802   -0.5669315   -0.5669315  -0.32702504  0.032471801   -0.5669315   0.23990646   421400 
  338000   0.16008707  -0.56683118  -0.56683118  -0.32670114  0.032373391  -0.56683118   0.24013004   421400 
  339000   0.15987201  -0.56656096  -0.56656096  -0.32675351  0.032785774  -0.56656096   0.23980744   421400 
  340000   0.15993222  -0.56639613  -0.56639613  -0.32649838  0.033362712  -0.56639613   0.23989775   421400 
  341000   0.16028645  -0.56689109  -0.56689109  -0.32646199  0.031393184  -0.56689109    0.2404291   421400 
  342000    0.1602196  -0.56610287  -0.56610287  -0.32577403  0.032961338  -0.56610287   0.24032883   421400 
  343000   0.15995655  -0.56591804  -0.56591804  -0.32598379  0.032839944  -0.56591804   0.23993426   421400 
  344000   0.15989845  -0.56584341  -0.56584341  -0.32599631  0.032156336  -0.56584341   0.23984711   421400 
  345000   0.15986385  -0.56631992  -0.56631992  -0.32652472  0.033414839  -0.56631992    0.2397952   421400 
  346000   0.16013044  -0.56608772  -0.56608772  -0.32589263  0.031533656  -0.56608772    0.2401951   421400 
  347000   0.15956169  -0.56479029  -0.56479029  -0.32544833   0.03338771  -0.56479029   0.23934196   421400 
  348000   0.15990034  -0.56543382  -0.56543382  -0.32558387  0.033833996  -0.56543382   0.23984994   421400 
  349000   0.15994341  -0.56525488  -0.56525488  -0.32534033  0.032783203  -0.56525488   0.23991455   421400 
  350000   0.16001723   -0.5654175   -0.5654175  -0.32539223  0.032486627   -0.5654175   0.24002527   421400 
  351000   0.15984421  -0.56525122  -0.56525122  -0.32548548  0.031637204  -0.56525122   0.23976574   421400 
  352000   0.16020066  -0.56567002  -0.56567002   -0.3253696  0.033120859  -0.56567002   0.24030042   421400 
  353000   0.15996321  -0.56505155  -0.56505155   -0.3251073  0.033661851  -0.56505155   0.23994425   421400 
  354000   0.15993842  -0.56485998  -0.56485998  -0.32495292  0.032272386  -0.56485998   0.23990706   421400 
  355000   0.16001777  -0.56418407  -0.56418407  -0.32415798  0.033016682  -0.56418407   0.24002608   421400 
  356000   0.16005006  -0.56475211  -0.56475211  -0.32467759  0.032935034  -0.56475211   0.24007451   421400 
  357000   0.16008105  -0.56482425  -0.56482425  -0.32470325  0.032883054  -0.56482425     0.240121   421400 
  358000   0.15983836  -0.56408715  -0.56408715  -0.32433018  0.032865422  -0.56408715   0.23975697   421400 
  359000   0.15975631  -0.56464853  -0.56464853  -0.32501463  0.033512591  -0.56464853    0.2396339   421400 
  360000   0.15946835  -0.56417448  -0.56417448  -0.32497252  0.031611196  -0.56417448   0.23920196   421400 
  361000   0.15987088  -0.56422397  -0.56422397  -0.32441822  0.033079925  -0.56422397   0.23980576   421400 
  362000   0.16007487  -0.56408692  -0.56408692  -0.32397518  0.032858499  -0.56408692   0.24011174   421400 
  363000   0.16014898  -0.56424671  -0.56424671  -0.32402381   0.03218501  -0.56424671    0.2402229   421400 
  364000   0.15998378  -0.56417946  -0.56417946  -0.32420436  0.034963641  -0.56417946    0.2399751   421400 
  365000   0.15986607  -0.56436372  -0.56436372  -0.32456518  0.031673355  -0.56436372   0.23979853   421400 
  366000   0.16025811  -0.56431741  -0.56431741  -0.32393082   0.03239068  -0.56431741   0.24038659   421400 
  367000   0.15999346  -0.56405589  -0.56405589  -0.32406626  0.032805873  -0.56405589   0.23998963   421400 
  368000   0.15981294  -0.56389791  -0.56389791  -0.32417907  0.032251797  -0.56389791   0.23971884   421400 
  369000   0.15987496  -0.56377932  -0.56377932  -0.32396745  0.033365887  -0.56377932   0.23981187   421400 
  370000   0.15975805  -0.56356605  -0.56356605  -0.32392954  0.033153454  -0.56356605   0.23963651   421400 
  371000   0.15986328  -0.56412392  -0.56412392  -0.32432956  0.032328066  -0.56412392   0.23979436   421400 
  372000   0.16015278  -0.56423276  -0.56423276  -0.32400417  0.032779851  -0.56423276   0.24022859   421400 
  373000   0.15990183  -0.56364438  -0.56364438  -0.32379221  0.031949016  -0.56364438   0.23985217   421400 
  374000   0.15985201  -0.56336108  -0.56336108  -0.32358363  0.032974278  -0.56336108   0.23977745   421400 
  375000   0.15975324  -0.56373579  -0.56373579  -0.32410649  0.031699215  -0.56373579    0.2396293   421400 
  376000   0.15968947  -0.56321587  -0.56321587  -0.32368223  0.033621884  -0.56321587   0.23953364   421400 
  377000   0.15977303  -0.56369635  -0.56369635  -0.32403736  0.031805632  -0.56369635   0.23965898   421400 
  378000   0.15988065   -0.5636947   -0.5636947   -0.3238743  0.032786559   -0.5636947    0.2398204   421400 
  379000   0.15976509  -0.56333412  -0.56333412  -0.32368705  0.035505516  -0.56333412   0.23964707   421400 
  380000   0.15963599  -0.56275235  -0.56275235  -0.32329894  0.032171397  -0.56275235   0.23945341   421400 
  381000   0.15986511  -0.56288826  -0.56288826  -0.32309117  0.033431841  -0.56288826   0.23979709   421400 
  382000    0.1599126  -0.56307826  -0.56307826  -0.32320993  0.033061306  -0.56307826   0.23986833   421400 
  383000   0.16018457  -0.56333047  -0.56333047  -0.32305418  0.032043188  -0.56333047   0.24027629   421400 
  384000    0.1601262   -0.5629226   -0.5629226  -0.32273387  0.032354081   -0.5629226   0.24018873   421400 
  385000   0.15969677  -0.56242777  -0.56242777  -0.32288318  0.034286808  -0.56242777   0.23954459   421400 
  386000   0.15994711  -0.56247527  -0.56247527  -0.32255517  0.030943583  -0.56247527    0.2399201   421400 
  387000    0.1600227  -0.56211961  -0.56211961  -0.32208613  0.030964654  -0.56211961   0.24003347   421400 
  388000   0.16000207  -0.56220931  -0.56220931  -0.32220679  0.032159288  -0.56220931   0.24000253   421400 
  389000   0.16027882  -0.56222648  -0.56222648  -0.32180882   0.03281165  -0.56222648   0.24041766   421400 
  390000   0.15995013  -0.56183457  -0.56183457  -0.32190994   0.03185853  -0.56183457   0.23992463   421400 
  391000   0.15968663  -0.56168884  -0.56168884  -0.32215946  0.031720669  -0.56168884   0.23952938   421400 
  392000   0.15977145  -0.56177105  -0.56177105  -0.32211443  0.032565381  -0.56177105   0.23965661   421400 
  393000   0.15993292  -0.56136055  -0.56136055  -0.32146173  0.032171219  -0.56136055   0.23989881   421400 
  394000   0.15988878  -0.56175985  -0.56175985  -0.32192724  0.033159536  -0.56175985    0.2398326   421400 
  395000   0.16010032  -0.56162202  -0.56162202  -0.32147212  0.032851992  -0.56162202    0.2401499   421400 
  396000   0.16003172  -0.56170494  -0.56170494  -0.32165793  0.032664885  -0.56170494   0.24004701   421400 
  397000   0.15990306  -0.56128688  -0.56128688  -0.32143287  0.031840151  -0.56128688   0.23985402   421400 
  398000   0.15998034  -0.56093025  -0.56093025  -0.32096031  0.032428783  -0.56093025   0.23996994   421400 
  399000   0.16031006   -0.5611972   -0.5611972  -0.32073268  0.032734979   -0.5611972   0.24046452   421400 
  400000    0.1600369  -0.56072704  -0.56072704  -0.32067227  0.031930544  -0.56072704   0.24005477   421400 
  401000   0.15987958  -0.56110431  -0.56110431  -0.32128551  0.033646636  -0.56110431    0.2398188   421400 
  402000    0.1597298  -0.56066208  -0.56066208  -0.32106795  0.031569496  -0.56066208   0.23959413   421400 
  403000   0.15986438  -0.56095026  -0.56095026  -0.32115426  0.032703716  -0.56095026   0.23979601   421400 
  404000   0.16003638  -0.56158548  -0.56158548  -0.32153148  0.032899618  -0.56158548     0.240054   421400 
  405000   0.16009649  -0.56171969  -0.56171969  -0.32157552   0.03185351  -0.56171969   0.24014417   421400 
  406000   0.15967651  -0.56112545  -0.56112545  -0.32161124   0.03253343  -0.56112545    0.2395142   421400 
  407000   0.16011673  -0.56096051  -0.56096051  -0.32078598  0.033602675  -0.56096051   0.24017453   421400 
  408000   0.16034193  -0.56051325  -0.56051325  -0.32000093  0.033368935  -0.56051325   0.24051232   421400 
  409000   0.16029649  -0.56049724  -0.56049724  -0.32005308  0.033598237  -0.56049724   0.24044416   421400 
  410000   0.15960921  -0.56013679  -0.56013679  -0.32072355  0.031816101  -0.56013679   0.23941324   421400 
  411000   0.16005351  -0.56065858  -0.56065858  -0.32057889  0.031836156  -0.56065858   0.24007969   421400 
  412000   0.16002024  -0.56037838  -0.56037838  -0.32034858  0.032589494  -0.56037838    0.2400298   421400 
  413000   0.16018638  -0.56046013  -0.56046013  -0.32018113  0.032779686  -0.56046013     0.240279   421400 
  414000   0.15988982  -0.56028075  -0.56028075  -0.32044659  0.032435666  -0.56028075   0.23983416   421400 
  415000   0.16007355  -0.56020094  -0.56020094  -0.32009118  0.032114042  -0.56020094   0.24010976   421400 
  416000   0.15985616  -0.56014723  -0.56014723  -0.32036356  0.032754817  -0.56014723   0.23978367   421400 
  417000   0.16008061  -0.56014578  -0.56014578  -0.32002544  0.031842336  -0.56014578   0.24012034   421400 
  418000   0.16015986  -0.56012975  -0.56012975  -0.31989053  0.033976255  -0.56012975   0.24023922   421400 
  419000   0.15979917  -0.56022322  -0.56022322  -0.32052503  0.033106041  -0.56022322   0.23969818   421400 
  420000   0.15968286  -0.56018552  -0.56018552   -0.3206618  0.031855925  -0.56018552   0.23952372   421400 
  421000   0.15952177  -0.56037925  -0.56037925  -0.32109717  0.033968311  -0.56037925   0.23928208   421400 
  422000   0.15960541  -0.56004472  -0.56004472  -0.32063717  0.033520816  -0.56004472   0.23940755   421400 
  423000   0.15995189  -0.56017253  -0.56017253  -0.32024527  0.032285412  -0.56017253   0.23992726   421400 
  424000   0.16014042   -0.5593315   -0.5593315  -0.31912144  0.032198424   -0.5593315   0.24021006   421400 
  425000   0.16004937  -0.55935709  -0.55935709   -0.3192836  0.032815739  -0.55935709   0.24007349   421400 
  426000   0.15988034  -0.55890627  -0.55890627  -0.31908633  0.032231284  -0.55890627   0.23981993   421400 
  427000   0.16011417  -0.55899014  -0.55899014  -0.31881945  0.032611063  -0.55899014   0.24017069   421400 
  428000   0.15994765  -0.55907511  -0.55907511  -0.31915421  0.032921554  -0.55907511    0.2399209   421400 
  429000   0.15960381  -0.55883339  -0.55883339  -0.31942824  0.032748237  -0.55883339   0.23940515   421400 
  430000   0.15941493   -0.5588907   -0.5588907  -0.31976887  0.032090196   -0.5588907   0.23912183   421400 
  431000   0.15996586  -0.55925585  -0.55925585  -0.31930762  0.032514953  -0.55925585   0.23994823   421400 
  432000   0.15979634  -0.55950971  -0.55950971  -0.31981578  0.032984674  -0.55950971   0.23969393   421400 
  433000   0.15957273  -0.55901828  -0.55901828  -0.31965976  0.032352463  -0.55901828   0.23935852   421400 
  434000   0.15988355  -0.55873969  -0.55873969  -0.31891493  0.032488677  -0.55873969   0.23982476   421400 
  435000   0.16009936  -0.55832992  -0.55832992  -0.31818146  0.033431301  -0.55832992   0.24014846   421400 
  436000   0.15988068  -0.55855403  -0.55855403  -0.31873358  0.032189846  -0.55855403   0.23982045   421400 
  437000    0.1596493  -0.55843038  -0.55843038    -0.318957  0.032562524  -0.55843038   0.23947337   421400 
  438000    0.1597106  -0.55878135  -0.55878135  -0.31921601   0.03220715  -0.55878135   0.23956534   421400 
  439000   0.15981419  -0.55864552  -0.55864552  -0.31892481  0.031719894  -0.55864552   0.23972071   421400 
  440000   0.15999427  -0.55864497  -0.55864497  -0.31865413  0.031441419  -0.55864497   0.23999083   421400 
  441000   0.16014229   -0.5587073   -0.5587073  -0.31849444  0.031437391   -0.5587073   0.24021286   421400 
  442000   0.15980077  -0.55806175  -0.55806175  -0.31836116  0.033589954  -0.55806175   0.23970059   421400 
  443000   0.15989376  -0.55763022  -0.55763022  -0.31779015   0.03263088  -0.55763022   0.23984007   421400 
  444000   0.15986211  -0.55765874  -0.55765874  -0.31786614  0.033157096  -0.55765874    0.2397926   421400 
  445000   0.15977901  -0.55772971  -0.55772971  -0.31806176  0.030971534  -0.55772971   0.23966795   421400 
  446000   0.15976261  -0.55828918  -0.55828918  -0.31864584  0.032388628  -0.55828918   0.23964335   421400 
  447000   0.16009321  -0.55778317  -0.55778317  -0.31764392  0.031098002  -0.55778317   0.24013925   421400 
  448000   0.16013593  -0.55797865  -0.55797865  -0.31777532  0.031955974  -0.55797865   0.24020333   421400 
  449000   0.16017736  -0.55759618  -0.55759618  -0.31733071  0.033313177  -0.55759618   0.24026547   421400 
  450000   0.16022533  -0.55733649  -0.55733649  -0.31699906  0.032514047  -0.55733649   0.24033743   421400 
  451000   0.15970612  -0.55719661  -0.55719661    -0.317638  0.031772728  -0.55719661   0.23955861   421400 
  452000   0.16014734  -0.55716529  -0.55716529  -0.31694484   0.03305474  -0.55716529   0.24022044   421400 
  453000   0.16033034  -0.55733076  -0.55733076  -0.31683581  0.033751335  -0.55733076   0.24049494   421400 
  454000   0.15998203  -0.55716769  -0.55716769  -0.31719521  0.031732223  -0.55716769   0.23997247   421400 
  455000   0.15985315  -0.55722602  -0.55722602  -0.31744687  0.032922239  -0.55722602   0.23977915   421400 
  456000   0.16007136  -0.55755484  -0.55755484  -0.31744837  0.031869958  -0.55755484   0.24010647   421400 
  457000   0.15944561  -0.55705707  -0.55705707  -0.31788923  0.031238013  -0.55705707   0.23916785   421400 
  458000    0.1597389  -0.55740971  -0.55740971  -0.31780193  0.033614571  -0.55740971   0.23960778   421400 
  459000   0.15989491  -0.55764755  -0.55764755  -0.31780575  0.033075091  -0.55764755    0.2398418   421400 
  460000   0.15950786  -0.55716362  -0.55716362   -0.3179024  0.032314525  -0.55716362   0.23926122   421400 
  461000   0.16005674  -0.55728333  -0.55728333  -0.31719879   0.03285757  -0.55728333   0.24008455   421400 
  462000   0.15998626  -0.55739587  -0.55739587  -0.31741705   0.03325743  -0.55739587   0.23997882   421400 
  463000   0.15993566  -0.55680395  -0.55680395  -0.31690102  0.032052691  -0.55680395   0.23990292   421400 
  464000    0.1598974  -0.55676381  -0.55676381  -0.31691827  0.031944262  -0.55676381   0.23984554   421400 
  465000   0.15992445  -0.55698279  -0.55698279  -0.31709668  0.031148792  -0.55698279   0.23988611   421400 
  466000   0.15988922  -0.55654693  -0.55654693  -0.31671366  0.031533421  -0.55654693   0.23983326   421400 
  467000   0.15992076  -0.55662674  -0.55662674  -0.31674617  0.032773576  -0.55662674   0.23988057   421400 
  468000   0.15971961  -0.55600784  -0.55600784    -0.316429  0.033491972  -0.55600784   0.23957884   421400 
  469000    0.1599859  -0.55653913  -0.55653913  -0.31656084  0.032186908  -0.55653913   0.23997828   421400 
  470000   0.15994966  -0.55619816  -0.55619816  -0.31627424  0.033088518  -0.55619816   0.23992392   421400 
  471000   0.16011572  -0.55631801  -0.55631801  -0.31614501  0.031861867  -0.55631801     0.240173   421400 
  472000   0.16010574  -0.55599307  -0.55599307  -0.31583503  0.032099922  -0.55599307   0.24015804   421400 
  473000   0.15994016  -0.55497129  -0.55497129  -0.31506162  0.032936682  -0.55497129   0.23990967   421400 
  474000   0.16024637  -0.55529494  -0.55529494  -0.31492596  0.033360059  -0.55529494   0.24036898   421400 
  475000   0.15997978  -0.55520267  -0.55520267  -0.31523357  0.030995267  -0.55520267    0.2399691   421400 
  476000   0.15991696  -0.55563425  -0.55563425  -0.31575938  0.034506082  -0.55563425   0.23987488   421400 
  477000   0.16019022  -0.55541753  -0.55541753  -0.31513277  0.032480827  -0.55541753   0.24028476   421400 
  478000   0.15992172  -0.55514267  -0.55514267  -0.31526065  0.032398792  -0.55514267   0.23988202   421400 
  479000   0.16021585  -0.55475482  -0.55475482  -0.31443161  0.031632302  -0.55475482   0.24032321   421400 
  480000    0.1600268   -0.5551741   -0.5551741  -0.31513447  0.032121814   -0.5551741   0.24003962   421400 
  481000   0.16016544  -0.55485276  -0.55485276  -0.31460517  0.033147702  -0.55485276   0.24024758   421400 
  482000     0.160064   -0.5551709   -0.5551709  -0.31507547  0.033338586   -0.5551709   0.24009543   421400 
  483000   0.15988722   -0.5551562   -0.5551562  -0.31532594  0.032262913   -0.5551562   0.23983026   421400 
  484000    0.1599986  -0.55539793  -0.55539793   -0.3154006   0.03314556  -0.55539793   0.23999733   421400 
  485000   0.15946888  -0.55491941  -0.55491941  -0.31571666  0.031951608  -0.55491941   0.23920275   421400 
  486000   0.15972529   -0.5549442   -0.5549442  -0.31535683  0.031328562   -0.5549442   0.23958737   421400 
  487000   0.15978899  -0.55517225  -0.55517225  -0.31548933  0.032536003  -0.55517225   0.23968292   421400 
  488000   0.15983119  -0.55462293  -0.55462293  -0.31487671  0.032706194  -0.55462293   0.23974622   421400 
  489000      0.16016  -0.55456416  -0.55456416  -0.31432474  0.031923302  -0.55456416   0.24023942   421400 
  490000   0.16001159  -0.55480827  -0.55480827  -0.31479146  0.031342316  -0.55480827   0.24001681   421400 
  491000   0.16002037   -0.5546788   -0.5546788  -0.31464881  0.032838315   -0.5546788   0.24002999   421400 
  492000   0.16012856  -0.55463998  -0.55463998  -0.31444771  0.031668593  -0.55463998   0.24019227   421400 
  493000   0.16005853  -0.55462837  -0.55462837  -0.31454114  0.033029292  -0.55462837   0.24008723   421400 
  494000   0.16006961  -0.55469352  -0.55469352  -0.31458967  0.031492188  -0.55469352   0.24010385   421400 
  495000   0.15990173  -0.55430057  -0.55430057  -0.31444853  0.031933741  -0.55430057   0.23985203   421400 
  496000      0.16022  -0.55443451  -0.55443451  -0.31410508    0.0320858  -0.55443451   0.24032943   421400 
  497000   0.16014592  -0.55347224  -0.55347224  -0.31325394  0.031581994  -0.55347224   0.24021831   421400 
  498000   0.16019582  -0.55415843  -0.55415843  -0.31386528  0.033987663  -0.55415843   0.24029316   421400 
  499000    0.1599281  -0.55380847  -0.55380847  -0.31391689  0.031281492  -0.55380847   0.23989158   421400 
  500000   0.16004386  -0.55409684  -0.55409684  -0.31403162  0.032879743  -0.55409684   0.24006522   421400 
  501000   0.16028249  -0.55376713  -0.55376713  -0.31334396  0.032472208  -0.55376713   0.24042317   421400 
  502000   0.15989113  -0.55402768  -0.55402768  -0.31419156  0.032929623  -0.55402768   0.23983613   421400 
  503000   0.15967216   -0.5541059   -0.5541059  -0.31459823  0.031644371   -0.5541059   0.23950767   421400 
  504000    0.1598335  -0.55418239  -0.55418239  -0.31443272  0.032284688  -0.55418239   0.23974968   421400 
  505000   0.15989007  -0.55407698  -0.55407698  -0.31424245  0.031567131  -0.55407698   0.23983453   421400 
  506000   0.15997644  -0.55415069  -0.55415069  -0.31418659  0.031617296  -0.55415069   0.23996409   421400 
  507000   0.16009097   -0.5535156   -0.5535156  -0.31337971  0.033003653   -0.5535156   0.24013589   421400 
  508000   0.16022524  -0.55342639  -0.55342639   -0.3130891  0.031776693  -0.55342639   0.24033729   421400 
  509000   0.16027391  -0.55362063  -0.55362063  -0.31321032  0.033547356  -0.55362063    0.2404103   421400 
  510000   0.15960636  -0.55276823  -0.55276823  -0.31335925  0.031745009  -0.55276823   0.23940898   421400 
  511000   0.15998418   -0.5534605   -0.5534605  -0.31348479  0.031600039   -0.5534605   0.23997571   421400 
  512000   0.16000131  -0.55320185  -0.55320185  -0.31320046  0.033390686  -0.55320185   0.24000139   421400 
  513000   0.16020647  -0.55333791  -0.55333791  -0.31302878  0.031780608  -0.55333791   0.24030913   421400 
  514000   0.15990674  -0.55306125  -0.55306125  -0.31320172  0.032847811  -0.55306125   0.23985953   421400 
  515000   0.15977106  -0.55343232  -0.55343232  -0.31377629  0.031893185  -0.55343232   0.23965603   421400 
  516000     0.159681  -0.55306351  -0.55306351  -0.31354258  0.031477245  -0.55306351   0.23952094   421400 
  517000   0.15985694  -0.55322317  -0.55322317  -0.31343833  0.031401943  -0.55322317   0.23978484   421400 
  518000   0.16007512  -0.55285458  -0.55285458  -0.31274247  0.031815766  -0.55285458   0.24011211   421400 
  519000   0.15978459  -0.55309254  -0.55309254  -0.31341622  0.031416835  -0.55309254   0.23967632   421400 
  520000   0.15977863  -0.55256216  -0.55256216  -0.31289478   0.03240136  -0.55256216   0.23966738   421400 
  521000     0.159867  -0.55235206  -0.55235206  -0.31255214  0.030170093  -0.55235206   0.23979993   421400 
  522000   0.16003001  -0.55322815  -0.55322815  -0.31318371  0.031255349  -0.55322815   0.24004444   421400 
  523000   0.16003909  -0.55282044  -0.55282044  -0.31276238  0.031183067  -0.55282044   0.24005806   421400 
  524000   0.16000174  -0.55231971  -0.55231971  -0.31231768   0.03222012  -0.55231971   0.24000203   421400 
  525000   0.16007202  -0.55253577  -0.55253577  -0.31242831  0.031817785  -0.55253577   0.24010746   421400 
  526000   0.15986938  -0.55256017  -0.55256017  -0.31275667  0.030349622  -0.55256017   0.23980351   421400 
  527000   0.15990314  -0.55237185  -0.55237185  -0.31251771  0.032596565  -0.55237185   0.23985414   421400 
  528000   0.16025922  -0.55272763  -0.55272763  -0.31233937  0.031137275  -0.55272763   0.24038826   421400 
  529000   0.16006871  -0.55253066  -0.55253066  -0.31242816  0.032047794  -0.55253066    0.2401025   421400 
  530000   0.16038867  -0.55269054  -0.55269054  -0.31210811  0.031342119  -0.55269054   0.24058243   421400 
  531000   0.16030536  -0.55266644  -0.55266644  -0.31220897  0.031864385  -0.55266644   0.24045747   421400 
  532000   0.15991379   -0.5526183   -0.5526183  -0.31274819   0.03363523   -0.5526183   0.23987011   421400 
  533000   0.15993796  -0.55224716  -0.55224716   -0.3123408  0.032669618  -0.55224716   0.23990636   421400 
  534000   0.15995352  -0.55253797  -0.55253797  -0.31260826  0.030616702  -0.55253797   0.23992971   421400 
  535000   0.15997145  -0.55275866  -0.55275866  -0.31280206  0.031510706  -0.55275866   0.23995661   421400 
  536000   0.15983926  -0.55231235  -0.55231235  -0.31255404  0.031696389  -0.55231235   0.23975832   421400 
  537000   0.15990646  -0.55203803  -0.55203803  -0.31217891  0.031454358  -0.55203803   0.23985912   421400 
  538000   0.15974581  -0.55198124  -0.55198124  -0.31236309  0.031382815  -0.55198124   0.23961815   421400 
  539000   0.15953334  -0.55165086  -0.55165086  -0.31235142   0.02880121  -0.55165086   0.23929945   421400 
  540000   0.16010791  -0.55243442  -0.55243442  -0.31227312  0.031361246  -0.55243442    0.2401613   421400 
  541000   0.15997442  -0.55195555  -0.55195555  -0.31199449  0.031183808  -0.55195555   0.23996106   421400 
  542000   0.15988171  -0.55165217  -0.55165217  -0.31183018  0.033298137  -0.55165217   0.23982199   421400 
  543000   0.15983529  -0.55217921  -0.55217921  -0.31242685  0.032158447  -0.55217921   0.23975237   421400 
  544000   0.15933055  -0.55153285  -0.55153285  -0.31253759   0.03104402  -0.55153285   0.23899525   421400 
  545000   0.15980748  -0.55188035  -0.55188035   -0.3121697   0.03054172  -0.55188035   0.23971065   421400 
  546000   0.15984638  -0.55203174  -0.55203174  -0.31226274  0.032356829  -0.55203174     0.239769   421400 
  547000   0.15968173  -0.55183956  -0.55183956  -0.31231753  0.031402252  -0.55183956   0.23952203   421400 
  548000   0.15948143  -0.55156571  -0.55156571  -0.31234413  0.031776615  -0.55156571   0.23922158   421400 
  549000   0.15966013  -0.55165812  -0.55165812  -0.31216848  0.031627399  -0.55165812   0.23948963   421400 
  550000   0.15977388  -0.55165353  -0.55165353  -0.31199328  0.032052066  -0.55165353   0.23966026   421400 
  551000    0.1599252  -0.55175279  -0.55175279  -0.31186555  0.031131126  -0.55175279   0.23988724   421400 
  552000   0.15974522  -0.55108636  -0.55108636   -0.3114691  0.031279288  -0.55108636   0.23961726   421400 
  553000   0.15970672   -0.5510104   -0.5510104   -0.3114509  0.031139037   -0.5510104   0.23955951   421400 
  554000   0.15968644  -0.55082003  -0.55082003  -0.31129094  0.030866434  -0.55082003   0.23952909   421400 
  555000   0.15984041  -0.55078438  -0.55078438  -0.31102433  0.030322472  -0.55078438   0.23976005   421400 
  556000   0.15987199  -0.55032496  -0.55032496  -0.31051754    0.0302622  -0.55032496   0.23980741   421400 
  557000   0.16006346  -0.55043096  -0.55043096  -0.31033634  0.031640144  -0.55043096   0.24009461   421400 
  558000   0.16033517  -0.55102603  -0.55102603  -0.31052385  0.032708316  -0.55102603   0.24050218   421400 
  559000   0.16022983  -0.55042177  -0.55042177  -0.31007759  0.031630337  -0.55042177   0.24034417   421400 
  560000   0.15996187  -0.54984281  -0.54984281  -0.30990057  0.031835254  -0.54984281   0.23994224   421400 
  561000   0.15993883  -0.55013471  -0.55013471  -0.31022703  0.032386076  -0.55013471   0.23990768   421400 
  562000   0.15971938  -0.55032919  -0.55032919   -0.3107507  0.031605448  -0.55032919   0.23957849   421400 
  563000   0.15993069  -0.55094541  -0.55094541  -0.31104994  0.030207442  -0.55094541   0.23989547   421400 
  564000   0.15993289  -0.55046962  -0.55046962  -0.31057085  0.032221162  -0.55046962   0.23989876   421400 
  565000   0.15978405  -0.54987963  -0.54987963  -0.31020413   0.03253315  -0.54987963   0.23967551   421400 
  566000   0.15999051  -0.54988299  -0.54988299   -0.3098978  0.031124639  -0.54988299   0.23998519   421400 
  567000   0.16007826  -0.54991933  -0.54991933  -0.30980251  0.031986573  -0.54991933   0.24011682   421400 
  568000    0.1601864  -0.55014759  -0.55014759  -0.30986855  0.031317575  -0.55014759   0.24027904   421400 
  569000   0.15986921    -0.550708    -0.550708  -0.31090475   0.02995915    -0.550708   0.23980324   421400 
  570000   0.15975159  -0.55053118  -0.55053118  -0.31090437  0.032667189  -0.55053118   0.23962681   421400 
  571000   0.15966654  -0.55048178  -0.55048178  -0.31098254  0.030849746  -0.55048178   0.23949924   421400 
  572000   0.15982266  -0.55071725  -0.55071725  -0.31098383  0.030674027  -0.55071725   0.23973342   421400 
  573000   0.15992598    -0.550539    -0.550539   -0.3106506  0.031039173    -0.550539    0.2398884   421400 
  574000    0.1596794  -0.55002217  -0.55002217  -0.31050364  0.031195925  -0.55002217   0.23951854   421400 
  575000   0.15987129   -0.5500611   -0.5500611  -0.31025474  0.031145316   -0.5500611   0.23980636   421400 
  576000   0.16013254  -0.55020475  -0.55020475  -0.31000651  0.031371952  -0.55020475   0.24019824   421400 
  577000   0.16011534  -0.55006028  -0.55006028  -0.30988783  0.030203783  -0.55006028   0.24017244   421400 
  578000   0.15979839   -0.5496338   -0.5496338  -0.30993679  0.031508476   -0.5496338   0.23969701   421400 
  579000    0.1598791  -0.54955867  -0.54955867  -0.30974059  0.032249973  -0.54955867   0.23981808   421400 
  580000   0.16011226   -0.5495621   -0.5495621  -0.30939428  0.031423687   -0.5495621   0.24016782   421400 
  581000   0.16002855  -0.54957057  -0.54957057   -0.3095283  0.030424349  -0.54957057   0.24004226   421400 
  582000   0.16006466  -0.54926852  -0.54926852  -0.30917209  0.030854534  -0.54926852   0.24009643   421400 
  583000   0.15999354   -0.5493426   -0.5493426  -0.30935286  0.030968165   -0.5493426   0.23998974   421400 
  584000   0.16007003  -0.54948552  -0.54948552  -0.30938104  0.033681562  -0.54948552   0.24010448   421400 
  585000   0.15975189  -0.54989761  -0.54989761  -0.31027035  0.030469144  -0.54989761   0.23962727   421400 
  586000   0.16014612  -0.54985215  -0.54985215  -0.30963354  0.031953886  -0.54985215   0.24021861   421400 
  587000   0.16008336  -0.54956327  -0.54956327  -0.30943881  0.032093239  -0.54956327   0.24012446   421400 
  588000    0.1602181  -0.54918483  -0.54918483  -0.30885825  0.031922594  -0.54918483   0.24032658   421400 
  589000    0.1602616  -0.54922396  -0.54922396  -0.30883213  0.030029403  -0.54922396   0.24039183   421400 
  590000   0.15988316  -0.54882493  -0.54882493  -0.30900075  0.030975453  -0.54882493   0.23982417   421400 
  591000   0.16010174  -0.54883715  -0.54883715  -0.30868511  0.032045076  -0.54883715   0.24015204   421400 
  592000   0.15975068  -0.54858173  -0.54858173  -0.30895628  0.030739768  -0.54858173   0.23962545   421400 
  593000   0.15996678  -0.54895015  -0.54895015  -0.30900056  0.033109696  -0.54895015   0.23994959   421400 
  594000   0.15983152  -0.54922217  -0.54922217  -0.30947547  0.031312053  -0.54922217   0.23974671   421400 
  595000   0.15990755  -0.54905657  -0.54905657  -0.30919581  0.031418259  -0.54905657   0.23986075   421400 
  596000   0.15998093  -0.54899623  -0.54899623   -0.3090254  0.031199889  -0.54899623   0.23997083   421400 
  597000   0.16003686   -0.5491269   -0.5491269  -0.30907218  0.032026417   -0.5491269   0.24005472   421400 
  598000   0.15998294  -0.54885636  -0.54885636  -0.30888252  0.031033859  -0.54885636   0.23997385   421400 
  599000   0.15970011   -0.5489844   -0.5489844  -0.30943481  0.030694634   -0.5489844    0.2395496   421400 
  600000   0.15978194  -0.54911037  -0.54911037  -0.30943803  0.032506805  -0.54911037   0.23967235   421400 
  601000   0.15953748  -0.54899733  -0.54899733  -0.30969168  0.030767619  -0.54899733   0.23930566   421400 
  602000   0.16000653  -0.54930185  -0.54930185  -0.30929262  0.031899897  -0.54930185   0.24000923   421400 
  603000   0.15942735  -0.54870426  -0.54870426   -0.3095638  0.031440288  -0.54870426   0.23914046   421400 
  604000   0.15990232  -0.54893611  -0.54893611   -0.3090832  0.030373454  -0.54893611   0.23985291   421400 
  605000   0.15963467   -0.5487987   -0.5487987  -0.30934727  0.031994598   -0.5487987   0.23945143   421400 
  606000   0.15987987  -0.54844135  -0.54844135  -0.30862212  0.032278608  -0.54844135   0.23981923   421400 
  607000   0.15987185   -0.5482467   -0.5482467   -0.3084395  0.032275732   -0.5482467   0.23980721   421400 
  608000   0.16019596  -0.54897607  -0.54897607   -0.3086827  0.031874525  -0.54897607   0.24029337   421400 
  609000   0.16008886  -0.54887286  -0.54887286  -0.30874013  0.031479613  -0.54887286   0.24013272   421400 
  610000   0.15998999  -0.54871043  -0.54871043  -0.30872602  0.034159978  -0.54871043   0.23998441   421400 
  611000   0.15973626  -0.54826144  -0.54826144  -0.30865762   0.03112138  -0.54826144   0.23960382   421400 
  612000     0.160057  -0.54846835  -0.54846835  -0.30838341  0.032376975  -0.54846835   0.24008493   421400 
  613000   0.16022407  -0.54856485  -0.54856485  -0.30822931  0.031924366  -0.54856485   0.24033554   421400 
  614000   0.15991967  -0.54785992  -0.54785992  -0.30798099  0.031453579  -0.54785992   0.23987893   421400 
  615000   0.15996528  -0.54775783  -0.54775783  -0.30781048  0.032486944  -0.54775783   0.23994735   421400 
  616000   0.16026774  -0.54833874  -0.54833874  -0.30793771  0.030662221  -0.54833874   0.24040104   421400 
  617000   0.15990193  -0.54832242  -0.54832242  -0.30847009   0.03133109  -0.54832242   0.23985233   421400 
  618000    0.1599042  -0.54846346  -0.54846346  -0.30860772  0.032324848  -0.54846346   0.23985573   421400 
  619000    0.1597485  -0.54789291  -0.54789291  -0.30827073  0.031112139  -0.54789291   0.23962219   421400 
  620000   0.15978074  -0.54805857  -0.54805857  -0.30838802  0.032499614  -0.54805857   0.23967055   421400 
  621000   0.16008982  -0.54793322  -0.54793322  -0.30779906  0.031860593  -0.54793322   0.24013416   421400 
  622000   0.15961781  -0.54697002  -0.54697002  -0.30754388   0.03288857  -0.54697002   0.23942614   421400 
  623000   0.15975812   -0.5477587   -0.5477587  -0.30812208  0.031605044   -0.5477587   0.23963661   421400 
  624000   0.15971077  -0.54742218  -0.54742218  -0.30785659  0.031324075  -0.54742218   0.23956559   421400 
  625000   0.15993296  -0.54748051  -0.54748051  -0.30758164  0.032605234  -0.54748051   0.23989887   421400 
  626000   0.15976014  -0.54755314  -0.54755314   -0.3079135  0.031566571  -0.54755314   0.23963964   421400 
  627000   0.15962484  -0.54750977  -0.54750977  -0.30807308  0.029895328  -0.54750977   0.23943669   421400 
  628000   0.15973578   -0.5472611   -0.5472611  -0.30765799  0.031222666   -0.5472611   0.23960311   421400 
  629000   0.15981319  -0.54718492  -0.54718492  -0.30746569   0.03029311  -0.54718492   0.23971922   421400 
  630000   0.15990716  -0.54669817  -0.54669817    -0.306838  0.031598874  -0.54669817   0.23986017   421400 
  631000   0.15996862  -0.54681594  -0.54681594  -0.30686358  0.031466007  -0.54681594   0.23995236   421400 
  632000   0.16058093    -0.547283    -0.547283  -0.30641217   0.03244441    -0.547283   0.24087082   421400 
  633000   0.16031507  -0.54688075  -0.54688075  -0.30640871  0.031696329  -0.54688075   0.24047204   421400 
  634000   0.15995742  -0.54687222  -0.54687222  -0.30693665  0.030694944  -0.54687222   0.23993557   421400 
  635000   0.15972818  -0.54696556  -0.54696556  -0.30737386  0.031015304  -0.54696556   0.23959169   421400 
  636000   0.15975332  -0.54709408  -0.54709408  -0.30746466  0.030675906  -0.54709408   0.23962941   421400 
  637000   0.16006674  -0.54725467  -0.54725467  -0.30715512  0.033448106  -0.54725467   0.24009954   421400 
  638000   0.15959089  -0.54733027  -0.54733027   -0.3079445  0.030798699  -0.54733027   0.23938576   421400 
  639000    0.1596021   -0.5474893   -0.5474893  -0.30808672  0.031057831   -0.5474893   0.23940258   421400 
  640000   0.15992047  -0.54773785  -0.54773785  -0.30785772  0.031718216  -0.54773785   0.23988013   421400 
  641000   0.16001215  -0.54742428  -0.54742428  -0.30740662  0.032086171  -0.54742428   0.24001766   421400 
  642000   0.15997469  -0.54764826  -0.54764826  -0.30768679  0.030297732  -0.54764826   0.23996147   421400 
  643000   0.15997938  -0.54738357  -0.54738357  -0.30741507  0.031236161  -0.54738357    0.2399685   421400 
  644000   0.16004537  -0.54734732  -0.54734732  -0.30727983  0.032082247  -0.54734732   0.24006749   421400 
  645000    0.1597083  -0.54721846  -0.54721846  -0.30765657  0.031864538  -0.54721846   0.23956189   421400 
  646000   0.15974043  -0.54668063  -0.54668063  -0.30707055  0.031549326  -0.54668063   0.23961008   421400 
  647000   0.15995699  -0.54709342  -0.54709342   -0.3071585  0.032497694  -0.54709342   0.23993491   421400 
  648000   0.15990222  -0.54678005  -0.54678005  -0.30692728  0.032058807  -0.54678005   0.23985277   421400 
  649000   0.16018339  -0.54667567  -0.54667567  -0.30640115  0.030265174  -0.54667567   0.24027452   421400 
  650000   0.15961343  -0.54596898  -0.54596898   -0.3065494  0.033448626  -0.54596898   0.23941958   421400 
  651000   0.16008444   -0.5461356   -0.5461356  -0.30600951  0.032017355   -0.5461356   0.24012608   421400 
  652000   0.16010001  -0.54615887  -0.54615887  -0.30600943  0.032263639  -0.54615887   0.24014944   421400 
  653000   0.16011241  -0.54587097  -0.54587097  -0.30570292  0.030746607  -0.54587097   0.24016805   421400 
  654000   0.16030048  -0.54635241  -0.54635241  -0.30590226  0.031325479  -0.54635241   0.24045015   421400 
  655000   0.15978733  -0.54594217  -0.54594217  -0.30626174  0.030771199  -0.54594217   0.23968043   421400 
  656000    0.1594506  -0.54581555  -0.54581555  -0.30664022  0.030733691  -0.54581555   0.23917533   421400 
  657000   0.15951502  -0.54629269  -0.54629269  -0.30702073  0.031653264  -0.54629269   0.23927196   421400 
  658000   0.15951147  -0.54651449  -0.54651449  -0.30724785  0.030917779  -0.54651449   0.23926664   421400 
  659000   0.15989752  -0.54638438  -0.54638438  -0.30653866  0.030934246  -0.54638438   0.23984572   421400 
  660000   0.16024148  -0.54671013  -0.54671013  -0.30634849  0.032078292  -0.54671013   0.24036165   421400 
  661000   0.15979372   -0.5460538   -0.5460538   -0.3063638  0.032086668   -0.5460538      0.23969   421400 
  662000   0.15964355  -0.54659719  -0.54659719  -0.30713243  0.031309308  -0.54659719   0.23946476   421400 
  663000   0.15962348  -0.54669415  -0.54669415  -0.30725949  0.031807151  -0.54669415   0.23943466   421400 
  664000   0.15977143  -0.54613152  -0.54613152  -0.30647495  0.028798281  -0.54613152   0.23965657   421400 
  665000   0.16007636  -0.54549506  -0.54549506  -0.30538109  0.031452772  -0.54549506   0.24011397   421400 
  666000   0.16019637  -0.54523537  -0.54523537  -0.30494138  0.032120719  -0.54523537   0.24029399   421400 
  667000   0.15980937  -0.54483676  -0.54483676  -0.30512328  0.032570056  -0.54483676   0.23971348   421400 
  668000   0.15967754   -0.5447894   -0.5447894  -0.30527366  0.031350584   -0.5447894   0.23951574   421400 
  669000   0.15988352  -0.54477733  -0.54477733  -0.30495262  0.031957156  -0.54477733   0.23982471   421400 
  670000   0.16003435  -0.54506216  -0.54506216   -0.3050112  0.031255406  -0.54506216   0.24005095   421400 
  671000   0.15960907  -0.54441392  -0.54441392  -0.30500088  0.031322637  -0.54441392   0.23941304   421400 
  672000   0.16000799  -0.54514079  -0.54514079  -0.30512938  0.031150181  -0.54514079   0.24001141   421400 
  673000   0.16036753  -0.54500728  -0.54500728  -0.30445656  0.031914204  -0.54500728   0.24055072   421400 
  674000   0.16008722  -0.54523727  -0.54523727  -0.30510701  0.031240917  -0.54523727   0.24013026   421400 
  675000   0.15997727   -0.5449232   -0.5449232  -0.30495786  0.031226914   -0.5449232   0.23996534   421400 
  676000   0.16014417   -0.5447335   -0.5447335  -0.30451782  0.032294522   -0.5447335   0.24021568   421400 
  677000   0.15995183  -0.54467892  -0.54467892  -0.30475174  0.031405644  -0.54467892   0.23992718   421400 
  678000   0.16035462  -0.54534562  -0.54534562  -0.30481426  0.032763444  -0.54534562   0.24053136   421400 
  679000   0.16018733  -0.54488361  -0.54488361  -0.30460319  0.030832164  -0.54488361   0.24028042   421400 
  680000   0.15978992  -0.54397352  -0.54397352   -0.3042892  0.031364138  -0.54397352   0.23968432   421400 
  681000   0.16005184  -0.54431227  -0.54431227  -0.30423507  0.031672231  -0.54431227    0.2400772   421400 
  682000   0.16019161  -0.54471896  -0.54471896  -0.30443211  0.032480774  -0.54471896   0.24028685   421400 
  683000   0.16000703   -0.5442727   -0.5442727  -0.30426272  0.030598572   -0.5442727   0.24000998   421400 
  684000   0.15997117  -0.54430135  -0.54430135  -0.30434516  0.031313326  -0.54430135   0.23995619   421400 
  685000   0.16011528  -0.54416989  -0.54416989  -0.30399754  0.032224765  -0.54416989   0.24017236   421400 
  686000    0.1600053   -0.5440315   -0.5440315  -0.30402412  0.030787889   -0.5440315   0.24000738   421400 
  687000   0.16011805  -0.54473982  -0.54473982  -0.30456331  0.031998507  -0.54473982    0.2401765   421400 
  688000   0.16004635  -0.54476778  -0.54476778  -0.30469882  0.031836621  -0.54476778   0.24006895   421400 
  689000   0.15988979  -0.54468288  -0.54468288  -0.30484877  0.031465006  -0.54468288   0.23983411   421400 
  690000   0.16010201  -0.54515492  -0.54515492  -0.30500248  0.032239199  -0.54515492   0.24015244   421400 
  691000   0.15986078  -0.54476737  -0.54476737  -0.30497676  0.032270741  -0.54476737   0.23979061   421400 
  692000   0.16023091  -0.54492434  -0.54492434  -0.30457855  0.032064931  -0.54492434   0.24034579   421400 
  693000   0.16038839  -0.54497684  -0.54497684  -0.30439483  0.031027002  -0.54497684   0.24058201   421400 
  694000   0.15976481  -0.54450474  -0.54450474  -0.30485809  0.031302844  -0.54450474   0.23964665   421400 
  695000   0.15997846  -0.54449684  -0.54449684  -0.30452971  0.032744933  -0.54449684   0.23996713   421400 
  696000    0.1599922  -0.54440324  -0.54440324  -0.30441551  0.032671642  -0.54440324   0.23998773   421400 
  697000    0.1598096  -0.54475418  -0.54475418  -0.30504035  0.030211446  -0.54475418   0.23971384   421400 
  698000   0.15974065  -0.54410752  -0.54410752  -0.30449712  0.031154507  -0.54410752    0.2396104   421400 
  699000   0.16010709  -0.54482799  -0.54482799  -0.30466792  0.032117897  -0.54482799   0.24016007   421400 
  700000   0.15955776  -0.54379728  -0.54379728   -0.3044612  0.032520828  -0.54379728   0.23933608   421400 
  701000   0.16026577  -0.54420909  -0.54420909  -0.30381101  0.031851524  -0.54420909   0.24039808   421400 
  702000    0.1600686  -0.54410012  -0.54410012  -0.30399779  0.032495861  -0.54410012   0.24010233   421400 
  703000   0.16037617  -0.54410432  -0.54410432  -0.30354063  0.030744523  -0.54410432   0.24056369   421400 
  704000   0.16023006  -0.54350851  -0.54350851  -0.30316399   0.03254965  -0.54350851   0.24034452   421400 
  705000    0.1602407  -0.54346541  -0.54346541  -0.30310493  0.033838857  -0.54346541   0.24036048   421400 
  706000   0.15995206  -0.54329264  -0.54329264  -0.30336512  0.032251861  -0.54329264   0.23992752   421400 
  707000   0.16021879  -0.54356747  -0.54356747  -0.30323986  0.032653143  -0.54356747   0.24032762   421400 
  708000   0.16014232  -0.54305301  -0.54305301   -0.3028401  0.031239242  -0.54305301   0.24021291   421400 
  709000   0.16005229  -0.54312676  -0.54312676   -0.3030489  0.031275737  -0.54312676   0.24007786   421400 
  710000   0.16017967  -0.54344952  -0.54344952  -0.30318059  0.030807745  -0.54344952   0.24026893   421400 
  711000    0.1597996   -0.5432119   -0.5432119  -0.30351307  0.030093837   -0.5432119   0.23969883   421400 
[...]
 9832000   0.16038019  -0.52463542  -0.52463542  -0.28406571  0.030320146  -0.52463542   0.24056972   421400 
 9833000   0.15994731  -0.52458545  -0.52458545  -0.28466506  0.030943769  -0.52458545   0.23992039   421400 
 9834000   0.16022028  -0.52482347  -0.52482347  -0.28449362  0.031067116  -0.52482347   0.24032985   421400 
 9835000   0.16030125  -0.52501036  -0.52501036  -0.28455905  0.029941948  -0.52501036   0.24045131   421400 
 9836000    0.1600185  -0.52479808  -0.52479808  -0.28477091  0.029949576  -0.52479808   0.24002717   421400 
 9837000   0.16007989  -0.52476529  -0.52476529  -0.28464602  0.028787481  -0.52476529   0.24011926   421400 
 9838000   0.16017122  -0.52441675  -0.52441675  -0.28416049  0.031243482  -0.52441675   0.24025626   421400 
 9839000   0.15993598  -0.52465815  -0.52465815  -0.28475475  0.029526018  -0.52465815    0.2399034   421400 
 9840000   0.15954425  -0.52482458  -0.52482458  -0.28550878  0.029595327  -0.52482458    0.2393158   421400 
 9841000   0.16012304    -0.525198    -0.525198  -0.28501401  0.029448273    -0.525198   0.24018399   421400 
 9842000   0.15998826  -0.52565648  -0.52565648  -0.28567465  0.029783833  -0.52565648   0.23998183   421400 
 9843000   0.15993942  -0.52474251  -0.52474251  -0.28483396   0.02993661  -0.52474251   0.23990855   421400 
 9844000   0.15984381  -0.52507202  -0.52507202  -0.28530688  0.030277282  -0.52507202   0.23976514   421400 
 9845000   0.15974132  -0.52464388  -0.52464388  -0.28503246   0.02958211  -0.52464388   0.23961142   421400 
 9846000   0.16031487  -0.52466057  -0.52466057  -0.28418884  0.029909261  -0.52466057   0.24047173   421400 
 9847000   0.15982271  -0.52422495  -0.52422495  -0.28449145  0.029722741  -0.52422495    0.2397335   421400 
 9848000   0.15996185  -0.52396607  -0.52396607  -0.28402386  0.030607127  -0.52396607   0.23994221   421400 
 9849000    0.1600723  -0.52444845  -0.52444845  -0.28434057   0.02951592  -0.52444845   0.24010789   421400 
 9850000   0.15972736  -0.52443355  -0.52443355  -0.28484307  0.029326492  -0.52443355   0.23959048   421400 
 9851000   0.15978995  -0.52465607  -0.52465607  -0.28497172  0.029966845  -0.52465607   0.23968435   421400 
 9852000   0.16006371  -0.52530236  -0.52530236  -0.28520737  0.029089802  -0.52530236   0.24009499   421400 
 9853000   0.15985754  -0.52545203  -0.52545203  -0.28566628  0.031671989  -0.52545203   0.23978575   421400 
 9854000   0.15997055  -0.52555507  -0.52555507  -0.28559981  0.029272235  -0.52555507   0.23995526   421400 
 9855000   0.15952243  -0.52478562  -0.52478562  -0.28550254  0.029841979  -0.52478562   0.23928308   421400 
 9856000   0.15995618  -0.52499757  -0.52499757  -0.28506387  0.030639353  -0.52499757    0.2399337   421400 
 9857000   0.15985234  -0.52481772  -0.52481772  -0.28503978  0.029036216  -0.52481772   0.23977794   421400 
 9858000   0.15993366  -0.52522139  -0.52522139  -0.28532147  0.030686755  -0.52522139   0.23989992   421400 
 9859000   0.15991906   -0.5247274   -0.5247274  -0.28484938  0.031452873   -0.5247274   0.23987801   421400 
 9860000   0.15991978  -0.52463428  -0.52463428  -0.28475518  0.030167084  -0.52463428    0.2398791   421400 
 9861000   0.16009259  -0.52411367  -0.52411367  -0.28397536  0.030732139  -0.52411367   0.24013832   421400 
 9862000   0.15985932  -0.52419995  -0.52419995  -0.28441154  0.029481644  -0.52419995   0.23978841   421400 
 9863000   0.16013457  -0.52432644  -0.52432644  -0.28412516   0.02952501  -0.52432644   0.24020128   421400 
 9864000   0.15995551  -0.52434128  -0.52434128  -0.28440859  0.028616616  -0.52434128   0.23993269   421400 
 9865000   0.15987153   -0.5238481   -0.5238481  -0.28404137  0.029014621   -0.5238481   0.23980673   421400 
 9866000   0.16030843  -0.52444983  -0.52444983  -0.28398775  0.029056612  -0.52444983   0.24046208   421400 
 9867000   0.16014249  -0.52443723  -0.52443723  -0.28422407  0.029648307  -0.52443723   0.24021316   421400 
 9868000   0.16022454  -0.52448158  -0.52448158  -0.28414534  0.029299436  -0.52448158   0.24033625   421400 
 9869000   0.15983789  -0.52406496  -0.52406496  -0.28430869  0.029511637  -0.52406496   0.23975627   421400 
 9870000   0.15988474  -0.52415448  -0.52415448  -0.28432794  0.030089102  -0.52415448   0.23982653   421400 
 9871000   0.16023318  -0.52407635  -0.52407635  -0.28372715  0.029153201  -0.52407635    0.2403492   421400 
 9872000   0.16033655  -0.52426097  -0.52426097  -0.28375671  0.030442632  -0.52426097   0.24050426   421400 
 9873000   0.16025825  -0.52454004  -0.52454004  -0.28415323  0.030077933  -0.52454004   0.24038681   421400 
 9874000   0.16007983  -0.52458851  -0.52458851  -0.28446933  0.030980979  -0.52458851   0.24011918   421400 
 9875000   0.16006674  -0.52480068  -0.52480068  -0.28470115  0.028986758  -0.52480068   0.24009953   421400 
 9876000   0.15979013  -0.52487094  -0.52487094  -0.28518632  0.030051152  -0.52487094   0.23968462   421400 
 9877000   0.16008858  -0.52491005  -0.52491005  -0.28477774  0.030510087  -0.52491005    0.2401323   421400 
 9878000    0.1598132  -0.52465809  -0.52465809  -0.28493886  0.027764663  -0.52465809   0.23971923   421400 
 9879000   0.16016816  -0.52490342  -0.52490342  -0.28465175  0.030142928  -0.52490342   0.24025167   421400 
 9880000   0.16004924  -0.52488659  -0.52488659   -0.2848133  0.030792094  -0.52488659    0.2400733   421400 
 9881000   0.15965697  -0.52423716  -0.52423716  -0.28475227  0.030895368  -0.52423716   0.23948489   421400 
 9882000   0.15999666  -0.52415994  -0.52415994  -0.28416552  0.030307543  -0.52415994   0.23999442   421400 
 9883000   0.16008547  -0.52424478  -0.52424478  -0.28411715  0.028760778  -0.52424478   0.24012763   421400 
 9884000   0.16030269  -0.52411011  -0.52411011  -0.28365665  0.028914128  -0.52411011   0.24045346   421400 
 9885000   0.16030455  -0.52424978  -0.52424978  -0.28379353  0.029550821  -0.52424978   0.24045625   421400 
 9886000   0.15986403  -0.52392248  -0.52392248    -0.284127   0.03001654  -0.52392248   0.23979548   421400 
 9887000   0.15980276  -0.52366567  -0.52366567   -0.2839621  0.031443319  -0.52366567   0.23970357   421400 
 9888000   0.16012028  -0.52445774  -0.52445774  -0.28427789  0.028781055  -0.52445774   0.24017985   421400 
 9889000   0.15981275  -0.52473526  -0.52473526  -0.28501669  0.030472374  -0.52473526   0.23971856   421400 
 9890000      0.16001  -0.52468556  -0.52468556  -0.28467113  0.030435348  -0.52468556   0.24001442   421400 
 9891000   0.16033339  -0.52519435  -0.52519435  -0.28469484  0.028404355  -0.52519435   0.24049951   421400 
 9892000   0.16013455  -0.52502455  -0.52502455  -0.28482331  0.030425802  -0.52502455   0.24020125   421400 
 9893000   0.15970035  -0.52431824  -0.52431824  -0.28476828  0.029132865  -0.52431824   0.23954996   421400 
 9894000   0.15999999  -0.52408113  -0.52408113  -0.28408172  0.030234986  -0.52408113   0.23999942   421400 
 9895000   0.16006125  -0.52436779  -0.52436779  -0.28427649  0.029952749  -0.52436779   0.24009131   421400 
 9896000   0.16014077   -0.5246075   -0.5246075  -0.28439691  0.029803252   -0.5246075   0.24021059   421400 
 9897000   0.15976025  -0.52367561  -0.52367561   -0.2840358  0.030352341  -0.52367561   0.23963981   421400 
 9898000   0.16010824  -0.52426564  -0.52426564  -0.28410385  0.030829064  -0.52426564   0.24016179   421400 
 9899000   0.15991175  -0.52408162  -0.52408162  -0.28421456  0.028999427  -0.52408162   0.23986706   421400 
 9900000     0.159777  -0.52346599  -0.52346599  -0.28380106  0.028596521  -0.52346599   0.23966493   421400 
 9901000   0.16018923  -0.52386441  -0.52386441  -0.28358114  0.029604535  -0.52386441   0.24028327   421400 
 9902000   0.16000487  -0.52394185  -0.52394185  -0.28393511   0.03012931  -0.52394185   0.24000674   421400 
 9903000    0.1597804  -0.52393059  -0.52393059  -0.28426056  0.030665778  -0.52393059   0.23967003   421400 
 9904000   0.16014142  -0.52427477  -0.52427477  -0.28406322  0.029000787  -0.52427477   0.24021156   421400 
 9905000   0.15992106  -0.52386285  -0.52386285  -0.28398183  0.029906191  -0.52386285   0.23988102   421400 
 9906000   0.16014729  -0.52373766  -0.52373766   -0.2835173  0.030927327  -0.52373766   0.24022037   421400 
 9907000   0.15980959  -0.52368553  -0.52368553  -0.28397171  0.031128385  -0.52368553   0.23971382   421400 
 9908000   0.16008766   -0.5241319   -0.5241319  -0.28400098  0.030299438   -0.5241319   0.24013092   421400 
 9909000   0.15970503  -0.52407485  -0.52407485  -0.28451788  0.029578739  -0.52407485   0.23955697   421400 
 9910000   0.15990474   -0.5241526   -0.5241526  -0.28429605  0.030125477   -0.5241526   0.23985655   421400 
 9911000   0.16014251  -0.52417453  -0.52417453  -0.28396133  0.031022483  -0.52417453    0.2402132   421400 
 9912000   0.15980395  -0.52374954  -0.52374954  -0.28404419  0.030192292  -0.52374954   0.23970535   421400 
 9913000   0.15981974  -0.52357622  -0.52357622  -0.28384719  0.029279806  -0.52357622   0.23972904   421400 
 9914000     0.160026  -0.52378715  -0.52378715  -0.28374872  0.030141808  -0.52378715   0.24003843   421400 
 9915000   0.15966152  -0.52326546  -0.52326546  -0.28377375  0.028821894  -0.52326546   0.23949171   421400 
 9916000   0.15995611  -0.52377624  -0.52377624  -0.28384264  0.030916163  -0.52377624    0.2399336   421400 
 9917000   0.16005012  -0.52408069  -0.52408069  -0.28400608  0.029181241  -0.52408069   0.24007461   421400 
 9918000   0.15998789  -0.52429444  -0.52429444  -0.28431317  0.030221703  -0.52429444   0.23998127   421400 
 9919000   0.16009386  -0.52444243  -0.52444243  -0.28430221  0.030249824  -0.52444243   0.24014022   421400 
 9920000   0.15961036  -0.52388744  -0.52388744  -0.28447247  0.029395412  -0.52388744   0.23941496   421400 
 9921000   0.16005455  -0.52443926  -0.52443926    -0.284358  0.028560276  -0.52443926   0.24008126   421400 
 9922000   0.16020575  -0.52463258  -0.52463258  -0.28432452  0.030104401  -0.52463258   0.24030805   421400 
 9923000   0.16009012  -0.52414598  -0.52414598  -0.28401137  0.029842866  -0.52414598   0.24013461   421400 
 9924000   0.15980489  -0.52401261  -0.52401261  -0.28430583  0.031431511  -0.52401261   0.23970677   421400 
 9925000   0.15946739  -0.52411243  -0.52411243  -0.28491192  0.030396108  -0.52411243   0.23920051   421400 
 9926000   0.16006208  -0.52480614  -0.52480614  -0.28471358  0.029691793  -0.52480614   0.24009256   421400 
 9927000   0.15978363  -0.52509679  -0.52509679  -0.28542191  0.030100874  -0.52509679   0.23967488   421400 
 9928000   0.15987458  -0.52469917  -0.52469917  -0.28488786   0.03064985  -0.52469917    0.2398113   421400 
 9929000   0.15995904  -0.52462632  -0.52462632  -0.28468833  0.029559358  -0.52462632     0.239938   421400 
 9930000   0.15981515  -0.52464873  -0.52464873  -0.28492657  0.028970111  -0.52464873   0.23972216   421400 
 9931000   0.16017154  -0.52426234  -0.52426234  -0.28400559  0.029962425  -0.52426234   0.24025674   421400 
 9932000   0.15997963  -0.52405893  -0.52405893  -0.28409005  0.031257295  -0.52405893   0.23996888   421400 
 9933000   0.16003993  -0.52386148  -0.52386148  -0.28380215  0.029763741  -0.52386148   0.24005933   421400 
 9934000   0.15995456  -0.52442597  -0.52442597   -0.2844947  0.030581476  -0.52442597   0.23993127   421400 
 9935000   0.15984569  -0.52419749  -0.52419749  -0.28442952  0.030689578  -0.52419749   0.23976796   421400 
 9936000   0.16017494  -0.52464354  -0.52464354   -0.2843817  0.031037723  -0.52464354   0.24026183   421400 
 9937000   0.15975101  -0.52386831  -0.52386831  -0.28424236   0.02955993  -0.52386831   0.23962594   421400 
 9938000   0.16019067  -0.52458838  -0.52458838  -0.28430294  0.029626422  -0.52458838   0.24028543   421400 
 9939000   0.15951926  -0.52398889  -0.52398889  -0.28471057  0.029561301  -0.52398889   0.23927832   421400 
 9940000   0.16006982  -0.52453032  -0.52453032  -0.28442616  0.030215843  -0.52453032   0.24010416   421400 
 9941000   0.15992436  -0.52421725  -0.52421725  -0.28433128  0.029644157  -0.52421725   0.23988597   421400 
 9942000   0.16008684  -0.52477986  -0.52477986  -0.28465017  0.029202047  -0.52477986   0.24012969   421400 
 9943000   0.15976471  -0.52443384  -0.52443384  -0.28478734  0.030238091  -0.52443384    0.2396465   421400 
 9944000   0.15968118   -0.5245559   -0.5245559  -0.28503471  0.029668643   -0.5245559    0.2395212   421400 
 9945000   0.15964747  -0.52421801  -0.52421801  -0.28474737  0.029281473  -0.52421801   0.23947063   421400 
 9946000   0.15995392  -0.52457942  -0.52457942  -0.28464911  0.028571014  -0.52457942   0.23993032   421400 
 9947000   0.15989799  -0.52441533  -0.52441533  -0.28456891  0.029700081  -0.52441533   0.23984642   421400 
 9948000   0.15982997  -0.52447477  -0.52447477  -0.28473038  0.030007123  -0.52447477   0.23974439   421400 
 9949000   0.15999067  -0.52429355  -0.52429355  -0.28430812  0.030777922  -0.52429355   0.23998543   421400 
 9950000   0.16019754  -0.52407186  -0.52407186  -0.28377611  0.030846759  -0.52407186   0.24029575   421400 
 9951000    0.1598001  -0.52431323  -0.52431323  -0.28461365  0.031654398  -0.52431323   0.23969958   421400 
 9952000   0.16006229  -0.52451836  -0.52451836  -0.28442549  0.030660368  -0.52451836   0.24009287   421400 
 9953000   0.15976095  -0.52357008  -0.52357008  -0.28392922  0.030667875  -0.52357008   0.23964085   421400 
 9954000   0.15990103   -0.5240515   -0.5240515  -0.28420052  0.030499927   -0.5240515   0.23985098   421400 
 9955000   0.15981654  -0.52389907  -0.52389907  -0.28417482  0.029922137  -0.52389907   0.23972425   421400 
 9956000   0.15962388  -0.52357986  -0.52357986  -0.28414461  0.028967134  -0.52357986   0.23943525   421400 
 9957000    0.1602234   -0.5240438   -0.5240438  -0.28370928  0.030806952   -0.5240438   0.24033452   421400 
 9958000   0.15966523  -0.52361678  -0.52361678   -0.2841195  0.029643251  -0.52361678   0.23949728   421400 
 9959000   0.15986468  -0.52400654  -0.52400654  -0.28421008  0.029228549  -0.52400654   0.23979646   421400 
 9960000   0.16022196  -0.52472569  -0.52472569  -0.28439332  0.030113833  -0.52472569   0.24033237   421400 
 9961000   0.16000709  -0.52450845  -0.52450845  -0.28449838  0.029239332  -0.52450845   0.24001006   421400 
 9962000   0.16011508  -0.52422551  -0.52422551  -0.28405345  0.029701688  -0.52422551   0.24017205   421400 
 9963000   0.15980967  -0.52430075  -0.52430075  -0.28458681  0.030951721  -0.52430075   0.23971393   421400 
 9964000   0.15983801  -0.52404787  -0.52404787  -0.28429143  0.031243669  -0.52404787   0.23975644   421400 
 9965000   0.16008328  -0.52467842  -0.52467842  -0.28455406  0.031148294  -0.52467842   0.24012435   421400 
 9966000   0.16014209   -0.5245556   -0.5245556  -0.28434303  0.030296941   -0.5245556   0.24021257   421400 
 9967000     0.160084   -0.5248598   -0.5248598  -0.28473437  0.029914267   -0.5248598   0.24012543   421400 
 9968000   0.15967759  -0.52461445  -0.52461445  -0.28509864  0.030830191  -0.52461445   0.23951581   421400 
 9969000   0.16008597  -0.52490147  -0.52490147  -0.28477309  0.029783952  -0.52490147   0.24012838   421400 
 9970000   0.16005038  -0.52510948  -0.52510948  -0.28503449  0.029561912  -0.52510948   0.24007499   421400 
 9971000   0.16015206  -0.52457452  -0.52457452  -0.28434701  0.032245838  -0.52457452   0.24022752   421400 
 9972000   0.15997453  -0.52434478  -0.52434478  -0.28438356  0.032486036  -0.52434478   0.23996122   421400 
 9973000   0.16006042  -0.52430817  -0.52430817  -0.28421811  0.029546798  -0.52430817   0.24009006   421400 
 9974000   0.16015009  -0.52450886  -0.52450886   -0.2842843  0.031277035  -0.52450886   0.24022457   421400 
 9975000   0.16002797  -0.52413006  -0.52413006  -0.28408866  0.031201564  -0.52413006   0.24004139   421400 
 9976000    0.1602159  -0.52427495  -0.52427495  -0.28395167  0.031050077  -0.52427495   0.24032328   421400 
 9977000   0.15943959  -0.52400542  -0.52400542  -0.28484661  0.030590989  -0.52400542   0.23915881   421400 
 9978000   0.16003225  -0.52439058  -0.52439058  -0.28434277  0.030462769  -0.52439058   0.24004781   421400 
 9979000   0.15983844  -0.52435884  -0.52435884  -0.28460176  0.030453591  -0.52435884   0.23975709   421400 
 9980000     0.160131  -0.52455019  -0.52455019  -0.28435426  0.030016303  -0.52455019   0.24019593   421400 
 9981000   0.16020834   -0.5250079   -0.5250079  -0.28469597   0.03100602   -0.5250079   0.24031194   421400 
 9982000   0.15964523  -0.52425442  -0.52425442  -0.28478714  0.029837394  -0.52425442   0.23946728   421400 
 9983000   0.16011222  -0.52465964  -0.52465964  -0.28449187  0.030285576  -0.52465964   0.24016776   421400 
 9984000   0.16013483  -0.52464402  -0.52464402  -0.28444234  0.031609864  -0.52464402   0.24020168   421400 
 9985000   0.16027985  -0.52450776  -0.52450776  -0.28408855  0.030671218  -0.52450776   0.24041921   421400 
 9986000   0.16028001  -0.52433198  -0.52433198  -0.28391253  0.030875009  -0.52433198   0.24041944   421400 
 9987000   0.16041406  -0.52418831  -0.52418831  -0.28356779  0.029192595  -0.52418831   0.24062052   421400 
 9988000   0.16021675  -0.52395379  -0.52395379  -0.28362924  0.030758945  -0.52395379   0.24032455   421400 
 9989000   0.15993845  -0.52372237  -0.52372237  -0.28381526  0.032302761  -0.52372237   0.23990711   421400 
 9990000   0.16015489  -0.52385886  -0.52385886  -0.28362709   0.02985636  -0.52385886   0.24023176   421400 
 9991000   0.16019808  -0.52386898  -0.52386898  -0.28357243  0.029024858  -0.52386898   0.24029655   421400 
 9992000   0.16003749  -0.52350061  -0.52350061  -0.28344494  0.031097789  -0.52350061   0.24005567   421400 
 9993000   0.16037196  -0.52370764  -0.52370764  -0.28315027  0.028744876  -0.52370764   0.24055738   421400 
 9994000   0.16004979  -0.52370512  -0.52370512  -0.28363101  0.029946572  -0.52370512   0.24007411   421400 
 9995000   0.16051881  -0.52450321  -0.52450321  -0.28372556  0.031433298  -0.52450321   0.24077765   421400 
 9996000   0.16010212  -0.52419993  -0.52419993  -0.28404732  0.031048391  -0.52419993   0.24015262   421400 
 9997000   0.16035144  -0.52414825  -0.52414825  -0.28362166  0.029974135  -0.52414825   0.24052659   421400 
 9998000   0.16044518  -0.52401646  -0.52401646  -0.28334926  0.030766863  -0.52401646   0.24066719   421400 
 9999000    0.1602815  -0.52454468  -0.52454468  -0.28412301  0.031469135  -0.52454468   0.24042168   421400 
10000000   0.15991919  -0.52441689  -0.52441689  -0.28453867  0.028866028  -0.52441689   0.23987821   421400 
Loop time of 6576.72 on 192 procs for 10000000 steps with 421400 atoms

Performance: 656862.305 tau/day, 1520.515 timesteps/s
87.7% CPU use with 192 MPI tasks x 1 OpenMP threads

MPI task timing breakdown:
Section |  min time  |  avg time  |  max time  |%varavg|  %CPU | %total
-----------------------------------------------------------------------
Pair    | 1622.5     | 1892.1     | 2206.1     | 271.1 |  89.9 | 28.77
Bond    | 6.2525     | 6.5559     | 7.0502     |   5.4 | 100.0 |  0.10
Neigh   | 623.78     | 725.74     | 818.76     | 149.8 |  95.5 | 11.04
Comm    | 1490.9     | 1927.8     | 2251.9     | 343.3 |  87.3 | 29.31
Output  | 557.92     | 559.86     | 559.89     |   0.6 |  67.5 |  8.51
Modify  | 1104.3     | 1153.5     | 1348.3     |  91.2 |  89.2 | 17.54
Other   |            | 311.2      |            |       |       |  4.73

Nlocal:        2194.79 ave        2441 max        1969 min
Histogram: 5 9 17 26 45 46 28 12 3 1
Nghost:        1712.48 ave        1985 max        1386 min
Histogram: 16 22 9 2 11 21 42 48 18 3
Neighs:        12711.7 ave       16545 max        9954 min
Histogram: 3 14 37 42 51 20 6 3 7 9

Total # of neighbors = 2440646
Ave neighs/atom = 5.7917561
Ave special neighs/atom = 0.0000000
Neighbor list builds = 529043
Dangerous builds = 232
System init for write_data ...
Total wall time: 1:49:41
