LAMMPS (3 Mar 2020)
  using 1 OpenMP thread(s) per MPI task
# Simple rigid body system


units		lj
atom_style	full
dimension 	3
boundary	p p f
pair_style	lj/cut 4.4

variable 	sigma		equal 1.0
variable 	epsilon 	equal 1.0


region		box block 0 40 0 40 0 40
create_box 	1 box
Created orthogonal box = (0 0 0) to (40 40 40)
  2 by 4 by 4 MPI processor grid
lattice 	sc 1.0
Lattice spacing in x,y,z = 1 1 1

create_atoms 	1 region box
Created 64000 atoms
  create_atoms CPU = 0.00490614 secs

mass		1 1.0
group		solvent type 1
64000 atoms in group solvent
velocity 	solvent create 1.0 563435 loop geom

replicate 	2 2 2
Replicating atoms ...
WARNING: Replicating in a non-periodic dimension (src/replicate.cpp:72)
  orthogonal box = (0 0 0) to (80 80 80)
  2 by 4 by 4 MPI processor grid
  512000 atoms
Finding 1-2 1-3 1-4 neighbors ...
  special bond factors lj:   0          0          0         
  special bond factors coul: 0          0          0         
  0 = max # of 1-2 neighbors
  0 = max # of 1-3 neighbors
  0 = max # of 1-4 neighbors
  1 = max # of special neighbors
  special bonds CPU = 0.0485546 secs
  replicate CPU = 0.777208 secs
read_data	data.vac add append
Reading data file ...
  orthogonal box = (0 0 0) to (80 80 160)
  2 by 2 by 8 MPI processor grid
Finding 1-2 1-3 1-4 neighbors ...
  special bond factors lj:   0          0          0         
  special bond factors coul: 0          0          0         
  0 = max # of 1-2 neighbors
  0 = max # of 1-3 neighbors
  0 = max # of 1-4 neighbors
  1 = max # of special neighbors
  special bonds CPU = 0.0456368 secs
  read_data CPU = 0.0739871 secs

neighbor 	0.4 bin
pair_coeff	1 1 1.0 1.0
pair_modify 	shift yes

balance 	1.05 shift z 10 1.05
Balancing ...
Neighbor list info ...
  update every 1 steps, delay 10 steps, check yes
  max neighbors/atom: 2000, page size: 100000
  master list distance cutoff = 4.8
  ghost atom cutoff = 4.8
  binsize = 2.4, bins = 34 34 67
  1 neighbor lists, perpetual/occasional/extra = 1 0 0
  (1) pair lj/cut, perpetual
      attributes: half, newton on
      pair build: half/bin/newton
      stencil: half/bin/3d/newton
      bin: standard
  rebalancing time: 0.0569986 seconds
  iteration count = 5
  initial/final max load/proc = 32000 19200
  initial/final imbalance factor = 2 1.2
  x cuts: 0 0.5 1
  y cuts: 0 0.5 1
  z cuts: 0 0.0625 0.128906 0.1875 0.257812 0.308594 0.386719 0.4375 1

####################### WALLS ###########################

region	       low block  EDGE EDGE EDGE EDGE 0 1

region 	       top block  EDGE EDGE EDGE EDGE 159 160

delete_atoms   region low
WARNING: Ignoring 'compress yes' for molecular system (src/delete_atoms.cpp:125)
Deleted 12800 atoms, new total = 499200

variable       epsilonWall equal 2*${epsilon}
variable       epsilonWall equal 2*1

variable       cutoffTop   equal   0.7147*${sigma}
variable       cutoffTop   equal   0.7147*1

variable       cutoffLow   equal   3*${sigma}
variable       cutoffLow   equal   3*1

fix            topWall all wall/lj93 zhi EDGE                ${epsilonWall} ${sigma} ${cutoffTop} units box
fix            topWall all wall/lj93 zhi EDGE                2 ${sigma} ${cutoffTop} units box
fix            topWall all wall/lj93 zhi EDGE                2 1 ${cutoffTop} units box
fix            topWall all wall/lj93 zhi EDGE                2 1 0.7147 units box

fix            lowWall all wall/lj93 zlo EDGE                ${epsilonWall} ${sigma} ${cutoffLow} units box
fix            lowWall all wall/lj93 zlo EDGE                2 ${sigma} ${cutoffLow} units box
fix            lowWall all wall/lj93 zlo EDGE                2 1 ${cutoffLow} units box
fix            lowWall all wall/lj93 zlo EDGE                2 1 3 units box



######################	FIXES ############################

#fix		1 cube rigid/nvt/small molecule temp 1.0 1.0 0.25

fix 		2 solvent nve

## Thermostat
region		regthermo block EDGE EDGE EDGE EDGE 0 20

group 		thermo dynamic solvent region regthermo every 1000
dynamic group thermo defined

fix 		3 thermo langevin 1.0 1.0 0.1 156453

#### Load balancing


fix 		bal all balance 1000 1.05 shift z 10 1.05


############### Diagnostics and computes ###################
#compute 	com cube	  rigid/local	1 mol x y z
#compute 	quat cube	  rigid/local	1 mol quatw quati quatj quatk

thermo 		1000
thermo_style 	custom step temp epair evdwl etotal press pe ke vol

dump		1 all custom 100000 dump.lammpstrj id mol type x y z
dump 		2 all image 10000 image.*.png type type
#dump 		3 all movie 100 movie.avi type type
#dump 		com cube local 1000 dump.*.xyz c_com[*]
#dump		quat cube      local 1000 dump.*.quat c_quat[*]


restart 	100000 restart.dat
timestep 	0.0025
timer 		full
New timer settings: style=full  mode=nosync  timeout=off


run		1000000
Setting up Verlet run ...
  Unit style    : lj
  Current step  : 0
  Time step     : 0.0025
Per MPI rank memory allocation (min/avg/max) = 26.46 | 38.89 | 48.94 Mbytes
Step Temp E_pair E_vdwl TotEng Press PotEng KinEng Volume 
       0    0.9999782   -4.1582862   -4.1582862   -2.6583219    8.3781089   -4.1582862    1.4999643      1024000 
    1000    1.5237505   -5.4567535   -5.4567535   -3.1711323    4.1219409   -5.4567535    2.2856212      1024000 
    2000    1.5157426   -5.5235639   -5.5235639   -3.2499545    2.6916716   -5.5235639    2.2736094      1024000 
    3000    1.5039778   -5.5196774   -5.5196774   -3.2637152    1.5071343   -5.5196774    2.2559621      1024000 
    4000    1.4417527   -5.3915422   -5.3915422   -3.2289175   0.76513306   -5.3915422    2.1626247      1024000 
    5000    1.3550515   -5.2293598   -5.2293598   -3.1967865   0.38789215   -5.2293598    2.0325732      1024000 
    6000    1.2872078   -5.1002774   -5.1002774   -3.1694695   0.25182149   -5.1002774    1.9308079      1024000 
    7000    1.2708827   -5.0572104   -5.0572104   -3.1508902   0.28740768   -5.0572104    1.9063203      1024000 
    8000    1.2805329   -5.0586982   -5.0586982   -3.1379028   0.35232836   -5.0586982    1.9207954      1024000 
    9000     1.288982   -5.0619378   -5.0619378   -3.1284687    0.3822551   -5.0619378    1.9334691      1024000 
   10000    1.3012819   -5.0754744   -5.0754744   -3.1235554   0.42387403   -5.0754744     1.951919      1024000 
   11000    1.3196451   -5.0967589   -5.0967589   -3.1172951    0.4993509   -5.0967589    1.9794637      1024000 
   12000    1.3332616   -5.1107567   -5.1107567   -3.1108684   0.56621707   -5.1107567    1.9998883      1024000 
   13000    1.3373148   -5.1101556   -5.1101556   -3.1041875   0.58044647   -5.1101556    2.0059682      1024000 
   14000    1.3309211    -5.094612    -5.094612   -3.0982344   0.53131549    -5.094612    1.9963776      1024000 
   15000    1.3197354   -5.0720672   -5.0720672   -3.0924681   0.45799328   -5.0720672    1.9795992      1024000 
   16000    1.3090623   -5.0519101   -5.0519101   -3.0883206   0.40738219   -5.0519101    1.9635895      1024000 
   17000    1.3061798   -5.0414804   -5.0414804   -3.0822145   0.39059008   -5.0414804    1.9592658      1024000 
   18000    1.3103285   -5.0415521   -5.0415521   -3.0760634   0.39644952   -5.0415521    1.9654888      1024000 
   19000    1.3179866    -5.049445    -5.049445    -3.072469    0.4319743    -5.049445    1.9769759      1024000 
   20000    1.3277645   -5.0590014   -5.0590014   -3.0673586   0.48885399   -5.0590014    1.9916427      1024000 
   21000    1.3412411   -5.0781513   -5.0781513   -3.0662937   0.87551466   -5.0781513    2.0118576      1024000 
   22000    1.3436879   -5.0782105   -5.0782105   -3.0626827    1.6318206   -5.0782105    2.0155279      1024000 
   23000    1.3562535   -5.0907488   -5.0907488   -3.0563727    2.2145988   -5.0907488    2.0343761      1024000 
   24000    1.3651921   -5.0976385   -5.0976385   -3.0498545    1.8646856   -5.0976385     2.047784      1024000 
   25000     1.352315   -5.0706948   -5.0706948   -3.0422265    1.2645081   -5.0706948    2.0284684      1024000 
   26000    1.3087438   -5.0027088   -5.0027088    -3.039597   0.80884627   -5.0027088    1.9631118      1024000 
   27000    1.2585293   -4.9233604   -4.9233604   -3.0355702   0.56961276   -4.9233604    1.8877902      1024000 
   28000    1.2213637    -4.863266    -4.863266   -3.0312241   0.59226193    -4.863266    1.8320419      1024000 
   29000    1.2034506   -4.8328437   -4.8328437   -3.0276713   0.60625345   -4.8328437    1.8051724      1024000 
   30000     1.201487   -4.8267645   -4.8267645   -3.0245376   0.72377082   -4.8267645    1.8022269      1024000 
   31000    1.2071362   -4.8302269   -4.8302269   -3.0195262   0.71968798   -4.8302269    1.8107007      1024000 
   32000    1.1983372   -4.8122424   -4.8122424   -3.0147403   0.79609331   -4.8122424    1.7975022      1024000 
   33000    1.1608499   -4.7526914   -4.7526914   -3.0114201   0.60572618   -4.7526914    1.7412713      1024000 
   34000    1.1124252   -4.6759352   -4.6759352   -3.0073007   0.32671895   -4.6759352    1.6686345      1024000 
   35000     1.059978    -4.596498    -4.596498   -3.0065342   0.13490178    -4.596498    1.5899638      1024000 
   36000    1.0189209   -4.5271411   -4.5271411   -2.9987628  0.025954338   -4.5271411    1.5283783      1024000 
   37000   0.99065531   -4.4836215   -4.4836215   -2.9976415 -0.011206617   -4.4836215      1.48598      1024000 
   38000    0.9838797   -4.4695323   -4.4695323   -2.9937157  0.012075147   -4.4695323    1.4758166      1024000 
   39000   0.99080667   -4.4769624   -4.4769624   -2.9907553  0.046760644   -4.4769624     1.486207      1024000 
   40000    1.0029611   -4.4947601   -4.4947601   -2.9903215  0.088563422   -4.4947601    1.5044387      1024000 
   41000    1.0162757   -4.5119375   -4.5119375    -2.987527   0.12570651   -4.5119375    1.5244105      1024000 
   42000    1.0273255   -4.5261941   -4.5261941   -2.9852089   0.15543412   -4.5261941    1.5409851      1024000 
   43000    1.0347503   -4.5343069   -4.5343069   -2.9821846     0.172022   -4.5343069    1.5521223      1024000 
   44000    1.0353468    -4.533745    -4.533745   -2.9807278   0.17112399    -4.533745    1.5530171      1024000 
   45000    1.0329426   -4.5314645   -4.5314645   -2.9820538   0.15969955   -4.5314645    1.5494107      1024000 
   46000    1.0339144   -4.5297921   -4.5297921   -2.9789235   0.15440908   -4.5297921    1.5508685      1024000 
   47000    1.0328131   -4.5295836   -4.5295836    -2.980367   0.15453441   -4.5295836    1.5492166      1024000 
   48000    1.0330868   -4.5294859   -4.5294859   -2.9798588   0.15824172   -4.5294859    1.5496271      1024000 
   49000    1.0312947   -4.5301255   -4.5301255   -2.9831866   0.15428283   -4.5301255    1.5469389      1024000 
   50000    1.0342685   -4.5349254   -4.5349254   -2.9835257   0.15765337   -4.5349254    1.5513997      1024000 
   51000    1.0355291   -4.5371167   -4.5371167   -2.9838261   0.16902896   -4.5371167    1.5532906      1024000 
   52000    1.0406017   -4.5508123   -4.5508123   -2.9899128   0.16853773   -4.5508123    1.5608995      1024000 
   53000    1.0413813    -4.560717    -4.560717   -2.9986483   0.18276669    -4.560717    1.5620688      1024000 
   54000    1.0417865   -4.5752127   -4.5752127   -3.0125361   0.19549853   -4.5752127    1.5626766      1024000 
   55000    1.0415337   -4.5888432   -4.5888432   -3.0265457   0.21213312   -4.5888432    1.5622975      1024000 
   56000    1.0381084   -4.5976159   -4.5976159   -3.0404564   0.22599657   -4.5976159    1.5571595      1024000 
   57000    1.0364425   -4.6048991   -4.6048991   -3.0502386   0.21263022   -4.6048991    1.5546606      1024000 
   58000    1.0327465   -4.6085038   -4.6085038   -3.0593872   0.20553823   -4.6085038    1.5491167      1024000 
   59000    1.0274332   -4.6067588   -4.6067588   -3.0656121   0.19520906   -4.6067588    1.5411467      1024000 
   60000    1.0223141   -4.6005149   -4.6005149   -3.0670468   0.17431463   -4.6005149    1.5334681      1024000 
   61000    1.0168281   -4.5929917   -4.5929917   -3.0677526    0.1553336   -4.5929917     1.525239      1024000 
   62000    1.0111981   -4.5842464   -4.5842464   -3.0674523   0.14285865   -4.5842464    1.5167941      1024000 
   63000    1.0086613   -4.5770272   -4.5770272   -3.0640383   0.12978974   -4.5770272    1.5129889      1024000 
   64000    1.0079411   -4.5713291   -4.5713291   -3.0594205    0.1259467   -4.5713291    1.5119086      1024000 
   65000    1.0052921   -4.5669042   -4.5669042    -3.058969   0.12268983   -4.5669042    1.5079352      1024000 
   66000    1.0065737   -4.5673322   -4.5673322   -3.0574746   0.12233053   -4.5673322    1.5098575      1024000 
   67000    1.0087366   -4.5680755   -4.5680755   -3.0549736   0.12605542   -4.5680755    1.5131019      1024000 
   68000    1.0090527   -4.5701816   -4.5701816   -3.0566057   0.12358553   -4.5701816     1.513576      1024000 
   69000    1.0101636   -4.5722656   -4.5722656   -3.0570233   0.12392334   -4.5722656    1.5152423      1024000 
   70000    1.0117835   -4.5763894   -4.5763894   -3.0587172   0.13191979   -4.5763894    1.5176723      1024000 
   71000    1.0118428   -4.5766819   -4.5766819   -3.0589208   0.14064166   -4.5766819    1.5177612      1024000 
   72000    1.0129264   -4.5808272   -4.5808272   -3.0614405   0.13767177   -4.5808272    1.5193866      1024000 
   73000    1.0130152   -4.5804377   -4.5804377    -3.060918   0.14096802   -4.5804377    1.5195197      1024000 
   74000    1.0137439   -4.5816545   -4.5816545   -3.0610417    0.1373679   -4.5816545    1.5206128      1024000 
   75000    1.0130576   -4.5812026   -4.5812026   -3.0616193   0.14035235   -4.5812026    1.5195833      1024000 
   76000    1.0103282   -4.5776248   -4.5776248   -3.0621356   0.13517296   -4.5776248    1.5154892      1024000 
   77000      1.00906   -4.5779426   -4.5779426   -3.0643557     0.130791   -4.5779426     1.513587      1024000 
   78000     1.009403   -4.5765983   -4.5765983   -3.0624968   0.12124387   -4.5765983    1.5141015      1024000 
   79000    1.0089537   -4.5759221   -4.5759221   -3.0624947   0.12033785   -4.5759221    1.5134275      1024000 
   80000     1.007935   -4.5728689   -4.5728689   -3.0609694   0.11682578   -4.5728689    1.5118995      1024000 
   81000    1.0059131   -4.5696039   -4.5696039   -3.0607373   0.11638493   -4.5696039    1.5088666      1024000 
   82000    1.0064156   -4.5690959   -4.5690959   -3.0594755   0.11331223   -4.5690959    1.5096204      1024000 
   83000    1.0069308   -4.5696911   -4.5696911    -3.059298   0.11562288   -4.5696911    1.5103931      1024000 
   84000    1.0085765   -4.5714648   -4.5714648   -3.0586031   0.11839639   -4.5714648    1.5128618      1024000 
   85000    1.0076314   -4.5702836   -4.5702836   -3.0588395   0.11999866   -4.5702836    1.5114441      1024000 
   86000    1.0087128   -4.5725383   -4.5725383   -3.0594721    0.1232505   -4.5725383    1.5130662      1024000 
   87000     1.009498   -4.5741414   -4.5741414   -3.0598975   0.11753486   -4.5741414    1.5142439      1024000 
   88000    1.0076843   -4.5710984   -4.5710984   -3.0595749   0.11833834   -4.5710984    1.5115235      1024000 
   89000    1.0083715   -4.5735071   -4.5735071    -3.060953   0.11893639   -4.5735071    1.5125542      1024000 
   90000     1.008181   -4.5735064   -4.5735064    -3.061238   0.12046641   -4.5735064    1.5122684      1024000 
   91000    1.0113658   -4.5730717   -4.5730717   -3.0560259   0.12465691   -4.5730717    1.5170457      1024000 
   92000    1.0083916   -4.5742431   -4.5742431   -3.0616587   0.11682581   -4.5742431    1.5125844      1024000 
   93000    1.0087971   -4.5758559   -4.5758559   -3.0626632   0.11701173   -4.5758559    1.5131927      1024000 
   94000    1.0083821   -4.5752862   -4.5752862   -3.0627161   0.12024908   -4.5752862    1.5125701      1024000 
   95000    1.0099066   -4.5758717   -4.5758717   -3.0610148   0.11622505   -4.5758717    1.5148569      1024000 
   96000    1.0108798   -4.5781627   -4.5781627   -3.0618461   0.11593593   -4.5781627    1.5163166      1024000 
   97000    1.0092112   -4.5748605   -4.5748605   -3.0610467    0.1178466   -4.5748605    1.5138138      1024000 
   98000    1.0098658    -4.575745    -4.575745   -3.0609493   0.11082379    -4.575745    1.5147957      1024000 
   99000    1.0079434   -4.5727638   -4.5727638   -3.0608518   0.10626024   -4.5727638     1.511912      1024000 
  100000    1.0080657   -4.5715828   -4.5715828   -3.0594873   0.11089785   -4.5715828    1.5120955      1024000 
  101000    1.0086292   -4.5719488   -4.5719488   -3.0590081   0.11475576   -4.5719488    1.5129408      1024000 
  102000    1.0113058   -4.5762444   -4.5762444   -3.0592888   0.10498944   -4.5762444    1.5169557      1024000 
  103000    1.0103795   -4.5757246   -4.5757246   -3.0601584   0.10935244   -4.5757246    1.5155661      1024000 
  104000    1.0105934    -4.577507    -4.577507   -3.0616199   0.10868539    -4.577507    1.5158871      1024000 
  105000    1.0116353   -4.5782087   -4.5782087   -3.0607588   0.10906616   -4.5782087    1.5174499      1024000 
  106000    1.0085279   -4.5737775   -4.5737775   -3.0609887    0.1220655   -4.5737775    1.5127888      1024000 
  107000    1.0094006   -4.5751077   -4.5751077   -3.0610098   0.11540463   -4.5751077    1.5140979      1024000 
  108000    1.0097391   -4.5774487   -4.5774487    -3.062843   0.10266831   -4.5774487    1.5146057      1024000 
  109000    1.0094276   -4.5756449   -4.5756449   -3.0615066     0.103512   -4.5756449    1.5141383      1024000 
  110000    1.0101175   -4.5777415   -4.5777415   -3.0625683  0.097545974   -4.5777415    1.5151732      1024000 
  111000    1.0111648   -4.5762009   -4.5762009   -3.0594567   0.11116017   -4.5762009    1.5167442      1024000 
  112000    1.0099405   -4.5779426   -4.5779426   -3.0630349   0.10342159   -4.5779426    1.5149077      1024000 
  113000    1.0114185   -4.5790499   -4.5790499   -3.0619252   0.10334058   -4.5790499    1.5171247      1024000 
  114000    1.0115666   -4.5795129   -4.5795129   -3.0621661   0.10594911   -4.5795129    1.5173469      1024000 
  115000    1.0102033   -4.5789894   -4.5789894   -3.0636874   0.10895274   -4.5789894     1.515302      1024000 
  116000    1.0108568   -4.5798604   -4.5798604   -3.0635782   0.10681149   -4.5798604    1.5162822      1024000 
  117000    1.0110052   -4.5802435   -4.5802435   -3.0637387   0.10381063   -4.5802435    1.5165048      1024000 
  118000    1.0103462   -4.5785918   -4.5785918   -3.0630755   0.11264364   -4.5785918    1.5155163      1024000 
  119000    1.0117696    -4.581402    -4.581402   -3.0637506   0.10670287    -4.581402    1.5176514      1024000 
  120000    1.0103342   -4.5784063   -4.5784063    -3.062908   0.11304457   -4.5784063    1.5154983      1024000 
  121000    1.0107401   -4.5787975   -4.5787975   -3.0626903   0.10962592   -4.5787975    1.5161072      1024000 
  122000    1.0124424    -4.581575    -4.581575   -3.0629144   0.10682272    -4.581575    1.5186605      1024000 
  123000    1.0102674   -4.5783479   -4.5783479   -3.0629498   0.10994325   -4.5783479    1.5153981      1024000 
  124000    1.0111619   -4.5807283   -4.5807283   -3.0639885   0.10207941   -4.5807283    1.5167398      1024000 
  125000    1.0114843   -4.5796496   -4.5796496   -3.0624262   0.10138402   -4.5796496    1.5172234      1024000 
  126000    1.0112327   -4.5809085   -4.5809085   -3.0640625  0.098246956   -4.5809085     1.516846      1024000 
  127000    1.0092251   -4.5785834   -4.5785834   -3.0647487   0.10064293   -4.5785834    1.5138346      1024000 
  128000    1.0112031   -4.5795265   -4.5795265    -3.062725   0.10061223   -4.5795265    1.5168016      1024000 
  129000    1.0098949   -4.5807534   -4.5807534   -3.0659141  0.093483034   -4.5807534    1.5148393      1024000 
  130000    1.0082566   -4.5785759   -4.5785759    -3.066194   0.10077495   -4.5785759    1.5123818      1024000 
  131000    1.0104316   -4.5796649   -4.5796649   -3.0640205  0.096344932   -4.5796649    1.5156444      1024000 
  132000    1.0116382   -4.5797157   -4.5797157   -3.0622615  0.097002833   -4.5797157    1.5174542      1024000 
  133000    1.0102344    -4.578681    -4.578681   -3.0633325  0.093290484    -4.578681    1.5153485      1024000 
  134000    1.0110757   -4.5815698   -4.5815698   -3.0649593  0.093437282   -4.5815698    1.5166105      1024000 
  135000    1.0112536   -4.5780974   -4.5780974   -3.0612201  0.094368368   -4.5780974    1.5168773      1024000 
  136000     1.011049    -4.579306    -4.579306   -3.0627355  0.088358915    -4.579306    1.5165704      1024000 
  137000    1.0107511    -4.579283    -4.579283   -3.0631595  0.094046195    -4.579283    1.5161236      1024000 
  138000    1.0094374   -4.5783062   -4.5783062   -3.0641531  0.093587861   -4.5783062     1.514153      1024000 
  139000    1.0109788    -4.579836    -4.579836   -3.0633709  0.089862633    -4.579836    1.5164651      1024000 
  140000    1.0085427   -4.5771831   -4.5771831    -3.064372  0.092459483   -4.5771831    1.5128111      1024000 
  141000    1.0087672   -4.5765456   -4.5765456   -3.0633979  0.087911623   -4.5765456    1.5131477      1024000 
  142000    1.0091722    -4.576963    -4.576963   -3.0632078  0.081201398    -4.576963    1.5137552      1024000 
  143000    1.0063947   -4.5741481   -4.5741481    -3.064559  0.086632786   -4.5741481    1.5095891      1024000 
  144000     1.007687   -4.5750468   -4.5750468   -3.0635192  0.083910317   -4.5750468    1.5115275      1024000 
  145000    1.0065908   -4.5741083   -4.5741083   -3.0642252  0.085746998   -4.5741083    1.5098831      1024000 
  146000    1.0071572    -4.573966    -4.573966   -3.0632332   0.08888967    -4.573966    1.5107328      1024000 
  147000    1.0081352   -4.5752297   -4.5752297     -3.06303  0.083950177   -4.5752297    1.5121998      1024000 
  148000    1.0050587   -4.5729488   -4.5729488   -3.0653637  0.085860268   -4.5729488    1.5075851      1024000 
  149000    1.0056789   -4.5735129   -4.5735129   -3.0649976  0.082689145   -4.5735129    1.5085153      1024000 
  150000     1.004983   -4.5731936   -4.5731936   -3.0657221  0.075205237   -4.5731936    1.5074715      1024000 
  151000    1.0061217   -4.5733029   -4.5733029   -3.0641234  0.071918554   -4.5733029    1.5091796      1024000 
  152000    1.0051297   -4.5727634   -4.5727634   -3.0650719  0.074302228   -4.5727634    1.5076915      1024000 
  153000    1.0051138   -4.5704656   -4.5704656   -3.0627979  0.066951288   -4.5704656    1.5076677      1024000 
  154000    1.0033219    -4.567818    -4.567818   -3.0628381  0.071063852    -4.567818    1.5049799      1024000 
  155000    1.0032848   -4.5682546   -4.5682546   -3.0633305  0.068568708   -4.5682546    1.5049241      1024000 
  156000     1.005205   -4.5695198   -4.5695198   -3.0617152  0.070929549   -4.5695198    1.5078045      1024000 
  157000    1.0035565   -4.5694626   -4.5694626    -3.064131  0.073828306   -4.5694626    1.5053317      1024000 
  158000    1.0049399   -4.5694183   -4.5694183   -3.0620115  0.073433207   -4.5694183    1.5074069      1024000 
  159000    1.0031169     -4.56806     -4.56806   -3.0633877  0.073408292     -4.56806    1.5046723      1024000 
  160000    1.0041059   -4.5706273   -4.5706273   -3.0644714  0.065463516   -4.5706273    1.5061559      1024000 
  161000    1.0034283   -4.5679425   -4.5679425   -3.0628031  0.068026338   -4.5679425    1.5051394      1024000 
  162000    1.0029809   -4.5693884   -4.5693884   -3.0649201  0.060992734   -4.5693884    1.5044683      1024000 
  163000    1.0015887   -4.5665714   -4.5665714   -3.0641913  0.069688189   -4.5665714      1.50238      1024000 
  164000    1.0046629   -4.5698064   -4.5698064    -3.062815   0.06655977   -4.5698064    1.5069914      1024000 
  165000    1.0035036   -4.5686499   -4.5686499   -3.0633975  0.070783624   -4.5686499    1.5052524      1024000 
  166000    1.0034267   -4.5687462   -4.5687462   -3.0636092  0.067407526   -4.5687462     1.505137      1024000 
  167000    1.0039702   -4.5700281   -4.5700281   -3.0640759  0.067930173   -4.5700281    1.5059523      1024000 
  168000    1.0036496   -4.5695496   -4.5695496   -3.0640783  0.066776948   -4.5695496    1.5054713      1024000 
  169000    1.0038267   -4.5703219   -4.5703219   -3.0645849  0.066348674   -4.5703219     1.505737      1024000 
  170000    1.0034851    -4.569256    -4.569256   -3.0640314  0.069231367    -4.569256    1.5052246      1024000 
  171000    1.0041002   -4.5707808   -4.5707808   -3.0646335  0.066597952   -4.5707808    1.5061472      1024000 
  172000    1.0044397   -4.5699822   -4.5699822   -3.0633257  0.067758535   -4.5699822    1.5066566      1024000 
  173000    1.0047124   -4.5700983   -4.5700983   -3.0630328  0.063015827   -4.5700983    1.5070656      1024000 
  174000    1.0026602   -4.5684488   -4.5684488   -3.0644615  0.072332171   -4.5684488    1.5039873      1024000 
  175000    1.0040971   -4.5705055   -4.5705055   -3.0643629  0.066154349   -4.5705055    1.5061427      1024000 
  176000    1.0051665   -4.5687053   -4.5687053   -3.0609585  0.075943907   -4.5687053    1.5077467      1024000 
  177000    1.0067229   -4.5712776   -4.5712776   -3.0611963  0.071389991   -4.5712776    1.5100813      1024000 
  178000    1.0066296   -4.5734286   -4.5734286   -3.0634872  0.066482672   -4.5734286    1.5099413      1024000 
  179000    1.0062222   -4.5730562   -4.5730562    -3.063726  0.069771747   -4.5730562    1.5093302      1024000 
  180000    1.0065351   -4.5736815   -4.5736815   -3.0638819  0.071928533   -4.5736815    1.5097996      1024000 
  181000     1.007071   -4.5726552   -4.5726552   -3.0620516    0.0792115   -4.5726552    1.5106035      1024000 
  182000    1.0077542    -4.575923    -4.575923   -3.0642948  0.067700918    -4.575923    1.5116282      1024000 
  183000    1.0081709   -4.5747021   -4.5747021   -3.0624488  0.075001645   -4.5747021    1.5122533      1024000 
  184000     1.006152    -4.573375    -4.573375     -3.06415  0.073720758    -4.573375     1.509225      1024000 
  185000    1.0080309   -4.5743547   -4.5743547   -3.0623115  0.071727624   -4.5743547    1.5120433      1024000 
  186000    1.0077293   -4.5741788   -4.5741788   -3.0625878  0.072200549   -4.5741788     1.511591      1024000 
  187000    1.0064227   -4.5755281   -4.5755281   -3.0658971  0.069829814   -4.5755281     1.509631      1024000 
  188000    1.0073979   -4.5757879   -4.5757879   -3.0646941  0.075862492   -4.5757879    1.5110938      1024000 
  189000    1.0062515   -4.5741288   -4.5741288   -3.0647545  0.080690984   -4.5741288    1.5093743      1024000 
  190000    1.0078365   -4.5767362   -4.5767362   -3.0649845  0.080070862   -4.5767362    1.5117517      1024000 
  191000    1.0090494   -4.5792187   -4.5792187   -3.0656476  0.074866245   -4.5792187    1.5135711      1024000 
  192000    1.0079505   -4.5770487   -4.5770487   -3.0651259  0.080509608   -4.5770487    1.5119227      1024000 
  193000     1.007263   -4.5780088   -4.5780088   -3.0671174  0.072047912   -4.5780088    1.5108914      1024000 
  194000    1.0067401   -4.5759723   -4.5759723   -3.0658651  0.071311703   -4.5759723    1.5101072      1024000 
  195000    1.0066035   -4.5757766   -4.5757766   -3.0658744  0.073848801   -4.5757766    1.5099023      1024000 
  196000     1.006605   -4.5768768   -4.5768768   -3.0669723  0.073534875   -4.5768768    1.5099045      1024000 
  197000    1.0063806   -4.5758258   -4.5758258   -3.0662579  0.070884522   -4.5758258    1.5095679      1024000 
  198000    1.0045715   -4.5735925   -4.5735925   -3.0667382  0.077642974   -4.5735925    1.5068542      1024000 
  199000    1.0070805   -4.5763285   -4.5763285   -3.0657107  0.063613131   -4.5763285    1.5106178      1024000 
  200000    1.0054205   -4.5746592   -4.5746592   -3.0665315  0.069181773   -4.5746592    1.5081277      1024000 
  201000    1.0045362   -4.5738198   -4.5738198   -3.0670184  0.069445377   -4.5738198    1.5068014      1024000 
  202000    1.0055315   -4.5753518   -4.5753518   -3.0670576  0.066495874   -4.5753518    1.5082942      1024000 
  203000    1.0044058   -4.5729159   -4.5729159   -3.0663102  0.063446648   -4.5729159    1.5066057      1024000 
  204000    1.0039468   -4.5718241   -4.5718241   -3.0659069  0.062816591   -4.5718241    1.5059172      1024000 
  205000    1.0040388   -4.5725772   -4.5725772   -3.0665221   0.06381867   -4.5725772    1.5060551      1024000 
  206000     1.004636   -4.5727113   -4.5727113   -3.0657602   0.06261335   -4.5727113     1.506951      1024000 
  207000    1.0036255   -4.5704144   -4.5704144   -3.0649792  0.067553094   -4.5704144    1.5054353      1024000 
  208000     1.003821   -4.5713291   -4.5713291   -3.0656006  0.061478249   -4.5713291    1.5057285      1024000 
  209000    1.0028254   -4.5701027   -4.5701027   -3.0658677  0.059625353   -4.5701027     1.504235      1024000 
  210000    1.0018875   -4.5692321   -4.5692321   -3.0664038  0.069118408   -4.5692321    1.5028283      1024000 
  211000    1.0024907   -4.5693875   -4.5693875   -3.0656544  0.062872058   -4.5693875     1.503733      1024000 
  212000    1.0015288   -4.5698623   -4.5698623   -3.0675722  0.063491968   -4.5698623    1.5022901      1024000 
  213000    1.0011069   -4.5702514   -4.5702514   -3.0685941  0.056379511   -4.5702514    1.5016573      1024000 
  214000     1.001515   -4.5689367   -4.5689367   -3.0666673   0.05823523   -4.5689367    1.5022694      1024000 
  215000    1.0039942   -4.5721013   -4.5721013    -3.066113  0.054383891   -4.5721013    1.5059883      1024000 
  216000    1.0033403   -4.5722478   -4.5722478   -3.0672403  0.052508611   -4.5722478    1.5050075      1024000 
  217000    1.0036642    -4.571464    -4.571464   -3.0659707   0.06072063    -4.571464    1.5054933      1024000 
  218000     1.003257   -4.5722783   -4.5722783   -3.0673957  0.062227413   -4.5722783    1.5048825      1024000 
  219000    1.0027787   -4.5723933   -4.5723933   -3.0682283  0.063061523   -4.5723933     1.504165      1024000 
  220000    1.0016917   -4.5713657   -4.5713657   -3.0688311  0.065503197   -4.5713657    1.5025346      1024000 
  221000    1.0022422   -4.5711609   -4.5711609   -3.0678006  0.063100819   -4.5711609    1.5033603      1024000 
  222000    1.0036395   -4.5725642   -4.5725642   -3.0671079  0.061379657   -4.5725642    1.5054563      1024000 
  223000    1.0039599   -4.5733934   -4.5733934   -3.0674566   0.06053513   -4.5733934    1.5059368      1024000 
  224000    1.0047618    -4.575409    -4.575409   -3.0682694  0.061838686    -4.575409    1.5071396      1024000 
  225000    1.0044435   -4.5738893   -4.5738893   -3.0672271  0.071540099   -4.5738893    1.5066622      1024000 
  226000    1.0047037   -4.5756068   -4.5756068   -3.0685544  0.067259904   -4.5756068    1.5070525      1024000 
  227000    1.0046916   -4.5767985   -4.5767985   -3.0697642  0.063267006   -4.5767985    1.5070343      1024000 
  228000    1.0047418   -4.5752707   -4.5752707    -3.068161  0.066406136   -4.5752707    1.5071096      1024000 
  229000    1.0059982   -4.5773709   -4.5773709   -3.0683766   0.06727629   -4.5773709    1.5089943      1024000 
  230000     1.005004   -4.5764958   -4.5764958   -3.0689928  0.069582202   -4.5764958     1.507503      1024000 
  231000    1.0057712   -4.5774469   -4.5774469   -3.0687931  0.071471381   -4.5774469    1.5086538      1024000 
  232000    1.0059722    -4.576596    -4.576596   -3.0676407  0.075799196    -4.576596    1.5089552      1024000 
  233000    1.0050916    -4.577189    -4.577189   -3.0695546  0.071310079    -4.577189    1.5076344      1024000 
  234000    1.0049757   -4.5776793   -4.5776793   -3.0702187  0.070310229   -4.5776793    1.5074606      1024000 
  235000    1.0041359   -4.5753092   -4.5753092   -3.0691083  0.075719437   -4.5753092    1.5062009      1024000 
  236000    1.0047635   -4.5786709   -4.5786709   -3.0715287  0.071324539   -4.5786709    1.5071422      1024000 
  237000    1.0039121   -4.5781029   -4.5781029   -3.0722378  0.067290159   -4.5781029    1.5058651      1024000 
  238000    1.0047008   -4.5782957   -4.5782957   -3.0712475  0.070781872   -4.5782957    1.5070481      1024000 
  239000    1.0039547   -4.5770575   -4.5770575   -3.0711285  0.070659569   -4.5770575     1.505929      1024000 
  240000    1.0046353   -4.5780404   -4.5780404   -3.0710905  0.073124643   -4.5780404    1.5069499      1024000 
  241000    1.0044289   -4.5772856   -4.5772856   -3.0706452  0.068928436   -4.5772856    1.5066404      1024000 
  242000    1.0048029   -4.5788832   -4.5788832   -3.0716818  0.067896053   -4.5788832    1.5072014      1024000 
  243000    1.0043724   -4.5774096   -4.5774096   -3.0708539   0.06843472   -4.5774096    1.5065556      1024000 
  244000    1.0042674   -4.5777968   -4.5777968   -3.0713986  0.069952471   -4.5777968    1.5063982      1024000 
  245000    1.0039292   -4.5779841   -4.5779841   -3.0720934  0.073180799   -4.5779841    1.5058907      1024000 
  246000    1.0037668   -4.5778203   -4.5778203   -3.0721731  0.066864542   -4.5778203    1.5056472      1024000 
  247000    1.0025572   -4.5761337   -4.5761337   -3.0723009  0.069394717   -4.5761337    1.5038328      1024000 
  248000    1.0024614   -4.5772241   -4.5772241    -3.073535  0.066801548   -4.5772241    1.5036891      1024000 
  249000     1.002607   -4.5781606   -4.5781606   -3.0742532  0.057943145   -4.5781606    1.5039074      1024000 
  250000    1.0020099   -4.5760971   -4.5760971   -3.0730852  0.059752701   -4.5760971    1.5030118      1024000 
  251000    1.0017187    -4.572542    -4.572542   -3.0699669  0.072132352    -4.572542    1.5025751      1024000 
  252000    1.0029565   -4.5767422   -4.5767422   -3.0723104  0.060925653   -4.5767422    1.5044318      1024000 
  253000    1.0022576   -4.5760152   -4.5760152   -3.0726317  0.058909084   -4.5760152    1.5033835      1024000 
  254000    1.0023233   -4.5757938   -4.5757938   -3.0723119  0.058783927   -4.5757938    1.5034819      1024000 
  255000    1.0020026   -4.5763141   -4.5763141   -3.0733131  0.063440212   -4.5763141     1.503001      1024000 
  256000    1.0008108   -4.5759072   -4.5759072   -3.0746941   0.06119167   -4.5759072    1.5012131      1024000 
  257000    1.0014142   -4.5762595   -4.5762595   -3.0741413  0.065472458   -4.5762595    1.5021183      1024000 
  258000    1.0020722   -4.5760158   -4.5760158   -3.0729106  0.063747676   -4.5760158    1.5031052      1024000 
  259000    1.0025653   -4.5762837   -4.5762837   -3.0724387  0.063116909   -4.5762837     1.503845      1024000 
  260000    1.0022322   -4.5762194   -4.5762194   -3.0728741  0.062541872   -4.5762194    1.5033453      1024000 
  261000    1.0023627   -4.5775371   -4.5775371    -3.073996  0.058959902   -4.5775371    1.5035411      1024000 
  262000    1.0012558   -4.5761984   -4.5761984   -3.0743178  0.060569762   -4.5761984    1.5018806      1024000 
  263000    1.0009347   -4.5764868   -4.5764868   -3.0750877   0.06195587   -4.5764868    1.5013991      1024000 
  264000    1.0006236    -4.576324    -4.576324   -3.0753915  0.065231821    -4.576324    1.5009324      1024000 
  265000    1.0013072   -4.5760411   -4.5760411   -3.0740832   0.06613202   -4.5760411    1.5019578      1024000 
  266000    1.0036697   -4.5778298   -4.5778298   -3.0723283  0.061170644   -4.5778298    1.5055015      1024000 
  267000    1.0019214   -4.5771846   -4.5771846   -3.0743055  0.063569748   -4.5771846    1.5028791      1024000 
  268000    1.0026141   -4.5788455   -4.5788455   -3.0749274   0.06581883   -4.5788455    1.5039181      1024000 
  269000    1.0026362   -4.5781112   -4.5781112     -3.07416   0.07238082   -4.5781112    1.5039513      1024000 
  270000    1.0031897   -4.5796734   -4.5796734   -3.0748918  0.068059861   -4.5796734    1.5047816      1024000 
  271000    1.0038083    -4.580215    -4.580215   -3.0745055   0.06767719    -4.580215    1.5057094      1024000 
  272000    1.0028397    -4.579184    -4.579184   -3.0749274  0.076129873    -4.579184    1.5042566      1024000 
  273000    1.0037348   -4.5812954   -4.5812954   -3.0756962  0.063843655   -4.5812954    1.5055992      1024000 
  274000    1.0028478   -4.5790967   -4.5790967    -3.074828   0.07180405   -4.5790967    1.5042687      1024000 
  275000    1.0037974   -4.5805592   -4.5805592   -3.0748661  0.064412837   -4.5805592    1.5056931      1024000 
  276000    1.0028535   -4.5810134   -4.5810134   -3.0767362  0.061849553   -4.5810134    1.5042772      1024000 
  277000     1.000932   -4.5777621   -4.5777621   -3.0763671  0.070527474   -4.5777621     1.501395      1024000 
  278000    1.0031084   -4.5812864   -4.5812864   -3.0766268  0.060343702   -4.5812864    1.5046596      1024000 
  279000    1.0020031   -4.5805631   -4.5805631   -3.0775614  0.065544156   -4.5805631    1.5030016      1024000 
  280000    1.0018408   -4.5816008   -4.5816008   -3.0788426  0.062863204   -4.5816008    1.5027582      1024000 
  281000     1.002931   -4.5829917   -4.5829917   -3.0785982  0.066132238   -4.5829917    1.5043935      1024000 
  282000    1.0022429   -4.5818223   -4.5818223   -3.0784609  0.069471444   -4.5818223    1.5033614      1024000 
  283000    1.0026675   -4.5819557   -4.5819557   -3.0779574  0.071097594   -4.5819557    1.5039982      1024000 
  284000    1.0017559   -4.5802413   -4.5802413   -3.0776104  0.069043416   -4.5802413    1.5026309      1024000 
  285000    1.0021625   -4.5818542   -4.5818542   -3.0786135  0.064286675   -4.5818542    1.5032407      1024000 
  286000    1.0032038    -4.582432    -4.582432   -3.0776294  0.062565894    -4.582432    1.5048027      1024000 
  287000    1.0020365   -4.5810996   -4.5810996   -3.0780479  0.068865141   -4.5810996    1.5030517      1024000 
  288000    1.0004675   -4.5802081   -4.5802081   -3.0795099  0.064635695   -4.5802081    1.5006982      1024000 
  289000    1.0014562   -4.5793656   -4.5793656   -3.0771843  0.066072029   -4.5793656    1.5021813      1024000 
  290000     1.002407   -4.5827777   -4.5827777   -3.0791702  0.063138787   -4.5827777    1.5036075      1024000 
  291000    1.0012504   -4.5801274   -4.5801274   -3.0782549  0.066743626   -4.5801274    1.5018725      1024000 
  292000    1.0015357   -4.5813092   -4.5813092   -3.0790086  0.063967124   -4.5813092    1.5023006      1024000 
  293000     1.000348   -4.5792989   -4.5792989   -3.0787798  0.064992494   -4.5792989    1.5005191      1024000 
  294000    1.0000125   -4.5803075   -4.5803075   -3.0802917  0.060809522   -4.5803075    1.5000158      1024000 
  295000    1.0014949   -4.5809319   -4.5809319   -3.0786926   0.06156747   -4.5809319    1.5022394      1024000 
  296000    1.0016399   -4.5811458   -4.5811458   -3.0786889  0.058134217   -4.5811458    1.5024568      1024000 
  297000     1.000603   -4.5817016   -4.5817016      -3.0808  0.062472572   -4.5817016    1.5009016      1024000 
  298000    1.0010739   -4.5812706   -4.5812706   -3.0796628  0.063573365   -4.5812706    1.5016078      1024000 
  299000    1.0003647   -4.5803036   -4.5803036   -3.0797596  0.062235246   -4.5803036     1.500544      1024000 
  300000   0.99997117   -4.5794465   -4.5794465   -3.0794928  0.062170118   -4.5794465    1.4999538      1024000 
  301000     1.000831   -4.5818271   -4.5818271   -3.0805837  0.059815597   -4.5818271    1.5012434      1024000 
  302000   0.99963828    -4.580081    -4.580081   -3.0806266  0.061699895    -4.580081    1.4994544      1024000 
  303000    1.0008267   -4.5805529   -4.5805529   -3.0793159   0.05890934   -4.5805529    1.5012371      1024000 
  304000    1.0011307   -4.5827396   -4.5827396   -3.0810465   0.05803538   -4.5827396    1.5016931      1024000 
  305000    1.0016209   -4.5844875   -4.5844875   -3.0820591  0.052824023   -4.5844875    1.5024284      1024000 
  306000    1.0007875   -4.5807045   -4.5807045   -3.0795262  0.064092865   -4.5807045    1.5011783      1024000 
  307000    1.0011608   -4.5833676   -4.5833676   -3.0816295  0.059733854   -4.5833676    1.5017381      1024000 
  308000    1.0006692   -4.5834241   -4.5834241   -3.0824233  0.062832684   -4.5834241    1.5010009      1024000 
  309000    1.0000208   -4.5819587   -4.5819587   -3.0819305  0.069802555   -4.5819587    1.5000282      1024000 
  310000    1.0014258   -4.5822769   -4.5822769   -3.0801412  0.060917365   -4.5822769    1.5021357      1024000 
  311000   0.99985747   -4.5828821   -4.5828821   -3.0830989  0.067365395   -4.5828821    1.4997832      1024000 
  312000    1.0019316   -4.5850602   -4.5850602   -3.0821659  0.056680125   -4.5850602    1.5028943      1024000 
  313000    1.0017814   -4.5843726   -4.5843726   -3.0817035  0.060456317   -4.5843726    1.5026691      1024000 
  314000    1.0014369   -4.5854894   -4.5854894   -3.0833371  0.064374875   -4.5854894    1.5021523      1024000 
  315000    1.0005827    -4.584839    -4.584839    -3.083968  0.067437054    -4.584839    1.5008711      1024000 
  316000     1.001007   -4.5844508   -4.5844508   -3.0829433  0.066920184   -4.5844508    1.5015075      1024000 
  317000   0.99981475   -4.5839959   -4.5839959   -3.0842768  0.067100121   -4.5839959    1.4997191      1024000 
  318000    1.0022931    -4.585444    -4.585444   -3.0820073  0.063507469    -4.585444    1.5034367      1024000 
  319000    1.0009477   -4.5849839   -4.5849839   -3.0835654  0.067120989   -4.5849839    1.5014186      1024000 
  320000    1.0012197   -4.5849165   -4.5849165   -3.0830899  0.069516943   -4.5849165    1.5018266      1024000 
  321000   0.99942306   -4.5845282   -4.5845282   -3.0853966  0.066554535   -4.5845282    1.4991316      1024000 
  322000    1.0007044   -4.5873547   -4.5873547   -3.0863011  0.060429941   -4.5873547    1.5010536      1024000 
  323000    1.0000141   -4.5870894   -4.5870894   -3.0870713   0.06669819   -4.5870894    1.5000182      1024000 
  324000    1.0019713   -4.5876588   -4.5876588   -3.0847049  0.067407277   -4.5876588    1.5029539      1024000 
  325000    1.0012958    -4.587721    -4.587721   -3.0857803    0.0631693    -4.587721    1.5019407      1024000 
  326000    1.0002769   -4.5864738   -4.5864738   -3.0860615  0.064001053   -4.5864738    1.5004124      1024000 
  327000    1.0003803   -4.5863885   -4.5863885   -3.0858211  0.067954361   -4.5863885    1.5005674      1024000 
  328000   0.99946305   -4.5863736   -4.5863736    -3.087182   0.07586277   -4.5863736    1.4991916      1024000 
  329000   0.99988782   -4.5875018   -4.5875018   -3.0876731  0.068222859   -4.5875018    1.4998287      1024000 
  330000    1.0008408   -4.5871439   -4.5871439   -3.0858857   0.06665979   -4.5871439    1.5012582      1024000 
  331000    1.0012597   -4.5874217   -4.5874217   -3.0855351   0.06439498   -4.5874217    1.5018866      1024000 
  332000    1.0003849   -4.5869451   -4.5869451   -3.0863708  0.071472444   -4.5869451    1.5005743      1024000 
  333000   0.99963354   -4.5870062   -4.5870062   -3.0875589  0.064956763   -4.5870062    1.4994473      1024000 
  334000    1.0005743   -4.5875996   -4.5875996   -3.0867411  0.066524822   -4.5875996    1.5008585      1024000 
  335000   0.99904327   -4.5854867   -4.5854867   -3.0869248  0.068934263   -4.5854867    1.4985619      1024000 
  336000   0.99854661   -4.5858137   -4.5858137   -3.0879968  0.069516387   -4.5858137    1.4978169      1024000 
  337000    0.9988798   -4.5867299   -4.5867299   -3.0884132  0.062093674   -4.5867299    1.4983167      1024000 
  338000   0.99985798   -4.5859685   -4.5859685   -3.0861845  0.064206156   -4.5859685     1.499784      1024000 
  339000   0.99962975   -4.5859388   -4.5859388   -3.0864972  0.069650078   -4.5859388    1.4994416      1024000 
  340000   0.99997205   -4.5868841   -4.5868841    -3.086929  0.064917793   -4.5868841    1.4999551      1024000 
  341000    1.0004957   -4.5881167   -4.5881167   -3.0873761  0.062893244   -4.5881167    1.5007406      1024000 
  342000   0.99922289   -4.5846323   -4.5846323    -3.085801   0.06993995   -4.5846323    1.4988313      1024000 
  343000     1.001175   -4.5871944   -4.5871944   -3.0854349  0.058310316   -4.5871944    1.5017595      1024000 
  344000    1.0001661   -4.5872066   -4.5872066   -3.0869604  0.060382864   -4.5872066    1.5002462      1024000 
  345000    1.0001869   -4.5863193   -4.5863193   -3.0860419  0.069611807   -4.5863193    1.5002774      1024000 
  346000   0.99980445   -4.5875769   -4.5875769   -3.0878732  0.064567512   -4.5875769    1.4997037      1024000 
  347000   0.99853301   -4.5852877   -4.5852877   -3.0874912  0.068040117   -4.5852877    1.4977965      1024000 
  348000   0.99824432   -4.5855724   -4.5855724   -3.0882089  0.065748876   -4.5855724    1.4973635      1024000 
  349000   0.99824007   -4.5858336   -4.5858336   -3.0884765  0.067400604   -4.5858336    1.4973571      1024000 
  350000   0.99875131   -4.5861354   -4.5861354   -3.0880114  0.068805301   -4.5861354     1.498124      1024000 
  351000   0.99971822   -4.5872177   -4.5872177   -3.0876434  0.062426642   -4.5872177    1.4995743      1024000 
  352000   0.99950549    -4.586915    -4.586915   -3.0876597  0.062643432    -4.586915    1.4992552      1024000 
  353000   0.99913736   -4.5864953   -4.5864953   -3.0877922  0.058239977   -4.5864953     1.498703      1024000 
  354000   0.99715799    -4.584227    -4.584227    -3.088493  0.066628751    -4.584227     1.495734      1024000 
  355000    0.9981406   -4.5861881   -4.5861881   -3.0889802   0.05862281   -4.5861881    1.4972079      1024000 
  356000   0.99981021   -4.5863151   -4.5863151   -3.0866028  0.066219082   -4.5863151    1.4997123      1024000 
  357000   0.99706657   -4.5839039   -4.5839039    -3.088307  0.064794048   -4.5839039    1.4955969      1024000 
  358000   0.99896848   -4.5861006   -4.5861006   -3.0876509  0.060840522   -4.5861006    1.4984497      1024000 
  359000   0.99942499    -4.587407    -4.587407   -3.0882726  0.066044882    -4.587407    1.4991345      1024000 
  360000   0.99876136   -4.5877179   -4.5877179   -3.0895789  0.060965674   -4.5877179     1.498139      1024000 
  361000   0.99904017   -4.5860137   -4.5860137   -3.0874565  0.064201674   -4.5860137    1.4985573      1024000 
  362000   0.99840512   -4.5853601   -4.5853601   -3.0877554  0.067013618   -4.5853601    1.4976047      1024000 
  363000   0.99843752    -4.587565    -4.587565   -3.0899117  0.063652296    -4.587565    1.4976533      1024000 
  364000   0.99874205   -4.5866727   -4.5866727   -3.0885627  0.067335895   -4.5866727    1.4981101      1024000 
  365000    0.9989876   -4.5881267   -4.5881267   -3.0896483  0.065891891   -4.5881267    1.4984784      1024000 
  366000    0.9981683   -4.5852969   -4.5852969   -3.0880475  0.072737497   -4.5852969    1.4972494      1024000 
  367000   0.99870669   -4.5876517   -4.5876517   -3.0895947  0.066205215   -4.5876517     1.498057      1024000 
  368000   0.99866779   -4.5880444   -4.5880444   -3.0900457   0.06500449   -4.5880444    1.4979987      1024000 
  369000   0.99907212   -4.5887919   -4.5887919   -3.0901867  0.066047168   -4.5887919    1.4986052      1024000 
  370000   0.99932283   -4.5885351   -4.5885351   -3.0895539  0.068272446   -4.5885351    1.4989812      1024000 
  371000   0.99972783    -4.589261    -4.589261   -3.0896722  0.060525589    -4.589261    1.4995887      1024000 
  372000    0.9997787    -4.588959    -4.588959    -3.089294  0.070417716    -4.588959     1.499665      1024000 
  373000   0.99909603   -4.5897087   -4.5897087   -3.0910677  0.069984543   -4.5897087     1.498641      1024000 
  374000   0.99873152   -4.5902111   -4.5902111   -3.0921168  0.069685524   -4.5902111    1.4980943      1024000 
  375000   0.99936994    -4.590029    -4.590029   -3.0909771  0.066718033    -4.590029    1.4990519      1024000 
  376000   0.99963869    -4.589461    -4.589461    -3.090006  0.069675005    -4.589461     1.499455      1024000 
  377000    1.0001424   -4.5928698   -4.5928698   -3.0926593  0.061564523   -4.5928698    1.5002105      1024000 
  378000   0.99952995   -4.5900088   -4.5900088   -3.0907169  0.067667474   -4.5900088    1.4992919      1024000 
  379000   0.99912573   -4.5900315   -4.5900315   -3.0913459  0.067461827   -4.5900315    1.4986856      1024000 
  380000    0.9986533   -4.5890056   -4.5890056   -3.0910286  0.068581839   -4.5890056    1.4979769      1024000 
  381000   0.99983897   -4.5897539   -4.5897539   -3.0899984  0.062698388   -4.5897539    1.4997555      1024000 
  382000   0.99975188   -4.5890434   -4.5890434   -3.0894186  0.069576298   -4.5890434    1.4996248      1024000 
  383000   0.99956729   -4.5891724   -4.5891724   -3.0898245  0.067352173   -4.5891724    1.4993479      1024000 
  384000    1.0009793   -4.5910197   -4.5910197   -3.0895538  0.066744922   -4.5910197    1.5014659      1024000 
  385000   0.99841686   -4.5879344   -4.5879344   -3.0903121  0.071443189   -4.5879344    1.4976223      1024000 
  386000    0.9993344   -4.5895437   -4.5895437   -3.0905451  0.065153021   -4.5895437    1.4989986      1024000 
  387000   0.99974465   -4.5892436   -4.5892436   -3.0896297  0.065705167   -4.5892436     1.499614      1024000 
  388000   0.99884608   -4.5888515   -4.5888515   -3.0905854  0.065455419   -4.5888515    1.4982661      1024000 
  389000   0.99811196   -4.5875364   -4.5875364   -3.0903714  0.062513752   -4.5875364    1.4971649      1024000 
  390000   0.99899265   -4.5867398   -4.5867398   -3.0882538  0.066838314   -4.5867398     1.498486      1024000 
  391000   0.99775986   -4.5869714   -4.5869714   -3.0903346  0.062644648   -4.5869714    1.4966368      1024000 
  392000   0.99841751   -4.5876048   -4.5876048   -3.0899815  0.056831519   -4.5876048    1.4976233      1024000 
  393000   0.99858063   -4.5881556   -4.5881556   -3.0902877  0.054885658   -4.5881556    1.4978679      1024000 
  394000   0.99759622   -4.5883181   -4.5883181   -3.0919268  0.054101121   -4.5883181    1.4963913      1024000 
  395000   0.99840439   -4.5891847   -4.5891847   -3.0915811  0.059477869   -4.5891847    1.4976036      1024000 
  396000   0.99815679   -4.5896243   -4.5896243   -3.0923921  0.063303185   -4.5896243    1.4972322      1024000 
  397000   0.99680842   -4.5883787   -4.5883787    -3.093169  0.054996894   -4.5883787    1.4952096      1024000 
  398000   0.99583675   -4.5863204   -4.5863204   -3.0925683  0.060179066   -4.5863204    1.4937521      1024000 
  399000   0.99573399   -4.5860667   -4.5860667   -3.0924687  0.065991512   -4.5860667     1.493598      1024000 
  400000   0.99761404   -4.5884199   -4.5884199   -3.0920018   0.05989743   -4.5884199    1.4964181      1024000 
  401000   0.99824778   -4.5876406   -4.5876406   -3.0902719  0.063222913   -4.5876406    1.4973687      1024000 
  402000    0.9969974   -4.5873411   -4.5873411    -3.091848   0.06096419   -4.5873411    1.4954931      1024000 
  403000   0.99765889   -4.5892752   -4.5892752   -3.0927899  0.068934358   -4.5892752    1.4964853      1024000 
  404000   0.99790997   -4.5907778   -4.5907778   -3.0939159  0.061153701   -4.5907778     1.496862      1024000 
  405000   0.99781558   -4.5908164   -4.5908164    -3.094096  0.061510516   -4.5908164    1.4967204      1024000 
  406000   0.99870984   -4.5917888   -4.5917888   -3.0937271  0.063514473   -4.5917888    1.4980618      1024000 
  407000    0.9994332   -4.5920296   -4.5920296   -3.0928828  0.066619131   -4.5920296    1.4991468      1024000 
  408000   0.99784665   -4.5909539   -4.5909539    -3.094187   0.06687725   -4.5909539     1.496767      1024000 
  409000   0.99807545   -4.5916251   -4.5916251   -3.0945149  0.066090641   -4.5916251    1.4971102      1024000 
  410000   0.99900547   -4.5918297   -4.5918297   -3.0933245  0.069127118   -4.5918297    1.4985052      1024000 
  411000   0.99999646   -4.5942131   -4.5942131   -3.0942214  0.064611436   -4.5942131    1.4999917      1024000 
  412000   0.99902439   -4.5927462   -4.5927462   -3.0942126  0.066663956   -4.5927462    1.4985336      1024000 
  413000   0.99919893   -4.5932759   -4.5932759   -3.0944805   0.06802184   -4.5932759    1.4987954      1024000 
  414000   0.99872461   -4.5926015   -4.5926015   -3.0945176  0.068739778   -4.5926015    1.4980839      1024000 
  415000     0.998481    -4.594177    -4.594177   -3.0964585  0.065748023    -4.594177    1.4977185      1024000 
  416000   0.99914781   -4.5940138   -4.5940138   -3.0952951  0.068880194   -4.5940138    1.4987187      1024000 
  417000    1.0006477   -4.5949355   -4.5949355    -3.093967   0.07037293   -4.5949355    1.5009685      1024000 
  418000   0.99858633   -4.5926106   -4.5926106   -3.0947341   0.07579671   -4.5926106    1.4978765      1024000 
  419000   0.99860995   -4.5953844   -4.5953844   -3.0974725  0.062721091   -4.5953844    1.4979119      1024000 
  420000   0.99839167    -4.593152    -4.593152   -3.0955675  0.068739793    -4.593152    1.4975845      1024000 
  421000   0.99759883   -4.5933815   -4.5933815   -3.0969863  0.066014173   -4.5933815    1.4963953      1024000 
  422000   0.99960814   -4.5944066   -4.5944066   -3.0949974  0.072043665   -4.5944066    1.4994092      1024000 
  423000   0.99899639   -4.5949001   -4.5949001   -3.0964086  0.070064097   -4.5949001    1.4984916      1024000 
  424000   0.99709948   -4.5937091   -4.5937091   -3.0980629  0.072316415   -4.5937091    1.4956462      1024000 
  425000   0.99819705   -4.5935353   -4.5935353   -3.0962428  0.074729435   -4.5935353    1.4972926      1024000 
  426000   0.99806501   -4.5941037   -4.5941037   -3.0970092  0.066854058   -4.5941037    1.4970945      1024000 
  427000   0.99908465   -4.5946014   -4.5946014   -3.0959774  0.064310825   -4.5946014     1.498624      1024000 
  428000   0.99840038   -4.5941995   -4.5941995   -3.0966019  0.070003547   -4.5941995    1.4975976      1024000 
  429000    0.9987999   -4.5948983   -4.5948983   -3.0967014  0.066990552   -4.5948983    1.4981968      1024000 
  430000   0.99756938   -4.5933307   -4.5933307   -3.0969796  0.070421543   -4.5933307    1.4963511      1024000 
  431000   0.99766613   -4.5933171   -4.5933171   -3.0968209  0.070525951   -4.5933171    1.4964962      1024000 
  432000   0.99889594   -4.5934916   -4.5934916   -3.0951507  0.069135199   -4.5934916    1.4983409      1024000 
  433000   0.99570217   -4.5927421   -4.5927421   -3.0991918  0.067997665   -4.5927421    1.4935503      1024000 
  434000   0.99967438   -4.5953755   -4.5953755   -3.0958669  0.065471091   -4.5953755    1.4995086      1024000 
  435000   0.99610878   -4.5929738   -4.5929738   -3.0988136   0.06807793   -4.5929738    1.4941602      1024000 
  436000   0.99626658   -4.5912992   -4.5912992   -3.0969023  0.065237175   -4.5912992    1.4943969      1024000 
  437000    0.9981795   -4.5943288   -4.5943288   -3.0970625  0.059618745   -4.5943288    1.4972663      1024000 
  438000   0.99743982   -4.5935735   -4.5935735   -3.0974168  0.063489916   -4.5935735    1.4961567      1024000 
  439000   0.99611541   -4.5932976   -4.5932976   -3.0991275  0.061454689   -4.5932976    1.4941701      1024000 
  440000   0.99660899   -4.5926083   -4.5926083   -3.0976978  0.068741807   -4.5926083    1.4949105      1024000 
  441000    0.9954526   -4.5933736   -4.5933736   -3.1001977  0.060356876   -4.5933736    1.4931759      1024000 
  442000   0.99701703   -4.5918873   -4.5918873   -3.0963647  0.061347698   -4.5918873    1.4955226      1024000 
  443000   0.99769616   -4.5939259   -4.5939259   -3.0973847  0.056627206   -4.5939259    1.4965412      1024000 
  444000   0.99777123   -4.5939127   -4.5939127   -3.0972589  0.060483083   -4.5939127    1.4966538      1024000 
  445000   0.99840565   -4.5945172   -4.5945172   -3.0969117  0.062586089   -4.5945172    1.4976055      1024000 
  446000   0.99793868   -4.5920709   -4.5920709   -3.0951658  0.066690379   -4.5920709     1.496905      1024000 
  447000   0.99845741   -4.5948707   -4.5948707   -3.0971876   0.06072157   -4.5948707    1.4976831      1024000 
  448000   0.99656375   -4.5919867   -4.5919867   -3.0971441  0.069973426   -4.5919867    1.4948426      1024000 
  449000   0.99761125   -4.5927644   -4.5927644   -3.0963506  0.061686533   -4.5927644    1.4964139      1024000 
  450000   0.99836638   -4.5936005   -4.5936005    -3.096054  0.066668748   -4.5936005    1.4975466      1024000 
  451000   0.99783465   -4.5914466   -4.5914466   -3.0946977  0.067986004   -4.5914466     1.496749      1024000 
  452000   0.99768551   -4.5934878   -4.5934878   -3.0969626  0.062925938   -4.5934878    1.4965253      1024000 
  453000   0.99716488   -4.5922744   -4.5922744     -3.09653  0.066551985   -4.5922744    1.4957443      1024000 
  454000   0.99872476   -4.5929621   -4.5929621   -3.0948779  0.064222556   -4.5929621    1.4980841      1024000 
  455000   0.99713448   -4.5931034   -4.5931034   -3.0974046   0.06548644   -4.5931034    1.4956987      1024000 
  456000   0.99682914    -4.593045    -4.593045   -3.0978043  0.067046093    -4.593045    1.4952407      1024000 
  457000   0.99676987   -4.5914532   -4.5914532   -3.0963014  0.067158054   -4.5914532    1.4951518      1024000 
  458000   0.99754292   -4.5933428   -4.5933428   -3.0970315  0.063378322   -4.5933428    1.4963114      1024000 
  459000   0.99761742   -4.5931897   -4.5931897   -3.0967666  0.066493057   -4.5931897    1.4964231      1024000 
  460000   0.99670705   -4.5923412   -4.5923412   -3.0972836  0.070433902   -4.5923412    1.4950576      1024000 
  461000   0.99811971   -4.5925855   -4.5925855   -3.0954089  0.071252662   -4.5925855    1.4971766      1024000 
  462000   0.99876655   -4.5947039   -4.5947039   -3.0965571  0.075390276   -4.5947039    1.4981468      1024000 
  463000   0.99832209   -4.5942409   -4.5942409   -3.0967608  0.071447194   -4.5942409    1.4974801      1024000 
  464000   0.99787392   -4.5954613   -4.5954613   -3.0986534  0.066687113   -4.5954613    1.4968079      1024000 
  465000   0.99874766   -4.5943275   -4.5943275    -3.096209  0.072663277   -4.5943275    1.4981185      1024000 
  466000   0.99761306   -4.5941678   -4.5941678   -3.0977512  0.068707298   -4.5941678    1.4964166      1024000 
  467000   0.99719731   -4.5938898   -4.5938898   -3.0980969  0.069046137   -4.5938898     1.495793      1024000 
  468000   0.99838379   -4.5953365   -4.5953365   -3.0977638   0.06550857   -4.5953365    1.4975727      1024000 
  469000   0.99570329   -4.5919927   -4.5919927   -3.0984408  0.070357204   -4.5919927    1.4935519      1024000 
  470000   0.99717567    -4.592747    -4.592747   -3.0969865  0.066028161    -4.592747    1.4957605      1024000 
  471000   0.99672919   -4.5923733   -4.5923733   -3.0972825  0.064727616   -4.5923733    1.4950908      1024000 
  472000   0.99528803   -4.5921958   -4.5921958   -3.0992667  0.068176069   -4.5921958    1.4929291      1024000 
  473000   0.99571759   -4.5937637   -4.5937637   -3.1001903  0.062105353   -4.5937637    1.4935734      1024000 
  474000   0.99696503   -4.5929936   -4.5929936   -3.0975491  0.070631645   -4.5929936    1.4954445      1024000 
  475000   0.99647864   -4.5924627   -4.5924627   -3.0977478  0.068084859   -4.5924627     1.494715      1024000 
  476000   0.99563463   -4.5934288   -4.5934288   -3.0999798  0.066362538   -4.5934288    1.4934489      1024000 
  477000   0.99537405   -4.5925281   -4.5925281     -3.09947  0.065976685   -4.5925281    1.4930581      1024000 
  478000   0.99730162   -4.5930319   -4.5930319   -3.0970824  0.065536248   -4.5930319    1.4959494      1024000 
  479000   0.99726714   -4.5932639   -4.5932639   -3.0973662  0.069484218   -4.5932639    1.4958977      1024000 
  480000   0.99742828   -4.5936339   -4.5936339   -3.0974945  0.067085354   -4.5936339    1.4961394      1024000 
  481000   0.99762517     -4.59371     -4.59371   -3.0972752  0.066814122     -4.59371    1.4964348      1024000 
  482000     0.997498   -4.5930219   -4.5930219   -3.0967779  0.064327305   -4.5930219     1.496244      1024000 
  483000   0.99594439   -4.5908584   -4.5908584   -3.0969448  0.072644435   -4.5908584    1.4939136      1024000 
  484000   0.99795174   -4.5928565   -4.5928565   -3.0959319  0.067234799   -4.5928565    1.4969246      1024000 
  485000   0.99673825   -4.5924862   -4.5924862   -3.0973818  0.071627934   -4.5924862    1.4951044      1024000 
  486000   0.99878815   -4.5951232   -4.5951232    -3.096944  0.067062584   -4.5951232    1.4981792      1024000 
  487000   0.99826356   -4.5939401   -4.5939401   -3.0965478   0.07424198   -4.5939401    1.4973923      1024000 
  488000   0.99826765   -4.5963146   -4.5963146   -3.0989161  0.066644375   -4.5963146    1.4973985      1024000 
  489000   0.99792536   -4.5931022   -4.5931022   -3.0962171    0.0714117   -4.5931022     1.496885      1024000 
  490000   0.99727018   -4.5948164   -4.5948164   -3.0989141  0.066529325   -4.5948164    1.4959023      1024000 
  491000   0.99698529    -4.593675    -4.593675      -3.0982  0.067441782    -4.593675    1.4954749      1024000 
  492000   0.99650467   -4.5939604   -4.5939604   -3.0992063  0.064399378   -4.5939604     1.494754      1024000 
  493000   0.99734998   -4.5938258   -4.5938258   -3.0978038  0.069033983   -4.5938258     1.496022      1024000 
  494000   0.99733116   -4.5931584   -4.5931584   -3.0971646  0.067094522   -4.5931584    1.4959937      1024000 
  495000   0.99711456   -4.5933776   -4.5933776   -3.0977088  0.062909729   -4.5933776    1.4956688      1024000 
  496000   0.99636139   -4.5940641   -4.5940641    -3.099525  0.062800285   -4.5940641    1.4945391      1024000 
  497000   0.99716253    -4.593603    -4.593603   -3.0978622  0.064615582    -4.593603    1.4957408      1024000 
  498000   0.99779448    -4.594829    -4.594829   -3.0981403  0.063360173    -4.594829    1.4966887      1024000 
  499000   0.99710679   -4.5949687   -4.5949687   -3.0993115  0.065050161   -4.5949687    1.4956572      1024000 
  500000   0.99737208   -4.5942714   -4.5942714   -3.0982162  0.065531863   -4.5942714    1.4960551      1024000 
  501000   0.99648823   -4.5940142   -4.5940142   -3.0992849   0.06468956   -4.5940142    1.4947294      1024000 
  502000   0.99660492   -4.5931227   -4.5931227   -3.0982183  0.066774139   -4.5931227    1.4949044      1024000 
  503000   0.99689476   -4.5933624   -4.5933624   -3.0980232  0.066033556   -4.5933624    1.4953391      1024000 
  504000   0.99766297     -4.59406     -4.59406   -3.0975685  0.067999692     -4.59406    1.4964915      1024000 
  505000    0.9969862   -4.5943649   -4.5943649   -3.0988886  0.065239374   -4.5943649    1.4954763      1024000 
  506000   0.99728603   -4.5935057   -4.5935057   -3.0975797  0.069402681   -4.5935057     1.495926      1024000 
  507000   0.99779713   -4.5949658   -4.5949658   -3.0982731  0.066498551   -4.5949658    1.4966927      1024000 
  508000   0.99885886   -4.5963004   -4.5963004   -3.0980151  0.063280192   -4.5963004    1.4982853      1024000 
  509000   0.99858493   -4.5966304   -4.5966304    -3.098756  0.067393908   -4.5966304    1.4978744      1024000 
  510000   0.99681012   -4.5935241   -4.5935241   -3.0983119  0.072652918   -4.5935241    1.4952122      1024000 
  511000    0.9977253   -4.5945412   -4.5945412   -3.0979562  0.065346889   -4.5945412     1.496585      1024000 
  512000   0.99678671   -4.5929632   -4.5929632   -3.0977861  0.065520335   -4.5929632    1.4951771      1024000 
  513000   0.99688746   -4.5947672   -4.5947672    -3.099439  0.066766749   -4.5947672    1.4953282      1024000 
  514000   0.99793987   -4.5949302   -4.5949302   -3.0980234  0.066775117   -4.5949302    1.4969068      1024000 
  515000   0.99593322    -4.594997    -4.594997   -3.1011001  0.066453138    -4.594997    1.4938968      1024000 
  516000   0.99705969   -4.5952353   -4.5952353   -3.0996488  0.065632592   -4.5952353    1.4955865      1024000 
  517000   0.99643688   -4.5939262   -4.5939262   -3.0992739  0.066228907   -4.5939262    1.4946523      1024000 
  518000   0.99747532   -4.5943535   -4.5943535   -3.0981435  0.069380844   -4.5943535      1.49621      1024000 
  519000   0.99608486   -4.5943655   -4.5943655   -3.1002412   0.06555603   -4.5943655    1.4941243      1024000 
  520000   0.99609885   -4.5934214   -4.5934214   -3.0992761  0.068731989   -4.5934214    1.4941453      1024000 
  521000   0.99675683   -4.5957102   -4.5957102    -3.100578  0.064452944   -4.5957102    1.4951322      1024000 
  522000   0.99570771   -4.5933024   -4.5933024   -3.0997438  0.067849023   -4.5933024    1.4935586      1024000 
  523000   0.99509612   -4.5942913   -4.5942913   -3.1016501  0.062460635   -4.5942913    1.4926412      1024000 
  524000   0.99716812   -4.5961626   -4.5961626   -3.1004134  0.066968675   -4.5961626    1.4957492      1024000 
  525000   0.99869331   -4.5963587   -4.5963587   -3.0983217  0.071491231   -4.5963587     1.498037      1024000 
  526000   0.99709883   -4.5936917   -4.5936917   -3.0980465  0.072882867   -4.5936917    1.4956452      1024000 
  527000   0.99874022   -4.5947619   -4.5947619   -3.0966546  0.072158403   -4.5947619    1.4981073      1024000 
  528000   0.99810688   -4.5945435   -4.5945435   -3.0973862  0.066451511   -4.5945435    1.4971573      1024000 
  529000   0.99958969   -4.5945118   -4.5945118   -3.0951303  0.064271286   -4.5945118    1.4993815      1024000 
  530000   0.99654104   -4.5939393   -4.5939393   -3.0991308  0.068270382   -4.5939393    1.4948086      1024000 
  531000   0.99802972   -4.5935911   -4.5935911   -3.0965495  0.070569061   -4.5935911    1.4970416      1024000 
  532000   0.99783453   -4.5931665   -4.5931665   -3.0964177  0.067576215   -4.5931665    1.4967488      1024000 
  533000   0.99550575   -4.5928707   -4.5928707   -3.0996151  0.070590787   -4.5928707    1.4932556      1024000 
  534000   0.99722183   -4.5950231   -4.5950231   -3.0991933   0.06173697   -4.5950231    1.4958298      1024000 
  535000   0.99541712   -4.5911352   -4.5911352   -3.0980125  0.071959324   -4.5911352    1.4931227      1024000 
  536000   0.99514382   -4.5926374   -4.5926374   -3.0999246  0.069540187   -4.5926374    1.4927127      1024000 
  537000   0.99730647   -4.5940825   -4.5940825   -3.0981258  0.061898774   -4.5940825    1.4959567      1024000 
  538000   0.99648829   -4.5920195   -4.5920195   -3.0972901  0.066502938   -4.5920195    1.4947294      1024000 
  539000   0.99690355   -4.5956229   -4.5956229   -3.1002705   0.06033003   -4.5956229    1.4953523      1024000 
  540000   0.99601178   -4.5938067   -4.5938067    -3.099792  0.063939334   -4.5938067    1.4940147      1024000 
  541000   0.99556862   -4.5922004   -4.5922004   -3.0988505  0.069323354   -4.5922004    1.4933499      1024000 
  542000   0.99470408   -4.5905006   -4.5905006   -3.0984474  0.069424539   -4.5905006    1.4920531      1024000 
  543000   0.99449814    -4.592009    -4.592009   -3.1002648  0.069416666    -4.592009    1.4917442      1024000 
  544000   0.99650932   -4.5929245   -4.5929245   -3.0981635  0.069049965   -4.5929245     1.494761      1024000 
  545000   0.99623663   -4.5923962   -4.5923962   -3.0980443  0.065519458   -4.5923962     1.494352      1024000 
  546000   0.99510041   -4.5924932   -4.5924932   -3.0998456  0.064871237   -4.5924932    1.4926476      1024000 
  547000   0.99676867   -4.5933967   -4.5933967   -3.0982467  0.067122574   -4.5933967      1.49515      1024000 
  548000   0.99645505   -4.5933637   -4.5933637   -3.0986841  0.067085473   -4.5933637    1.4946796      1024000 
  549000   0.99677383   -4.5933527   -4.5933527   -3.0981949  0.065250695   -4.5933527    1.4951578      1024000 
  550000   0.99679212   -4.5941998   -4.5941998   -3.0990146  0.061494269   -4.5941998    1.4951852      1024000 
  551000    0.9977493   -4.5939556   -4.5939556   -3.0973346  0.064802284   -4.5939556     1.496621      1024000 
  552000   0.99732998   -4.5938601   -4.5938601   -3.0978681  0.069279525   -4.5938601     1.495992      1024000 
  553000   0.99655015   -4.5947312   -4.5947312   -3.0999089  0.071678448   -4.5947312    1.4948222      1024000 
  554000   0.99595797   -4.5944273   -4.5944273   -3.1004933  0.068049173   -4.5944273     1.493934      1024000 
  555000   0.99600133   -4.5948113   -4.5948113   -3.1008123  0.067654049   -4.5948113     1.493999      1024000 
  556000   0.99669755   -4.5972595   -4.5972595   -3.1022162  0.063549942   -4.5972595    1.4950433      1024000 
  557000   0.99580666   -4.5945383   -4.5945383   -3.1008313  0.065479457   -4.5945383     1.493707      1024000 
  558000   0.99683328    -4.594776    -4.594776    -3.099529  0.067427281    -4.594776    1.4952469      1024000 
  559000   0.99714376   -4.5946831   -4.5946831   -3.0989705  0.074170786   -4.5946831    1.4957126      1024000 
  560000   0.99678002   -4.5932708   -4.5932708   -3.0981038  0.073799205   -4.5932708     1.495167      1024000 
  561000   0.99809019   -4.5952486   -4.5952486   -3.0981163  0.065010307   -4.5952486    1.4971323      1024000 
  562000   0.99757365   -4.5973874   -4.5973874   -3.1010299  0.064816757   -4.5973874    1.4963575      1024000 
  563000   0.99751094   -4.5959581   -4.5959581   -3.0996946  0.072938974   -4.5959581    1.4962634      1024000 
  564000   0.99829503    -4.597146    -4.597146   -3.0997064  0.066875972    -4.597146    1.4974396      1024000 
  565000   0.99807362   -4.5978375   -4.5978375     -3.10073   0.06638829   -4.5978375    1.4971074      1024000 
  566000   0.99787322   -4.5959985   -4.5959985   -3.0991917  0.072295916   -4.5959985    1.4968068      1024000 
  567000   0.99808692   -4.5956085   -4.5956085   -3.0984811  0.070762899   -4.5956085    1.4971274      1024000 
  568000   0.99666941   -4.5945958   -4.5945958   -3.0995946  0.075455694   -4.5945958    1.4950011      1024000 
  569000   0.99789673   -4.5966542   -4.5966542   -3.0998121  0.072265205   -4.5966542    1.4968421      1024000 
  570000   0.99760098   -4.5970534   -4.5970534   -3.1006549  0.063999523   -4.5970534    1.4963985      1024000 
  571000   0.99637176   -4.5952765   -4.5952765   -3.1007219  0.071662092   -4.5952765    1.4945546      1024000 
  572000   0.99748689   -4.5955707   -4.5955707   -3.0993433  0.066986404   -4.5955707    1.4962273      1024000 
  573000   0.99748409   -4.5970968   -4.5970968   -3.1008736  0.065371164   -4.5970968    1.4962231      1024000 
  574000   0.99778014   -4.5966323   -4.5966323   -3.0999651  0.065340009   -4.5966323    1.4966672      1024000 
  575000   0.99565742   -4.5967138   -4.5967138   -3.1032307  0.062834417   -4.5967138    1.4934831      1024000 
  576000   0.99547955     -4.59418     -4.59418   -3.1009636  0.069675449     -4.59418    1.4932163      1024000 
  577000    0.9958448   -4.5951889   -4.5951889   -3.1014247  0.068412583   -4.5951889    1.4937642      1024000 
  578000   0.99632172   -4.5954845   -4.5954845   -3.1010049  0.069493023   -4.5954845    1.4944796      1024000 
  579000   0.99564128    -4.595073    -4.595073   -3.1016141  0.064656332    -4.595073    1.4934589      1024000 
  580000    0.9951402   -4.5928667   -4.5928667   -3.1001594  0.068988593   -4.5928667    1.4927073      1024000 
  581000   0.99648369   -4.5965272   -4.5965272   -3.1018046  0.058696863   -4.5965272    1.4947225      1024000 
  582000   0.99334058   -4.5933966   -4.5933966   -3.1033887  0.066439276   -4.5933966    1.4900079      1024000 
  583000   0.99456127    -4.594102    -4.594102   -3.1022631  0.065441185    -4.594102    1.4918389      1024000 
  584000   0.99536118   -4.5953988   -4.5953988     -3.10236  0.063781698   -4.5953988    1.4930388      1024000 
  585000   0.99753793   -4.5966715   -4.5966715   -3.1003676  0.058674098   -4.5966715    1.4963039      1024000 
  586000   0.99571657   -4.5953243   -4.5953243   -3.1017525  0.066814592   -4.5953243    1.4935719      1024000 
  587000   0.99466601    -4.594617    -4.594617    -3.102621  0.067163904    -4.594617     1.491996      1024000 
  588000   0.99661814   -4.5955788   -4.5955788   -3.1006546  0.070909432   -4.5955788    1.4949242      1024000 
  589000   0.99666946    -4.595555    -4.595555   -3.1005538  0.067975369    -4.595555    1.4950012      1024000 
  590000   0.99635076   -4.5948255   -4.5948255   -3.1003024  0.071749078   -4.5948255    1.4945231      1024000 
  591000   0.99708908   -4.5951919   -4.5951919   -3.0995612  0.074591569   -4.5951919    1.4956306      1024000 
  592000   0.99786752   -4.5974402   -4.5974402    -3.100642  0.063316689   -4.5974402    1.4967983      1024000 
  593000   0.99467559   -4.5953434   -4.5953434    -3.103333   0.07166035   -4.5953434    1.4920104      1024000 
  594000   0.99838595   -4.5975152   -4.5975152   -3.0999393  0.065072685   -4.5975152    1.4975759      1024000 
  595000   0.99485455   -4.5956387   -4.5956387   -3.1033599  0.065518308   -4.5956387    1.4922788      1024000 
  596000   0.99640759   -4.5968256   -4.5968256   -3.1022172  0.064634177   -4.5968256    1.4946084      1024000 
  597000   0.99573067   -4.5971896   -4.5971896   -3.1035966  0.064539375   -4.5971896     1.493593      1024000 
  598000   0.99632371   -4.5962062   -4.5962062   -3.1017237  0.068292987   -4.5962062    1.4944826      1024000 
  599000   0.99656185   -4.5989226   -4.5989226   -3.1040828  0.061208809   -4.5989226    1.4948398      1024000 
  600000    0.9964368    -4.597992    -4.597992   -3.1033397  0.065491536    -4.597992    1.4946522      1024000 
  601000   0.99477192   -4.5951245   -4.5951245   -3.1029696  0.073064368   -4.5951245    1.4921549      1024000 
  602000    0.9960585    -4.598311    -4.598311   -3.1042262  0.061325127    -4.598311    1.4940848      1024000 
  603000   0.99530645   -4.5961863   -4.5961863   -3.1032296  0.064333588   -4.5961863    1.4929567      1024000 
  604000   0.99664474   -4.5969429   -4.5969429   -3.1019788  0.064189232   -4.5969429    1.4949641      1024000 
  605000   0.99631178   -4.5972563   -4.5972563   -3.1027916  0.065162403   -4.5972563    1.4944647      1024000 
  606000   0.99468574   -4.5949961   -4.5949961   -3.1029705  0.071078007   -4.5949961    1.4920256      1024000 
  607000   0.99565639    -4.596504    -4.596504   -3.1030224  0.071555087    -4.596504    1.4934816      1024000 
  608000   0.99519734    -4.596739    -4.596739    -3.103946  0.073231065    -4.596739     1.492793      1024000 
  609000   0.99585089   -4.5967099   -4.5967099   -3.1029366  0.069498664   -4.5967099    1.4937733      1024000 
  610000   0.99644609   -4.5981765   -4.5981765   -3.1035104  0.067987691   -4.5981765    1.4946661      1024000 
  611000   0.99786193   -4.6004228   -4.6004228   -3.1036329  0.060818761   -4.6004228    1.4967899      1024000 
  612000   0.99532735   -4.5973511   -4.5973511   -3.1043631   0.06825489   -4.5973511     1.492988      1024000 
  613000   0.99541101   -4.5952554   -4.5952554   -3.1021419  0.071405931   -4.5952554    1.4931135      1024000 
  614000   0.99693598    -4.598531    -4.598531     -3.10313  0.066357906    -4.598531     1.495401      1024000 
  615000   0.99705508   -4.5992057   -4.5992057   -3.1036261  0.067415566   -4.5992057    1.4955796      1024000 
  616000   0.99585889    -4.596806    -4.596806   -3.1030207  0.072495224    -4.596806    1.4937853      1024000 
  617000   0.99710956   -4.5981267   -4.5981267   -3.1024654  0.069118952   -4.5981267    1.4956613      1024000 
  618000   0.99453428   -4.5972439   -4.5972439   -3.1054455  0.063678826   -4.5972439    1.4917984      1024000 
  619000   0.99478924   -4.5966951   -4.5966951   -3.1045142  0.067165592   -4.5966951    1.4921809      1024000 
  620000   0.99452714   -4.5964207   -4.5964207    -3.104633  0.064430096   -4.5964207    1.4917877      1024000 
  621000   0.99419595   -4.5950947   -4.5950947   -3.1038038  0.070821286   -4.5950947    1.4912909      1024000 
  622000   0.99596472    -4.598787    -4.598787   -3.1048429  0.065727408    -4.598787    1.4939441      1024000 
  623000   0.99553762   -4.5988744   -4.5988744   -3.1055709  0.061281881   -4.5988744    1.4933034      1024000 
  624000   0.99457101   -4.5972421   -4.5972421   -3.1053886  0.067911218   -4.5972421    1.4918535      1024000 
  625000   0.99471054   -4.5973475   -4.5973475   -3.1052847  0.067195957   -4.5973475    1.4920628      1024000 
  626000   0.99530952   -4.5977779   -4.5977779   -3.1048166  0.063688078   -4.5977779    1.4929613      1024000 
  627000   0.99503345   -4.5965945   -4.5965945   -3.1040473   0.06978177   -4.5965945    1.4925472      1024000 
  628000   0.99304175   -4.5931684   -4.5931684   -3.1036088  0.074097198   -4.5931684    1.4895596      1024000 
  629000   0.99454611   -4.5954952   -4.5954952   -3.1036791  0.066513582   -4.5954952    1.4918162      1024000 
  630000   0.99603584   -4.5976959   -4.5976959   -3.1036452  0.064492246   -4.5976959    1.4940508      1024000 
  631000   0.99549812   -4.5984421   -4.5984421   -3.1051979  0.068926725   -4.5984421    1.4932442      1024000 
  632000   0.99597987   -4.5981711   -4.5981711   -3.1042043  0.068636236   -4.5981711    1.4939668      1024000 
  633000   0.99522756   -4.5980209   -4.5980209   -3.1051825    0.0681542   -4.5980209    1.4928383      1024000 
  634000   0.99603893   -4.5966405   -4.5966405   -3.1025851  0.075347173   -4.5966405    1.4940554      1024000 
  635000   0.99531376   -4.5966403   -4.5966403   -3.1036727  0.072199676   -4.5966403    1.4929676      1024000 
  636000   0.99559224   -4.5980331   -4.5980331   -3.1046477  0.069403285   -4.5980331    1.4933854      1024000 
  637000   0.99538972   -4.5987102   -4.5987102   -3.1056286  0.067775481   -4.5987102    1.4930816      1024000 
  638000   0.99479698    -4.598846    -4.598846   -3.1066535  0.072213557    -4.598846    1.4921925      1024000 
  639000   0.99476633   -4.5983032   -4.5983032   -3.1061567  0.072403325   -4.5983032    1.4921465      1024000 
  640000   0.99612586   -4.5995177   -4.5995177   -3.1053319  0.067013799   -4.5995177    1.4941858      1024000 
  641000   0.99731999   -4.5995771   -4.5995771   -3.1036001  0.071496179   -4.5995771     1.495977      1024000 
  642000   0.99628238   -4.5993803   -4.5993803   -3.1049597  0.068527185   -4.5993803    1.4944206      1024000 
  643000   0.99515705   -4.5976522   -4.5976522   -3.1049196  0.072308505   -4.5976522    1.4927326      1024000 
  644000   0.99742088   -4.5995799   -4.5995799   -3.1034515  0.068944527   -4.5995799    1.4961283      1024000 
  645000   0.99614638   -4.5993059   -4.5993059   -3.1050893  0.072525491   -4.5993059    1.4942166      1024000 
  646000   0.99648076   -4.5990779   -4.5990779   -3.1043598  0.071979928   -4.5990779    1.4947181      1024000 
  647000   0.99853634   -4.6013629   -4.6013629   -3.1035613  0.064503194   -4.6013629    1.4978015      1024000 
  648000   0.99577727   -4.5988308   -4.5988308   -3.1051679  0.070553876   -4.5988308    1.4936629      1024000 
  649000   0.99578955   -4.6002719   -4.6002719   -3.1065905  0.065495232   -4.6002719    1.4936813      1024000 
  650000   0.99630355   -4.5980549   -4.5980549   -3.1036026  0.072011718   -4.5980549    1.4944523      1024000 
  651000   0.99502849   -4.5980515   -4.5980515   -3.1055118  0.068507441   -4.5980515    1.4925397      1024000 
  652000   0.99531925   -4.5984059   -4.5984059     -3.10543  0.067839753   -4.5984059    1.4929759      1024000 
  653000   0.99684155    -4.599297    -4.599297   -3.1040377  0.059454185    -4.599297    1.4952593      1024000 
  654000   0.99446719   -4.5983325   -4.5983325   -3.1066347  0.062770843   -4.5983325    1.4916978      1024000 
  655000   0.99534978   -4.5985761   -4.5985761   -3.1055545  0.064769788   -4.5985761    1.4930217      1024000 
  656000   0.99607273   -4.5981683   -4.5981683   -3.1040622  0.070014699   -4.5981683    1.4941061      1024000 
[...]
  837000   0.99514199   -4.6011984   -4.6011984   -3.1084884  0.067815869   -4.6011984      1.49271      1024000 
  838000   0.99572516   -4.6007209   -4.6007209   -3.1071362  0.069014859   -4.6007209    1.4935847      1024000 
  839000   0.99482309   -4.5987608   -4.5987608   -3.1065291  0.066823301   -4.5987608    1.4922317      1024000 
  840000   0.99403358   -4.5987802   -4.5987802   -3.1077328  0.066928873   -4.5987802    1.4910474      1024000 
  841000   0.99358878    -4.597631    -4.597631   -3.1072509  0.070684651    -4.597631    1.4903802      1024000 
  842000   0.99420978   -4.5997372   -4.5997372   -3.1084255  0.067346126   -4.5997372    1.4913117      1024000 
  843000   0.99405072   -4.5991203   -4.5991203   -3.1080472  0.067795917   -4.5991203    1.4910731      1024000 
  844000   0.99497916    -4.599309    -4.599309   -3.1068432  0.068108222    -4.599309    1.4924657      1024000 
  845000   0.99487002   -4.5993928   -4.5993928   -3.1070908  0.070875201   -4.5993928     1.492302      1024000 
  846000   0.99351991   -4.5982823   -4.5982823   -3.1080054  0.068345711   -4.5982823    1.4902769      1024000 
  847000   0.99440081   -4.5979373   -4.5979373   -3.1063391  0.066150852   -4.5979373    1.4915982      1024000 
  848000   0.99549612    -4.597947    -4.597947   -3.1047058  0.069729996    -4.597947    1.4932412      1024000 
  849000   0.99549308   -4.5979005   -4.5979005   -3.1046639  0.071693799   -4.5979005    1.4932366      1024000 
  850000   0.99518041   -4.5989119   -4.5989119   -3.1061443  0.068804735   -4.5989119    1.4927676      1024000 
  851000   0.99641151   -4.5994284   -4.5994284   -3.1048142  0.065223504   -4.5994284    1.4946143      1024000 
  852000   0.99576806   -4.5994911   -4.5994911    -3.105842  0.070830147   -4.5994911    1.4936491      1024000 
  853000   0.99539807   -4.5989249   -4.5989249   -3.1058308  0.071572454   -4.5989249    1.4930941      1024000 
  854000   0.99712141   -4.6005049   -4.6005049   -3.1048258  0.067563183   -4.6005049    1.4956791      1024000 
  855000   0.99575555   -4.5982407   -4.5982407   -3.1046103  0.071864306   -4.5982407    1.4936303      1024000 
  856000   0.99538334   -4.5979298   -4.5979298   -3.1048578  0.068520215   -4.5979298     1.493072      1024000 
  857000   0.99453855   -4.5966193   -4.5966193   -3.1048144  0.071098267   -4.5966193    1.4918048      1024000 
  858000   0.99450504    -4.596369    -4.596369   -3.1046144  0.074531312    -4.596369    1.4917546      1024000 
  859000   0.99459242   -4.5968598   -4.5968598   -3.1049742  0.070789213   -4.5968598    1.4918856      1024000 
  860000   0.99561061   -4.5993015   -4.5993015   -3.1058886  0.063120594   -4.5993015    1.4934129      1024000 
  861000   0.99394267   -4.5969434   -4.5969434   -3.1060324  0.075843623   -4.5969434     1.490911      1024000 
  862000   0.99498188   -4.5988493   -4.5988493   -3.1063795  0.070169772   -4.5988493    1.4924698      1024000 
  863000   0.99642969   -4.5992613   -4.5992613   -3.1046198  0.074092542   -4.5992613    1.4946415      1024000 
  864000   0.99569817   -4.6003165   -4.6003165   -3.1067723  0.066030262   -4.6003165    1.4935443      1024000 
  865000   0.99384213   -4.5977737   -4.5977737   -3.1070135  0.070284426   -4.5977737    1.4907602      1024000 
  866000   0.99358074   -4.5972739   -4.5972739   -3.1069058  0.068705526   -4.5972739    1.4903681      1024000 
  867000   0.99557312   -4.5983546   -4.5983546   -3.1049979   0.07243123   -4.5983546    1.4933567      1024000 
  868000    0.9951496   -4.5988137   -4.5988137   -3.1060923  0.067278412   -4.5988137    1.4927214      1024000 
  869000   0.99494351   -4.5974648   -4.5974648   -3.1050525   0.06898435   -4.5974648    1.4924123      1024000 
  870000     0.995306   -4.5987328   -4.5987328   -3.1057768  0.063011494   -4.5987328     1.492956      1024000 
  871000   0.99504721   -4.5991071   -4.5991071   -3.1065392  0.064493425   -4.5991071    1.4925678      1024000 
  872000   0.99464359   -4.5988951   -4.5988951   -3.1069327  0.067297646   -4.5988951    1.4919624      1024000 
  873000   0.99503325   -4.5974603   -4.5974603   -3.1049134  0.070637855   -4.5974603    1.4925469      1024000 
  874000   0.99541442   -4.5974356   -4.5974356   -3.1043169  0.072804325   -4.5974356    1.4931186      1024000 
  875000   0.99514355   -4.5977435   -4.5977435   -3.1050312  0.069968165   -4.5977435    1.4927123      1024000 
  876000   0.99432819   -4.5982159   -4.5982159   -3.1067266  0.062128104   -4.5982159    1.4914893      1024000 
  877000   0.99457826   -4.5983407   -4.5983407   -3.1064763  0.068816389   -4.5983407    1.4918644      1024000 
  878000   0.99584268   -4.5994541   -4.5994541   -3.1056931  0.066407477   -4.5994541     1.493761      1024000 
  879000   0.99576938   -4.5995858   -4.5995858   -3.1059347  0.065104161   -4.5995858    1.4936511      1024000 
  880000   0.99599939   -4.5974286   -4.5974286   -3.1034325  0.071654514   -4.5974286    1.4939961      1024000 
  881000   0.99495264   -4.5974869   -4.5974869    -3.105061  0.071548729   -4.5974869     1.492426      1024000 
  882000    0.9950697    -4.597361    -4.597361   -3.1047594  0.074234404    -4.597361    1.4926016      1024000 
  883000   0.99461003    -4.597357    -4.597357    -3.105445  0.071526033    -4.597357    1.4919121      1024000 
  884000   0.99503855   -4.5969843   -4.5969843   -3.1044295  0.068992156   -4.5969843    1.4925548      1024000 
  885000   0.99501216   -4.5977388   -4.5977388   -3.1052235  0.070857317   -4.5977388    1.4925153      1024000 
  886000   0.99315155   -4.5962687   -4.5962687   -3.1065444  0.073809259   -4.5962687    1.4897243      1024000 
  887000   0.99483092   -4.5991746   -4.5991746   -3.1069312  0.070936123   -4.5991746    1.4922434      1024000 
  888000   0.99465638   -4.5982392   -4.5982392   -3.1062576  0.069866283   -4.5982392    1.4919816      1024000 
  889000    0.9948859   -4.5979634   -4.5979634   -3.1056375  0.068103041   -4.5979634    1.4923259      1024000 
  890000   0.99498757   -4.5986202   -4.5986202   -3.1061418  0.066340178   -4.5986202    1.4924784      1024000 
  891000   0.99581142   -4.6003666   -4.6003666   -3.1066525  0.063961946   -4.6003666    1.4937141      1024000 
  892000   0.99425826   -4.5985131   -4.5985131   -3.1071287  0.071555644   -4.5985131    1.4913844      1024000 
  893000   0.99544759   -4.5971328   -4.5971328   -3.1039644  0.075914253   -4.5971328    1.4931684      1024000 
  894000   0.99516471   -4.5987496   -4.5987496   -3.1060055  0.066161258   -4.5987496    1.4927441      1024000 
  895000   0.99488403   -4.5975189   -4.5975189   -3.1051958  0.072197166   -4.5975189    1.4923231      1024000 
  896000   0.99466266   -4.5963113   -4.5963113   -3.1043203  0.069625887   -4.5963113     1.491991      1024000 
  897000    0.9950309   -4.5981416   -4.5981416   -3.1055983  0.071675915   -4.5981416    1.4925434      1024000 
  898000   0.99517506   -4.5969886   -4.5969886    -3.104229  0.075096682   -4.5969886    1.4927596      1024000 
  899000   0.99626383   -4.5984444   -4.5984444   -3.1040516  0.075904997   -4.5984444    1.4943928      1024000 
  900000   0.99648943   -4.6008936   -4.6008936   -3.1061625  0.063671667   -4.6008936    1.4947312      1024000 
  901000   0.99639418   -4.5978001   -4.5978001   -3.1032118  0.072409568   -4.5978001    1.4945883      1024000 
  902000   0.99500115   -4.5973329   -4.5973329   -3.1048342  0.072732751   -4.5973329    1.4924987      1024000 
  903000   0.99399378   -4.5956502   -4.5956502   -3.1046625  0.069480281   -4.5956502    1.4909877      1024000 
  904000   0.99419057   -4.5971048   -4.5971048   -3.1058219  0.070500536   -4.5971048    1.4912829      1024000 
  905000     0.995998   -4.5988011   -4.5988011   -3.1048071  0.066248433   -4.5988011     1.493994      1024000 
  906000   0.99439384   -4.5988029   -4.5988029   -3.1072151   0.06437925   -4.5988029    1.4915878      1024000 
  907000   0.99389501   -4.5951516   -4.5951516   -3.1043121  0.067713968   -4.5951516    1.4908395      1024000 
  908000   0.99539419   -4.5977814   -4.5977814   -3.1046931  0.061740919   -4.5977814    1.4930883      1024000 
  909000   0.99464873   -4.5969493   -4.5969493   -3.1049792  0.066864509   -4.5969493    1.4919701      1024000 
  910000   0.99462355   -4.5957683   -4.5957683   -3.1038359  0.067892627   -4.5957683    1.4919323      1024000 
  911000   0.99389215    -4.595678    -4.595678   -3.1048427  0.070189169    -4.595678    1.4908352      1024000 
  912000   0.99513433   -4.5970856   -4.5970856   -3.1043871  0.065895997   -4.5970856    1.4926985      1024000 
  913000   0.99525017    -4.597075    -4.597075   -3.1042027  0.067371989    -4.597075    1.4928723      1024000 
  914000   0.99474195   -4.5957646   -4.5957646   -3.1036547  0.070405122   -4.5957646    1.4921099      1024000 
  915000   0.99667836   -4.5981779   -4.5981779   -3.1031633  0.066192424   -4.5981779    1.4950146      1024000 
  916000     0.995528   -4.5971675   -4.5971675   -3.1038785   0.06930131   -4.5971675     1.493289      1024000 
  917000   0.99477305    -4.596322    -4.596322   -3.1041654  0.069353966    -4.596322    1.4921566      1024000 
  918000   0.99490958   -4.5955186   -4.5955186   -3.1031572  0.072506767   -4.5955186    1.4923614      1024000 
  919000   0.99435334   -4.5952354   -4.5952354   -3.1037084  0.069734769   -4.5952354     1.491527      1024000 
  920000   0.99470529   -4.5948672   -4.5948672   -3.1028123  0.070151141   -4.5948672     1.492055      1024000 
  921000   0.99442223   -4.5951417   -4.5951417   -3.1035113  0.073233874   -4.5951417    1.4916304      1024000 
  922000   0.99490305   -4.5964872   -4.5964872   -3.1041356  0.069966235   -4.5964872    1.4923516      1024000 
  923000   0.99568392   -4.5965018   -4.5965018   -3.1029789  0.069603208   -4.5965018    1.4935229      1024000 
  924000   0.99420067   -4.5963156   -4.5963156   -3.1050176  0.066421212   -4.5963156     1.491298      1024000 
  925000   0.99452994    -4.596077    -4.596077   -3.1042851  0.066173817    -4.596077    1.4917919      1024000 
  926000   0.99445873   -4.5944765   -4.5944765   -3.1027914  0.070097435   -4.5944765    1.4916851      1024000 
  927000   0.99474396   -4.5958865   -4.5958865   -3.1037735  0.069135804   -4.5958865    1.4921129      1024000 
  928000   0.99482341   -4.5976505   -4.5976505   -3.1054183   0.06602208   -4.5976505    1.4922321      1024000 
  929000   0.99433743   -4.5946111   -4.5946111   -3.1031079  0.070390557   -4.5946111    1.4915032      1024000 
  930000   0.99387105   -4.5954409   -4.5954409   -3.1046373  0.068530434   -4.5954409    1.4908036      1024000 
  931000    0.9940024   -4.5957321   -4.5957321   -3.1047315  0.072819545   -4.5957321    1.4910006      1024000 
  932000    0.9950507   -4.5983861   -4.5983861    -3.105813  0.064835483   -4.5983861    1.4925731      1024000 
  933000   0.99520833   -4.5958207   -4.5958207   -3.1030112  0.072111849   -4.5958207    1.4928095      1024000 
  934000   0.99529131   -4.5959867   -4.5959867   -3.1030527  0.068285644   -4.5959867     1.492934      1024000 
  935000   0.99503905   -4.5967094   -4.5967094   -3.1041538  0.073138132   -4.5967094    1.4925556      1024000 
  936000    0.9944842   -4.5955684   -4.5955684    -3.103845  0.069325344   -4.5955684    1.4917233      1024000 
  937000   0.99670068   -4.5988709   -4.5988709   -3.1038229  0.069298182   -4.5988709     1.495048      1024000 
  938000   0.99537301   -4.5968287   -4.5968287   -3.1037722  0.068876763   -4.5968287    1.4930565      1024000 
  939000   0.99389422   -4.5958609   -4.5958609   -3.1050226  0.073232366   -4.5958609    1.4908383      1024000 
  940000   0.99451786   -4.5952472   -4.5952472   -3.1034734  0.076800945   -4.5952472    1.4917738      1024000 
  941000   0.99516355   -4.5946241   -4.5946241   -3.1018817  0.074256354   -4.5946241    1.4927423      1024000 
  942000   0.99663432   -4.5980059   -4.5980059   -3.1030574  0.068971551   -4.5980059    1.4949485      1024000 
  943000   0.99613782   -4.5986679   -4.5986679   -3.1044642  0.066626359   -4.5986679    1.4942037      1024000 
  944000   0.99579446   -4.5967402   -4.5967402   -3.1030515  0.068542405   -4.5967402    1.4936887      1024000 
  945000    0.9956173   -4.5967499   -4.5967499   -3.1033269  0.071343799   -4.5967499     1.493423      1024000 
  946000   0.99649338   -4.5967263   -4.5967263   -3.1019892  0.076183655   -4.5967263    1.4947371      1024000 
  947000   0.99685114   -4.5997164   -4.5997164   -3.1044427  0.069252147   -4.5997164    1.4952737      1024000 
  948000   0.99584707   -4.5976013   -4.5976013   -3.1038337  0.072398195   -4.5976013    1.4937676      1024000 
  949000   0.99728324   -4.5980156   -4.5980156   -3.1020937  0.072329303   -4.5980156    1.4959219      1024000 
  950000   0.99626166   -4.5975251   -4.5975251   -3.1031357  0.073748034   -4.5975251    1.4943895      1024000 
  951000   0.99859687   -4.5980502   -4.5980502   -3.1001579  0.074928209   -4.5980502    1.4978923      1024000 
  952000   0.99572553   -4.5983123   -4.5983123    -3.104727  0.067606362   -4.5983123    1.4935853      1024000 
  953000   0.99447115   -4.5960284   -4.5960284   -3.1043247  0.070132876   -4.5960284    1.4917037      1024000 
  954000   0.99602285   -4.5979952   -4.5979952   -3.1039639  0.069826302   -4.5979952    1.4940313      1024000 
  955000   0.99461734   -4.5962754   -4.5962754   -3.1043524   0.07461594   -4.5962754     1.491923      1024000 
  956000   0.99519732   -4.5982796   -4.5982796   -3.1054866   0.06800535   -4.5982796     1.492793      1024000 
  957000   0.99552727    -4.597519    -4.597519   -3.1042311  0.067619446    -4.597519    1.4932879      1024000 
  958000    0.9954953   -4.5975434   -4.5975434   -3.1043034  0.065080275   -4.5975434      1.49324      1024000 
  959000   0.99372941   -4.5962026   -4.5962026   -3.1056114  0.066259737   -4.5962026    1.4905911      1024000 
  960000   0.99558932   -4.5957411   -4.5957411   -3.1023601  0.068253615   -4.5957411     1.493381      1024000 
  961000   0.99536589   -4.5958778   -4.5958778   -3.1028319  0.076651185   -4.5958778    1.4930459      1024000 
  962000   0.99536549    -4.596151    -4.596151   -3.1031057  0.070608213    -4.596151    1.4930452      1024000 
  963000   0.99552397   -4.5962986   -4.5962986   -3.1030157  0.070296509   -4.5962986     1.493283      1024000 
  964000    0.9941952   -4.5962337   -4.5962337   -3.1049439   0.06499902   -4.5962337    1.4912898      1024000 
  965000   0.99460803   -4.5960218   -4.5960218   -3.1041127  0.070979942   -4.5960218    1.4919091      1024000 
  966000    0.9965262    -4.597128    -4.597128   -3.1023417  0.069578336    -4.597128    1.4947863      1024000 
  967000   0.99649257   -4.5959887   -4.5959887   -3.1012528  0.079949479   -4.5959887    1.4947359      1024000 
  968000   0.99628777     -4.59609     -4.59609   -3.1016613  0.075090186     -4.59609    1.4944287      1024000 
  969000    0.9965031   -4.5962138   -4.5962138   -3.1014621   0.07149697   -4.5962138    1.4947517      1024000 
  970000   0.99616363   -4.5963963   -4.5963963   -3.1021538  0.072399843   -4.5963963    1.4942425      1024000 
  971000   0.99678224   -4.5984431   -4.5984431   -3.1032727  0.070278715   -4.5984431    1.4951704      1024000 
  972000   0.99495415   -4.5962015   -4.5962015   -3.1037733  0.074017553   -4.5962015    1.4924282      1024000 
  973000   0.99601032   -4.5976428   -4.5976428   -3.1036303   0.07126957   -4.5976428    1.4940125      1024000 
  974000   0.99611593   -4.5974683   -4.5974683   -3.1032974  0.069430278   -4.5974683    1.4941709      1024000 
  975000   0.99462409   -4.5952255   -4.5952255   -3.1032923  0.069023251   -4.5952255    1.4919331      1024000 
  976000   0.99565761   -4.5965897   -4.5965897   -3.1031063  0.063504756   -4.5965897    1.4934834      1024000 
  977000   0.99377987   -4.5954442   -4.5954442   -3.1047774  0.063074243   -4.5954442    1.4906668      1024000 
  978000     0.993366   -4.5930696   -4.5930696   -3.1030236  0.070702767   -4.5930696     1.490046      1024000 
  979000   0.99606498   -4.5958193   -4.5958193   -3.1017249  0.066469331   -4.5958193    1.4940945      1024000 
  980000   0.99409604   -4.5945892   -4.5945892   -3.1034481  0.070531668   -4.5945892    1.4911411      1024000 
  981000   0.99604284    -4.596389    -4.596389   -3.1023277  0.071798066    -4.596389    1.4940613      1024000 
  982000   0.99376561   -4.5950275   -4.5950275    -3.104382  0.073997429   -4.5950275    1.4906454      1024000 
  983000   0.99446943   -4.5953461   -4.5953461   -3.1036449  0.070678924   -4.5953461    1.4917012      1024000 
  984000   0.99565927   -4.5967529   -4.5967529    -3.103267  0.072092357   -4.5967529    1.4934859      1024000 
  985000   0.99594167   -4.5963108   -4.5963108   -3.1024013  0.072155636   -4.5963108    1.4939095      1024000 
  986000     0.996611   -4.5957728   -4.5957728   -3.1008593  0.068975071   -4.5957728    1.4949135      1024000 
  987000    0.9945724   -4.5935126   -4.5935126    -3.101657  0.070035474   -4.5935126    1.4918556      1024000 
  988000   0.99462912    -4.593154    -4.593154   -3.1012133  0.074760337    -4.593154    1.4919407      1024000 
  989000   0.99679487   -4.5956589   -4.5956589   -3.1004696  0.070236593   -4.5956589    1.4951893      1024000 
  990000   0.99468487   -4.5934968   -4.5934968   -3.1014725  0.071252649   -4.5934968    1.4920243      1024000 
  991000    0.9952542   -4.5956593   -4.5956593   -3.1027809  0.069377891   -4.5956593    1.4928783      1024000 
  992000   0.99552845   -4.5973411   -4.5973411   -3.1040515   0.06313598   -4.5973411    1.4932897      1024000 
  993000   0.99616913   -4.5965359   -4.5965359   -3.1022852  0.069373703   -4.5965359    1.4942507      1024000 
  994000   0.99364228    -4.594088    -4.594088   -3.1036275  0.073200351    -4.594088    1.4904604      1024000 
  995000   0.99605923   -4.5963132   -4.5963132   -3.1022273   0.07050745   -4.5963132    1.4940859      1024000 
  996000   0.99610845    -4.595632    -4.595632   -3.1014724  0.072162741    -4.595632    1.4941597      1024000 
  997000   0.99627312   -4.5959617   -4.5959617    -3.101555  0.075612014   -4.5959617    1.4944067      1024000 
  998000   0.99569135   -4.5954984   -4.5954984   -3.1019643  0.068247892   -4.5954984     1.493534      1024000 
  999000   0.99627098   -4.5955723   -4.5955723   -3.1011688  0.075560556   -4.5955723    1.4944035      1024000 
 1000000   0.99549125   -4.5962088   -4.5962088   -3.1029749  0.070803939   -4.5962088    1.4932339      1024000 
Loop time of 113519 on 32 procs for 1000000 steps with 499200 atoms

Performance: 1902.767 tau/day, 8.809 timesteps/s
49.8% CPU use with 32 MPI tasks x 1 OpenMP threads

MPI task timing breakdown:
Section |  min time  |  avg time  |  max time  |%varavg|  %CPU | %total
-----------------------------------------------------------------------
Pair    | 31963      | 44408      | 59685      |3131.8 |  71.9 | 39.12
Bond    | 1.2094     | 1.699      | 1.9558     |  11.9 | 100.0 |  0.00
Neigh   | 3646.2     | 5316.2     | 7018.2     |1091.4 |  79.6 |  4.68
Comm    | 42612      | 58078      | 67768      |2729.7 |  31.2 | 51.16
Output  | 36.981     | 51.026     | 69.007     | 152.7 | 100.0 |  0.04
Modify  | 248.89     | 443.23     | 1300.4     |1364.8 |  43.1 |  0.39
Other   |            | 5221       |            |       |       |  4.60

Nlocal:    15600 ave 16191 max 13903 min
Histogram: 2 1 0 1 0 0 4 8 5 11
Nghost:    22760.2 ave 25259 max 15736 min
Histogram: 4 4 0 0 0 0 0 0 0 24
Neighs:    2.41474e+06 ave 2.62781e+06 max 1.49408e+06 min
Histogram: 3 1 0 0 0 0 0 0 7 21

Total # of neighbors = 77271569
Ave neighs/atom = 154.791
Ave special neighs/atom = 0
Neighbor list builds = 66657
Dangerous builds = 642
Total wall time: 31:32:00
