LAMMPS (29 Oct 2020)
  using 1 OpenMP thread(s) per MPI task
#Read the equilibrated lj fluid and add nanocubes

units           lj
atom_style      full
#atom_modify     map array first cubes
dimension       3
boundary        p p f
pair_style      lj/cut/opt 2.5

variable        sigma           equal 1.0
variable        epsilon         equal 1.0
read_restart	restart.dat.10000000
Reading restart file ...
  restart file = 29 Oct 2020, LAMMPS = 29 Oct 2020
WARNING: Restart file used different # of processors: 64 vs. 128 (src/read_restart.cpp:697)
  restoring atom style full from restart
  orthogonal box = (0.0000000 0.0000000 0.0000000) to (80.000000 80.000000 160.00000)
  4 by 4 by 8 MPI processor grid
  restoring pair style lj/cut/opt from restart
  507356 atoms
Finding 1-2 1-3 1-4 neighbors ...
  special bond factors lj:    0.0      0.0      0.0     
  special bond factors coul:  0.0      0.0      0.0     
     0 = max # of 1-2 neighbors
     0 = max # of 1-3 neighbors
     0 = max # of 1-4 neighbors
     1 = max # of special neighbors
  special bonds CPU = 12.420 seconds
  read_restart CPU = 13.071 seconds

group		solvent type 1
307331 atoms in group solvent
group 		hull  type 2
78050 atoms in group hull
group 		dummy type 3
121975 atoms in group dummy

neighbor      0.4 bin
neigh_modify  exclude molecule/intra cubes

pair_modify   shift yes

pair_coeff    1 1 1.0 1.0 #solvent
pair_coeff    2 2 1.0 1.0 1.12 #np
pair_coeff    3 3 0.0 0.0 0.0 #dummy
pair_coeff    2 3 0.0 0.0 0.0 #np dummy
pair_coeff    1 2 ${sol} 1.0  #np solvent
pair_coeff    1 2 0.75 1.0  
pair_coeff    1 3 0.0 0.0 0.0 #dummy solvent


comm_modify   mode multi cutoff/multi 1 2.5 cutoff/multi 2 2.5 cutoff/multi 3 6.95

reset_timestep 	0

balance 	1.05 shift z 10 1.05
Balancing ...
Unused restart file global fix info:
  fix style: STORE, fix ID: msd_COMPUTE_STORE
Unused restart file peratom fix info:
  fix style: STORE, fix ID: bin1_COMPUTE_STORE
  fix style: STORE, fix ID: bin3_COMPUTE_STORE
Neighbor list info ...
  update every 1 steps, delay 10 steps, check yes
  max neighbors/atom: 2000, page size: 100000
  master list distance cutoff = 2.9
  ghost atom cutoff = 6.95
  binsize = 1.45, bins = 56 56 111
  1 neighbor lists, perpetual/occasional/extra = 1 0 0
  (1) pair lj/cut/opt, perpetual
      attributes: half, newton on
      pair build: half/bin/newton
      stencil: half/bin/3d/newton
      bin: standard
 rebalancing time: 0.014 seconds
  iteration count = 5
  initial/final maximal load/proc = 6638.0000 4795.0000
  initial/final imbalance factor  = 1.6746900 1.2097226
  x cuts: 0.0000000 0.25 0.5 0.75 1.0000000
  y cuts: 0.0000000 0.25 0.5 0.75 1.0000000
  z cuts: 0.0000000 0.10546875 0.19140625 0.27734375 0.3671875 0.4609375 0.5390625 0.6328125 1.0000000

####################### WALLS ###########################

variable       epsilonWall equal 2*${epsilon}
variable       epsilonWall equal 2*1
variable       repulsive   equal   0.7147*${sigma}
variable       repulsive   equal   0.7147*1
variable       full	   equal   3*${sigma}
variable       full	   equal   3*1
region         lowWall block EDGE EDGE EDGE EDGE EDGE 2

fix            topWall all wall/lj93 zhi EDGE 	       ${epsilonWall} ${sigma} ${repulsive} units box
fix            topWall all wall/lj93 zhi EDGE 	       2 ${sigma} ${repulsive} units box
fix            topWall all wall/lj93 zhi EDGE 	       2 1 ${repulsive} units box
fix            topWall all wall/lj93 zhi EDGE 	       2 1 0.7147 units box
fix            lowSol solvent wall/lj93 zlo EDGE                ${epsilonWall} ${sigma} ${full} units box
fix            lowSol solvent wall/lj93 zlo EDGE                2 ${sigma} ${full} units box
fix            lowSol solvent wall/lj93 zlo EDGE                2 1 ${full} units box
fix            lowSol solvent wall/lj93 zlo EDGE                2 1 3 units box
fix 	       lowCub cubes wall/lj93 zlo EDGE                ${epsilonWall} ${sigma} ${repulsive} units box
fix 	       lowCub cubes wall/lj93 zlo EDGE                2 ${sigma} ${repulsive} units box
fix 	       lowCub cubes wall/lj93 zlo EDGE                2 1 ${repulsive} units box
fix 	       lowCub cubes wall/lj93 zlo EDGE                2 1 0.7147 units box


###################### COMPUTES ##########################

compute        bin1 solvent chunk/atom bin/1d z lower 1.0 units box
compute        bin3 solvent chunk/atom bin/3d x lower 5.0 y lower 5.0 z lower 5.0 units box

compute 	pe solvent 	   pe/atom
compute 	pe2 all 	   pe/atom

######################  FIXES ############################


fix             peclet solvent ave/chunk 10 10 10000 bin1 density/number norm                  none ave one file density.profile

fix              temp solvent ave/chunk 10 10 10000 bin1 temp norm                  none ave one file temp.profile

fix 		 dens solvent ave/chunk 10 10 500000 bin3 density/number norm 		 none ave one file dens3.profile

fix		 temp2 solvent ave/chunk 10 10 500000 bin3 temp norm none ave one file temp3.profile

fix 		pe solvent ave/chunk 1 1 500000 bin3 c_pe norm none ave one file pe3.profile



################### INTEGRATION

fix             1 cubes rigid/nve/small molecule
  create bodies CPU = 0.014 seconds
  175 rigid bodies with 200025 atoms
  6.9282032 = max distance from body owner to body atom

fix             2 solvent nve



## Thermostat
region          regthermo block EDGE EDGE EDGE EDGE 0 15
group           thermo dynamic solvent region regthermo every 1000
dynamic group thermo defined
fix             3 thermo langevin ${temp} ${temp} 10 156453
fix             3 thermo langevin 1.0 ${temp} 10 156453
fix             3 thermo langevin 1.0 1.0 10 156453

## Evaporation
region		regevap block EDGE EDGE EDGE EDGE 140 EDGE
fix 		4 solvent evaporate ${evap} 1 regevap 156415
fix 		4 solvent evaporate 85 1 regevap 156415


#### Load balancing

fix             bal all balance 1000 1.05 shift z 10 1.05

############### Diagnostics and computes ###################

compute        	com cubes          rigid/local   1 mol x y z
compute        	quat cubes         rigid/local   1 mol quatw quati quatj quatk

compute 	cc2 cubes 	   chunk/atom 	 molecule
compute 	msd cubes 	   msd/chunk 	 cc2

fix 		msd all ave/time  1 1 10000 c_msd[*] file dump.msd ave one mode vector

dump            1 all custom 500000 dump.lammpstrj id mol type x y z vx vy vz c_pe2
dump		sol  solvent custom 500000 dump.soltrj id x y z vx vy vz c_pe
dump		cubetrj cubes custom 500000 cubes.lammpstrj id mol type x y z vx vy vz
dump            com cubes local 500000 dump.*.xyz c_com[*]
dump	        xyz hull xyz 500000 cubes.xyz
#dump            quat cubes      local 100000 dump.*.quat c_quat[*]
dump		order cubes 	local 100000 dump.*.order c_com[*] c_quat[*]
#dump		mol cubes molfile 10000 mol.xyz xyz


dump            2 all image 100000 image.*.png type type zoom 1.5 size 1280 720
dump_modify     2 pad 8
dump		image cubes image 100000 image_cubes.*.png type type zoom 1.5 size 1280 720
dump_modify	image pad 8
dump            3 all movie 5000 movie.avi type type zoom 1.5 size 1280 720
dump		4 cubes movie 5000 movie_cubes.avi type type size 1280 720


thermo          1000
thermo_style    custom step temp epair evdwl etotal press pe ke atoms

restart         1000000 restart.dat
timestep        0.005
timer           full
New timer settings: style=full  mode=nosync  timeout=off

run 		${steps}
run 		30000000
Per MPI rank memory allocation (min/avg/max) = 18.99 | 26.21 | 28.20 Mbytes
Step Temp E_pair E_vdwl TotEng Press PotEng KinEng Atoms 
       0    1.0091655   -1.9917223   -1.9917223   -1.0737277  0.004094757   -1.9917223   0.91799457   507356 
    1000    1.0079287   -1.9907436   -1.9907436   -1.0738541  0.072635675   -1.9907436   0.91688944   507345 
    2000    1.0081799   -1.9908285   -1.9908285    -1.073689  0.065013441   -1.9908285   0.91713956   507333 
    3000    1.0092657   -1.9910117   -1.9910117   -1.0728627  0.066309762   -1.9910117   0.91814905   507321 
    4000    1.0074128   -1.9897853   -1.9897853   -1.0733002  0.063139884   -1.9897853    0.9164851   507309 
    5000    1.0066443   -1.9897984   -1.9897984   -1.0739926  0.071103962   -1.9897984   0.91580581   507298 
    6000    1.0065372   -1.9901656   -1.9901656   -1.0744355  0.060110191   -1.9901656    0.9157301   507286 
    7000    1.0074418   -1.9908384   -1.9908384   -1.0742636  0.063920585   -1.9908384   0.91657478   507274 
    8000    1.0088336   -1.9922809   -1.9922809   -1.0744181  0.064537772   -1.9922809   0.91786275   507262 
    9000    1.0074348   -1.9910128   -1.9910128   -1.0744028  0.058473699   -1.9910128   0.91660998   507251 
   10000    1.0084082    -1.991203    -1.991203   -1.0736856  0.068320486    -1.991203   0.91751731   507239 
   11000    1.0067479   -1.9900676   -1.9900676   -1.0740393  0.064540284   -1.9900676   0.91602833   507227 
   12000    1.0066636   -1.9912427   -1.9912427   -1.0752694  0.069317332   -1.9912427   0.91597327   507215 
   13000    1.0073476   -1.9913901   -1.9913901   -1.0747746  0.071046038   -1.9913901    0.9166155   507204 
   14000    1.0090451   -1.9929484   -1.9929484   -1.0747666  0.061660139   -1.9929484   0.91818183   507192 
   15000    1.0089793   -1.9932764   -1.9932764   -1.0751327  0.066374517   -1.9932764   0.91814369   507180 
   16000    1.0060345   -1.9913428   -1.9913428   -1.0758572  0.076958762   -1.9913428   0.91548568   507168 
   17000     1.008337   -1.9932744   -1.9932744   -1.0756718  0.060719971   -1.9932744   0.91760264   507156 
   18000    1.0078029   -1.9924567   -1.9924567   -1.0753202  0.076637237   -1.9924567   0.91713651   507145 
   19000    1.0100922   -1.9948047   -1.9948047   -1.0755631  0.066614259   -1.9948047   0.91924158   507133 
   20000    1.0082425   -1.9938875   -1.9938875   -1.0763076   0.07454407   -1.9938875   0.91757996   507121 
   21000    1.0070915   -1.9932676   -1.9932676   -1.0767134   0.07306902   -1.9932676   0.91655417   507109 
   22000     1.009936   -1.9954747   -1.9954747   -1.0763119  0.069220177   -1.9954747   0.91916288   507098 
   23000    1.0071609   -1.9938882   -1.9938882   -1.0772292  0.072564578   -1.9938882   0.91665895   507086 
   24000    1.0078143   -1.9946366   -1.9946366   -1.0773612  0.070005034   -1.9946366   0.91727534   507074 
   25000    1.0087629   -1.9954856   -1.9954856   -1.0773251  0.070565509   -1.9954856   0.91816045   507062 
   26000    1.0079228   -1.9945301   -1.9945301   -1.0771144   0.07624566   -1.9945301   0.91741571   507051 
   27000    1.0065834   -1.9942143   -1.9942143    -1.077996  0.068630192   -1.9942143   0.91621825   507039 
   28000    1.0085692   -1.9966173   -1.9966173   -1.0785698   0.06414301   -1.9966173   0.91804748   507027 
   29000    1.0067885   -1.9953698   -1.9953698   -1.0789215  0.071395579   -1.9953698   0.91644831   507015 
   30000    1.0074612   -1.9955148   -1.9955148   -1.0784342  0.072938436   -1.9955148   0.91708054   507004 
   31000      1.00886   -1.9978887   -1.9978887   -1.0795131   0.06547852   -1.9978887   0.91837558   506992 
   32000    1.0088632   -1.9975968   -1.9975968   -1.0791966  0.072847351   -1.9975968   0.91840023   506980 
   33000    1.0053762   -1.9946903   -1.9946903   -1.0794427  0.068771953   -1.9946903   0.91524758   506968 
   34000    1.0059228   -1.9942104   -1.9942104   -1.0784435  0.063724541   -1.9942104   0.91576683   506956 
   35000    1.0068455   -1.9946463   -1.9946463   -1.0780195  0.069070832   -1.9946463   0.91662675   506945 
   36000    1.0070991   -1.9940242   -1.9940242   -1.0771449  0.070311572   -1.9940242   0.91687929   506933 
   37000    1.0080158   -1.9954679   -1.9954679   -1.0777323  0.065286529   -1.9954679   0.91773559   506921 
   38000    1.0061288   -1.9945738   -1.9945738   -1.0785345  0.063355047   -1.9945738   0.91603933   506909 
   39000    1.0059167   -1.9941425   -1.9941425   -1.0782765  0.071466419   -1.9941425   0.91586602   506898 
   40000    1.0081629   -1.9958563   -1.9958563   -1.0779234  0.070148725   -1.9958563   0.91793291   506886 
   41000    1.0066513   -1.9948359   -1.9948359   -1.0782576  0.068823001   -1.9948359   0.91657826   506874 
   42000    1.0063981   -1.9947527   -1.9947527   -1.0783832  0.067241673   -1.9947527   0.91636948   506862 
   43000    1.0044238   -1.9930581   -1.9930581   -1.0784664  0.065026888   -1.9930581   0.91459164   506851 
   44000    1.0050585   -1.9937547   -1.9937547   -1.0785635  0.064353562   -1.9937547   0.91519125   506839 
   45000    1.0058566   -1.9949709   -1.9949709   -1.0790312  0.056766143   -1.9949709   0.91593968   506827 
   46000    1.0063781   -1.9942831   -1.9942831   -1.0778469  0.070289795   -1.9942831   0.91643625   506815 
   47000    1.0049492   -1.9933472   -1.9933472   -1.0781923  0.067342522   -1.9933472   0.91515488   506804 
   48000    1.0064614   -1.9949775   -1.9949775   -1.0784239  0.061644052   -1.9949775   0.91655366   506792 
   49000    1.0072326   -1.9948145   -1.9948145   -1.0775369  0.062925661   -1.9948145   0.91727768   506780 
   50000    1.0054369   -1.9938445   -1.9938445   -1.0781804  0.072222108   -1.9938445   0.91566406   506768 
   51000    1.0046509   -1.9939881   -1.9939881   -1.0790182  0.068377211   -1.9939881   0.91496993   506756 
   52000    1.0057336   -1.9946548   -1.9946548    -1.078679  0.072579123   -1.9946548    0.9159758   506745 
   53000    1.0060566     -1.99507     -1.99507   -1.0787783  0.069818716     -1.99507   0.91629168   506733 
   54000    1.0054218   -1.9947696   -1.9947696   -1.0790344  0.074593644   -1.9947696    0.9157352   506721 
   55000    1.0058751    -1.995272    -1.995272   -1.0791022  0.074095181    -1.995272   0.91616979   506709 
   56000    1.0069945   -1.9960898   -1.9960898   -1.0788805  0.061932474   -1.9960898   0.91720926   506698 
   57000     1.005048   -1.9946324   -1.9946324   -1.0791744  0.070550953   -1.9946324   0.91545799   506686 
   58000    1.0054751   -1.9955147   -1.9955147   -1.0796459  0.071276873   -1.9955147   0.91586876   506674 
   59000    1.0059974   -1.9964933   -1.9964933   -1.0801271  0.062291373   -1.9964933   0.91636615   506662 
   60000    1.0059914   -1.9962933   -1.9962933   -1.0799126  0.065299512   -1.9962933   0.91638063   506651 
   61000    1.0061366   -1.9972355   -1.9972355   -1.0807008  0.075004574   -1.9972355   0.91653463   506639 
   62000    1.0057694   -1.9972966   -1.9972966   -1.0810748  0.067243385   -1.9972966   0.91622178   506627 
   63000     1.005092   -1.9962541   -1.9962541   -1.0806277  0.071537055   -1.9962541   0.91562642   506615 
   64000    1.0054505   -1.9976744   -1.9976744   -1.0817015  0.063960682   -1.9976744   0.91597287   506604 
   65000    1.0048771   -1.9974791   -1.9974791   -1.0820069   0.06607169   -1.9974791   0.91547221   506592 
   66000    1.0046145    -1.996776    -1.996776   -1.0815214  0.066134525    -1.996776   0.91525465   506580 
   67000    1.0059469   -1.9971724   -1.9971724   -1.0806822  0.063638726   -1.9971724   0.91649022   506568 
   68000    1.0044043   -1.9960311   -1.9960311   -1.0809246   0.07808791   -1.9960311   0.91510648   506556 
   69000     1.006962   -1.9979843   -1.9979843   -1.0805276  0.064633728   -1.9979843   0.91745669   506545 
   70000    1.0064835   -1.9963428   -1.9963428   -1.0793003  0.068763941   -1.9963428   0.91704245   506533 
   71000      1.00748    -1.996149    -1.996149   -1.0781768  0.072846712    -1.996149   0.91797219   506521 
   72000     1.008178   -1.9966443   -1.9966443   -1.0780143   0.07163978   -1.9966443   0.91862993   506509 
   73000    1.0076424   -1.9963797   -1.9963797   -1.0782179  0.072742248   -1.9963797   0.91816185   506498 
   74000    1.0056668   -1.9944587   -1.9944587   -1.0780754  0.078512903   -1.9944587   0.91638334   506486 
   75000     1.006714   -1.9972537   -1.9972537   -1.0798943  0.069792228   -1.9972537   0.91735935   506474 
   76000    1.0055832   -1.9962932   -1.9962932   -1.0799426  0.071438333   -1.9962932    0.9163506   506462 
   77000     1.005727   -1.9961119   -1.9961119   -1.0796104  0.073131442   -1.9961119   0.91650154   506451 
   78000    1.0037182   -1.9944026   -1.9944026     -1.07971  0.060499729   -1.9944026   0.91469268   506439 
   79000    1.0060321   -1.9969216   -1.9969216   -1.0800986  0.053862695   -1.9969216   0.91682303   506427 
   80000    1.0028917   -1.9940754   -1.9940754   -1.0800926  0.069549686   -1.9940754   0.91398277   506415 
   81000    1.0047415   -1.9958596   -1.9958596   -1.0801711  0.073470991   -1.9958596    0.9156885   506404 
   82000    1.0068736   -1.9971922   -1.9971922   -1.0795389  0.063561793   -1.9971922   0.91765334   506392 
   83000    1.0044304   -1.9959482   -1.9959482   -1.0804999   0.07279904   -1.9959482    0.9154483   506380 
   84000    1.0050149   -1.9956936   -1.9956936   -1.0796908  0.071765575   -1.9956936   0.91600277   506368 
   85000    1.0044579   -1.9952922   -1.9952922   -1.0797754  0.066277726   -1.9952922   0.91551676   506356 
   86000    1.0060472   -1.9950966   -1.9950966   -1.0781114  0.062647815   -1.9950966   0.91698527   506345 
   87000    1.0052318   -1.9955908   -1.9955908    -1.079327  0.082327223   -1.9955908   0.91626377   506333 
   88000    1.0021371   -1.9948057   -1.9948057   -1.0813411  0.078892516   -1.9948057   0.91346462   506321 
   89000    1.0060835   -1.9981886   -1.9981886   -1.0811051  0.067638201   -1.9981886   0.91708351   506309 
   90000    1.0042136   -1.9960302   -1.9960302   -1.0806312  0.070113008   -1.9960302   0.91539899   506298 
   91000    1.0050139   -1.9962109   -1.9962109   -1.0800607   0.06553808   -1.9962109   0.91615018   506286 
   92000    1.0044561   -1.9959727   -1.9959727   -1.0803093  0.068770424   -1.9959727   0.91566342   506274 
   93000    1.0059807   -1.9973457   -1.9973457   -1.0802707   0.06433212   -1.9973457   0.91707495   506262 
   94000    1.0057107   -1.9970737   -1.9970737    -1.080225  0.068911838   -1.9970737   0.91684872   506251 
   95000    1.0053869   -1.9961915   -1.9961915   -1.0796162  0.055883885   -1.9961915   0.91657529   506239 
   96000    1.0052005   -1.9955532   -1.9955532   -1.0791261  0.067519611   -1.9955532   0.91642706   506227 
   97000    1.0053689   -1.9957992   -1.9957992   -1.0791969  0.071382665   -1.9957992   0.91660233   506215 
   98000    1.0051549   -1.9962627   -1.9962627   -1.0798356  0.081053863   -1.9962627   0.91642713   506204 
   99000    1.0056822   -1.9957008   -1.9957008   -1.0787712  0.064839107   -1.9957008   0.91692963   506192 
  100000    1.0060893   -1.9962576   -1.9962576   -1.0789351  0.066698952   -1.9962576   0.91732252   506180 
  101000    1.0060566   -1.9966753   -1.9966753   -1.0793608  0.071562988   -1.9966753   0.91731446   506168 
  102000    1.0062069   -1.9971732   -1.9971732   -1.0796999  0.072339342   -1.9971732   0.91747332   506156 
  103000    1.0047794   -1.9963368   -1.9963368   -1.0801453  0.072141293   -1.9963368   0.91619155   506145 
  104000    1.0042481   -1.9960159   -1.9960159    -1.080287  0.067547989   -1.9960159   0.91572887   506133 
  105000    1.0048147   -1.9958248   -1.9958248   -1.0795575  0.073319174   -1.9958248   0.91626722   506121 
  106000    1.0047598    -1.996219    -1.996219   -1.0799801  0.068498772    -1.996219   0.91623889   506109 
  107000    1.0034146   -1.9955049   -1.9955049   -1.0804728  0.073551578   -1.9955049   0.91503211   506098 
  108000    1.0039564   -1.9959909   -1.9959909    -1.080443  0.065102627   -1.9959909   0.91554784   506086 
  109000    1.0027794   -1.9944015   -1.9944015   -1.0799053    0.0670139   -1.9944015   0.91449622   506074 
  110000    1.0049537   -1.9953046   -1.9953046   -1.0788038  0.066371518   -1.9953046   0.91650082   506062 
  111000    1.0014848   -1.9932055   -1.9932055   -1.0798484   0.06339059   -1.9932055   0.91335709   506051 
  112000    1.0032248   -1.9934181   -1.9934181   -1.0784524  0.066840398   -1.9934181    0.9149657   506039 
  113000    1.0035979   -1.9940937   -1.9940937    -1.078766  0.056872683   -1.9940937   0.91532766   506027 
  114000    1.0033711   -1.9924495   -1.9924495    -1.077307  0.069513918   -1.9924495   0.91514252   506015 
  115000    1.0031843   -1.9930367   -1.9930367   -1.0780447  0.071580503   -1.9930367   0.91499197   506004 
  116000     1.003775    -1.993825    -1.993825   -1.0782725  0.067390212    -1.993825    0.9155525   505992 
  117000    1.0025906   -1.9921111   -1.9921111   -1.0776172  0.062784533   -1.9921111   0.91449388   505980 
  118000    1.0043978   -1.9940059   -1.9940059   -1.0778419  0.055956667   -1.9940059   0.91616406   505968 
  119000    1.0017773   -1.9907375   -1.9907375   -1.0769421  0.072685944   -1.9907375   0.91379538   505956 
  120000    1.0020536    -1.991431    -1.991431   -1.0773637   0.06744674    -1.991431   0.91406731   505945 
  121000    1.0030458   -1.9924869   -1.9924869   -1.0774928  0.061957189   -1.9924869    0.9149941   505933 
  122000    1.0031078   -1.9925784   -1.9925784   -1.0775061  0.062266166   -1.9925784   0.91507236   505921 
  123000    1.0016713   -1.9914444   -1.9914444   -1.0776608  0.068286427   -1.9914444   0.91378362   505909 
  124000    1.0012298   -1.9910952   -1.9910952   -1.0776945  0.067754068   -1.9910952    0.9134007   505898 
  125000    1.0010775   -1.9918276   -1.9918276   -1.0785442  0.064442732   -1.9918276   0.91328344   505886 
  126000    1.0016629   -1.9929141   -1.9929141    -1.079075  0.070273311   -1.9929141   0.91383913   505874 
  127000    1.0020362   -1.9925083   -1.9925083   -1.0783068  0.077591092   -1.9925083   0.91420142   505862 
  128000    1.0047577   -1.9949087   -1.9949087   -1.0782044  0.070595745   -1.9949087   0.91670431   505851 
  129000    1.0048097   -1.9947459   -1.9947459   -1.0779725  0.070817201   -1.9947459   0.91677345   505839 
  130000    1.0043504   -1.9945418   -1.9945418   -1.0781656  0.069863146   -1.9945418   0.91637612   505827 
  131000    1.0045063   -1.9935992   -1.9935992   -1.0770591  0.077178058   -1.9935992   0.91654009   505815 
  132000    1.0052012   -1.9944625   -1.9944625   -1.0772683  0.070856426   -1.9944625   0.91719415   505804 
  133000    1.0046844   -1.9948265   -1.9948265   -1.0780822  0.065929989   -1.9948265   0.91674435   505792 
  134000    1.0032524   -1.9940962   -1.9940962   -1.0786368  0.063991666   -1.9940962   0.91545941   505780 
  135000    1.0039021   -1.9952371   -1.9952371   -1.0791631  0.064624579   -1.9952371   0.91607395   505768 
  136000    1.0026166   -1.9937439   -1.9937439   -1.0788213  0.067862013   -1.9937439   0.91492261   505756 
  137000    1.0038927   -1.9945585   -1.9945585   -1.0784515  0.071172255   -1.9945585   0.91610701   505745 
  138000    1.0055088   -1.9960665   -1.9960665   -1.0784629  0.060067053   -1.9960665   0.91760356   505733 
  139000    1.0033195    -1.994784    -1.994784   -1.0791566  0.076044157    -1.994784   0.91562743   505721 
  140000     1.002669   -1.9960056   -1.9960056   -1.0809502  0.067800409   -1.9960056   0.91505546   505709 
  141000    1.0033602   -1.9956055   -1.9956055   -1.0798993  0.074595716   -1.9956055   0.91570623   505698 
  142000     1.002023   -1.9942128   -1.9942128   -1.0797053  0.062285693   -1.9942128   0.91450754   505686 
  143000    1.0046984   -1.9959912   -1.9959912   -1.0790202  0.057822308   -1.9959912   0.91697101   505674 
  144000    1.0026835   -1.9938959   -1.9938959   -1.0787421  0.069860862   -1.9938959   0.91515382   505662 
  145000    1.0031484    -1.994301    -1.994301    -1.078703  0.072805352    -1.994301   0.91559803   505651 
  146000    1.0040459   -1.9950821   -1.9950821   -1.0786432  0.072454727   -1.9950821   0.91643889   505639 
  147000    1.0032497   -1.9936048   -1.9936048   -1.0778708   0.06724815   -1.9936048   0.91573398   505627 
  148000    1.0026947   -1.9936956   -1.9936956   -1.0784466  0.067698987   -1.9936956   0.91524905   505615 
  149000    1.0025629   -1.9941834   -1.9941834   -1.0790347   0.06277758   -1.9941834    0.9151487   505604 
  150000    1.0031482   -1.9946868   -1.9946868   -1.0789822  0.065321628   -1.9946868   0.91570463   505592 
  151000    1.0029688    -1.993396    -1.993396   -1.0778334  0.077610874    -1.993396   0.91556264   505580 
  152000    1.0030484   -1.9931947   -1.9931947   -1.0775376  0.068023103   -1.9931947   0.91565705   505568 
  153000    1.0056978   -1.9937626   -1.9937626   -1.0756653  0.072237303   -1.9937626   0.91809737   505556 
  154000     1.004437    -1.993708    -1.993708   -1.0767416  0.064800432    -1.993708    0.9169664   505545 
  155000    1.0067594    -1.995282    -1.995282   -1.0761737  0.052919071    -1.995282   0.91910835   505533 
  156000    1.0042806   -1.9930763   -1.9930763   -1.0762092  0.075471956   -1.9930763   0.91686713   505521 
  157000    1.0054384   -1.9944815   -1.9944815   -1.0765356  0.069379731   -1.9944815   0.91794589   505509 
  158000    1.0044488   -1.9938592   -1.9938592   -1.0767968  0.065674666   -1.9938592   0.91706244   505498 
  159000    1.0036991   -1.9930811   -1.9930811   -1.0766813  0.063754886   -1.9930811   0.91639972   505486 
  160000    1.0030782   -1.9930689   -1.9930689   -1.0772145  0.069213526   -1.9930689   0.91585449   505474 
  161000    1.0017906   -1.9920624   -1.9920624   -1.0773618  0.057562065   -1.9920624    0.9147006   505462 
  162000    1.0021509    -1.992184    -1.992184   -1.0771345  0.068812928    -1.992184   0.91504952   505451 
  163000    1.0022642   -1.9926178   -1.9926178   -1.0774431  0.065190362   -1.9926178    0.9151747   505439 
  164000    1.0018015   -1.9911708   -1.9911708   -1.0763968  0.068129721   -1.9911708   0.91477395   505427 
  165000    1.0012824   -1.9918496   -1.9918496    -1.077528  0.073461861   -1.9918496   0.91432159   505415 
  166000    1.0006636   -1.9910784   -1.9910784    -1.077302  0.072060206   -1.9910784   0.91377644   505404 
  167000    1.0022884   -1.9914351   -1.9914351   -1.0761533   0.06581161   -1.9914351   0.91528187   505392 
  168000    1.0028949   -1.9925941   -1.9925941   -1.0767366  0.075084194   -1.9925941   0.91585746   505380 
  169000    1.0040086   -1.9939292   -1.9939292    -1.077033  0.066336802   -1.9939292   0.91689627   505368 
  170000    1.0023657   -1.9917376   -1.9917376   -1.0763199  0.064906291   -1.9917376   0.91541769   505356 
  171000    1.0032997   -1.9932923   -1.9932923   -1.0770017  0.085229064   -1.9932923   0.91629059   505345 
  172000    1.0024936   -1.9925055   -1.9925055   -1.0769294  0.075309592   -1.9925055   0.91557615   505333 
  173000    1.0015457   -1.9925641   -1.9925641   -1.0778319  0.068975992   -1.9925641   0.91473218   505321 
  174000    1.0006961   -1.9922441   -1.9922441   -1.0782663  0.058006732   -1.9922441   0.91397789   505309 
  175000    1.0014033    -1.993024    -1.993024   -1.0783803  0.065217205    -1.993024    0.9146437   505298 
  176000     1.000307   -1.9916984   -1.9916984   -1.0780344  0.069993391   -1.9916984   0.91366408   505286 
  177000    1.0000582   -1.9912256   -1.9912256    -1.077767  0.074407658   -1.9912256   0.91345857   505274 
  178000    1.0019204   -1.9934798   -1.9934798   -1.0782986   0.07624618   -1.9934798    0.9151812   505262 
  179000     1.001213   -1.9925712   -1.9925712   -1.0780162  0.069394789   -1.9925712   0.91455498   505251 
  180000    1.0021061   -1.9927742   -1.9927742   -1.0773816  0.062901642   -1.9927742   0.91539253   505239 
  181000    1.0036496   -1.9936508   -1.9936508   -1.0768265  0.069320209   -1.9936508   0.91682429   505227 
  182000    1.0014277   -1.9926307   -1.9926307   -1.0778143  0.067887554   -1.9926307   0.91481632   505215 
  183000    1.0031707   -1.9937092   -1.9937092   -1.0772806  0.072805574   -1.9937092   0.91642854   505204 
  184000    1.0020073   -1.9933483   -1.9933483   -1.0779609  0.067264483   -1.9933483    0.9153874   505192 
  185000    1.0019365   -1.9939066   -1.9939066   -1.0785622  0.080593377   -1.9939066   0.91534447   505180 
  186000    1.0009193    -1.993461    -1.993461   -1.0790241  0.065551069    -1.993461   0.91443692   505168 
  187000    1.0021274   -1.9934296   -1.9934296   -1.0778671  0.063344101   -1.9934296   0.91556243   505156 
  188000    1.0023761   -1.9930754   -1.9930754   -1.0772658  0.060230701   -1.9930754   0.91580959   505145 
  189000    1.0020234   -1.9929805   -1.9929805   -1.0774714  0.065223996   -1.9929805   0.91550906   505133 
  190000    1.0017035   -1.9926757   -1.9926757   -1.0774372  0.077098182   -1.9926757   0.91523853   505121 
  191000   0.99925457   -1.9900801   -1.9900801   -1.0770574  0.076299008   -1.9900801   0.91302267   505109 
  192000    1.0007891   -1.9922947   -1.9922947     -1.07785   0.05959764   -1.9922947   0.91444472   505098 
  193000   0.99952342   -1.9913844   -1.9913844   -1.0780745   0.07049879   -1.9913844   0.91330991   505086 
  194000    1.0014528   -1.9931024   -1.9931024   -1.0780077  0.068390325   -1.9931024   0.91509465   505074 
  195000    1.0010037   -1.9922064   -1.9922064   -1.0775004  0.068120505   -1.9922064   0.91470599   505062 
  196000    1.0011716   -1.9933655   -1.9933655   -1.0784861   0.06666709   -1.9933655   0.91487934   505051 
  197000    1.0012885   -1.9935473   -1.9935473   -1.0785394  0.069379608   -1.9935473    0.9150079   505039 
  198000    1.0011455   -1.9928316   -1.9928316   -1.0779326  0.065261997   -1.9928316   0.91489899   505027 
  199000   0.99927759   -1.9913215   -1.9913215   -1.0781078  0.075891001   -1.9913215   0.91321365   505015 
  200000    1.0015967   -1.9920372   -1.9920372   -1.0766842  0.064113186   -1.9920372   0.91535297   505004 
  201000   0.99917464    -1.989838    -1.989838   -1.0766768  0.081086744    -1.989838   0.91316116   504992 
  202000    1.0017784   -1.9931281   -1.9931281   -1.0775656  0.068438233   -1.9931281   0.91556257   504980 
  203000    1.0001114   -1.9917629   -1.9917629   -1.0777021  0.074840585   -1.9917629   0.91406076   504968 
  204000    1.0005444   -1.9930768   -1.9930768   -1.0785986  0.060160234   -1.9930768   0.91447816   504956 
  205000    1.0005532    -1.991952    -1.991952   -1.0774459  0.057066255    -1.991952   0.91450612   504945 
  206000    1.0006136   -1.9924424   -1.9924424   -1.0778593  0.065506921   -1.9924424   0.91458311   504933 
  207000    1.0002642   -1.9922001   -1.9922001   -1.0779146  0.070529591   -1.9922001   0.91428548   504921 
  208000   0.99983813    -1.990724    -1.990724   -1.0768063  0.070900531    -1.990724   0.91391774   504909 
  209000   0.99872961   -1.9900861   -1.9900861   -1.0771617  0.069105926   -1.9900861   0.91292437   504898 
  210000    1.0000919   -1.9911606   -1.9911606   -1.0769693  0.063719076   -1.9911606   0.91419137   504886 
  211000    1.0001449   -1.9908548   -1.9908548   -1.0765933  0.070514305   -1.9908548    0.9142615   504874 
  212000    1.0004205   -1.9905403   -1.9905403   -1.0760051  0.059849835   -1.9905403   0.91453524   504862 
  213000   0.99955977   -1.9909778   -1.9909778   -1.0772095  0.074214539   -1.9909778   0.91376827   504851 
  214000   0.99958331   -1.9903488   -1.9903488   -1.0765373  0.062531971   -1.9903488   0.91381151   504839 
  215000   0.99988889   -1.9917322   -1.9917322   -1.0776196  0.072623146   -1.9917322    0.9141126   504827 
  216000    1.0012134   -1.9925461   -1.9925461   -1.0772008  0.055300044   -1.9925461   0.91534527   504815 
  217000    1.0005655   -1.9914412   -1.9914412   -1.0766683  0.066057671   -1.9914412   0.91477288   504804 
  218000   0.99808095   -1.9896227   -1.9896227   -1.0770996  0.070171548   -1.9896227   0.91252302   504792 
  219000   0.99914903   -1.9897485   -1.9897485   -1.0762272   0.06916001   -1.9897485   0.91352126   504780 
  220000   0.99873672    -1.990701    -1.990701    -1.077535   0.05297769    -1.990701   0.91316599   504768 
  221000   0.99698129   -1.9899173   -1.9899173   -1.0783346  0.076010269   -1.9899173   0.91158264   504756 
  222000    0.9996726   -1.9921151   -1.9921151   -1.0780517  0.066994206   -1.9921151   0.91406334   504745 
  223000   0.99645932   -1.9892809   -1.9892809    -1.078134  0.064398147   -1.9892809    0.9111469   504733 
  224000   0.99939149    -1.992091    -1.992091   -1.0782412  0.074916588    -1.992091   0.91384975   504721 
  225000   0.99896013    -1.991311    -1.991311    -1.077834  0.064914955    -1.991311   0.91347703   504709 
  226000   0.99807282   -1.9910667   -1.9910667   -1.0783811  0.072062061   -1.9910667   0.91268554   504698 
  227000   0.99865022   -1.9922318   -1.9922318   -1.0789965  0.063287384   -1.9922318   0.91323526   504686 
  228000    1.0000892   -1.9929051   -1.9929051   -1.0783322  0.061171399   -1.9929051   0.91457294   504674 
  229000   0.99838343   -1.9911881   -1.9911881   -1.0781534  0.068478124   -1.9911881    0.9130347   504662 
  230000   0.99917567   -1.9923061   -1.9923061   -1.0785269  0.057924187   -1.9923061   0.91377914   504651 
  231000   0.99845266   -1.9922524   -1.9922524   -1.0791127  0.066279978   -1.9922524   0.91313963   504639 
  232000   0.99944035   -1.9932833   -1.9932833   -1.0792187  0.065896665   -1.9932833   0.91406466   504627 
  233000   0.99949082    -1.993531    -1.993531   -1.0793984  0.064937042    -1.993531   0.91413256   504615 
  234000     1.000002   -1.9949067   -1.9949067   -1.0802867  0.066726498   -1.9949067      0.91462   504604 
  235000    1.0000325   -1.9955438   -1.9955438   -1.0808741   0.06250893   -1.9955438   0.91466969   504592 
  236000   0.99783702   -1.9930287   -1.9930287   -1.0803454  0.072191534   -1.9930287    0.9126833   504580 
  237000   0.99851898   -1.9933589   -1.9933589   -1.0800302  0.055992356   -1.9933589   0.91332879   504568 
  238000   0.99755408   -1.9934043   -1.9934043   -1.0809364  0.059787633   -1.9934043   0.91246791   504556 
  239000   0.99845325   -1.9940896   -1.9940896   -1.0807793  0.076651454   -1.9940896    0.9133103   504545 
  240000   0.99761641   -1.9935478   -1.9935478   -1.0809812  0.066578347   -1.9935478   0.91256652   504533 
  241000   0.99946816   -1.9953711   -1.9953711    -1.081089  0.061205572   -1.9953711   0.91428215   504521 
  242000   0.99835497   -1.9935183   -1.9935183   -1.0802327  0.074633854   -1.9935183   0.91328556   504509 
  243000   0.99921308   -1.9951159   -1.9951159   -1.0810254   0.06494842   -1.9951159   0.91409049   504498 
  244000   0.99967654    -1.994954    -1.994954   -1.0804178  0.071880673    -1.994954   0.91453621   504486 
  245000   0.99877233   -1.9942088   -1.9942088   -1.0804781  0.066279374   -1.9942088   0.91373075   504474 
  246000   0.99862869   -1.9949779   -1.9949779   -1.0813568  0.065034636   -1.9949779   0.91362107   504462 
  247000   0.99774277   -1.9932244   -1.9932244    -1.080394  0.058195404   -1.9932244   0.91283047   504451 
  248000   0.99902432   -1.9948424   -1.9948424   -1.0808177   0.06708777   -1.9948424    0.9140247   504439 
  249000   0.99818442   -1.9933349   -1.9933349   -1.0800569  0.070014542   -1.9933349   0.91327799   504427 
  250000   0.99859764   -1.9933401   -1.9933401   -1.0796623  0.065522756   -1.9933401   0.91367779   504415 
  251000   0.99709653   -1.9924837   -1.9924837   -1.0801594   0.06711297   -1.9924837   0.91232423   504404 
  252000    0.9969513   -1.9936528   -1.9936528   -1.0814397  0.061298697   -1.9936528   0.91221304   504392 
  253000   0.99898344    -1.994606    -1.994606   -1.0805118  0.073229873    -1.994606   0.91409421   504380 
  254000    0.9973791   -1.9936924   -1.9936924   -1.0810445   0.06547746   -1.9936924   0.91264791   504368 
  255000   0.99721074   -1.9930254   -1.9930254   -1.0805098  0.073241709   -1.9930254   0.91251557   504356 
  256000    0.9965777   -1.9931253   -1.9931253   -1.0811691  0.073355867   -1.9931253   0.91195618   504345 
  257000   0.99758888   -1.9928071   -1.9928071   -1.0799039  0.069466008   -1.9928071   0.91290322   504333 
  258000   0.99695192    -1.992272    -1.992272     -1.07993  0.067025322    -1.992272   0.91234204   504321 
  259000   0.99725862   -1.9918872   -1.9918872   -1.0792428  0.079036977   -1.9918872   0.91264443   504309 
  260000   0.99658552   -1.9922913   -1.9922913    -1.080243  0.062947942   -1.9922913   0.91204833   504298 
  261000   0.99907726   -1.9935647   -1.9935647   -1.0792142  0.074203224   -1.9935647   0.91435046   504286 
  262000   0.99734286   -1.9914427   -1.9914427   -1.0786579  0.072125857   -1.9914427   0.91278487   504274 
  263000   0.99819491    -1.992638    -1.992638   -1.0790515  0.070403254    -1.992638   0.91358642   504262 
  264000   0.99865014   -1.9925179   -1.9925179   -1.0784949  0.065337182   -1.9925179     0.914023   504251 
  265000   0.99948072   -1.9923108   -1.9923108   -1.0775058  0.074448415   -1.9923108   0.91480497   504239 
  266000    1.0002891    -1.993008    -1.993008   -1.0774413  0.063776186    -1.993008   0.91556667   504227 
  267000    0.9978425   -1.9913311   -1.9913311   -1.0779821  0.058167961   -1.9913311   0.91334901   504215 
  268000   0.99808209    -1.992335    -1.992335   -1.0787467   0.07333957    -1.992335   0.91358825   504204 
  269000   0.99893387   -1.9930972   -1.9930972   -1.0787076  0.070242943   -1.9930972   0.91438968   504192 
  270000   0.99778192   -1.9909466   -1.9909466   -1.0775896  0.067327592   -1.9909466   0.91335696   504180 
  271000   0.99944066   -1.9920143   -1.9920143   -1.0771172  0.068923426   -1.9920143   0.91489713   504168 
  272000   0.99881434     -1.99251     -1.99251   -1.0781645  0.069731798     -1.99251   0.91434554   504156 
  273000    0.9960136   -1.9907982   -1.9907982   -1.0789967  0.069371213   -1.9907982   0.91180156   504145 
  274000    0.9966773   -1.9911513   -1.9911513   -1.0787204  0.069579178   -1.9911513   0.91243086   504133 
  275000    0.9966599   -1.9921072   -1.9921072   -1.0796706  0.059367394   -1.9921072   0.91243665   504121 
  276000   0.99722631   -1.9928787   -1.9928787   -1.0799017  0.059611466   -1.9928787   0.91297693   504109 
  277000   0.99707225   -1.9924285   -1.9924285   -1.0795727  0.059592298   -1.9924285    0.9128558   504098 
  278000   0.99704488   -1.9928141   -1.9928141   -1.0799616  0.066928556   -1.9928141   0.91285247   504086 
  279000   0.99589368   -1.9925315   -1.9925315   -1.0807113  0.060929797   -1.9925315    0.9118202   504074 
  280000   0.99583923   -1.9914498   -1.9914498   -1.0796577  0.066710395   -1.9914498   0.91179205   504062 
  281000   0.99594756   -1.9916104   -1.9916104   -1.0796993  0.065615245   -1.9916104   0.91191114   504051 
  282000   0.99417709   -1.9903458   -1.9903458   -1.0800341  0.070945889   -1.9903458   0.91031172   504039 
  283000   0.99738685   -1.9936692   -1.9936692   -1.0803967  0.059153395   -1.9936692   0.91327246   504027 
  284000    0.9988702   -1.9942802   -1.9942802   -1.0796277  0.068344296   -1.9942802   0.91465249   504015 
  285000   0.99682294   -1.9922537   -1.9922537   -1.0794559  0.075028089   -1.9922537   0.91279776   504004 
  286000   0.99707591   -1.9929377   -1.9929377   -1.0798866  0.067535206   -1.9929377   0.91305115   503992 
  287000   0.99711284   -1.9937637   -1.9937637    -1.080657  0.073922034   -1.9937637   0.91310671   503980 
  288000   0.99857316   -1.9946639   -1.9946639   -1.0801981  0.071526274   -1.9946639   0.91446577   503968 
  289000   0.99767734   -1.9945317   -1.9945317   -1.0808645  0.069409124   -1.9945317   0.91366716   503956 
  290000   0.99782058   -1.9944695   -1.9944695   -1.0806512  0.070210276   -1.9944695   0.91381828   503945 
  291000    1.0004058   -1.9972924   -1.9972924   -1.0810847  0.069479328   -1.9972924   0.91620769   503933 
  292000   0.99739274   -1.9945824   -1.9945824   -1.0811124  0.062629443   -1.9945824   0.91346997   503921 
  293000   0.99601369   -1.9930152   -1.9930152   -1.0807865  0.068789127   -1.9930152   0.91222867   503909 
  294000   0.99620055   -1.9930637   -1.9930637   -1.0806439  0.060339181   -1.9930637   0.91241973   503898 
  295000   0.99672718   -1.9930519   -1.9930519   -1.0801281  0.064632238   -1.9930519   0.91292382   503886 
  296000   0.99534971    -1.992984    -1.992984   -1.0813001  0.070948233    -1.992984   0.91168387   503874 
  297000   0.99571553   -1.9934022   -1.9934022   -1.0813616  0.066778797   -1.9934022   0.91204066   503862 
  298000   0.99564644   -1.9935218   -1.9935218   -1.0815246  0.074478841   -1.9935218   0.91199729   503851 
  299000   0.99556758   -1.9927451   -1.9927451   -1.0807984  0.067280509   -1.9927451   0.91194677   503839 
  300000   0.99534281   -1.9928459   -1.9928459   -1.0810833  0.061843005   -1.9928459    0.9117626   503827 
  301000   0.99657989   -1.9936073   -1.9936073   -1.0806897  0.059838435   -1.9936073   0.91291754   503815 
  302000   0.99524774   -1.9922602   -1.9922602   -1.0805431  0.064552427   -1.9922602   0.91171713   503804 
  303000   0.99506464   -1.9926929   -1.9926929   -1.0811218  0.065948733   -1.9926929   0.91157111   503792 
  304000   0.99676232   -1.9936434   -1.9936434   -1.0804953   0.06320214   -1.9936434   0.91314809   503780 
  305000   0.99520108   -1.9922989   -1.9922989   -1.0805593  0.064276328   -1.9922989   0.91173954   503768 
  306000   0.99737872   -1.9936229   -1.9936229   -1.0798666  0.065827626   -1.9936229   0.91375632   503756 
  307000   0.99323035   -1.9899194   -1.9899194   -1.0799438  0.068794932   -1.9899194   0.90997562   503745 
  308000   0.99648335   -1.9926064   -1.9926064   -1.0796287  0.059601056   -1.9926064    0.9129777   503733 
  309000   0.99518167   -1.9919111   -1.9919111   -1.0801043  0.075416451   -1.9919111   0.91180682   503721 
  310000   0.99548893   -1.9923992   -1.9923992   -1.0802892  0.067989926   -1.9923992   0.91211007   503709 
  311000   0.99555869   -1.9925035   -1.9925035   -1.0803096  0.077392798   -1.9925035   0.91219391   503698 
  312000   0.99575042   -1.9933482   -1.9933482   -1.0809569  0.061391398   -1.9933482   0.91239132   503686 
  313000   0.99393913   -1.9917433   -1.9917433     -1.08099  0.061206446   -1.9917433   0.91075335   503674 
  314000   0.99424041    -1.991517    -1.991517   -1.0804659  0.065115818    -1.991517   0.91105113   503662 
  315000   0.99411669   -1.9916672   -1.9916672   -1.0807096  0.074839126   -1.9916672   0.91095765   503651 
  316000   0.99429081   -1.9928744   -1.9928744   -1.0817355  0.063567345   -1.9928744   0.91113892   503639 
  317000   0.99506454   -1.9936733   -1.9936733   -1.0818037   0.06425243   -1.9936733   0.91186967   503627 
  318000   0.99398969   -1.9927449   -1.9927449   -1.0818385  0.070839803   -1.9927449   0.91090639   503615 
  319000   0.99437694    -1.993252    -1.993252   -1.0819708  0.061621097    -1.993252   0.91128117   503604 
  320000   0.99663002   -1.9947905   -1.9947905   -1.0814228  0.069269932   -1.9947905   0.91336774   503592 
  321000    0.9928546   -1.9910548   -1.9910548   -1.0811253  0.070147285   -1.9910548   0.90992941   503580 
  322000   0.99392597   -1.9921205   -1.9921205   -1.0811875  0.060230743   -1.9921205   0.91093301   503568 
  323000   0.99450807   -1.9939732   -1.9939732    -1.082485  0.077355857   -1.9939732   0.91148823   503556 
  324000   0.99491794   -1.9947994   -1.9947994   -1.0829156   0.06765621   -1.9947994    0.9118838   503545 
  325000   0.99370126   -1.9945993   -1.9945993   -1.0838089  0.068431093   -1.9945993   0.91079037   503533 
  326000   0.99582652   -1.9965958   -1.9965958   -1.0838357  0.063186025   -1.9965958   0.91276006   503521 
  327000   0.99509539   -1.9958941   -1.9958941   -1.0837825   0.06674463   -1.9958941   0.91211165   503509 
  328000   0.99350747   -1.9941444   -1.9941444   -1.0834684  0.066967581   -1.9941444   0.91067604   503498 
  329000   0.99466491   -1.9957607   -1.9957607    -1.084002  0.067311766   -1.9957607   0.91175872   503486 
  330000   0.99549117   -1.9967044   -1.9967044   -1.0841666  0.073873924   -1.9967044   0.91253786   503474 
  331000   0.99448538   -1.9966246   -1.9966246    -1.084987  0.067411277   -1.9966246   0.91163761   503462 
  332000   0.99365611   -1.9970458   -1.9970458   -1.0861485  0.071449222   -1.9970458   0.91089732   503451 
  333000   0.99404414   -1.9965633   -1.9965633   -1.0852885  0.079212801   -1.9965633   0.91127476   503439 
  334000   0.99558313   -1.9986854   -1.9986854   -1.0859781   0.06183321   -1.9986854   0.91270736   503427 
  335000   0.99300693   -1.9964712   -1.9964712   -1.0861039  0.074062815   -1.9964712   0.91036731   503415 
  336000   0.99471876   -1.9971739   -1.9971739   -1.0852173   0.06666324   -1.9971739   0.91195661   503404 
  337000    0.9954569   -1.9986991   -1.9986991    -1.086044  0.066228786   -1.9986991   0.91265509   503392 
  338000   0.99665293   -1.9994698   -1.9994698   -1.0856964  0.060343449   -1.9994698   0.91377341   503380 
  339000   0.99515912   -1.9982995   -1.9982995   -1.0858739  0.072688674   -1.9982995   0.91242558   503368 
  340000   0.99456222   -1.9978616   -1.9978616   -1.0859615  0.072389673   -1.9978616   0.91190004   503356 
  341000   0.99528469   -1.9987126   -1.9987126   -1.0861302  0.071414383   -1.9987126    0.9125824   503345 
  342000   0.99648301   -1.9988701   -1.9988701   -1.0851672  0.073871123   -1.9988701   0.91370293   503333 
  343000   0.99426723   -1.9979371   -1.9979371   -1.0862442  0.070722588   -1.9979371   0.91169296   503321 
  344000   0.99393456   -1.9965706   -1.9965706   -1.0851609  0.073703957   -1.9965706   0.91140965   503309 
  345000   0.99394474   -1.9966395   -1.9966395   -1.0852006  0.063556235   -1.9966395   0.91143891   503298 
  346000   0.99353195   -1.9965331   -1.9965331    -1.085451  0.063359245   -1.9965331    0.9110821   503286 
  347000   0.99274098   -1.9954504   -1.9954504   -1.0850719  0.066070706   -1.9954504   0.91037848   503274 
  348000   0.99479965   -1.9961569   -1.9961569   -1.0838688  0.058701436   -1.9961569    0.9122881   503262 
  349000   0.99171697   -1.9941772   -1.9941772   -1.0846962  0.073210875   -1.9941772   0.90948098   503251 
  350000   0.99210153   -1.9943558   -1.9943558   -1.0845004  0.063414135   -1.9943558   0.90985536   503239 
  351000    0.9903418   -1.9925823   -1.9925823   -1.0843191  0.073094771   -1.9925823   0.90826317   503227 
  352000   0.99139621   -1.9925443   -1.9925443   -1.0832924  0.062867112   -1.9925443   0.90925187   503215 
  353000   0.99440508   -1.9942728   -1.9942728   -1.0822414  0.065660709   -1.9942728   0.91203137   503204 
  354000   0.99229029   -1.9929783   -1.9929783   -1.0828649  0.068765181   -1.9929783   0.91011346   503192 
  355000   0.98907855   -1.9916455   -1.9916455   -1.0844562  0.075128668   -1.9916455   0.90718934   503180 
  356000   0.99158541   -1.9931401   -1.9931401   -1.0836297  0.057869928   -1.9931401   0.90951034   503168 
  357000   0.99170154   -1.9936607   -1.9936607   -1.0840222  0.057563143   -1.9936607   0.90963855   503156 
  358000   0.99293817   -1.9940267   -1.9940267   -1.0832339  0.069698274   -1.9940267   0.91079276   503145 
  359000   0.99244528   -1.9928144   -1.9928144    -1.082452  0.057130026   -1.9928144   0.91036236   503133 
  360000   0.99190626   -1.9928713   -1.9928713   -1.0829817  0.066288809   -1.9928713   0.90988962   503121 
  361000   0.99327282   -1.9930276   -1.9930276   -1.0818627   0.06054016   -1.9930276   0.91116492   503109 
  362000   0.99215287   -1.9929155   -1.9929155   -1.0827581     0.058292   -1.9929155   0.91015745   503098 
  363000   0.98963115   -1.9911227   -1.9911227   -1.0832569  0.065702429   -1.9911227   0.90786579   503086 
  364000   0.99324169   -1.9944341   -1.9944341   -1.0832343  0.065612247   -1.9944341   0.91119975   503074 
  365000   0.99267429   -1.9927176   -1.9927176   -1.0820166  0.072783897   -1.9927176   0.91070095   503062 
  366000   0.99273247   -1.9932949   -1.9932949   -1.0825207  0.067675872   -1.9932949   0.91077424   503051 
  367000     0.991427   -1.9929964   -1.9929964   -1.0833982   0.07312594   -1.9929964   0.90959824   503039 
  368000   0.99393938   -1.9951803   -1.9951803   -1.0832553  0.062242537   -1.9951803   0.91192501   503027 
  369000   0.99428846   -1.9944589   -1.9944589   -1.0821918  0.058596255   -1.9944589   0.91226705   503015 
  370000   0.99281035   -1.9942889   -1.9942889   -1.0833581  0.068701446   -1.9942889   0.91093079   503004 
  371000   0.99110441   -1.9938525   -1.9938525   -1.0844653  0.060557268   -1.9938525   0.90938724   502992 
  372000   0.99073999   -1.9933095   -1.9933095   -1.0842349  0.054382139   -1.9933095   0.90907456   502980 
  373000   0.99140631   -1.9942089   -1.9942089   -1.0845012  0.068067689   -1.9942089   0.90970766   502968 
  374000   0.99163757    -1.993366    -1.993366   -1.0834245   0.05985345    -1.993366   0.90994157   502956 
  375000   0.99214305   -1.9944516   -1.9944516   -1.0840263   0.06510158   -1.9944516   0.91042531   502945 
  376000   0.98979009   -1.9925281   -1.9925281   -1.0842403  0.067562308   -1.9925281   0.90828783   502933 
  377000   0.99284999   -1.9957205   -1.9957205    -1.084603  0.060549135   -1.9957205   0.91111751   502921 
  378000   0.99348826    -1.995137    -1.995137    -1.083412  0.057130352    -1.995137   0.91172499   502909 
  379000     0.990567   -1.9923945   -1.9923945   -1.0833305   0.08244186   -1.9923945   0.90906403   502898 
  380000   0.99219121   -1.9942982   -1.9942982   -1.0837219  0.062974285   -1.9942982   0.91057632   502886 
  381000   0.99087731   -1.9938566   -1.9938566   -1.0844644  0.072000092   -1.9938566    0.9093922   502874 
  382000   0.99140316    -1.993745    -1.993745   -1.0838485  0.056423351    -1.993745   0.90989652   502862 
  383000   0.99241586   -1.9949575   -1.9949575   -1.0841116  0.062488058   -1.9949575   0.91084589   502851 
  384000   0.99233067   -1.9948121   -1.9948121   -1.0840226  0.058906442   -1.9948121   0.91078944   502839 
  385000   0.99119955   -1.9945761   -1.9945761   -1.0848031  0.068498363   -1.9945761   0.90977297   502827 
  386000   0.99281788   -1.9955122   -1.9955122   -1.0842321  0.070860153   -1.9955122   0.91128011   502815 
  387000   0.99080834   -1.9937238   -1.9937238   -1.0842683  0.073508262   -1.9937238    0.9094555   502804 
  388000     0.990881   -1.9938441   -1.9938441   -1.0843001  0.067287153   -1.9938441    0.9095439   502792 
  389000   0.99008977   -1.9937697   -1.9937697   -1.0849304  0.066612083   -1.9937697   0.90883932   502780 
  390000   0.99003341   -1.9936267   -1.9936267   -1.0848174  0.075831998   -1.9936267   0.90880927   502768 
  391000   0.98936929   -1.9930306   -1.9930306   -1.0848092  0.072027575   -1.9930306   0.90822131   502756 
  392000   0.98871045   -1.9939159   -1.9939159   -1.0862795  0.050568772   -1.9939159   0.90763637   502745 
  393000   0.98798794   -1.9932254   -1.9932254   -1.0862306  0.070082992   -1.9932254   0.90699476   502733 
  394000   0.98942351   -1.9945816   -1.9945816   -1.0862473  0.068911773   -1.9945816   0.90833432   502721 
  395000   0.99085791   -1.9957672   -1.9957672   -1.0860943  0.066857999   -1.9957672   0.90967288   502709 
  396000   0.99043687   -1.9950985   -1.9950985   -1.0857923  0.068034527   -1.9950985   0.90930623   502698 
  397000   0.98926496   -1.9945188   -1.9945188   -1.0862668  0.064909545   -1.9945188     0.908252   502686 
  398000   0.98914501   -1.9941462   -1.9941462   -1.0859827  0.053342184   -1.9941462   0.90816355   502674 
  399000   0.98742471   -1.9939033   -1.9939033   -1.0872976   0.06584838   -1.9939033   0.90660574   502662 
  400000   0.98900655   -1.9944946   -1.9944946   -1.0864166  0.066088559   -1.9944946   0.90807798   502651 
  401000   0.98976942   -1.9942165   -1.9942165   -1.0854164  0.070311469   -1.9942165   0.90880011   502639 
  402000   0.99106631    -1.994801    -1.994801   -1.0847883  0.070442336    -1.994801   0.91001264   502627 
  403000   0.98947692    -1.992735    -1.992735     -1.08416  0.071151011    -1.992735   0.90857493   502615 
  404000   0.99183585   -1.9947263   -1.9947263   -1.0839654  0.061506202   -1.9947263   0.91076092   502604 
  405000   0.98948107   -1.9929376   -1.9929376   -1.0843173  0.067949924   -1.9929376   0.90862032   502592 
  406000   0.99003205   -1.9941305   -1.9941305   -1.0849825  0.065586401   -1.9941305   0.90914798   502580 
  407000   0.99132718   -1.9957464   -1.9957464   -1.0853874   0.06527615   -1.9957464   0.91035903   502568 
  408000   0.99129932   -1.9953704   -1.9953704   -1.0850152   0.07112795   -1.9953704   0.91035519   502556 
  409000   0.99193078   -1.9950976   -1.9950976   -1.0841426  0.072680077   -1.9950976   0.91095503   502545 
  410000   0.99009082   -1.9924527   -1.9924527   -1.0831657  0.071435453   -1.9924527   0.90928698   502533 
  411000   0.98838942   -1.9934399   -1.9934399   -1.0856938  0.058888356   -1.9934399   0.90774612   502521 
  412000   0.98877815   -1.9921978   -1.9921978    -1.084073   0.08123115   -1.9921978   0.90812481   502509 
  413000   0.98955359   -1.9929751   -1.9929751   -1.0841182  0.065801111   -1.9929751    0.9088569   502498 
  414000   0.99003519   -1.9927302   -1.9927302   -1.0834093  0.058127774   -1.9927302   0.90932093   502486 
  415000   0.99074531   -1.9938592   -1.9938592   -1.0838643  0.068988197   -1.9938592   0.90999489   502474 
  416000   0.98729035   -1.9917551   -1.9917551   -1.0849119  0.070693008   -1.9917551   0.90684319   502462 
  417000   0.98762323   -1.9929003   -1.9929003   -1.0857315  0.062926008   -1.9929003   0.90716881   502451 
  418000   0.98810003   -1.9914919   -1.9914919   -1.0838634  0.065303869   -1.9914919   0.90762844   502439 
  419000   0.98939026   -1.9932184   -1.9932184   -1.0843831  0.063822847   -1.9932184    0.9088353   502427 
  420000   0.98854731   -1.9910867   -1.9910867    -1.083004  0.065805462   -1.9910867   0.90808267   502415 
  421000   0.98925512   -1.9920581   -1.9920581   -1.0833053  0.071585292   -1.9920581   0.90875277   502404 
  422000    0.9882818   -1.9901972   -1.9901972   -1.0823169  0.067263177   -1.9901972   0.90788033   502392 
  423000   0.99062067   -1.9922406   -1.9922406   -1.0821899   0.06739471   -1.9922406   0.91005066   502380 
  424000   0.98870919   -1.9905852   -1.9905852   -1.0822688  0.064244374   -1.9905852   0.90831634   502368 
  425000   0.98960446    -1.991836    -1.991836   -1.0826755  0.054336299    -1.991836   0.90916053   502356 
  426000   0.98754888   -1.9890586   -1.9890586   -1.0817667  0.066531985   -1.9890586   0.90729192   502345 
  427000   0.98895818   -1.9903325   -1.9903325   -1.0817241  0.060612872   -1.9903325   0.90860839   502333 
  428000    0.9893008   -1.9901628   -1.9901628   -1.0812179  0.074296896   -1.9901628   0.90894489   502321 
  429000   0.98863015   -1.9918187   -1.9918187   -1.0834682  0.064924563   -1.9918187   0.90835041   502309 
  430000   0.98820106   -1.9912826   -1.9912826   -1.0833065  0.066123775   -1.9912826   0.90797605   502298 
  431000   0.98994953   -1.9918549   -1.9918549   -1.0822506  0.061495703   -1.9918549    0.9096043   502286 
  432000    0.9891477   -1.9902409   -1.9902409   -1.0813517  0.069352101   -1.9902409   0.90888926   502274 
  433000    0.9908108   -1.9910118   -1.9910118   -1.0805727  0.061247642   -1.9910118   0.91043918   502262 
  434000   0.99014988   -1.9904569   -1.9904569   -1.0806051  0.076836793   -1.9904569   0.90985179   502251 
  435000   0.99036808   -1.9906442   -1.9906442   -1.0805702  0.071122469   -1.9906442   0.91007404   502239 
  436000   0.98989765   -1.9899769   -1.9899769   -1.0803134  0.059906822   -1.9899769   0.90966348   502227 
  437000   0.98752717   -1.9897149   -1.9897149    -1.082208  0.069922159   -1.9897149   0.90750682   502215 
  438000   0.98714658   -1.9894492   -1.9894492   -1.0822722  0.073170061   -1.9894492   0.90717695   502204 
  439000    0.9886449   -1.9912748   -1.9912748   -1.0826992  0.066372283   -1.9912748    0.9085756   502192 
  440000   0.98866018   -1.9920131   -1.9920131   -1.0834018  0.064015669   -1.9920131   0.90861134   502180 
  441000   0.98731226    -1.991845    -1.991845   -1.0844507  0.061463805    -1.991845   0.90739425   502168 
  442000    0.9867645   -1.9907876   -1.9907876   -1.0838751  0.065043435   -1.9907876    0.9069125   502156 
  443000   0.98736978   -1.9911026   -1.9911026   -1.0836139  0.059266691   -1.9911026   0.90748868   502145 
  444000   0.98801342   -1.9906414   -1.9906414   -1.0825395  0.068214943   -1.9906414   0.90810194   502133 
  445000   0.98788983   -1.9906868   -1.9906868   -1.0826767  0.073900185   -1.9906868   0.90801005   502121 
  446000   0.98777068   -1.9901202   -1.9901202    -1.082198  0.071537749   -1.9901202   0.90792223   502109 
  447000   0.98979624   -1.9932154   -1.9932154   -1.0834115  0.061334576   -1.9932154   0.90980398   502098 
  448000   0.98898313   -1.9926244   -1.9926244   -1.0835461  0.066290198   -1.9926244   0.90907832   502086 
  449000   0.98781278   -1.9913061   -1.9913061   -1.0832819  0.069120924   -1.9913061   0.90802422   502074 
  450000   0.98714147   -1.9910124   -1.9910124   -1.0835836  0.071047342   -1.9910124   0.90742883   502062 
  451000   0.98967429   -1.9925016   -1.9925016   -1.0827246  0.060607186   -1.9925016   0.90977705   502051 
  452000    0.9888523   -1.9928286   -1.9928286   -1.0837854  0.065933901   -1.9928286   0.90904315   502039 
  453000    0.9894173   -1.9926009   -1.9926009   -1.0830166  0.069056919   -1.9926009   0.90958429   502027 
  454000    0.9884892   -1.9933324   -1.9933324   -1.0845796  0.063224303   -1.9933324    0.9087528   502015 
  455000   0.98824404     -1.99321     -1.99321   -1.0846627  0.067786686     -1.99321   0.90854733   502004 
  456000    0.9878686   -1.9916986   -1.9916986   -1.0834748  0.063158703   -1.9916986   0.90822387   501992 
  457000   0.98756756   -1.9917365   -1.9917365   -1.0837677  0.061692436   -1.9917365    0.9079688   501980 
  458000   0.99033796   -1.9945201   -1.9945201   -1.0839825   0.06522965   -1.9945201   0.91053767   501968 
  459000   0.98849758   -1.9919054   -1.9919054    -1.083038  0.063417087   -1.9919054   0.90886732   501956 
  460000   0.98620484   -1.9899471   -1.9899471    -1.083168   0.06746158   -1.9899471   0.90677914   501945 
  461000   0.98842537   -1.9921563   -1.9921563   -1.0833137  0.072344284   -1.9921563   0.90884257   501933 
  462000   0.98676406   -1.9914696   -1.9914696   -1.0841329  0.059642825   -1.9914696   0.90733671   501921 
  463000   0.98751033   -1.9915157   -1.9915157   -1.0834711   0.06606197   -1.9915157   0.90804462   501909 
  464000   0.98844516   -1.9922475   -1.9922475   -1.0833234  0.060737495   -1.9922475   0.90892415   501898 
  465000   0.98963575   -1.9926912   -1.9926912   -1.0826505  0.060232411   -1.9926912    0.9100407   501886 
  466000   0.98740348   -1.9910217   -1.9910217    -1.083012  0.068715122   -1.9910217   0.90800969   501874 
  467000   0.98827129   -1.9908718   -1.9908718   -1.0820423    0.0758693   -1.9908718   0.90882945   501862 
  468000   0.98795754   -1.9901052   -1.9901052   -1.0815444  0.064247108   -1.9901052   0.90856083   501851 
  469000   0.98785765   -1.9901088   -1.9901088   -1.0816181  0.068576386   -1.9901088   0.90849069   501839 
  470000   0.98687505   -1.9902649   -1.9902649   -1.0826562  0.070376837   -1.9902649   0.90760874   501827 
  471000   0.98614081   -1.9894242   -1.9894242   -1.0824691  0.072201743   -1.9894242   0.90695516   501815 
  472000   0.98412766   -1.9886317   -1.9886317   -1.0835082  0.056209087   -1.9886317   0.90512351   501804 
  473000   0.98415678   -1.9887226   -1.9887226   -1.0835506  0.067055271   -1.9887226   0.90517194   501792 
  474000   0.98422761   -1.9890062   -1.9890062   -1.0837475  0.055416028   -1.9890062   0.90525873   501780 
  475000    0.9862622    -1.990472    -1.990472   -1.0833202  0.062957618    -1.990472   0.90715177   501768 
  476000   0.98741758   -1.9908716   -1.9908716   -1.0826354  0.064835878   -1.9908716    0.9082362   501756 
  477000   0.98487306   -1.9883846   -1.9883846    -1.082469  0.054940355   -1.9883846   0.90591559   501745 
  478000   0.98626661   -1.9897001   -1.9897001    -1.082481  0.063850989   -1.9897001   0.90721911   501733 
  479000   0.98537256   -1.9889202   -1.9889202   -1.0825018  0.060722751   -1.9889202    0.9064184   501721 
  480000   0.98687599   -1.9891763   -1.9891763   -1.0813532  0.061390398   -1.9891763   0.90782308   501709 
  481000   0.98621192   -1.9900048   -1.9900048   -1.0827727  0.066668918   -1.9900048   0.90723209   501698 
  482000   0.98598701   -1.9890778   -1.9890778   -1.0820309  0.071329468   -1.9890778   0.90704689   501686 
  483000    0.9849401   -1.9883269   -1.9883269   -1.0822214  0.071058826   -1.9883269   0.90610547   501674 
  484000   0.98677698   -1.9898166   -1.9898166   -1.0819996  0.059916282   -1.9898166   0.90781704   501662 
  485000   0.98358254    -1.986329    -1.986329    -1.081431  0.071297031    -1.986329   0.90489805   501651 
  486000   0.98598122   -1.9898932   -1.9898932   -1.0827667   0.05576228   -1.9898932   0.90712654   501639 
  487000    0.9848469   -1.9884135   -1.9884135   -1.0823088   0.06997266   -1.9884135   0.90610462   501627 
  488000   0.98572349   -1.9888455   -1.9888455   -1.0819127  0.065374006   -1.9888455   0.90693282   501615 
  489000   0.98567167   -1.9881865   -1.9881865   -1.0812815  0.067500872   -1.9881865   0.90690503   501604 
  490000   0.98596121   -1.9886866   -1.9886866   -1.0814935  0.064417357   -1.9886866   0.90719313   501592 
  491000   0.98548717   -1.9892854   -1.9892854   -1.0825067  0.050388486   -1.9892854   0.90677866   501580 
  492000    0.9848977   -1.9883165   -1.9883165   -1.0820585   0.06502598   -1.9883165   0.90625795   501568 
  493000   0.98491765    -1.988783    -1.988783    -1.082485  0.074235077    -1.988783   0.90629799   501556 
  494000    0.9861974   -1.9903158   -1.9903158   -1.0828203  0.067114159   -1.9903158   0.90749549   501545 
  495000   0.98623209   -1.9899279   -1.9899279   -1.0823787  0.070634433   -1.9899279   0.90754912   501533 
  496000   0.98432316   -1.9883327   -1.9883327   -1.0825185  0.062055181   -1.9883327   0.90581416   501521 
  497000   0.98772571   -1.9906144   -1.9906144   -1.0816473  0.063736532   -1.9906144   0.90896708   501509 
  498000   0.98577563   -1.9886282   -1.9886282   -1.0814358  0.065556826   -1.9886282   0.90719239   501498 
  499000   0.98593058   -1.9892822   -1.9892822   -1.0819255  0.063097571   -1.9892822    0.9073567   501486 
  500000   0.98573577   -1.9894183   -1.9894183   -1.0822191  0.064231893   -1.9894183   0.90719912   501474 
  501000   0.98666401   -1.9902577   -1.9902577   -1.0821825  0.068643774   -1.9902577   0.90807514   501462 
  502000      0.98606   -1.9891517   -1.9891517   -1.0816126  0.066477186   -1.9891517   0.90753914   501451 
  503000   0.98467341   -1.9882565   -1.9882565   -1.0819718  0.064256069   -1.9882565   0.90628465   501439 
  504000   0.98572866   -1.9903675   -1.9903675   -1.0830899  0.064239881   -1.9903675   0.90727761   501427 
  505000   0.98458593   -1.9898641   -1.9898641   -1.0836166  0.061880798   -1.9898641   0.90624752   501415 
  506000    0.9855322    -1.990323    -1.990323   -1.0831846  0.066450084    -1.990323    0.9071384   501404 
  507000   0.98593875   -1.9907815   -1.9907815   -1.0832471  0.059561008   -1.9907815   0.90753433   501392 
  508000   0.98612138   -1.9916976   -1.9916976   -1.0839735  0.055613463   -1.9916976   0.90772416   501380 
  509000   0.98546313   -1.9911964   -1.9911964   -1.0840565   0.06167378   -1.9911964   0.90713996   501368 
  510000   0.98544007   -1.9909595   -1.9909595   -1.0838191  0.058628148   -1.9909595   0.90714044   501356 
  511000   0.98510466   -1.9909366   -1.9909366    -1.084085  0.056949521   -1.9909366   0.90685157   501345 
  512000   0.98365484   -1.9906923   -1.9906923   -1.0851537  0.067146369   -1.9906923    0.9055386   501333 
  513000   0.98651305   -1.9918145   -1.9918145   -1.0836229  0.067380258   -1.9918145   0.90819156   501321 
  514000   0.98655743    -1.991411    -1.991411   -1.0831568  0.067151076    -1.991411   0.90825416   501309 
  515000   0.98454153   -1.9896469   -1.9896469   -1.0832288   0.06991513   -1.9896469   0.90641815   501298 
  516000   0.98635723   -1.9925317   -1.9925317   -1.0844202  0.071680147   -1.9925317   0.90811152   501286 
  517000   0.98590139    -1.991746    -1.991746   -1.0840324  0.062612012    -1.991746   0.90771356   501274 
  518000   0.98594172   -1.9916537   -1.9916537   -1.0838813  0.065962029   -1.9916537   0.90777243   501262 
  519000   0.98616719   -1.9918657   -1.9918657   -1.0838658  0.073384952   -1.9918657   0.90799995   501251 
  520000   0.98481746   -1.9917255   -1.9917255   -1.0849466  0.070783164   -1.9917255   0.90677891   501239 
  521000   0.98584181   -1.9921256   -1.9921256   -1.0843818   0.06133777   -1.9921256   0.90774383   501227 
  522000   0.98383632   -1.9911064   -1.9911064   -1.0851875  0.068587239   -1.9911064    0.9059189   501215 
  523000   0.98376694   -1.9921707   -1.9921707   -1.0862958  0.066302971   -1.9921707   0.90587489   501204 
  524000   0.98436091   -1.9931481   -1.9931481   -1.0867045  0.064008798   -1.9931481   0.90644353   501192 
  525000   0.98454214   -1.9940868   -1.9940868   -1.0874547  0.065539896   -1.9940868   0.90663213   501180 
  526000   0.98464161   -1.9941226   -1.9941226   -1.0873771  0.057766708   -1.9941226   0.90674544   501168 
  527000   0.98479918   -1.9943386   -1.9943386   -1.0874263  0.059721975   -1.9943386   0.90691226   501156 
  528000   0.98429064   -1.9923505   -1.9923505   -1.0858867  0.058881117   -1.9923505   0.90646383   501145 
  529000    0.9845405   -1.9929195   -1.9929195   -1.0862038  0.062097903   -1.9929195   0.90671565   501133 
  530000   0.98493438   -1.9937762   -1.9937762   -1.0866761  0.058918746   -1.9937762   0.90710011   501121 
  531000   0.98499123   -1.9940572   -1.9940572    -1.086883  0.060208006   -1.9940572   0.90717419   501109 
  532000   0.98510831   -1.9925411   -1.9925411   -1.0852392  0.066455779   -1.9925411   0.90730194   501098 
  533000   0.98352481   -1.9922774   -1.9922774   -1.0864122  0.064595451   -1.9922774   0.90586521   501086 
  534000    0.9863992   -1.9936237   -1.9936237   -1.0850893  0.067428643   -1.9936237   0.90853438   501074 
  535000   0.98523995   -1.9928625   -1.9928625   -1.0853741  0.066590669   -1.9928625   0.90748838   501062 
  536000   0.98418832   -1.9915707   -1.9915707   -1.0850311  0.076274598   -1.9915707   0.90653964   501051 
  537000   0.98436032    -1.991097    -1.991097   -1.0843772  0.065275403    -1.991097   0.90671979   501039 
  538000   0.98266679   -1.9901144   -1.9901144   -1.0849329  0.071626373   -1.9901144   0.90518151   501027 
  539000   0.98285556   -1.9904851   -1.9904851    -1.085108  0.066853872   -1.9904851   0.90537708   501015 
  540000   0.98398903   -1.9909109   -1.9909109   -1.0844698  0.065023378   -1.9909109    0.9064411   501004 
  541000   0.98515217   -1.9909975   -1.9909975   -1.0834632  0.068332007   -1.9909975   0.90753432   500992 
  542000   0.98503489   -1.9913162   -1.9913162   -1.0838682  0.070851287   -1.9913162     0.907448   500980 
  543000   0.98470918   -1.9915207   -1.9915207   -1.0843511   0.06178098   -1.9915207   0.90716968   500968 
  544000   0.98445864   -1.9910226   -1.9910226    -1.084062  0.063906489   -1.9910226   0.90696059   500956 
  545000   0.98407961   -1.9904643   -1.9904643    -1.083833  0.063707824   -1.9904643   0.90663131   500945 
  546000   0.98465937   -1.9904531   -1.9904531   -1.0832659  0.065666419   -1.9904531   0.90718717   500933 
  547000   0.98282121   -1.9896557   -1.9896557   -1.0841404  0.057671284   -1.9896557   0.90551533   500921 
  548000   0.98193348   -1.9893664   -1.9893664   -1.0846473    0.0657881   -1.9893664    0.9047191   500909 
  549000   0.98375127   -1.9911972   -1.9911972   -1.0847833  0.053298851   -1.9911972   0.90641385   500898 
  550000   0.98084193   -1.9882766   -1.9882766   -1.0845217  0.068730591   -1.9882766   0.90375488   500886 
  551000   0.98297305   -1.9905834   -1.9905834   -1.0848432  0.057741718   -1.9905834   0.90574021   500874 
  552000   0.98427523   -1.9914112   -1.9914112   -1.0844494  0.067954491   -1.9914112    0.9069618   500862 
  553000   0.98654096   -1.9925663   -1.9925663   -1.0834968  0.068138353   -1.9925663   0.90906953   500851 
  554000   0.98303916    -1.990205    -1.990205   -1.0843406  0.061641929    -1.990205   0.90586443   500839 
  555000   0.98187395   -1.9898972   -1.9898972   -1.0850848  0.065271641   -1.9898972   0.90481237   500827 
  556000   0.98541496   -1.9920866   -1.9920866   -1.0839894  0.061516141   -1.9920866   0.90809723   500815 
  557000   0.98593294   -1.9917929   -1.9917929   -1.0831984  0.060936972   -1.9917929   0.90859452   500804 
  558000   0.98561767   -1.9919041   -1.9919041   -1.0835784   0.06569351   -1.9919041   0.90832574   500792 
  559000   0.98465866   -1.9910559   -1.9910559   -1.0835922  0.067611443   -1.9910559   0.90746369   500780 
  560000   0.98322392   -1.9915493   -1.9915493   -1.0853862  0.062274184   -1.9915493   0.90616314   500768 
  561000   0.98366665   -1.9926015   -1.9926015   -1.0860086  0.055631528   -1.9926015   0.90659289   500756 
  562000   0.98528595   -1.9931705   -1.9931705   -1.0850652  0.057050542   -1.9931705   0.90810526   500745 
  563000   0.98354677   -1.9921851   -1.9921851   -1.0856611  0.068005649   -1.9921851   0.90652404   500733 
  564000   0.98205592   -1.9914475   -1.9914475   -1.0862759  0.067715576   -1.9914475   0.90517164   500721 
  565000   0.98267244   -1.9915093   -1.9915093   -1.0857477   0.06907875   -1.9915093    0.9057616   500709 
  566000   0.98457652   -1.9937456   -1.9937456    -1.086209    0.0714307   -1.9937456   0.90753659   500698 
  567000   0.98317366   -1.9916095   -1.9916095   -1.0853443  0.066340216   -1.9916095   0.90626522   500686 
  568000   0.98491219   -1.9932716   -1.9932716   -1.0853821  0.071719852   -1.9932716   0.90788951   500674 
  569000   0.98433487   -1.9933736   -1.9933736   -1.0859945  0.069394558   -1.9933736   0.90737909   500662 
  570000   0.98363969   -1.9932947   -1.9932947   -1.0865365  0.060858539   -1.9932947   0.90675818   500651 
  571000   0.98602531    -1.993869    -1.993869   -1.0848898   0.06793583    -1.993869   0.90897913   500639 
  572000   0.98407185   -1.9926753   -1.9926753   -1.0854753  0.066427095   -1.9926753   0.90720005   500627 
  573000   0.98501541   -1.9933548   -1.9933548   -1.0852631  0.071976761   -1.9933548   0.90809167   500615 
  574000   0.98350136   -1.9924915   -1.9924915   -1.0857758  0.060580776   -1.9924915   0.90671578   500604 
  575000   0.98381993   -1.9923379   -1.9923379   -1.0853067  0.069311413   -1.9923379   0.90703123   500592 
  576000   0.98382481   -1.9917835   -1.9917835    -1.084726  0.067493489   -1.9917835   0.90705747   500580 
  577000   0.98389083   -1.9919405   -1.9919405   -1.0848004  0.069750361   -1.9919405   0.90714008   500568 
  578000   0.98496563   -1.9926503   -1.9926503   -1.0844975  0.062624109   -1.9926503   0.90815281   500556 
  579000   0.98287941   -1.9911289   -1.9911289   -1.0848797  0.061448013   -1.9911289    0.9062492   500545 
  580000   0.98427168   -1.9915533   -1.9915533   -1.0839986  0.069688928   -1.9915533   0.90755468   500533 
  581000   0.98166247   -1.9904957   -1.9904957   -1.0853252  0.064952521   -1.9904957   0.90517054   500521 
  582000   0.98318407   -1.9914069   -1.9914069   -1.0848116  0.060202504   -1.9914069   0.90659531   500509 
  583000   0.98102516   -1.9903201   -1.9903201   -1.0856956  0.060755421   -1.9903201   0.90462446   500498 
  584000   0.98020537   -1.9899487   -1.9899487   -1.0860586  0.060439506   -1.9899487   0.90389018   500486 
  585000   0.98044653   -1.9904943   -1.9904943   -1.0863601  0.058013007   -1.9904943   0.90413425   500474 
  586000   0.97811633   -1.9890847   -1.9890847   -1.0870776  0.066611695   -1.9890847   0.90200705   500462 
  587000    0.9796982   -1.9908705   -1.9908705   -1.0873848   0.05515762   -1.9908705   0.90348569   500451 
  588000   0.98219458   -1.9918399   -1.9918399   -1.0860303  0.066443989   -1.9918399   0.90580958   500439 
  589000   0.98306641   -1.9920569   -1.9920569   -1.0854215  0.051715978   -1.9920569   0.90663535   500427 
  590000   0.98083279   -1.9900495   -1.9900495   -1.0854524  0.060016065   -1.9900495   0.90459709   500415 
  591000   0.98256861   -1.9908449   -1.9908449    -1.084627  0.062768548   -1.9908449    0.9062179   500404 
  592000     0.983765    -1.992919    -1.992919    -1.085576  0.060524922    -1.992919   0.90734309   500392 
  593000   0.98120318   -1.9905198   -1.9905198   -1.0855178  0.060998301   -1.9905198   0.90500198   500380 
  594000   0.98127549    -1.990919    -1.990919   -1.0858286  0.068238171    -1.990919   0.90509038   500368 
  595000   0.98231729   -1.9924887   -1.9924887   -1.0864156  0.065482221   -1.9924887   0.90607303   500356 
  596000   0.98253606   -1.9924987   -1.9924987    -1.086204  0.064023894   -1.9924987   0.90629474   500345 
  597000    0.9838295   -1.9934106   -1.9934106    -1.085901  0.066276352   -1.9934106   0.90750958   500333 
  598000   0.98300714   -1.9934306   -1.9934306   -1.0866578  0.072529414   -1.9934306   0.90677276   500321 
  599000     0.980734   -1.9920633   -1.9920633   -1.0873657   0.07271651   -1.9920633    0.9046976   500309 
  600000   0.98315894   -1.9937362   -1.9937362   -1.0867817  0.076193029   -1.9937362   0.90695448   500298 
  601000   0.98193073   -1.9935621   -1.9935621    -1.087719  0.068277545   -1.9935621    0.9058432   500286 
  602000   0.98147015   -1.9927408   -1.9927408   -1.0873008  0.056625657   -1.9927408   0.90544003   500274 
  603000   0.98257151   -1.9942493   -1.9942493   -1.0877715  0.067941042   -1.9942493   0.90647782   500262 
  604000   0.98275219   -1.9949117   -1.9949117   -1.0882473  0.068660878   -1.9949117   0.90666444   500251 
  605000   0.98175252   -1.9938604   -1.9938604   -1.0880965  0.060262978   -1.9938604    0.9057639   500239 
  606000   0.98295898   -1.9946905   -1.9946905   -1.0877918  0.052918271   -1.9946905   0.90689873   500227 
  607000   0.98125594   -1.9935872   -1.9935872    -1.088238  0.058875946   -1.9935872   0.90534918   500215 
  608000   0.98191998   -1.9946234   -1.9946234   -1.0886416  0.063850153   -1.9946234   0.90598178   500204 
  609000   0.98179089   -1.9942365   -1.9942365   -1.0883521  0.070136455   -1.9942365    0.9058844   500192 
  610000   0.98306013    -1.995303    -1.995303   -1.0882257  0.066729612    -1.995303   0.90707727   500180 
  611000   0.98218368   -1.9956054   -1.9956054   -1.0893151   0.06696658   -1.9956054   0.90629031   500168 
  612000   0.98090052   -1.9940352   -1.9940352   -1.0889072   0.06775996   -1.9940352   0.90512802   500156 
  613000   0.98084854   -1.9939738   -1.9939738   -1.0888739  0.066074962   -1.9939738   0.90509996   500145 
  614000    0.9835363    -1.995824    -1.995824   -1.0882221  0.067016089    -1.995824   0.90760193   500133 
  615000   0.98003401   -1.9926912   -1.9926912   -1.0882994  0.058094726   -1.9926912   0.90439173   500121 
  616000   0.98135335   -1.9940602   -1.9940602   -1.0884293  0.056989029   -1.9940602   0.90563096   500109 
  617000   0.97770163   -1.9917906   -1.9917906   -1.0895097  0.066798785   -1.9917906   0.90228087   500098 
  618000   0.97929596   -1.9921373   -1.9921373   -1.0883634  0.059767167   -1.9921373   0.90377389   500086 
  619000   0.98137868   -1.9940375   -1.9940375   -1.0883198  0.066703146   -1.9940375   0.90571773   500074 
  620000   0.97994852    -1.992741    -1.992741   -1.0883215  0.060702845    -1.992741   0.90441954   500062 
  621000   0.97951783   -1.9927967   -1.9927967   -1.0887548  0.071755117   -1.9927967   0.90404192   500051 
  622000   0.97918864   -1.9923596   -1.9923596   -1.0885998  0.069844642   -1.9923596   0.90375979   500039 
  623000   0.97912169   -1.9915224   -1.9915224   -1.0878028  0.058743554   -1.9915224   0.90371968   500027 
  624000   0.98044755   -1.9920258   -1.9920258   -1.0870607  0.062922699   -1.9920258   0.90496515   500015 
  625000   0.97921648   -1.9909978   -1.9909978    -1.087149  0.064605038   -1.9909978   0.90384875   500004 
  626000   0.97838114    -1.990656    -1.990656   -1.0875566  0.065147095    -1.990656   0.90309937   499992 
  627000   0.98015019   -1.9908216   -1.9908216   -1.0860676  0.058888402   -1.9908216   0.90475402   499980 
  628000   0.97896447   -1.9902566   -1.9902566   -1.0865754  0.073734049   -1.9902566    0.9036812   499968 
  629000   0.98087104   -1.9921721   -1.9921721   -1.0867092  0.067854267   -1.9921721   0.90546289   499956 
  630000   0.97955018    -1.990169    -1.990169   -1.0859055  0.068397772    -1.990169   0.90426347   499945 
  631000   0.97932726   -1.9900097   -1.9900097   -1.0859303  0.057761414   -1.9900097   0.90407938   499933 
  632000   0.98099592   -1.9906656   -1.9906656    -1.085024    0.0657118   -1.9906656   0.90564156   499921 
  633000   0.98133094   -1.9907427   -1.9907427   -1.0847701  0.065915867   -1.9907427   0.90597259   499909 
  634000   0.98006075   -1.9901928   -1.9901928   -1.0853729  0.072509654   -1.9901928   0.90481986   499898 
  635000     0.980421   -1.9903999   -1.9903999   -1.0852257  0.065237434   -1.9903999   0.90517418   499886 
  636000   0.98170777   -1.9909762   -1.9909762   -1.0845923  0.060042193   -1.9909762   0.90638395   499874 
  637000   0.98211425    -1.992355    -1.992355    -1.085574  0.064300531    -1.992355   0.90678101   499862 
  638000   0.97878798   -1.9902236   -1.9902236   -1.0864939  0.064416198   -1.9902236   0.90372977   499851 
  639000   0.98045896   -1.9911523   -1.9911523    -1.085858  0.053079161   -1.9911523   0.90529434   499839 
  640000   0.97804341   -1.9890344   -1.9890344   -1.0859487   0.05685025   -1.9890344   0.90308566   499827 
  641000   0.97896745   -1.9899313   -1.9899313   -1.0859707  0.060554591   -1.9899313   0.90396058   499815 
  642000    0.9810477    -1.990623    -1.990623   -1.0847216  0.061996512    -1.990623   0.90590138   499804 
  643000   0.97870954   -1.9878028   -1.9878028   -1.0840388  0.071846581   -1.9878028   0.90376402   499792 
  644000   0.98048824   -1.9883268   -1.9883268   -1.0828986  0.063482082   -1.9883268   0.90542826   499780 
  645000   0.98087493   -1.9885159   -1.9885159   -1.0827088  0.067836186   -1.9885159   0.90580709   499768 
  646000   0.98188776   -1.9898207   -1.9898207   -1.0830565  0.061974628   -1.9898207   0.90676418   499756 
  647000   0.98336177   -1.9923378   -1.9923378   -1.0841924  0.065097958   -1.9923378   0.90814541   499745 
  648000   0.98358001   -1.9924901   -1.9924901   -1.0841213  0.068948136   -1.9924901   0.90836876   499733 
  649000   0.98029308   -1.9904774   -1.9904774   -1.0851224  0.065843882   -1.9904774   0.90535492   499721 
  650000   0.98062759   -1.9906963   -1.9906963   -1.0850107  0.058961601   -1.9906963    0.9056856   499709 
  651000   0.97825551   -1.9898633   -1.9898633   -1.0863486   0.05567706   -1.9898633   0.90351469   499698 
  652000   0.97655844   -1.9879518   -1.9879518   -1.0859829  0.063663798   -1.9879518   0.90196894   499686 
  653000   0.97616689   -1.9887286   -1.9887286   -1.0870996  0.061579473   -1.9887286   0.90162895   499674 
  654000   0.97665268    -1.989378    -1.989378   -1.0872786  0.062740597    -1.989378   0.90209931   499662 
  655000   0.97581402   -1.9883816   -1.9883816   -1.0870371  0.064032414   -1.9883816   0.90134451   499651 
  656000   0.97547673   -1.9881298   -1.9881298   -1.0870752  0.060968801   -1.9881298    0.9010546   499639 
  657000    0.9770516   -1.9890156   -1.9890156   -1.0864846  0.063896527   -1.9890156   0.90253099   499627 
[...]
29833000 0.0058071671  -0.06542926  -0.06542926 -0.052184728  9.51276e-05  -0.06542926  0.013244532   202357 
29834000 0.0057577925 -0.065312068 -0.065312068 -0.052180145 0.00095816959 -0.065312068  0.013131922   202357 
29835000 0.0057482005 -0.065264751 -0.065264751 -0.052154705  0.002287939 -0.065264751  0.013110046   202357 
29836000 0.0056320133  -0.06494953  -0.06494953 -0.052104475 -0.00017753652  -0.06494953  0.012845055   202357 
29837000 0.0056674607 -0.065083886 -0.065083886 -0.052157986 -0.00020797752 -0.065083886  0.012925901   202357 
29838000 0.0056427135 -0.065058635 -0.065058635 -0.052189175 -0.00064000837 -0.065058635  0.012869459   202357 
29839000 0.0058024589 -0.065419281 -0.065419281 -0.052185487 0.00018963261 -0.065419281  0.013233794   202357 
29840000 0.0057015232 -0.065170819 -0.065170819 -0.052167231 0.0011748689 -0.065170819  0.013003588   202357 
29841000 0.0057014064 -0.065202392 -0.065202392 -0.052199071 0.00076019691 -0.065202392  0.013003321   202357 
29842000 0.0056879595 -0.065095094 -0.065095094 -0.052122442 0.0011931673 -0.065095094  0.012972653   202357 
29843000 0.0057467965 -0.065220705 -0.065220705 -0.052113797  0.001370455 -0.065220705  0.013106908   202356 
29844000 0.0058344086 -0.065476251 -0.065476251 -0.052169523 -0.00037800697 -0.065476251  0.013306728   202356 
29845000 0.0057612181 -0.065289578 -0.065289578 -0.052149778 -0.0015095573 -0.065289578    0.0131398   202356 
29846000 0.0056825688 -0.065151513 -0.065151513 -0.052191091 -8.1889769e-05 -0.065151513  0.012960422   202356 
29847000 0.0058063013 -0.065431382 -0.065431382 -0.052188759 0.00017719498 -0.065431382  0.013242623   202356 
29848000 0.0057606275 -0.065329148 -0.065329148  -0.05219063 0.00095084409 -0.065329148  0.013138518   202355 
29849000 0.0058893596 -0.065597041 -0.065597041 -0.052164852 -2.5807419e-05 -0.065597041  0.013432189   202354 
29850000 0.0056277916 -0.065024788 -0.065024788 -0.052189171 0.0013697816 -0.065024788  0.012835617   202354 
29851000 0.0058502447 -0.065493984 -0.065493984 -0.052151006 -0.00077790942 -0.065493984  0.013342978   202354 
29852000 0.0057977867 -0.065409431 -0.065409431 -0.052186097 -4.243902e-05 -0.065409431  0.013223334   202354 
29853000 0.0057326247 -0.065255054 -0.065255054 -0.052180339 -0.00085685445 -0.065255054  0.013074715   202354 
29854000 0.0059072154 -0.065680797 -0.065680797 -0.052207883 6.5753435e-05 -0.065680797  0.013472914   202354 
29855000 0.0056885005 -0.065175201 -0.065175201 -0.052201122 -0.00040442239 -0.065175201  0.012974079   202354 
29856000 0.0057342856 -0.065270751 -0.065270751 -0.052192247 0.00029464852 -0.065270751  0.013078503   202354 
29857000 0.0057587299 -0.065342793 -0.065342793 -0.052208538 0.0014711292 -0.065342793  0.013134255   202354 
29858000 0.0056720265 -0.065115762 -0.065115762 -0.052179256 0.0014009017 -0.065115762  0.012936506   202354 
29859000 0.0057681828 -0.065376956 -0.065376956 -0.052221142 0.0018037434 -0.065376956  0.013155815   202354 
29860000 0.0057704822 -0.065378818 -0.065378818 -0.052217758 0.0005367222 -0.065378818  0.013161059   202354 
29861000 0.0056708148 -0.065170538 -0.065170538 -0.052236732 -0.00011642483 -0.065170538  0.012933806   202353 
29862000  0.005701067 -0.065225385 -0.065225385 -0.052222581 0.00068168567 -0.065225385  0.013002804   202353 
29863000 0.0055815873 -0.064976413 -0.064976413 -0.052246114 -0.001105422 -0.064976413  0.012730299   202353 
29864000 0.0056658774 -0.065176226 -0.065176226 -0.052253681 4.4900394e-05 -0.065176226  0.012922545   202353 
29865000 0.0054865793 -0.064765574 -0.064765574 -0.052251966 0.0011158142 -0.064765574  0.012513608   202353 
29866000 0.0056811612 -0.065151519 -0.065151519 -0.052194116 -0.0022309926 -0.065151519  0.012957404   202353 
29867000 0.0057733424   -0.0653741   -0.0653741 -0.052206452 -0.0010304774   -0.0653741  0.013167647   202353 
29868000 0.0057556555 -0.065358282 -0.065358282 -0.052230974 0.00061823127 -0.065358282  0.013127308   202353 
29869000 0.0056535038 -0.065094882 -0.065094882 -0.052200559 0.0010809028 -0.065094882  0.012894324   202353 
29870000 0.0056876871 -0.065192069 -0.065192069 -0.052219781 -0.00025724882 -0.065192069  0.012972288   202353 
29871000  0.005652951 -0.065071581 -0.065071581 -0.052178518 0.0016235214 -0.065071581  0.012893063   202353 
29872000 0.0057845894 -0.065370875 -0.065370875 -0.052177575 -0.00059028669 -0.065370875  0.013193299   202353 
29873000 0.0057250744 -0.065171541 -0.065171541 -0.052113917 0.0010003435 -0.065171541  0.013057624   202352 
29874000 0.0057673536 -0.065283963 -0.065283963  -0.05212991 0.0011526483 -0.065283963  0.013154054   202352 
29875000  0.005765926 -0.065308293 -0.065308293 -0.052157496 0.0014019154 -0.065308293  0.013150797   202352 
29876000 0.0055963914 -0.064897748 -0.064897748 -0.052133621 -0.00034783789 -0.064897748  0.012764127   202352 
29877000 0.0058020349 -0.065364772 -0.065364772 -0.052131619 0.0009848579 -0.065364772  0.013233154   202352 
29878000 0.0057212129 -0.065163523 -0.065163523 -0.052114642 0.0019207249 -0.065163523  0.013048881   202351 
29879000 0.0056905964 -0.065168247 -0.065168247 -0.052189067 0.00016566917 -0.065168247   0.01297918   202349 
29880000  0.005691678   -0.0651709   -0.0651709 -0.052189253 0.00095404098   -0.0651709  0.012981647   202349 
29881000  0.005652064 -0.065051619 -0.065051619 -0.052160324 5.2830833e-05 -0.065051619  0.012891295   202349 
29882000 0.0056811567 -0.065101218 -0.065101218 -0.052143569 -0.0014294007 -0.065101218   0.01295765   202349 
29883000 0.0057443268 -0.065268026 -0.065268026 -0.052166297 -0.00078628942 -0.065268026  0.013101729   202349 
29884000 0.0057815018 -0.065368895 -0.065368895 -0.052182377 0.00090577736 -0.065368895  0.013186518   202349 
29885000 0.0057663437 -0.065249796 -0.065249796 -0.052097851 0.0020327916 -0.065249796  0.013151945   202349 
29886000 0.0056051305 -0.064915058 -0.064915058  -0.05213081 -0.00095413997 -0.064915058  0.012784248   202349 
29887000 0.0055959069 -0.064893287 -0.064893287 -0.052130076 0.0010534889 -0.064893287  0.012763211   202349 
29888000 0.0057495997 -0.065286606 -0.065286606 -0.052172851  0.001633595 -0.065286606  0.013113755   202349 
29889000 0.0055874638 -0.064961847 -0.064961847 -0.052217893 0.00084484307 -0.064961847  0.012743954   202349 
29890000 0.0056419174 -0.065033179 -0.065033179 -0.052164964 0.00063604415 -0.065033179  0.012868216   202348 
29891000 0.0055973049 -0.064947807 -0.064947807 -0.052181344 0.00054046308 -0.064947807  0.012766463   202348 
29892000  0.005580388 -0.064951681 -0.064951681 -0.052223803 0.00017128187 -0.064951681  0.012727878   202348 
29893000 0.0057229767  -0.06523857  -0.06523857 -0.052185472 0.00077333425  -0.06523857  0.013053098   202348 
29894000 0.0057285016 -0.065277783 -0.065277783 -0.052212084 0.0007451856 -0.065277783  0.013065699   202348 
29895000  0.005601055 -0.064955973 -0.064955973 -0.052180895 -0.0001145813 -0.064955973  0.012775079   202347 
29896000 0.0055513318 -0.064821919 -0.064821919 -0.052160251 0.0024770219 -0.064821919  0.012661669   202347 
29897000 0.0057834994 -0.065335948 -0.065335948 -0.052144743 0.0018611067 -0.065335948  0.013191204   202347 
29898000 0.0055598126  -0.06489375  -0.06489375 -0.052212738 0.0028050814  -0.06489375  0.012681012   202347 
29899000 0.0055292664 -0.064806019 -0.064806019 -0.052194679 -0.00031037411 -0.064806019  0.012611341   202347 
29900000 0.0057069446 -0.065180119 -0.065180119 -0.052163524 0.0011383578 -0.065180119  0.013016596   202347 
29901000 0.0056502571 -0.065095637 -0.065095637 -0.052208337 -0.00029268915 -0.065095637  0.012887301   202347 
29902000 0.0056702085 -0.065105661 -0.065105661 -0.052172854 -0.0010970353 -0.065105661  0.012932807   202347 
29903000 0.0055980955 -0.064978108 -0.064978108 -0.052209779 0.0014721655 -0.064978108  0.012768329   202347 
29904000 0.0055286934 -0.064810235 -0.064810235 -0.052200201 -0.0009194026 -0.064810235  0.012610034   202347 
29905000 0.0056396148 -0.065053335 -0.065053335 -0.052190244 -0.00018168608 -0.065053335  0.012863091   202346 
29906000 0.0058165881 -0.065412166 -0.065412166 -0.052145427 0.0002480618 -0.065412166   0.01326674   202346 
29907000 0.0057586184 -0.065238383 -0.065238383 -0.052103863 0.0012264923 -0.065238383   0.01313452   202346 
29908000 0.0056884755 -0.065137723 -0.065137723 -0.052163189 -0.002011019 -0.065137723  0.012974535   202346 
29909000 0.0055976778 -0.064957005 -0.064957005 -0.052189566 -0.00046583145 -0.064957005  0.012767439   202346 
29910000 0.0056019978 -0.064940154 -0.064940154 -0.052162798 0.0022178525 -0.064940154  0.012777356   202345 
29911000  0.005579856 -0.064934172 -0.064934172 -0.052207193 0.00058598687 -0.064934172  0.012726979   202343 
29912000 0.0056977485 -0.065181716 -0.065181716 -0.052185839 0.00068318567 -0.065181716  0.012995878   202343 
29913000 0.0055818425 -0.064931789 -0.064931789 -0.052200216 0.0013603811 -0.064931789  0.012731573   202342 
29914000 0.0056289801 -0.065066979 -0.065066979  -0.05222789 0.0010999805 -0.065066979  0.012839089   202342 
29915000 0.0057980143 -0.065426127 -0.065426127 -0.052201294 0.00013189049 -0.065426127  0.013224833   202339 
29916000  0.005648888 -0.065166606 -0.065166606 -0.052281854 -0.0009428137 -0.065166606  0.012884751   202338 
29917000 0.0056067376 -0.065041717 -0.065041717 -0.052253108 1.3873608e-05 -0.065041717  0.012788609   202338 
29918000 0.0054817347 -0.064707799 -0.064707799 -0.052204314 0.0011277825 -0.064707799  0.012503485   202338 
29919000 0.0055707132 -0.064955366 -0.064955366 -0.052248926 -0.00024930426 -0.064955366   0.01270644   202338 
29920000 0.0056982704 -0.065200023 -0.065200023 -0.052202633 -0.0015679444 -0.065200023  0.012997389   202338 
29921000  0.005652966 -0.065125165 -0.065125165 -0.052231048 0.0016345994 -0.065125165  0.012894117   202337 
29922000 0.0055413794 -0.064874626 -0.064874626 -0.052235033 -0.00017896594 -0.064874626  0.012639594   202337 
29923000 0.0056412993 -0.065094771 -0.065094771 -0.052227266 0.00073526723 -0.065094771  0.012867506   202337 
29924000 0.0056237725 -0.065036677 -0.065036677 -0.052209149 0.00072500475 -0.065036677  0.012827528   202337 
29925000 0.0055849234 -0.064959583 -0.064959583 -0.052220668 0.00045346244 -0.064959583  0.012738915   202337 
29926000 0.0055885786 -0.064960139 -0.064960139 -0.052212887 0.0018836639 -0.064960139  0.012747252   202337 
29927000 0.0056084601 -0.065070521 -0.065070521  -0.05227792 0.00016525133 -0.065070521  0.012792601   202337 
29928000 0.0056295475 -0.065099974 -0.065099974  -0.05225921 0.0013118469 -0.065099974  0.012840764   202336 
29929000 0.0056747243 -0.065191797 -0.065191797 -0.052247987 -0.0014022656 -0.065191797   0.01294381   202336 
29930000 0.0055708261 -0.064960368 -0.064960368 -0.052253545 0.00078487164 -0.064960368  0.012706823   202336 
29931000  0.005531641 -0.064890085 -0.064890085 -0.052272642 0.0012256576 -0.064890085  0.012617443   202336 
29932000 0.0055825493 -0.065004313 -0.065004313  -0.05227075 0.0010601765 -0.065004313  0.012733563   202336 
29933000 0.0056199261 -0.065146379 -0.065146379 -0.052327498 0.00094651645 -0.065146379  0.012818881   202335 
29934000 0.0056318985 -0.065165163 -0.065165163 -0.052318909 -0.00074182108 -0.065165163  0.012846253   202334 
29935000 0.0055830587 -0.065028977 -0.065028977 -0.052294001 -0.00062681121 -0.065028977  0.012734976   202332 
29936000 0.0056344306  -0.06518138  -0.06518138 -0.052329224 0.00086931077  -0.06518138  0.012852156   202332 
29937000 0.0055206532 -0.064901744 -0.064901744 -0.052309115 -0.0010705086 -0.064901744  0.012592629   202332 
29938000 0.0055152597 -0.064861853 -0.064861853 -0.052281526 0.00018080622 -0.064861853  0.012580327   202332 
29939000 0.0056788256 -0.065230987 -0.065230987 -0.052277566 -0.00047214786 -0.065230987  0.012953421   202332 
29940000 0.0055201409  -0.06486966  -0.06486966   -0.0522782 0.0011477343  -0.06486966  0.012591461   202332 
29941000  0.005578836 -0.064999534 -0.064999534  -0.05227419 0.0015721938 -0.064999534  0.012725344   202332 
29942000 0.0056353098 -0.065114841 -0.065114841 -0.052260679 -0.00038272973 -0.065114841  0.012854161   202332 
29943000 0.0055750281 -0.065000486 -0.065000486 -0.052283827 0.00019189067 -0.065000486  0.012716659   202332 
29944000 0.0057085753   -0.0652683   -0.0652683  -0.05224702 -0.00047146774   -0.0652683   0.01302128   202332 
29945000 0.0055370448 -0.064869983 -0.064869983 -0.052239902 0.0017343065 -0.064869983  0.012630081   202331 
29946000 0.0055241641 -0.064857193 -0.064857193 -0.052256431 0.0017783632 -0.064857193  0.012600762   202330 
29947000 0.0056020564  -0.06501196  -0.06501196 -0.052233524 -0.00089527159  -0.06501196  0.012778436   202330 
29948000 0.0056660896 -0.065182311 -0.065182311 -0.052257813 0.00081349129 -0.065182311  0.012924498   202330 
29949000 0.0055006873 -0.064828647 -0.064828647 -0.052281436 -0.00022174972 -0.064828647  0.012547211   202330 
29950000 0.0055907433 -0.065056291 -0.065056291 -0.052303597 -2.8018696e-05 -0.065056291  0.012752694   202329 
29951000 0.0055873449 -0.065008059 -0.065008059 -0.052263117 -1.968929e-05 -0.065008059  0.012744942   202329 
29952000 0.0056494577 -0.065153079 -0.065153079 -0.052266391 0.00018140355 -0.065153079  0.012886688   202328 
29953000 0.0056648707 -0.065167293 -0.065167293 -0.052245447 0.0018203295 -0.065167293  0.012921845   202328 
29954000  0.005597238 -0.064986319 -0.064986319 -0.052218747 -5.5974836e-05 -0.064986319  0.012767572   202328 
29955000 0.0055707816 -0.064952189 -0.064952189 -0.052244965 -0.00016243504 -0.064952189  0.012707224   202328 
29956000  0.005612931 -0.065064823 -0.065064823 -0.052261455 0.00020159125 -0.065064823  0.012803368   202328 
29957000  0.005446795  -0.06472308  -0.06472308 -0.052298615 -0.0010066591  -0.06472308  0.012424466   202327 
29958000 0.0055857795 -0.065021437 -0.065021437 -0.052279876 0.0014315876 -0.065021437   0.01274156   202326 
29959000 0.0055382307 -0.064963735 -0.064963735 -0.052330574 -0.00038021142 -0.064963735  0.012633161   202325 
29960000 0.0056363646 -0.065189418 -0.065189418 -0.052332406 5.3909983e-05 -0.065189418  0.012857012   202325 
29961000 0.0054503966 -0.064785378 -0.064785378 -0.052352574 3.8359013e-05 -0.064785378  0.012432804   202325 
29962000 0.0053868133 -0.064603653 -0.064603653 -0.052315888 -0.00065229948 -0.064603653  0.012287765   202325 
29963000 0.0055354438 -0.064972096 -0.064972096 -0.052345292 0.0032422601 -0.064972096  0.012626804   202325 
29964000 0.0054766489 -0.064822313 -0.064822313 -0.052329626 6.8983444e-05 -0.064822313  0.012492687   202325 
29965000 0.0055411771 -0.064923049 -0.064923049 -0.052283105  0.003383104 -0.064923049  0.012639944   202324 
29966000 0.0054409929 -0.064733642 -0.064733642 -0.052322227 0.0010252116 -0.064733642  0.012411414   202324 
29967000  0.005364047 -0.064535347 -0.064535347 -0.052299453 0.00065077766 -0.064535347  0.012235894   202324 
29968000 0.0055473742 -0.064907268 -0.064907268 -0.052253126 0.0010579384 -0.064907268  0.012654143   202323 
29969000 0.0055388291 -0.064917203 -0.064917203  -0.05228249 -5.4703908e-05 -0.064917203  0.012634713   202322 
29970000 0.0054217683 -0.064662668 -0.064662668 -0.052294923 3.4639227e-05 -0.064662668  0.012367745   202321 
29971000  0.005448662 -0.064707913 -0.064707913 -0.052278821 0.00074677842 -0.064707913  0.012429093   202321 
29972000 0.0055202755 -0.064842207 -0.064842207 -0.052249755 0.00085530162 -0.064842207  0.012592452   202321 
29973000 0.0053976892 -0.064580255 -0.064580255 -0.052267437 0.00010274917 -0.064580255  0.012312817   202321 
29974000 0.0056057894 -0.065010008 -0.065010008 -0.052222424 -0.00029919506 -0.065010008  0.012787584   202320 
29975000 0.0054867462 -0.064702847 -0.064702847 -0.052186818 -0.0016613571 -0.064702847  0.012516029   202320 
29976000  0.005530209 -0.064829626 -0.064829626 -0.052214452 0.00058380485 -0.064829626  0.012615174   202320 
29977000 0.0055254913 -0.064883537 -0.064883537    -0.052279 -0.00024477126 -0.064883537  0.012604537   202318 
29978000  0.005553805 -0.064947139 -0.064947139 -0.052278013 4.9232682e-05 -0.064947139  0.012669125   202318 
29979000 0.0054540116 -0.064692463 -0.064692463 -0.052250982 0.00075303524 -0.064692463   0.01244148   202318 
29980000 0.0054839008 -0.064751644 -0.064751644 -0.052241982 0.0014165312 -0.064751644  0.012509662   202318 
29981000 0.0053955697 -0.064544728 -0.064544728 -0.052236563 0.00033882254 -0.064544728  0.012308165   202318 
29982000 0.0054952384  -0.06480369  -0.06480369 -0.052268165 0.00036644997  -0.06480369  0.012535525   202318 
29983000 0.0054148476 -0.064632702 -0.064632702 -0.052280561 -0.00031595549 -0.064632702  0.012352141   202318 
29984000 0.0055186576 -0.064821124 -0.064821124 -0.052232176 -0.00038348519 -0.064821124  0.012588948   202318 
29985000 0.0054968488 -0.064763339 -0.064763339  -0.05222414 0.00042643281 -0.064763339  0.012539199   202318 
29986000 0.0055040186 -0.064805061 -0.064805061 -0.052249506  0.001018673 -0.064805061  0.012555554   202318 
29987000  0.005406566 -0.064596192 -0.064596192 -0.052262943 -0.0005554932 -0.064596192  0.012333249   202318 
29988000 0.0055179159 -0.064875986 -0.064875986  -0.05228873 0.00068445535 -0.064875986  0.012587256   202318 
29989000 0.0054259728 -0.064632244 -0.064632244 -0.052254724 -0.00020723428 -0.064632244  0.012377519   202318 
29990000 0.0055519702 -0.064903717 -0.064903717 -0.052238652 0.0017458919 -0.064903717  0.012665065   202316 
29991000  0.005464134 -0.064666973 -0.064666973 -0.052202278 0.00079828033 -0.064666973  0.012464695   202316 
29992000 0.0054949391 -0.064735177 -0.064735177 -0.052200211 0.00061208442 -0.064735177  0.012534967   202316 
29993000 0.0054622787 -0.064652919 -0.064652919 -0.052192457 0.00078288145 -0.064652919  0.012460462   202316 
29994000  0.005587612 -0.064952878 -0.064952878 -0.052206445 -0.0011401834 -0.064952878  0.012746433   202315 
29995000 0.0055074405 -0.064764019 -0.064764019  -0.05220041 -0.0018492101 -0.064764019  0.012563609   202314 
29996000 0.0054647637 -0.064697743 -0.064697743 -0.052231489 3.9518339e-05 -0.064697743  0.012466254   202314 
29997000 0.0054582891 -0.064666695 -0.064666695 -0.052215211 0.0002749809 -0.064666695  0.012451484   202314 
29998000 0.0056064345 -0.065040774 -0.065040774  -0.05225134 0.00075992619 -0.065040774  0.012789434   202314 
29999000 0.0055555568 -0.064908844 -0.064908844 -0.052235472 0.0011988428 -0.064908844  0.012673372   202314 
30000000 0.0054751409 -0.064708488 -0.064708488 -0.052218562 -0.0012755197 -0.064708488  0.012489927   202314 
Loop time of 97088.9 on 128 procs for 30000000 steps with 202314 atoms

Performance: 133485.902 tau/day, 308.995 timesteps/s
98.4% CPU use with 128 MPI tasks x 1 OpenMP threads

MPI task timing breakdown:
Section |  min time  |  avg time  |  max time  |%varavg|  %CPU | %total
-----------------------------------------------------------------------
Pair    | 4599.9     | 12577      | 23739      |2986.0 |  98.3 | 12.95
Bond    | 11.059     | 12.425     | 16.262     |  24.8 | 100.0 |  0.01
Neigh   | 7152.7     | 16828      | 27344      |2555.6 |  99.1 | 17.33
Comm    | 32067      | 47543      | 63548      |2399.4 |  98.1 | 48.97
Output  | 1402.7     | 1408.7     | 1423.6     |  18.6 |  99.1 |  1.45
Modify  | 14820      | 17264      | 22395      |1164.3 |  98.1 | 17.78
Other   |            | 1455       |            |       |       |  1.50

Nlocal:        1580.58 ave        2814 max         110 min
Histogram: 2 4 8 15 16 33 27 13 5 5
Nghost:        6071.86 ave        9917 max        1719 min
Histogram: 4 12 14 18 13 13 11 13 19 11
Neighs:        783.727 ave        3475 max           0 min
Histogram: 63 8 9 14 13 7 8 2 1 3

Total # of neighbors = 100317
Ave neighs/atom = 0.49584804
Ave special neighs/atom = 0.0000000
Neighbor list builds = 3154735
Dangerous builds = 2628272

Total wall time: 26:58:23
