LAMMPS (24 Dec 2020)
OMP_NUM_THREADS environment is not set. Defaulting to 1 thread. (src/comm.cpp:94)
  using 1 OpenMP thread(s) per MPI task
#Read the equilibrated lj fluid and add nanocubes

units           lj
atom_style      full
atom_modify     map array first cubes
dimension       3
boundary        p p f
pair_style      lj/cut/opt 2.5

variable        sigma           equal 1.0
variable        epsilon         equal 1.0
read_restart	restart.dat.10000000
Reading restart file ...
  restart file = 24 Dec 2020, LAMMPS = 24 Dec 2020
WARNING: Restart file used different # of processors: 288 vs. 768 (src/read_restart.cpp:697)
  restoring atom style full from restart
  orthogonal box = (0.0000000 0.0000000 0.0000000) to (120.00000 120.00000 240.00000)
  6 by 8 by 16 MPI processor grid
  restoring pair style lj/cut/opt from restart
  1553347 atoms
Finding 1-2 1-3 1-4 neighbors ...
  special bond factors lj:    0        0        0       
  special bond factors coul:  0        0        0       
     0 = max # of 1-2 neighbors
     0 = max # of 1-3 neighbors
     0 = max # of 1-4 neighbors
     1 = max # of special neighbors
  special bonds CPU = 9.971 seconds
  read_restart CPU = 11.316 seconds

group		solvent type 1
1553347 atoms in group solvent

read_data	data3_450.cubes group cubes add append
Reading data file ...
  orthogonal box = (0.0000000 0.0000000 0.0000000) to (120.00000 120.00000 240.00000)
  6 by 8 by 16 MPI processor grid
  reading atoms ...
  560070 atoms
  reading velocities ...
  560070 velocities
Finding 1-2 1-3 1-4 neighbors ...
  special bond factors lj:    0        0        0       
  special bond factors coul:  0        0        0       
     0 = max # of 1-2 neighbors
     0 = max # of 1-3 neighbors
     0 = max # of 1-4 neighbors
     1 = max # of special neighbors
  special bonds CPU = 0.376 seconds
  read_data CPU = 3.786 seconds

group 		hull  type 2
218540 atoms in group hull
group 		dummy type 3
341530 atoms in group dummy

neighbor      0.4 bin
neigh_modify  exclude molecule/intra cubes


pair_modify   shift yes

pair_coeff    1 1 1.0 1.0 #solvent
pair_coeff    2 2 1.0 1.0 1.12 #np
pair_coeff    3 3 0.0 0.0 0.0 #dummy
pair_coeff    2 3 0.0 0.0 0.0 #np dummy
pair_coeff    1 2 ${sol} 1.0  #np solvent
pair_coeff    1 2 .75 1.0  
pair_coeff    1 3 0.0 0.0 2.5 #dummy solvent

# delete solvent where the cubes are
delete_atoms  overlap 1.0 solvent cubes
System init for delete_atoms ...
Unused restart file peratom fix info:
  fix style: STORE, fix ID: bin1_COMPUTE_STORE
Neighbor list info ...
  update every 1 steps, delay 10 steps, check yes
  max neighbors/atom: 2000, page size: 100000
  master list distance cutoff = 2.9
  ghost atom cutoff = 2.9
  binsize = 1.45, bins = 83 83 166
  2 neighbor lists, perpetual/occasional/extra = 1 1 0
  (1) command delete_atoms, occasional
      attributes: full, newton on
      pair build: full/bin
      stencil: full/bin/3d
      bin: standard
  (2) pair lj/cut/opt, perpetual
      attributes: half, newton on
      pair build: half/bin/newton
      stencil: half/bin/3d/newton
      bin: standard
WARNING: Delete_atoms cutoff > minimum neighbor cutoff (src/delete_atoms.cpp:307)
WARNING: Ignoring 'compress yes' for molecular system (src/delete_atoms.cpp:125)
Deleted 398981 atoms, new total = 1714436

pair_coeff    1 1 1.0 1.0 #solvent
pair_coeff    2 2 1.0 1.0 1.12 #np
pair_coeff    3 3 0.0 0.0 0.0 #dummy
pair_coeff    2 3 0.0 0.0 0.0 #np dummy
pair_coeff    1 2 ${sol} 1.0  #np solvent
pair_coeff    1 2 .75 1.0  
pair_coeff    1 3 0.0 0.0 0.0 #dummy solvent


comm_modify   mode multi cutoff/multi 1 2.5 cutoff/multi 2 2.5 cutoff/multi 3 6.96

reset_timestep 	0

balance 	1.05 shift z 10 1.05
Balancing ...
Neighbor list info ...
  update every 1 steps, delay 10 steps, check yes
  max neighbors/atom: 2000, page size: 100000
  master list distance cutoff = 2.9
  ghost atom cutoff = 6.96
  binsize = 1.45, bins = 83 83 166
  1 neighbor lists, perpetual/occasional/extra = 1 0 0
  (1) pair lj/cut/opt, perpetual
      attributes: half, newton on
      pair build: half/bin/newton
      stencil: half/bin/3d/newton
      bin: standard
 rebalancing time: 0.005 seconds
  iteration count = 4
  initial/final maximal load/proc = 3253.0000 3204.0000
  initial/final imbalance factor  = 1.4572163 1.4352662
  x cuts: 0.0000000 0.16666667 0.33333333 0.50000000 0.66666667 0.83333333 1.0000000
  y cuts: 0.0000000 0.12500000 0.25000000 0.37500000 0.50000000 0.62500000 0.75000000 0.87500000 1.0000000
  z cuts: 0.0000000 0.050781250 0.097656250 0.14453125 0.19921875 0.24218750 0.28906250 0.33593750 0.38281250 0.43359375 0.47265625 0.53515625 0.57421875 0.63671875 0.67187500 0.73437500 1.0000000

####################### WALLS ###########################

variable       epsilonWall equal 2*${epsilon}
variable       epsilonWall equal 2*1
variable       repulsive   equal   0.7147*${sigma}
variable       repulsive   equal   0.7147*1
variable       full	   equal   3*${sigma}
variable       full	   equal   3*1
region         lowWall block EDGE EDGE EDGE EDGE EDGE 2

fix            topWall all wall/lj93 zhi EDGE 	       ${epsilonWall} ${sigma} ${repulsive} units box
fix            topWall all wall/lj93 zhi EDGE 	       2 ${sigma} ${repulsive} units box
fix            topWall all wall/lj93 zhi EDGE 	       2 1 ${repulsive} units box
fix            topWall all wall/lj93 zhi EDGE 	       2 1 0.7147 units box
fix            lowSol solvent wall/lj93 zlo EDGE                ${epsilonWall} ${sigma} ${full} units box
fix            lowSol solvent wall/lj93 zlo EDGE                2 ${sigma} ${full} units box
fix            lowSol solvent wall/lj93 zlo EDGE                2 1 ${full} units box
fix            lowSol solvent wall/lj93 zlo EDGE                2 1 3 units box
fix 	       lowCub cubes wall/lj93 zlo EDGE                ${epsilonWall} ${sigma} ${repulsive} units box
fix 	       lowCub cubes wall/lj93 zlo EDGE                2 ${sigma} ${repulsive} units box
fix 	       lowCub cubes wall/lj93 zlo EDGE                2 1 ${repulsive} units box
fix 	       lowCub cubes wall/lj93 zlo EDGE                2 1 0.7147 units box


###################### COMPUTES ##########################

compute        bin1 solvent chunk/atom bin/1d z lower 1.0 units box
compute        bin3 solvent chunk/atom bin/3d x lower 5.0 y lower 5.0 z lower 5.0 units box

compute 	pe solvent 	   pe/atom
compute 	pe2 all 	   pe/atom

######################  FIXES ############################


fix             peclet solvent ave/chunk 10 10 100000 bin1 density/number norm                  none ave one file density.profile

fix              temp solvent ave/chunk 10 10 100000 bin1 temp norm                  none ave one file temp.profile

fix 		 dens solvent ave/chunk 10 10 500000 bin3 density/number norm 		 none ave one file dens3.profile

fix 		pe solvent ave/chunk 1 1 500000 bin3 c_pe norm none ave one file pe3.profile
fix             1 cubes rigid/nve/small molecule
  create bodies CPU = 0.038 seconds
  490 rigid bodies with 560070 atoms
  6.9542847 = max distance from body owner to body atom

fix             2 solvent nve# temp ${temp} ${temp} 10


## Thermostat
region          regthermo block EDGE EDGE EDGE EDGE 0 15
group           thermo dynamic solvent region regthermo every 1000
dynamic group thermo defined
fix             3 thermo langevin ${temp} ${temp} 10 156453
fix             3 thermo langevin 1.0 ${temp} 10 156453
fix             3 thermo langevin 1.0 1.0 10 156453


#### Load balancing

fix             bal all balance 1000 1.05 shift z 10 1.05

############### Diagnostics and computes ###################


compute        	com cubes          rigid/local   1 mol x y z
compute        	quat cubes         rigid/local   1 mol quatw quati quatj quatk

compute 	cc2 cubes 	   chunk/atom 	 molecule
compute 	msd cubes 	   msd/chunk 	 cc2

fix 		msd all ave/time  1 1 10000 c_msd[*] file dump.msd ave one mode vector

dump            1 all custom 500000 dump.lammpstrj id mol type x y z vx vy vz c_pe2
dump		sol  solvent custom 500000 dump.soltrj id x y z vx vy vz c_pe
dump		cubetrj cubes custom 500000 cubes.lammpstrj id mol type x y z vx vy vz
#dump            com cubes local 100000 dump.*.xyz c_com[*]
#dump	        xyz hull xyz 100000 cubes.xyz
#dump            quat cubes      local 100000 dump.*.quat c_quat[*]
dump		order cubes 	local 500000 dump.*.order c_com[*] c_quat[*]
#dump		mol cubes molfile 10000 mol.xyz xyz


dump            2 all image 500000 image.*.png type type zoom 1.5 size 1280 720
dump_modify     2 pad 8
dump		image cubes image 500000 image_cubes.*.png type type zoom 1.5 size 1280 720
dump_modify	image pad 8
dump            3 all movie 10000 movie.avi type type zoom 1.5 size 1280 720
dump		4 cubes movie 10000 movie_cubes.avi type type size 1280 720


thermo          1000
thermo_style    custom step temp epair evdwl etotal press pe ke atoms

restart         1000000 restart.dat
timestep        0.005
timer           full
New timer settings: style=full  mode=nosync  timeout=off

run 		10000000
Per MPI rank memory allocation (min/avg/max) = 15.66 | 21.45 | 23.46 Mbytes
Step Temp E_pair E_vdwl TotEng Press PotEng KinEng Atoms 
       0    1.0089585   -2.1516038   -2.1516038     -1.13171  -0.14745106   -2.1516038    1.0198938  1714436 
    1000    1.0139692   -2.1574761   -2.1574761   -1.1325172  0.059053581   -2.1574761    1.0249589  1714436 
    2000    1.0145855   -2.1584443   -2.1584443   -1.1328624  0.061030376   -2.1584443    1.0255819  1714436 
    3000    1.0145047   -2.1586787   -2.1586787   -1.1331785  0.056833252   -2.1586787    1.0255001  1714436 
    4000    1.0147573   -2.1593516   -2.1593516    -1.133596  0.061888716   -2.1593516    1.0257555  1714436 
    5000    1.0151613   -2.1601084   -2.1601084   -1.1339445  0.069009543   -2.1601084    1.0261639  1714436 
    6000     1.014436   -2.1599198   -2.1599198    -1.134489  0.060201938   -2.1599198    1.0254308  1714436 
    7000      1.01564   -2.1615039   -2.1615039   -1.1348562  0.058705868   -2.1615039    1.0266477  1714436 
    8000    1.0141611   -2.1606168   -2.1606168   -1.1354639  0.062421584   -2.1606168    1.0251528  1714436 
    9000    1.0146427   -2.1611186   -2.1611186    -1.135479  0.061744145   -2.1611186    1.0256396  1714436 
   10000    1.0141542   -2.1609633   -2.1609633   -1.1358174  0.059624264   -2.1609633    1.0251459  1714436 
   11000    1.0140388   -2.1616611   -2.1616611   -1.1366319  0.061255194   -2.1616611    1.0250292  1714436 
   12000    1.0139839   -2.1618621   -2.1618621   -1.1368884  0.060660658   -2.1618621    1.0249737  1714436 
   13000    1.0137612   -2.1620979   -2.1620979   -1.1373492  0.060715437   -2.1620979    1.0247486  1714436 
   14000    1.0129035   -2.1615801   -2.1615801   -1.1376985  0.065187861   -2.1615801    1.0238816  1714436 
   15000    1.0128216   -2.1617321   -2.1617321   -1.1379333  0.056298484   -2.1617321    1.0237988  1714436 
   16000    1.0125154   -2.1621193   -2.1621193     -1.13863  0.056226093   -2.1621193    1.0234893  1714436 
   17000    1.0126706   -2.1628543   -2.1628543   -1.1392081  0.059900998   -2.1628543    1.0236462  1714436 
   18000    1.0115601    -2.161917    -2.161917   -1.1393933  0.055857348    -2.161917    1.0225237  1714436 
   19000    1.0117499   -2.1626749   -2.1626749   -1.1399594  0.060921745   -2.1626749    1.0227155  1714436 
   20000    1.0131935   -2.1642695   -2.1642695   -1.1400947  0.062382831   -2.1642695    1.0241748  1714436 
   21000    1.0137417   -2.1654408   -2.1654408   -1.1407119  0.060623795   -2.1654408    1.0247289  1714436 
   22000    1.0129109    -2.165359    -2.165359     -1.14147  0.063764272    -2.165359     1.023889  1714436 
   23000    1.0136248   -2.1655526   -2.1655526   -1.1409419  0.061193356   -2.1655526    1.0246107  1714436 
   24000    1.0138086   -2.1661923   -2.1661923   -1.1413957  0.057309024   -2.1661923    1.0247966  1714436 
   25000    1.0148359   -2.1667549   -2.1667549     -1.14092  0.064634233   -2.1667549    1.0258349  1714436 
   26000    1.0142103   -2.1665458   -2.1665458   -1.1413432  0.065596392   -2.1665458    1.0252026  1714436 
   27000    1.0146118   -2.1671134   -2.1671134    -1.141505  0.064115567   -2.1671134    1.0256084  1714436 
   28000    1.0151605   -2.1679324   -2.1679324   -1.1417693  0.066150231   -2.1679324    1.0261631  1714436 
   29000    1.0148466   -2.1680976   -2.1680976   -1.1422518  0.057578479   -2.1680976    1.0258458  1714436 
   30000     1.015386   -2.1688562   -2.1688562   -1.1424652  0.066341433   -2.1688562     1.026391  1714436 
   31000    1.0153915   -2.1690513   -2.1690513   -1.1426548  0.067833035   -2.1690513    1.0263965  1714436 
   32000    1.0152487   -2.1691506   -2.1691506   -1.1428984  0.063464951   -2.1691506    1.0262522  1714436 
   33000    1.0162907   -2.1701825   -2.1701825    -1.142877  0.062778522   -2.1701825    1.0273055  1714436 
   34000    1.0164837   -2.1709046   -2.1709046    -1.143404  0.063487107   -2.1709046    1.0275006  1714436 
   35000    1.0158974   -2.1707632   -2.1707632   -1.1438552  0.065133074   -2.1707632     1.026908  1714436 
   36000    1.0164231   -2.1711584   -2.1711584    -1.143719  0.066285187   -2.1711584    1.0274393  1714436 
   37000     1.015432   -2.1706872   -2.1706872   -1.1442497  0.067376365   -2.1706872    1.0264375  1714436 
   38000    1.0155098   -2.1708637   -2.1708637   -1.1443475  0.066199876   -2.1708637    1.0265162  1714436 
   39000    1.0155125   -2.1710165   -2.1710165   -1.1444977  0.067188274   -2.1710165    1.0265189  1714436 
   40000    1.0160754   -2.1718343   -2.1718343   -1.1447464  0.068987163   -2.1718343    1.0270879  1714436 
   41000    1.0158412   -2.1717995   -2.1717995   -1.1449483  0.062228694   -2.1717995    1.0268512  1714436 
   42000     1.015413   -2.1715819   -2.1715819   -1.1451636  0.063982897   -2.1715819    1.0264183  1714436 
   43000    1.0160209   -2.1720015   -2.1720015   -1.1449687    0.0617074   -2.1720015    1.0270327  1714436 
   44000    1.0165336   -2.1728687   -2.1728687   -1.1453176  0.062898878   -2.1728687    1.0275511  1714436 
   45000     1.014736    -2.171481    -2.171481    -1.145747   0.07053586    -2.171481     1.025734  1714436 
   46000    1.0156526   -2.1724144   -2.1724144   -1.1457539  0.070050616   -2.1724144    1.0266605  1714436 
   47000    1.0153029   -2.1721476   -2.1721476   -1.1458406  0.064820122   -2.1721476     1.026307  1714436 
   48000    1.0157511   -2.1729452   -2.1729452   -1.1461851  0.068464693   -2.1729452    1.0267601  1714436 
   49000     1.016002   -2.1734244   -2.1734244   -1.1464107  0.062714081   -2.1734244    1.0270137  1714436 
   50000    1.0154486   -2.1730274   -2.1730274   -1.1465732  0.064696347   -2.1730274    1.0264543  1714436 
   51000    1.0140867    -2.171634    -2.171634   -1.1465564  0.066632603    -2.171634    1.0250777  1714436 
   52000    1.0146559   -2.1723515   -2.1723515   -1.1466985  0.065643372   -2.1723515     1.025653  1714436 
   53000    1.0145405   -2.1722999   -2.1722999   -1.1467635  0.065266986   -2.1722999    1.0255364  1714436 
   54000    1.0154324   -2.1731708   -2.1731708   -1.1467329  0.067835336   -2.1731708     1.026438  1714436 
   55000    1.0148516   -2.1729194   -2.1729194   -1.1470685  0.065294582   -2.1729194    1.0258509  1714436 
   56000    1.0145364   -2.1721876   -2.1721876   -1.1466554  0.068925229   -2.1721876    1.0255323  1714436 
   57000    1.0140871   -2.1721248   -2.1721248   -1.1470467  0.064562708   -2.1721248    1.0250781  1714436 
   58000    1.0142242   -2.1722487   -2.1722487   -1.1470322  0.063691293   -2.1722487    1.0252166  1714436 
   59000     1.013222   -2.1710967   -2.1710967   -1.1468932   0.06364438   -2.1710967    1.0242035  1714436 
   60000    1.0138314    -2.171488    -2.171488   -1.1466685  0.063212565    -2.171488    1.0248195  1714436 
   61000     1.013781   -2.1717122   -2.1717122   -1.1469436  0.061514414   -2.1717122    1.0247686  1714436 
   62000    1.0142554   -2.1720207   -2.1720207   -1.1467726  0.067571008   -2.1720207    1.0252481  1714436 
   63000     1.014199   -2.1720076   -2.1720076   -1.1468164  0.066954746   -2.1720076    1.0251912  1714436 
   64000    1.0136016   -2.1711208   -2.1711208   -1.1465336  0.060121862   -2.1711208    1.0245873  1714436 
   65000    1.0139138   -2.1713496   -2.1713496   -1.1464467  0.059984301   -2.1713496    1.0249028  1714436 
   66000    1.0133339   -2.1706906   -2.1706906    -1.146374  0.062305303   -2.1706906    1.0243166  1714436 
   67000    1.0137279   -2.1706569   -2.1706569   -1.1459419    0.0603662   -2.1706569     1.024715  1714436 
   68000    1.0134445   -2.1704565   -2.1704565    -1.146028    0.0644111   -2.1704565    1.0244284  1714436 
   69000    1.0139651   -2.1711396   -2.1711396   -1.1461849  0.062048092   -2.1711396    1.0249547  1714436 
   70000    1.0138766   -2.1713808   -2.1713808   -1.1465155  0.059849396   -2.1713808    1.0248652  1714436 
   71000     1.013462   -2.1706437   -2.1706437   -1.1461976  0.060485056   -2.1706437    1.0244461  1714436 
   72000    1.0138884   -2.1708963   -2.1708963   -1.1460192  0.059098895   -2.1708963    1.0248771  1714436 
   73000    1.0126262   -2.1694116   -2.1694116   -1.1458103  0.062368978   -2.1694116    1.0236013  1714436 
   74000    1.0137874   -2.1702124   -2.1702124   -1.1454374  0.060345387   -2.1702124     1.024775  1714436 
   75000    1.0130271   -2.1694194   -2.1694194   -1.1454129  0.064151992   -2.1694194    1.0240065  1714436 
   76000    1.0125809   -2.1694856   -2.1694856   -1.1459301   0.06538009   -2.1694856    1.0235555  1714436 
   77000    1.0126668   -2.1694843   -2.1694843    -1.145842  0.059204746   -2.1694843    1.0236423  1714436 
   78000    1.0133507   -2.1699157   -2.1699157   -1.1455821  0.060417267   -2.1699157    1.0243336  1714436 
   79000    1.0127405   -2.1696215   -2.1696215   -1.1459046  0.063607616   -2.1696215    1.0237169  1714436 
   80000    1.0132189   -2.1699399   -2.1699399   -1.1457395  0.062831674   -2.1699399    1.0242004  1714436 
   81000    1.0132819   -2.1700627   -2.1700627   -1.1457986  0.061070436   -2.1700627    1.0242641  1714436 
   82000    1.0132402   -2.1699881   -2.1699881   -1.1457661  0.059691489   -2.1699881     1.024222  1714436 
   83000    1.0132772   -2.1700675   -2.1700675   -1.1458082  0.064771749   -2.1700675    1.0242593  1714436 
   84000    1.0140031    -2.170653    -2.170653   -1.1456599  0.062684727    -2.170653    1.0249931  1714436 
   85000    1.0136705    -2.170488    -2.170488   -1.1458311  0.057178186    -2.170488    1.0246569  1714436 
   86000    1.0132408    -2.170072    -2.170072   -1.1458494  0.061870069    -2.170072    1.0242226  1714436 
   87000    1.0137995   -2.1705678   -2.1705678   -1.1457805  0.060028735   -2.1705678    1.0247874  1714436 
   88000    1.0135477   -2.1703902   -2.1703902   -1.1458574  0.068168836   -2.1703902    1.0245328  1714436 
   89000      1.01431   -2.1713812   -2.1713812   -1.1460778  0.062383453   -2.1713812    1.0253034  1714436 
   90000    1.0128267   -2.1704473   -2.1704473   -1.1466434  0.060534406   -2.1704473     1.023804  1714436 
   91000    1.0141725   -2.1715678   -2.1715678   -1.1464035  0.062052312   -2.1715678    1.0251643  1714436 
   92000    1.0140203    -2.171206    -2.171206   -1.1461955  0.063998109    -2.171206    1.0250105  1714436 
   93000     1.014808   -2.1723041   -2.1723041   -1.1464974  0.058301395   -2.1723041    1.0258067  1714436 
   94000    1.0135836   -2.1713298   -2.1713298   -1.1467607  0.066806357   -2.1713298     1.024569  1714436 
   95000    1.0137865   -2.1714919   -2.1714919   -1.1467178  0.063067049   -2.1714919    1.0247741  1714436 
   96000    1.0147012   -2.1726608   -2.1726608    -1.146962   0.06506679   -2.1726608    1.0256988  1714436 
   97000    1.0129452   -2.1710508   -2.1710508    -1.147127  0.062002448   -2.1710508    1.0239237  1714436 
   98000     1.012988   -2.1708331   -2.1708331    -1.146866  0.064526212   -2.1708331    1.0239671  1714436 
   99000    1.0127903   -2.1709266   -2.1709266   -1.1471594  0.064236739   -2.1709266    1.0237672  1714436 
  100000    1.0133055    -2.171723    -2.171723   -1.1474351  0.060415353    -2.171723    1.0242879  1714436 
  101000    1.0139001    -2.172268    -2.172268    -1.147379  0.062407667    -2.172268     1.024889  1714436 
  102000    1.0139088     -2.17214     -2.17214   -1.1472422  0.063294202     -2.17214    1.0248978  1714436 
  103000    1.0143495   -2.1730667   -2.1730667   -1.1477234  0.063123789   -2.1730667    1.0253433  1714436 
  104000    1.0144597   -2.1731456   -2.1731456   -1.1476909  0.064639191   -2.1731456    1.0254547  1714436 
  105000    1.0142211   -2.1732363   -2.1732363   -1.1480228  0.064323941   -2.1732363    1.0252135  1714436 
  106000    1.0141501    -2.173497    -2.173497   -1.1483552  0.066864255    -2.173497    1.0251417  1714436 
  107000    1.0131801   -2.1728055   -2.1728055   -1.1486443  0.062843424   -2.1728055    1.0241612  1714436 
  108000    1.0136613   -2.1734406   -2.1734406   -1.1487929  0.059878161   -2.1734406    1.0246477  1714436 
  109000    1.0133426   -2.1729932   -2.1729932   -1.1486678  0.065293098   -2.1729932    1.0243255  1714436 
  110000    1.0137301   -2.1733613   -2.1733613   -1.1486442   0.06587928   -2.1733613    1.0247172  1714436 
  111000    1.0146419   -2.1743867   -2.1743867   -1.1487479  0.063394112   -2.1743867    1.0256388  1714436 
  112000    1.0133992   -2.1732641   -2.1732641   -1.1488814  0.064985612   -2.1732641    1.0243827  1714436 
  113000    1.0146732   -2.1746002   -2.1746002   -1.1489297  0.064292764   -2.1746002    1.0256705  1714436 
  114000    1.0148273   -2.1751677   -2.1751677   -1.1493414  0.068113135   -2.1751677    1.0258263  1714436 
  115000    1.0147131   -2.1748294   -2.1748294   -1.1491186  0.064459009   -2.1748294    1.0257108  1714436 
  116000    1.0147772   -2.1750011   -2.1750011   -1.1492255  0.061481333   -2.1750011    1.0257756  1714436 
  117000    1.0150524   -2.1751353   -2.1751353   -1.1490815  0.063295989   -2.1751353    1.0260538  1714436 
  118000    1.0143783   -2.1745301   -2.1745301   -1.1491577  0.067974745   -2.1745301    1.0253724  1714436 
  119000     1.015097   -2.1756293   -2.1756293   -1.1495304  0.068953281   -2.1756293    1.0260989  1714436 
  120000    1.0150806   -2.1757324   -2.1757324   -1.1496501  0.066253525   -2.1757324    1.0260823  1714436 
  121000    1.0139371   -2.1748883   -2.1748883    -1.149962  0.064363636   -2.1748883    1.0249264  1714436 
  122000    1.0128069   -2.1736626   -2.1736626   -1.1498786  0.071251829   -2.1736626     1.023784  1714436 
  123000    1.0133162   -2.1744426   -2.1744426   -1.1501438  0.067747261   -2.1744426    1.0242988  1714436 
  124000    1.0147562   -2.1757801   -2.1757801   -1.1500256  0.063900846   -2.1757801    1.0257544  1714436 
  125000    1.0141669   -2.1753007   -2.1753007    -1.150142  0.065113047   -2.1753007    1.0251587  1714436 
  126000    1.0137679   -2.1750527   -2.1750527   -1.1502973  0.064774525   -2.1750527    1.0247554  1714436 
  127000    1.0142881   -2.1758132   -2.1758132    -1.150532  0.065786143   -2.1758132    1.0252812  1714436 
  128000      1.01406   -2.1755318   -2.1755318   -1.1504811  0.063676084   -2.1755318    1.0250507  1714436 
  129000    1.0134579   -2.1748233   -2.1748233   -1.1503813  0.067154097   -2.1748233     1.024442  1714436 
  130000      1.01441   -2.1751159   -2.1751159   -1.1497115  0.062646797   -2.1751159    1.0254044  1714436 
  131000    1.0140768   -2.1744292   -2.1744292   -1.1493616  0.063360754   -2.1744292    1.0250676  1714436 
  132000    1.0139893   -2.1745819   -2.1745819   -1.1496028   0.06209626   -2.1745819    1.0249792  1714436 
  133000    1.0147861   -2.1752497   -2.1752497   -1.1494652  0.066140016   -2.1752497    1.0257846  1714436 
  134000    1.0143754   -2.1745254   -2.1745254    -1.149156  0.070134805   -2.1745254    1.0253694  1714436 
  135000    1.0136803   -2.1739964   -2.1739964   -1.1493296  0.064022983   -2.1739964    1.0246668  1714436 
  136000    1.0131485   -2.1740259   -2.1740259   -1.1498967  0.060629935   -2.1740259    1.0241293  1714436 
  137000    1.0127053   -2.1734908   -2.1734908   -1.1498095  0.064544019   -2.1734908    1.0236813  1714436 
  138000     1.013819   -2.1746798   -2.1746798   -1.1498727  0.063046642   -2.1746798    1.0248071  1714436 
  139000    1.0127447   -2.1736656   -2.1736656   -1.1499445  0.061865268   -2.1736656    1.0237211  1714436 
  140000    1.0137999   -2.1746382   -2.1746382   -1.1498505  0.064497925   -2.1746382    1.0247878  1714436 
  141000    1.0147859   -2.1753528   -2.1753528   -1.1495683   0.06481817   -2.1753528    1.0257844  1714436 
  142000    1.0125061   -2.1734818   -2.1734818   -1.1500019  0.060547833   -2.1734818    1.0234799  1714436 
  143000     1.012535   -2.1738524   -2.1738524   -1.1503433  0.066083555   -2.1738524    1.0235091  1714436 
  144000    1.0127486   -2.1739966   -2.1739966   -1.1502716  0.066320067   -2.1739966     1.023725  1714436 
  145000    1.0129119   -2.1744892   -2.1744892    -1.150599    0.0617195   -2.1744892    1.0238901  1714436 
  146000    1.0127065   -2.1741334   -2.1741334    -1.150451  0.062029822   -2.1741334    1.0236824  1714436 
  147000    1.0125583   -2.1745713   -2.1745713   -1.1510386  0.056920856   -2.1745713    1.0235327  1714436 
  148000    1.0121662   -2.1743804   -2.1743804   -1.1512441  0.063876778   -2.1743804    1.0231363  1714436 
  149000     1.011737   -2.1738594   -2.1738594    -1.151157   0.06102041   -2.1738594    1.0227024  1714436 
  150000    1.0114998   -2.1737608   -2.1737608   -1.1512981  0.063795046   -2.1737608    1.0224627  1714436 
  151000    1.0118584   -2.1742195   -2.1742195   -1.1513943  0.059648947   -2.1742195    1.0228252  1714436 
  152000    1.0122523     -2.17461     -2.17461   -1.1513866  0.060435764     -2.17461    1.0232234  1714436 
  153000    1.0125966   -2.1747714   -2.1747714      -1.1512  0.065530431   -2.1747714    1.0235714  1714436 
  154000    1.0117371   -2.1739332   -2.1739332   -1.1512306  0.062858931   -2.1739332    1.0227026  1714436 
  155000    1.0115852   -2.1741208   -2.1741208   -1.1515717  0.058277908   -2.1741208    1.0225491  1714436 
  156000    1.0122534   -2.1744238   -2.1744238   -1.1511993   0.05889064   -2.1744238    1.0232244  1714436 
  157000    1.0113263    -2.173578    -2.173578   -1.1512907  0.063330921    -2.173578    1.0222873  1714436 
  158000    1.0125085   -2.1746965   -2.1746965   -1.1512141  0.061995352   -2.1746965    1.0234824  1714436 
  159000    1.0136721   -2.1755072   -2.1755072   -1.1508487  0.062422888   -2.1755072    1.0246585  1714436 
  160000    1.0137448   -2.1758667   -2.1758667   -1.1511347  0.059643972   -2.1758667     1.024732  1714436 
  161000    1.0132187   -2.1753844   -2.1753844   -1.1511842  0.064487626   -2.1753844    1.0242002  1714436 
  162000     1.013321   -2.1754938   -2.1754938   -1.1511902  0.067106469   -2.1754938    1.0243037  1714436 
  163000    1.0131754   -2.1752824   -2.1752824   -1.1511259  0.064250826   -2.1752824    1.0241565  1714436 
  164000    1.0140144   -2.1757724   -2.1757724   -1.1507679  0.062655302   -2.1757724    1.0250045  1714436 
  165000    1.0144093   -2.1763617   -2.1763617   -1.1509579  0.063806523   -2.1763617    1.0254038  1714436 
  166000    1.0154322   -2.1775331   -2.1775331   -1.1510954  0.059983996   -2.1775331    1.0264378  1714436 
  167000    1.0140139   -2.1760595   -2.1760595   -1.1510555  0.064430609   -2.1760595    1.0250041  1714436 
  168000    1.0142511   -2.1764135   -2.1764135   -1.1511697  0.063687274   -2.1764135    1.0252438  1714436 
  169000    1.0148262   -2.1768114   -2.1768114   -1.1509863  0.062757052   -2.1768114    1.0258251  1714436 
  170000    1.0148072   -2.1768917   -2.1768917   -1.1510857  0.066133738   -2.1768917     1.025806  1714436 
  171000     1.014746   -2.1768532   -2.1768532   -1.1511092  0.064439129   -2.1768532     1.025744  1714436 
  172000     1.014085   -2.1771724   -2.1771724   -1.1520964  0.063032427   -2.1771724     1.025076  1714436 
  173000     1.013146    -2.176248    -2.176248   -1.1521213  0.064721991    -2.176248    1.0241267  1714436 
  174000    1.0147133   -2.1773441   -2.1773441   -1.1516331  0.064556925   -2.1773441     1.025711  1714436 
  175000    1.0147939   -2.1773527   -2.1773527   -1.1515601  0.070427888   -2.1773527    1.0257925  1714436 
  176000    1.0148615   -2.1772172   -2.1772172   -1.1513563  0.067469778   -2.1772172    1.0258609  1714436 
  177000    1.0156015   -2.1778324   -2.1778324   -1.1512235  0.064159353   -2.1778324    1.0266089  1714436 
  178000    1.0143362   -2.1768041   -2.1768041   -1.1514743  0.064467928   -2.1768041    1.0253298  1714436 
  179000    1.0147963   -2.1770496   -2.1770496   -1.1512547  0.067389053   -2.1770496    1.0257949  1714436 
  180000    1.0150003   -2.1774896   -2.1774896   -1.1514885  0.069294407   -2.1774896    1.0260011  1714436 
  181000    1.0145893   -2.1771806   -2.1771806   -1.1515949  0.064630505   -2.1771806    1.0255857  1714436 
  182000    1.0143701   -2.1773972   -2.1773972    -1.152033  0.063808545   -2.1773972    1.0253641  1714436 
  183000    1.0134183   -2.1765675   -2.1765675   -1.1521655  0.064545995   -2.1765675     1.024402  1714436 
  184000    1.0145927   -2.1778234   -2.1778234   -1.1522343  0.067171692   -2.1778234    1.0255891  1714436 
  185000    1.0133893   -2.1767848   -2.1767848   -1.1524121   0.06656958   -2.1767848    1.0243727  1714436 
  186000    1.0135865    -2.176797    -2.176797    -1.152225  0.062321744    -2.176797     1.024572  1714436 
  187000    1.0140677   -2.1770136   -2.1770136   -1.1519552  0.065279432   -2.1770136    1.0250584  1714436 
  188000    1.0140129    -2.176908    -2.176908    -1.151905  0.065712216    -2.176908     1.025003  1714436 
  189000    1.0134338   -2.1764636   -2.1764636   -1.1520459  0.063706982   -2.1764636    1.0244177  1714436 
  190000    1.0133083   -2.1767956   -2.1767956   -1.1525047  0.063110658   -2.1767956    1.0242908  1714436 
  191000    1.0130634   -2.1762284   -2.1762284   -1.1521852  0.069075092   -2.1762284    1.0240432  1714436 
  192000    1.0137969   -2.1769853   -2.1769853   -1.1522006  0.062567713   -2.1769853    1.0247847  1714436 
  193000    1.0135294   -2.1766217   -2.1766217   -1.1521075   0.06296518   -2.1766217    1.0245142  1714436 
  194000    1.0132211    -2.176697    -2.176697   -1.1524944  0.071522346    -2.176697    1.0242026  1714436 
  195000    1.0136287   -2.1770044   -2.1770044   -1.1523898  0.059341796   -2.1770044    1.0246146  1714436 
  196000    1.0138856   -2.1770906   -2.1770906   -1.1522163  0.059833455   -2.1770906    1.0248743  1714436 
  197000    1.0135786   -2.1766155   -2.1766155   -1.1520515  0.060037708   -2.1766155     1.024564  1714436 
  198000    1.0133226   -2.1764409   -2.1764409   -1.1521357  0.066882003   -2.1764409    1.0243052  1714436 
  199000     1.013649   -2.1767284   -2.1767284   -1.1520932   0.06301215   -2.1767284    1.0246352  1714436 
  200000    1.0138747   -2.1774129   -2.1774129   -1.1525496  0.064804782   -2.1774129    1.0248634  1714436 
  201000    1.0135237   -2.1763742   -2.1763742   -1.1518657  0.063423735   -2.1763742    1.0245086  1714436 
  202000    1.0139593   -2.1764664   -2.1764664   -1.1515176  0.061156249   -2.1764664    1.0249488  1714436 
  203000    1.0143202   -2.1768964   -2.1768964   -1.1515827  0.064217372   -2.1768964    1.0253137  1714436 
  204000    1.0134957   -2.1756542   -2.1756542    -1.151174  0.067214826   -2.1756542    1.0244802  1714436 
  205000    1.0129192    -2.175573    -2.175573   -1.1516755  0.063950383    -2.175573    1.0238975  1714436 
  206000    1.0131054   -2.1758398   -2.1758398   -1.1517541  0.063386239   -2.1758398    1.0240857  1714436 
  207000    1.0138897   -2.1765169   -2.1765169   -1.1516384  0.061948538   -2.1765169    1.0248785  1714436 
  208000    1.0127714   -2.1753714   -2.1753714   -1.1516234  0.062730326   -2.1753714    1.0237481  1714436 
  209000    1.0134109   -2.1757397   -2.1757397   -1.1513452  0.066582208   -2.1757397    1.0243945  1714436 
  210000    1.0138175   -2.1766071   -2.1766071   -1.1518016  0.058562099   -2.1766071    1.0248055  1714436 
  211000    1.0142474   -2.1763972   -2.1763972   -1.1511571   0.06054619   -2.1763972    1.0252401  1714436 
  212000    1.0126886   -2.1753731   -2.1753731   -1.1517087  0.066517437   -2.1753731    1.0236644  1714436 
  213000    1.0135664   -2.1763899   -2.1763899   -1.1518382  0.064033548   -2.1763899    1.0245517  1714436 
  214000     1.012706   -2.1754537   -2.1754537   -1.1517717  0.064518398   -2.1754537     1.023682  1714436 
  215000    1.0128115   -2.1754644   -2.1754644   -1.1516759  0.063226108   -2.1754644    1.0237886  1714436 
  216000    1.0129999   -2.1755152   -2.1755152   -1.1515361   0.06013537   -2.1755152    1.0239791  1714436 
  217000    1.0131871   -2.1760031   -2.1760031   -1.1518348  0.067846252   -2.1760031    1.0241683  1714436 
  218000    1.0132842   -2.1757719   -2.1757719   -1.1515055    0.0647923   -2.1757719    1.0242664  1714436 
  219000    1.0121122   -2.1746161   -2.1746161   -1.1515343  0.065742362   -2.1746161    1.0230817  1714436 
  220000    1.0132621   -2.1760536   -2.1760536   -1.1518095   0.06169391   -2.1760536    1.0242441  1714436 
  221000    1.0127511   -2.1752202   -2.1752202   -1.1514926  0.068012845   -2.1752202    1.0237276  1714436 
  222000    1.0125808   -2.1752466   -2.1752466   -1.1516912  0.064109494   -2.1752466    1.0235555  1714436 
  223000    1.0134038   -2.1756038   -2.1756038   -1.1512165  0.069288814   -2.1756038    1.0243873  1714436 
  224000    1.0138937   -2.1765986   -2.1765986   -1.1517161  0.064432459   -2.1765986    1.0248825  1714436 
  225000    1.0130588   -2.1760615   -2.1760615   -1.1520229   0.06538628   -2.1760615    1.0240386  1714436 
  226000    1.0138764   -2.1765633   -2.1765633   -1.1516983  0.065423709   -2.1765633     1.024865  1714436 
  227000    1.0137533   -2.1763809   -2.1763809   -1.1516403  0.061094644   -2.1763809    1.0247406  1714436 
  228000    1.0140558   -2.1762415   -2.1762415   -1.1511952  0.064243245   -2.1762415    1.0250464  1714436 
  229000     1.013764   -2.1764714   -2.1764714   -1.1517199  0.064631191   -2.1764714    1.0247515  1714436 
  230000    1.0128875   -2.1752328   -2.1752328   -1.1513674  0.068877011   -2.1752328    1.0238654  1714436 
  231000    1.0134869   -2.1760719   -2.1760719   -1.1516005  0.064320169   -2.1760719    1.0244714  1714436 
  232000    1.0139137   -2.1763853   -2.1763853   -1.1514825  0.059539383   -2.1763853    1.0249028  1714436 
  233000    1.0137584   -2.1766171   -2.1766171   -1.1518713  0.066101546   -2.1766171    1.0247458  1714436 
  234000     1.013041   -2.1757022   -2.1757022   -1.1516816   0.06779923   -2.1757022    1.0240206  1714436 
  235000    1.0138222   -2.1771432   -2.1771432    -1.152333   0.06409819   -2.1771432    1.0248102  1714436 
  236000    1.0139258   -2.1770505   -2.1770505   -1.1521355  0.064847404   -2.1770505     1.024915  1714436 
  237000    1.0138358   -2.1769568   -2.1769568   -1.1521328  0.063605844   -2.1769568    1.0248241  1714436 
  238000    1.0129427   -2.1762072   -2.1762072    -1.152286  0.065375494   -2.1762072    1.0239212  1714436 
  239000    1.0137198    -2.176983    -2.176983   -1.1522763  0.066431563    -2.176983    1.0247067  1714436 
  240000    1.0132885   -2.1764977   -2.1764977    -1.152227  0.064889908   -2.1764977    1.0242708  1714436 
  241000    1.0132478   -2.1766601   -2.1766601   -1.1524304   0.06771103   -2.1766601    1.0242297  1714436 
  242000    1.0140314   -2.1776389   -2.1776389   -1.1526172  0.061493551   -2.1776389    1.0250217  1714436 
  243000    1.0132345   -2.1773211   -2.1773211   -1.1531049  0.061411596   -2.1773211    1.0242162  1714436 
  244000    1.0130992   -2.1773105   -2.1773105    -1.153231  0.064644058   -2.1773105    1.0240794  1714436 
  245000    1.0133727   -2.1774875   -2.1774875   -1.1531315  0.066558978   -2.1774875    1.0243559  1714436 
  246000    1.0128272   -2.1764417   -2.1764417   -1.1526371  0.064049839   -2.1764417    1.0238045  1714436 
  247000    1.0126191   -2.1767858   -2.1767858   -1.1531917  0.066780717   -2.1767858    1.0235941  1714436 
  248000     1.013529   -2.1774492   -2.1774492   -1.1529353  0.066839241   -2.1774492    1.0245139  1714436 
  249000     1.014283   -2.1784884   -2.1784884   -1.1532124  0.063331572   -2.1784884     1.025276  1714436 
  250000    1.0144628   -2.1787202   -2.1787202   -1.1532624  0.065067941   -2.1787202    1.0254578  1714436 
  251000     1.013213   -2.1778228   -2.1778228   -1.1536283  0.066103968   -2.1778228    1.0241945  1714436 
  252000    1.0135773   -2.1782367   -2.1782367   -1.1536739    0.0639497   -2.1782367    1.0245627  1714436 
  253000    1.0133243   -2.1784749   -2.1784749   -1.1541679  0.066927375   -2.1784749     1.024307  1714436 
  254000    1.0127241   -2.1774594   -2.1774594   -1.1537591  0.068203694   -2.1774594    1.0237003  1714436 
  255000    1.0124983    -2.177229    -2.177229    -1.153757  0.062619761    -2.177229     1.023472  1714436 
  256000    1.0128172   -2.1774325   -2.1774325   -1.1536381  0.065620152   -2.1774325    1.0237944  1714436 
  257000    1.0141577   -2.1787163   -2.1787163   -1.1535669  0.062768835   -2.1787163    1.0251494  1714436 
  258000    1.0134146   -2.1781754   -2.1781754   -1.1537771   0.05914052   -2.1781754    1.0243982  1714436 
  259000    1.0137967   -2.1785352   -2.1785352   -1.1537507  0.063093561   -2.1785352    1.0247845  1714436 
  260000    1.0129823   -2.1783231   -2.1783231   -1.1543618  0.063744038   -2.1783231    1.0239613  1714436 
  261000     1.012971    -2.178441    -2.178441   -1.1544912  0.064547234    -2.178441    1.0239498  1714436 
  262000    1.0138845    -2.179435    -2.179435   -1.1545617  0.068613684    -2.179435    1.0248733  1714436 
  263000    1.0135096   -2.1789891   -2.1789891   -1.1544948  0.068931592   -2.1789891    1.0244943  1714436 
  264000    1.0133011   -2.1787702   -2.1787702   -1.1544866  0.068037722   -2.1787702    1.0242835  1714436 
  265000    1.0136289   -2.1789877   -2.1789877   -1.1543729  0.063818002   -2.1789877    1.0246148  1714436 
  266000    1.0145174   -2.1798142   -2.1798142   -1.1543011  0.060831775   -2.1798142     1.025513  1714436 
  267000    1.0133821   -2.1786628   -2.1786628   -1.1542975  0.068409057   -2.1786628    1.0243654  1714436 
  268000    1.0131447   -2.1784879   -2.1784879   -1.1543625  0.067192796   -2.1784879    1.0241255  1714436 
  269000    1.0139646   -2.1790675   -2.1790675   -1.1541133  0.065405192   -2.1790675    1.0249542  1714436 
  270000    1.0133146   -2.1789451   -2.1789451   -1.1546478  0.063272384   -2.1789451    1.0242972  1714436 
  271000    1.0132988   -2.1788917   -2.1788917   -1.1546104  0.066883662   -2.1788917    1.0242812  1714436 
  272000    1.0134831   -2.1790177   -2.1790177   -1.1545501  0.063620794   -2.1790177    1.0244675  1714436 
  273000     1.013847   -2.1794117   -2.1794117   -1.1545764  0.066338255   -2.1794117    1.0248353  1714436 
  274000    1.0140047    -2.179399    -2.179399   -1.1544042  0.062173276    -2.179399    1.0249948  1714436 
  275000    1.0138305   -2.1793842   -2.1793842   -1.1545656  0.066798513   -2.1793842    1.0248186  1714436 
  276000    1.0146261   -2.1802002   -2.1802002   -1.1545773  0.061049804   -2.1802002    1.0256229  1714436 
  277000    1.0133709   -2.1789978   -2.1789978   -1.1546437  0.071044971   -2.1789978    1.0243541  1714436 
  278000    1.0127777   -2.1785607   -2.1785607   -1.1548062  0.066199358   -2.1785607    1.0237545  1714436 
  279000    1.0132832   -2.1789057   -2.1789057   -1.1546402  0.067501488   -2.1789057    1.0242655  1714436 
  280000    1.0130061   -2.1790442   -2.1790442   -1.1550589  0.060995577   -2.1790442    1.0239853  1714436 
  281000    1.0128941   -2.1790662   -2.1790662   -1.1551941  0.062911956   -2.1790662    1.0238721  1714436 
  282000    1.0129216   -2.1787345   -2.1787345   -1.1548346  0.063593873   -2.1787345    1.0238999  1714436 
  283000    1.0131319   -2.1788236   -2.1788236   -1.1547111  0.069970501   -2.1788236    1.0241125  1714436 
  284000     1.012161   -2.1782067   -2.1782067   -1.1550756   0.06214813   -2.1782067    1.0231311  1714436 
  285000     1.012868   -2.1792272   -2.1792272   -1.1553815   0.06496347   -2.1792272    1.0238458  1714436 
  286000     1.013082   -2.1797339   -2.1797339   -1.1556719  0.063723429   -2.1797339     1.024062  1714436 
  287000    1.0120783   -2.1786314   -2.1786314   -1.1555839  0.065735848   -2.1786314    1.0230475  1714436 
  288000    1.0129355   -2.1790843   -2.1790843   -1.1551703  0.066728497   -2.1790843    1.0239139  1714436 
  289000    1.0130812   -2.1793088   -2.1793088   -1.1552475  0.064550813   -2.1793088    1.0240612  1714436 
  290000      1.01299   -2.1790626   -2.1790626   -1.1550936  0.068785768   -2.1790626     1.023969  1714436 
  291000    1.0133937   -2.1796269   -2.1796269   -1.1552498  0.063231502   -2.1796269    1.0243771  1714436 
  292000    1.0134873   -2.1794964   -2.1794964   -1.1550246  0.065168788   -2.1794964    1.0244718  1714436 
  293000     1.012578   -2.1785215   -2.1785215   -1.1549689  0.064620188   -2.1785215    1.0235526  1714436 
  294000    1.0127437    -2.178457    -2.178457   -1.1547369   0.06559112    -2.178457    1.0237201  1714436 
  295000    1.0131308   -2.1788429   -2.1788429   -1.1547315  0.068400236   -2.1788429    1.0241114  1714436 
  296000    1.0133299   -2.1787439   -2.1787439   -1.1544312  0.065416992   -2.1787439    1.0243126  1714436 
  297000    1.0131201   -2.1785791   -2.1785791   -1.1544786  0.068429487   -2.1785791    1.0241005  1714436 
  298000    1.0143081   -2.1797564   -2.1797564    -1.154455  0.068287195   -2.1797564    1.0253015  1714436 
  299000    1.0141377   -2.1796584   -2.1796584   -1.1545293  0.064170212   -2.1796584    1.0251292  1714436 
  300000    1.0133422   -2.1789865   -2.1789865   -1.1546614  0.064733227   -2.1789865    1.0243251  1714436 
  301000    1.0141378   -2.1793713   -2.1793713   -1.1542421  0.068508845   -2.1793713    1.0251292  1714436 
  302000    1.0132711   -2.1787816   -2.1787816   -1.1545284  0.066996501   -2.1787816    1.0242532  1714436 
  303000    1.0139192   -2.1791878   -2.1791878   -1.1542794  0.064289353   -2.1791878    1.0249083  1714436 
  304000    1.0135949   -2.1786259   -2.1786259   -1.1540455  0.068781608   -2.1786259    1.0245805  1714436 
  305000     1.012999   -2.1784107   -2.1784107   -1.1544325  0.065357144   -2.1784107    1.0239782  1714436 
  306000    1.0129852   -2.1784837   -2.1784837   -1.1545195  0.065401365   -2.1784837    1.0239642  1714436 
  307000    1.0131452   -2.1785564   -2.1785564   -1.1544305  0.061976376   -2.1785564    1.0241259  1714436 
  308000    1.0117002    -2.177281    -2.177281   -1.1546158  0.071433916    -2.177281    1.0226652  1714436 
  309000    1.0130375   -2.1784773   -2.1784773   -1.1544603  0.066717969   -2.1784773     1.024017  1714436 
  310000    1.0136082   -2.1789547   -2.1789547   -1.1543608  0.067945709   -2.1789547    1.0245939  1714436 
  311000    1.0136217   -2.1794851   -2.1794851   -1.1548775  0.061862284   -2.1794851    1.0246076  1714436 
  312000    1.0128453   -2.1789067   -2.1789067   -1.1550839  0.060513165   -2.1789067    1.0238228  1714436 
  313000    1.0127189   -2.1788289   -2.1788289   -1.1551339  0.064681589   -2.1788289     1.023695  1714436 
  314000     1.012632   -2.1786808   -2.1786808   -1.1550736  0.057757987   -2.1786808    1.0236072  1714436 
  315000    1.0135097   -2.1790717   -2.1790717   -1.1545773  0.065110772   -2.1790717    1.0244944  1714436 
  316000    1.0131508   -2.1790616   -2.1790616   -1.1549301  0.060445259   -2.1790616    1.0241315  1714436 
  317000    1.0126997   -2.1787783   -2.1787783   -1.1551027  0.062315914   -2.1787783    1.0236756  1714436 
  318000    1.0130731   -2.1790213   -2.1790213   -1.1549682  0.064397504   -2.1790213    1.0240531  1714436 
  319000    1.0130454   -2.1792038   -2.1792038   -1.1551788  0.060793545   -2.1792038     1.024025  1714436 
  320000    1.0133752   -2.1792623   -2.1792623   -1.1549039  0.060943013   -2.1792623    1.0243584  1714436 
  321000    1.0136973   -2.1796986   -2.1796986   -1.1550146  0.064349022   -2.1796986     1.024684  1714436 
  322000    1.0132492    -2.179809    -2.179809    -1.155578  0.062774474    -2.179809    1.0242311  1714436 
  323000    1.0128297    -2.179187    -2.179187   -1.1553799  0.066174617    -2.179187     1.023807  1714436 
  324000    1.0132628    -2.179491    -2.179491   -1.1552462  0.065917055    -2.179491    1.0242448  1714436 
  325000    1.0138662   -2.1800221   -2.1800221   -1.1551674  0.064972508   -2.1800221    1.0248547  1714436 
  326000     1.014085   -2.1801737   -2.1801737   -1.1550978  0.067820244   -2.1801737    1.0250759  1714436 
  327000    1.0139261   -2.1799571   -2.1799571   -1.1550418  0.065836333   -2.1799571    1.0249153  1714436 
  328000     1.012723   -2.1791501   -2.1791501    -1.155451  0.069802174   -2.1791501    1.0236991  1714436 
  329000     1.013148   -2.1797876   -2.1797876   -1.1556588  0.064696375   -2.1797876    1.0241288  1714436 
  330000    1.0123981   -2.1794589   -2.1794589   -1.1560881  0.067184016   -2.1794589    1.0233707  1714436 
  331000    1.0126601    -2.179831    -2.179831   -1.1561955  0.064521146    -2.179831    1.0236356  1714436 
  332000    1.0118942   -2.1791551   -2.1791551   -1.1562937  0.065409587   -2.1791551    1.0228614  1714436 
  333000    1.0131676   -2.1806072   -2.1806072   -1.1564587  0.068456355   -2.1806072    1.0241485  1714436 
  334000    1.0134837    -2.180559    -2.180559    -1.156091  0.063837266    -2.180559    1.0244681  1714436 
  335000    1.0132101   -2.1805361   -2.1805361   -1.1563446  0.066076212   -2.1805361    1.0241915  1714436 
  336000    1.0136755   -2.1809264   -2.1809264   -1.1562644  0.063594508   -2.1809264     1.024662  1714436 
  337000     1.014183     -2.18174     -2.18174   -1.1565651  0.064393638     -2.18174     1.025175  1714436 
  338000    1.0140389   -2.1814368   -2.1814368   -1.1564075  0.070984416   -2.1814368    1.0250293  1714436 
  339000    1.0129104   -2.1805402   -2.1805402   -1.1566515  0.063419762   -2.1805402    1.0238886  1714436 
  340000    1.0136093   -2.1808403   -2.1808403   -1.1562453  0.067641186   -2.1808403     1.024595  1714436 
  341000    1.0140873   -2.1810246   -2.1810246   -1.1559463  0.064394084   -2.1810246    1.0250783  1714436 
  342000    1.0137945   -2.1805856   -2.1805856   -1.1558033  0.067441179   -2.1805856    1.0247822  1714436 
  343000     1.013172   -2.1802538   -2.1802538   -1.1561008  0.066286758   -2.1802538     1.024153  1714436 
  344000    1.0133922   -2.1806297   -2.1806297   -1.1562542  0.068965816   -2.1806297    1.0243756  1714436 
  345000    1.0133788   -2.1809959   -2.1809959   -1.1566338  0.068764124   -2.1809959     1.024362  1714436 
  346000    1.0141071   -2.1820783   -2.1820783   -1.1569801  0.069486088   -2.1820783    1.0250982  1714436 
  347000    1.0129969   -2.1813102   -2.1813102   -1.1573342  0.067525704   -2.1813102     1.023976  1714436 
  348000    1.0136437    -2.181919    -2.181919   -1.1572891  0.068685565    -2.181919    1.0246299  1714436 
  349000    1.0135463   -2.1819381   -2.1819381   -1.1574067  0.062508171   -2.1819381    1.0245314  1714436 
  350000    1.0134494   -2.1813928   -2.1813928   -1.1569594   0.06533536   -2.1813928    1.0244334  1714436 
  351000    1.0140948   -2.1822274   -2.1822274   -1.1571415  0.064031547   -2.1822274    1.0250859  1714436 
  352000    1.0136004   -2.1817537   -2.1817537   -1.1571676  0.069452453   -2.1817537     1.024586  1714436 
  353000    1.0136866   -2.1818735   -2.1818735   -1.1572003  0.064370059   -2.1818735    1.0246732  1714436 
  354000    1.0142071   -2.1824565   -2.1824565   -1.1572571  0.065513717   -2.1824565    1.0251994  1714436 
  355000    1.0132725   -2.1815557   -2.1815557   -1.1573011  0.070076379   -2.1815557    1.0242546  1714436 
  356000    1.0129307   -2.1813629   -2.1813629   -1.1574538   0.06773905   -2.1813629    1.0239091  1714436 
  357000    1.0136203    -2.182066    -2.182066   -1.1574598  0.065964581    -2.182066    1.0246062  1714436 
  358000    1.0133718   -2.1818641   -2.1818641   -1.1575092  0.063193727   -2.1818641     1.024355  1714436 
  359000    1.0133942   -2.1822813   -2.1822813   -1.1579036  0.063014567   -2.1822813    1.0243777  1714436 
  360000     1.013501   -2.1821919   -2.1821919   -1.1577063  0.064123292   -2.1821919    1.0244856  1714436 
  361000    1.0122389   -2.1810624   -2.1810624   -1.1578526  0.068180877   -2.1810624    1.0232098  1714436 
  362000    1.0130465   -2.1818869   -2.1818869   -1.1578607   0.06593855   -2.1818869    1.0240262  1714436 
  363000    1.0127399   -2.1814198   -2.1814198   -1.1577035  0.067895864   -2.1814198    1.0237163  1714436 
  364000    1.0140322   -2.1829559   -2.1829559   -1.1579333  0.065882314   -2.1829559    1.0250226  1714436 
  365000     1.012943   -2.1820287   -2.1820287   -1.1581071  0.069048946   -2.1820287    1.0239216  1714436 
  366000     1.013636   -2.1820482   -2.1820482   -1.1574262  0.064447897   -2.1820482     1.024622  1714436 
  367000    1.0135199   -2.1820212   -2.1820212   -1.1575164  0.063127896   -2.1820212    1.0245047  1714436 
  368000    1.0127896   -2.1818214   -2.1818214    -1.158055  0.063594898   -2.1818214    1.0237664  1714436 
  369000    1.0125951   -2.1811402   -2.1811402   -1.1575704  0.064905438   -2.1811402    1.0235698  1714436 
  370000    1.0127093   -2.1816497   -2.1816497   -1.1579644   0.06530905   -2.1816497    1.0236853  1714436 
  371000    1.0119197   -2.1805094   -2.1805094   -1.1576222  0.069712227   -2.1805094    1.0228872  1714436 
  372000    1.0136154   -2.1819849   -2.1819849   -1.1573837  0.064204761   -2.1819849    1.0246013  1714436 
  373000    1.0117169   -2.1807988   -2.1807988   -1.1581167   0.06806035   -2.1807988    1.0226822  1714436 
  374000    1.0125532   -2.1816183   -2.1816183   -1.1580909  0.066136079   -2.1816183    1.0235275  1714436 
  375000    1.0136384   -2.1825911   -2.1825911   -1.1579666  0.070508894   -2.1825911    1.0246245  1714436 
  376000    1.0134898   -2.1825058   -2.1825058   -1.1580316  0.064462546   -2.1825058    1.0244742  1714436 
  377000    1.0134447   -2.1821308   -2.1821308   -1.1577021   0.06636142   -2.1821308    1.0244287  1714436 
  378000    1.0131302   -2.1812792   -2.1812792   -1.1571684  0.070991935   -2.1812792    1.0241108  1714436 
  379000    1.0131915   -2.1816032   -2.1816032   -1.1574305  0.071749883   -2.1816032    1.0241727  1714436 
  380000    1.0127184   -2.1810231   -2.1810231   -1.1573286  0.063203576   -2.1810231    1.0236945  1714436 
  381000     1.013091   -2.1814251   -2.1814251   -1.1573539  0.063047215   -2.1814251    1.0240711  1714436 
  382000    1.0140746   -2.1822795   -2.1822795   -1.1572141  0.065512701   -2.1822795    1.0250654  1714436 
  383000    1.0130605   -2.1818194   -2.1818194   -1.1577791  0.065869547   -2.1818194    1.0240403  1714436 
  384000    1.0133621   -2.1817233   -2.1817233   -1.1573781  0.066405111   -2.1817233    1.0243452  1714436 
  385000    1.0132097   -2.1822864   -2.1822864   -1.1580953  0.063807733   -2.1822864    1.0241911  1714436 
  386000    1.0130163   -2.1816716   -2.1816716   -1.1576759  0.065439238   -2.1816716    1.0239956  1714436 
  387000    1.0119044   -2.1809478   -2.1809478   -1.1580761  0.063952277   -2.1809478    1.0228717  1714436 
  388000    1.0130974   -2.1818335   -2.1818335   -1.1577559  0.066713766   -2.1818335    1.0240776  1714436 
  389000    1.0132622   -2.1819794   -2.1819794   -1.1577352  0.062891646   -2.1819794    1.0242442  1714436 
  390000    1.0131248   -2.1818812   -2.1818812   -1.1577759  0.066898098   -2.1818812    1.0241053  1714436 
  391000    1.0130508   -2.1824477   -2.1824477   -1.1584172  0.061714536   -2.1824477    1.0240305  1714436 
  392000    1.0121216   -2.1817032   -2.1817032    -1.158612  0.066501635   -2.1817032    1.0230912  1714436 
  393000     1.013128   -2.1821424   -2.1821424   -1.1580338  0.065012993   -2.1821424    1.0241085  1714436 
  394000    1.0136824    -2.182587    -2.182587    -1.157918  0.067633009    -2.182587     1.024669  1714436 
  395000    1.0129875   -2.1822732   -2.1822732   -1.1583067  0.062024955   -2.1822732    1.0239665  1714436 
  396000    1.0135177   -2.1821891   -2.1821891   -1.1576867  0.064788583   -2.1821891    1.0245024  1714436 
  397000    1.0122801   -2.1813886   -2.1813886   -1.1581372  0.067374114   -2.1813886    1.0232514  1714436 
  398000    1.0138687   -2.1828554   -2.1828554   -1.1579981  0.069381527   -2.1828554    1.0248573  1714436 
  399000    1.0134262   -2.1823766   -2.1823766   -1.1579666  0.065642273   -2.1823766      1.02441  1714436 
  400000    1.0134065   -2.1820821   -2.1820821   -1.1576921   0.06284394   -2.1820821      1.02439  1714436 
  401000    1.0130506   -2.1818513   -2.1818513    -1.157821  0.065331578   -2.1818513    1.0240303  1714436 
  402000    1.0129521   -2.1815435   -2.1815435   -1.1576127  0.059669662   -2.1815435    1.0239308  1714436 
  403000    1.0129654   -2.1814422   -2.1814422   -1.1574981  0.066712594   -2.1814422    1.0239442  1714436 
  404000    1.0130806   -2.1816093   -2.1816093   -1.1575486  0.061370358   -2.1816093    1.0240607  1714436 
  405000    1.0126625   -2.1813272   -2.1813272   -1.1576892  0.068711781   -2.1813272     1.023638  1714436 
  406000    1.0130543    -2.181696    -2.181696    -1.157662  0.059833859    -2.181696     1.024034  1714436 
  407000    1.0123158   -2.1816832   -2.1816832   -1.1583956  0.067687356   -2.1816832    1.0232875  1714436 
  408000     1.012997   -2.1823166   -2.1823166   -1.1583405  0.066472007   -2.1823166    1.0239762  1714436 
  409000    1.0125716   -2.1819641   -2.1819641    -1.158418  0.068528564   -2.1819641    1.0235461  1714436 
  410000    1.0125003   -2.1816993   -2.1816993   -1.1582253  0.068275839   -2.1816993     1.023474  1714436 
  411000    1.0137791   -2.1830295   -2.1830295   -1.1582628  0.064765151   -2.1830295    1.0247667  1714436 
  412000    1.0128683   -2.1821526   -2.1821526   -1.1583065  0.065046277   -2.1821526     1.023846  1714436 
  413000    1.0132104   -2.1820442   -2.1820442   -1.1578523  0.061163208   -2.1820442    1.0241919  1714436 
  414000    1.0131043   -2.1821438   -2.1821438   -1.1580592  0.061721925   -2.1821438    1.0240846  1714436 
  415000    1.0137558   -2.1828117   -2.1828117   -1.1580686  0.067684178   -2.1828117    1.0247431  1714436 
  416000    1.0129108   -2.1821934   -2.1821934   -1.1583044  0.065163563   -2.1821934     1.023889  1714436 
  417000    1.0136115   -2.1828608   -2.1828608   -1.1582635  0.067527174   -2.1828608    1.0245973  1714436 
  418000    1.0120128   -2.1812271   -2.1812271   -1.1582459  0.066235814   -2.1812271    1.0229812  1714436 
  419000    1.0134959   -2.1825778   -2.1825778   -1.1580974  0.067053363   -2.1825778    1.0244805  1714436 
  420000    1.0135596   -2.1825334   -2.1825334   -1.1579887  0.066195222   -2.1825334    1.0245448  1714436 
  421000    1.0135309   -2.1827697   -2.1827697   -1.1582539  0.065579734   -2.1827697    1.0245158  1714436 
  422000    1.0150813    -2.184183    -2.184183      -1.1581  0.061466208    -2.184183     1.026083  1714436 
  423000    1.0144071   -2.1835083   -2.1835083   -1.1581068  0.065242455   -2.1835083    1.0254015  1714436 
  424000    1.0139619   -2.1833722   -2.1833722   -1.1584207  0.064642347   -2.1833722    1.0249515  1714436 
  425000    1.0130111   -2.1821904   -2.1821904      -1.1582  0.068514817   -2.1821904    1.0239904  1714436 
  426000    1.0139342   -2.1827841   -2.1827841   -1.1578606   0.06204669   -2.1827841    1.0249234  1714436 
  427000    1.0129268     -2.18226     -2.18226   -1.1583549  0.060707166     -2.18226    1.0239052  1714436 
  428000    1.0129922   -2.1822618   -2.1822618   -1.1582906  0.064272956   -2.1822618    1.0239713  1714436 
  429000    1.0129799   -2.1821546   -2.1821546   -1.1581958  0.065904757   -2.1821546    1.0239589  1714436 
  430000    1.0141876   -2.1836551   -2.1836551   -1.1584755  0.065795431   -2.1836551    1.0251796  1714436 
  431000    1.0131772   -2.1827446   -2.1827446   -1.1585863  0.063060362   -2.1827446    1.0241583  1714436 
  432000    1.0122257   -2.1817278   -2.1817278   -1.1585313  0.064390003   -2.1817278    1.0231964  1714436 
  433000     1.012082    -2.181414    -2.181414   -1.1583629  0.066756825    -2.181414    1.0230512  1714436 
  434000    1.0125619   -2.1821662   -2.1821662   -1.1586299  0.063692733   -2.1821662    1.0235363  1714436 
  435000    1.0131858      -2.1829      -2.1829   -1.1587331  0.068534729      -2.1829    1.0241669  1714436 
  436000    1.0143745   -2.1839894   -2.1839894   -1.1586208  0.068762242   -2.1839894    1.0253686  1714436 
  437000    1.0129746   -2.1827628   -2.1827628   -1.1588093  0.069832164   -2.1827628    1.0239535  1714436 
  438000    1.0124693   -2.1825381   -2.1825381   -1.1590954  0.065426579   -2.1825381    1.0234427  1714436 
  439000    1.0135724   -2.1836722   -2.1836722   -1.1591145   0.06406667   -2.1836722    1.0245578  1714436 
  440000    1.0128811   -2.1827495   -2.1827495   -1.1588905  0.067624459   -2.1827495     1.023859  1714436 
  441000    1.0135227   -2.1837016   -2.1837016    -1.159194  0.064120109   -2.1837016    1.0245076  1714436 
  442000    1.0139338   -2.1837275   -2.1837275   -1.1588045  0.068422036   -2.1837275     1.024923  1714436 
  443000    1.0129804   -2.1828627   -2.1828627   -1.1589034  0.063921824   -2.1828627    1.0239593  1714436 
  444000    1.0131279   -2.1825538   -2.1825538   -1.1584454  0.067114871   -2.1825538    1.0241084  1714436 
  445000    1.0137662      -2.1831      -2.1831   -1.1583464  0.066312673      -2.1831    1.0247536  1714436 
  446000    1.0138788   -2.1828974   -2.1828974   -1.1580299   0.07370082   -2.1828974    1.0248675  1714436 
  447000    1.0138722   -2.1830941   -2.1830941   -1.1582332  0.064106647   -2.1830941    1.0248608  1714436 
  448000     1.012858    -2.182613    -2.182613   -1.1587774  0.067713931    -2.182613    1.0238356  1714436 
  449000    1.0130978   -2.1828237   -2.1828237   -1.1587457  0.065534961   -2.1828237     1.024078  1714436 
  450000    1.0134064   -2.1830356   -2.1830356   -1.1586456   0.06574434   -2.1830356      1.02439  1714436 
  451000    1.0124988   -2.1824497   -2.1824497   -1.1589771  0.062362748   -2.1824497    1.0234726  1714436 
  452000    1.0127003   -2.1826923   -2.1826923   -1.1590161  0.064589279   -2.1826923    1.0236762  1714436 
  453000    1.0130438   -2.1829625   -2.1829625   -1.1589391  0.066103433   -2.1829625    1.0240234  1714436 
  454000    1.0132951   -2.1831992   -2.1831992   -1.1589218   0.06712755   -2.1831992    1.0242774  1714436 
  455000    1.0119842   -2.1821514   -2.1821514   -1.1591991  0.065589769   -2.1821514    1.0229523  1714436 
  456000    1.0121971   -2.1823813   -2.1823813   -1.1592137  0.068837671   -2.1823813    1.0231675  1714436 
  457000    1.0131018   -2.1829325   -2.1829325   -1.1588505  0.067300497   -2.1829325     1.024082  1714436 
  458000    1.0143038   -2.1837627   -2.1837627   -1.1584656   0.06733903   -2.1837627    1.0252971  1714436 
  459000    1.0142818    -2.183902    -2.183902   -1.1586271  0.065132622    -2.183902    1.0252749  1714436 
  460000    1.0135034   -2.1830279   -2.1830279   -1.1585399  0.068220575   -2.1830279     1.024488  1714436 
  461000    1.0139058   -2.1835659   -2.1835659   -1.1586711   0.06303691   -2.1835659    1.0248948  1714436 
  462000    1.0140313   -2.1833217   -2.1833217      -1.1583  0.063835067   -2.1833217    1.0250216  1714436 
  463000      1.01525   -2.1846834   -2.1846834   -1.1584298   0.06553634   -2.1846834    1.0262535  1714436 
  464000    1.0128772   -2.1820476   -2.1820476   -1.1581925  0.064755286   -2.1820476     1.023855  1714436 
  465000    1.0127553   -2.1819764   -2.1819764   -1.1582447  0.072167565   -2.1819764    1.0237318  1714436 
  466000    1.0130304   -2.1822002   -2.1822002   -1.1581903  0.061359088   -2.1822002    1.0240099  1714436 
  467000    1.0133378    -2.182496    -2.182496   -1.1581754  0.066580943    -2.182496    1.0243206  1714436 
  468000    1.0136511   -2.1826563   -2.1826563    -1.158019  0.066717246   -2.1826563    1.0246373  1714436 
  469000    1.0138299   -2.1831591   -2.1831591   -1.1583411  0.066280757   -2.1831591     1.024818  1714436 
  470000    1.0127049   -2.1821947   -2.1821947   -1.1585139  0.065914649   -2.1821947    1.0236808  1714436 
  471000    1.0133413   -2.1826977   -2.1826977   -1.1583736  0.067860546   -2.1826977    1.0243241  1714436 
  472000     1.013148   -2.1830044   -2.1830044   -1.1588756  0.065721889   -2.1830044    1.0241288  1714436 
  473000    1.0127768    -2.182884    -2.182884   -1.1591305  0.062989561    -2.182884    1.0237535  1714436 
  474000    1.0124939   -2.1821383   -2.1821383   -1.1586707  0.066605703   -2.1821383    1.0234676  1714436 
  475000    1.0135626    -2.183387    -2.183387   -1.1588391  0.060444956    -2.183387    1.0245479  1714436 
  476000    1.0133265   -2.1832074   -2.1832074   -1.1588982  0.063433195   -2.1832074    1.0243092  1714436 
  477000    1.0136467    -2.183238    -2.183238   -1.1586051  0.064331911    -2.183238    1.0246329  1714436 
  478000    1.0129265   -2.1824617   -2.1824617   -1.1585569  0.065065192   -2.1824617    1.0239048  1714436 
  479000    1.0131722   -2.1829131   -2.1829131   -1.1587599  0.065009544   -2.1829131    1.0241532  1714436 
  480000    1.0118102    -2.181793    -2.181793   -1.1590165  0.070579533    -2.181793    1.0227765  1714436 
  481000    1.0119747   -2.1820559   -2.1820559   -1.1591131  0.062552575   -2.1820559    1.0229428  1714436 
  482000    1.0139748   -2.1841213   -2.1841213   -1.1591567  0.061885355   -2.1841213    1.0249645  1714436 
  483000    1.0123425   -2.1824685   -2.1824685   -1.1591539  0.068004232   -2.1824685    1.0233146  1714436 
  484000     1.012612   -2.1827231   -2.1827231   -1.1591361  0.066071937   -2.1827231    1.0235869  1714436 
  485000    1.0121895   -2.1824455   -2.1824455   -1.1592857  0.064340384   -2.1824455    1.0231598  1714436 
  486000    1.0124265   -2.1825444   -2.1825444   -1.1591449  0.064805213   -2.1825444    1.0233995  1714436 
  487000    1.0121443   -2.1823782   -2.1823782    -1.159264   0.06807102   -2.1823782    1.0231142  1714436 
  488000    1.0120199   -2.1821999   -2.1821999   -1.1592114  0.063206336   -2.1821999    1.0229884  1714436 
  489000    1.0120461   -2.1818417   -2.1818417   -1.1588268  0.066130484   -2.1818417    1.0230149  1714436 
  490000    1.0122221    -2.181935    -2.181935   -1.1587422  0.067559088    -2.181935    1.0231928  1714436 
  491000    1.0123704   -2.1822745   -2.1822745   -1.1589317   0.06006683   -2.1822745    1.0233427  1714436 
  492000    1.0129304   -2.1831335   -2.1831335   -1.1592247  0.063074794   -2.1831335    1.0239088  1714436 
  493000    1.0126998   -2.1829589   -2.1829589   -1.1592832  0.066435102   -2.1829589    1.0236757  1714436 
  494000    1.0131648   -2.1836184   -2.1836184   -1.1594727  0.065007757   -2.1836184    1.0241457  1714436 
  495000     1.012745    -2.183413    -2.183413   -1.1596917  0.055383688    -2.183413    1.0237213  1714436 
  496000     1.012953   -2.1834985   -2.1834985   -1.1595668  0.065495237   -2.1834985    1.0239317  1714436 
  497000    1.0128128   -2.1836214   -2.1836214   -1.1598315  0.060746124   -2.1836214    1.0237899  1714436 
  498000    1.0120934   -2.1827906   -2.1827906   -1.1597279   0.06787896   -2.1827906    1.0230627  1714436 
  499000    1.0129541   -2.1837137   -2.1837137    -1.159781  0.068196144   -2.1837137    1.0239327  1714436 
  500000    1.0136066   -2.1844306   -2.1844306   -1.1598383  0.063986019   -2.1844306    1.0245923  1714436 
  501000    1.0127713   -2.1836997   -2.1836997   -1.1599517  0.064661666   -2.1836997     1.023748  1714436 
  502000    1.0120181   -2.1826785   -2.1826785   -1.1596919  0.064554985   -2.1826785    1.0229866  1714436 
  503000    1.0129055   -2.1839069   -2.1839069   -1.1600233  0.064732079   -2.1839069    1.0238836  1714436 
  504000    1.0129633   -2.1839121   -2.1839121     -1.15997  0.068238108   -2.1839121     1.023942  1714436 
  505000     1.013105   -2.1842697   -2.1842697   -1.1601844   0.06487088   -2.1842697    1.0240853  1714436 
  506000     1.013792   -2.1848762   -2.1848762   -1.1600965  0.066704831   -2.1848762    1.0247798  1714436 
  507000    1.0116618   -2.1831635   -2.1831635    -1.160537  0.069319252   -2.1831635    1.0226265  1714436 
  508000    1.0122782   -2.1838437   -2.1838437   -1.1605942  0.066251552   -2.1838437    1.0232495  1714436 
  509000    1.0127249   -2.1843383   -2.1843383   -1.1606372   0.06839962   -2.1843383    1.0237011  1714436 
  510000    1.0126921    -2.184497    -2.184497   -1.1608291  0.068300478    -2.184497    1.0236679  1714436 
  511000    1.0120465   -2.1838464   -2.1838464   -1.1608311  0.064978858   -2.1838464    1.0230153  1714436 
  512000    1.0118545   -2.1841229   -2.1841229   -1.1613016  0.064639686   -2.1841229    1.0228213  1714436 
  513000    1.0123032   -2.1846001   -2.1846001   -1.1613253  0.064712616   -2.1846001    1.0232748  1714436 
  514000    1.0131337   -2.1854024   -2.1854024    -1.161288  0.061325825   -2.1854024    1.0241143  1714436 
  515000     1.012971   -2.1850533   -2.1850533   -1.1611035  0.069607069   -2.1850533    1.0239498  1714436 
  516000    1.0125417   -2.1848608   -2.1848608   -1.1613449  0.059699712   -2.1848608    1.0235159  1714436 
  517000    1.0119257   -2.1841448   -2.1841448   -1.1612517  0.066332015   -2.1841448    1.0228932  1714436 
  518000    1.0128735    -2.185563    -2.185563   -1.1617117  0.066862565    -2.185563    1.0238513  1714436 
  519000    1.0127732    -2.185499    -2.185499   -1.1617491  0.068535523    -2.185499    1.0237499  1714436 
  520000    1.0129086   -2.1853974   -2.1853974   -1.1615106  0.063035084   -2.1853974    1.0238868  1714436 
  521000    1.0128662   -2.1854944   -2.1854944   -1.1616505  0.067179656   -2.1854944    1.0238439  1714436 
  522000     1.012919   -2.1850948   -2.1850948   -1.1611976   0.06535971   -2.1850948    1.0238972  1714436 
  523000    1.0132434   -2.1856398   -2.1856398   -1.1614145  0.067879262   -2.1856398    1.0242252  1714436 
  524000    1.0131018    -2.185544    -2.185544   -1.1614619  0.069943086    -2.185544    1.0240821  1714436 
  525000    1.0133685   -2.1859585   -2.1859585   -1.1616069   0.07105269   -2.1859585    1.0243517  1714436 
  526000    1.0131093   -2.1859205   -2.1859205   -1.1618308  0.065694701   -2.1859205    1.0240897  1714436 
  527000    1.0129933   -2.1858242   -2.1858242   -1.1618518  0.068557902   -2.1858242    1.0239724  1714436 
  528000    1.0134885   -2.1864797   -2.1864797   -1.1620067  0.064849016   -2.1864797    1.0244729  1714436 
  529000    1.0131713   -2.1858268   -2.1858268   -1.1616745  0.066580262   -2.1858268    1.0241523  1714436 
  530000    1.0122944   -2.1850363   -2.1850363   -1.1617704  0.067470848   -2.1850363    1.0232659  1714436 
  531000    1.0123156   -2.1855816   -2.1855816   -1.1622943  0.063643571   -2.1855816    1.0232873  1714436 
  532000    1.0130741   -2.1858585   -2.1858585   -1.1618044  0.064583224   -2.1858585    1.0240541  1714436 
  533000    1.0115609   -2.1846497   -2.1846497   -1.1621253  0.064449209   -2.1846497    1.0225244  1714436 
  534000    1.0127075   -2.1856195   -2.1856195   -1.1619359  0.066540725   -2.1856195    1.0236835  1714436 
  535000    1.0129371   -2.1860523   -2.1860523   -1.1621368  0.066131572   -2.1860523    1.0239155  1714436 
  536000    1.0129476     -2.18579     -2.18579   -1.1618639  0.062865929     -2.18579    1.0239262  1714436 
  537000    1.0127846   -2.1859005   -2.1859005   -1.1621391  0.065711936   -2.1859005    1.0237614  1714436 
  538000    1.0122148   -2.1853751   -2.1853751   -1.1621897  0.066736355   -2.1853751    1.0231854  1714436 
  539000    1.0135056   -2.1868177   -2.1868177   -1.1623275  0.066314216   -2.1868177    1.0244902  1714436 
  540000    1.0119302   -2.1846758   -2.1846758    -1.161778  0.072100972   -2.1846758    1.0228978  1714436 
  541000    1.0134548   -2.1862466   -2.1862466   -1.1618078  0.066229124   -2.1862466    1.0244388  1714436 
  542000    1.0137679    -2.186448    -2.186448   -1.1616926  0.064177419    -2.186448    1.0247554  1714436 
  543000    1.0133701   -2.1865845   -2.1865845   -1.1622313  0.066342071   -2.1865845    1.0243533  1714436 
  544000    1.0126491   -2.1859959   -2.1859959   -1.1623714   0.06829969   -2.1859959    1.0236244  1714436 
  545000    1.0125657   -2.1855775   -2.1855775   -1.1620373  0.064925381   -2.1855775    1.0235401  1714436 
  546000    1.0125776   -2.1853068   -2.1853068   -1.1617546  0.065068997   -2.1853068    1.0235522  1714436 
  547000    1.0122056   -2.1852755   -2.1852755   -1.1620994  0.063904262   -2.1852755    1.0231761  1714436 
  548000    1.0125151   -2.1853223   -2.1853223   -1.1618333  0.063122447   -2.1853223     1.023489  1714436 
  549000    1.0122472   -2.1850743   -2.1850743   -1.1618561  0.061578959   -2.1850743    1.0232182  1714436 
  550000    1.0126287   -2.1852398   -2.1852398    -1.161636  0.068423653   -2.1852398    1.0236038  1714436 
  551000     1.010958   -2.1838743   -2.1838743   -1.1619593  0.057966229   -2.1838743     1.021915  1714436 
  552000    1.0120762   -2.1849966   -2.1849966   -1.1619512  0.064335248   -2.1849966    1.0230454  1714436 
  553000    1.0117963   -2.1847731   -2.1847731   -1.1620107  0.063763716   -2.1847731    1.0227624  1714436 
  554000    1.0123134   -2.1854702   -2.1854702   -1.1621851  0.067205306   -2.1854702    1.0232851  1714436 
  555000     1.011813    -2.185169    -2.185169   -1.1623896  0.067485164    -2.185169    1.0227793  1714436 
  556000    1.0126679   -2.1859065   -2.1859065    -1.162263  0.063407763   -2.1859065    1.0236434  1714436 
  557000    1.0132611   -2.1862339   -2.1862339   -1.1619909  0.066443591   -2.1862339    1.0242431  1714436 
  558000    1.0128331   -2.1860909   -2.1860909   -1.1622804  0.065718853   -2.1860909    1.0238105  1714436 
  559000    1.0123165   -2.1852189   -2.1852189   -1.1619306  0.065953968   -2.1852189    1.0232882  1714436 
  560000    1.0134839    -2.186166    -2.186166   -1.1616977  0.064870249    -2.186166    1.0244683  1714436 
  561000    1.0123362    -2.185082    -2.185082   -1.1617738  0.066493765    -2.185082    1.0233082  1714436 
  562000    1.0121842   -2.1848759   -2.1848759   -1.1617214  0.065855809   -2.1848759    1.0231545  1714436 
  563000    1.0125625   -2.1855835   -2.1855835   -1.1620466  0.060360201   -2.1855835    1.0235369  1714436 
  564000    1.0126021   -2.1853898   -2.1853898   -1.1618128  0.068158956   -2.1853898     1.023577  1714436 
  565000     1.011398   -2.1842346   -2.1842346   -1.1618748  0.070239645   -2.1842346    1.0223598  1714436 
  566000    1.0129543    -2.185492    -2.185492    -1.161559  0.070468339    -2.185492     1.023933  1714436 
  567000    1.0129637   -2.1852726   -2.1852726   -1.1613302  0.067938522   -2.1852726    1.0239424  1714436 
  568000    1.0136559   -2.1858604   -2.1858604   -1.1612182  0.068248892   -2.1858604    1.0246422  1714436 
  569000    1.0139625   -2.1858283   -2.1858283   -1.1608763  0.069071902   -2.1858283    1.0249521  1714436 
  570000    1.0137839   -2.1860966   -2.1860966    -1.161325  0.063921525   -2.1860966    1.0247715  1714436 
  571000     1.012739   -2.1852644   -2.1852644   -1.1615491  0.072756555   -2.1852644    1.0237153  1714436 
  572000    1.0139206   -2.1864764   -2.1864764   -1.1615666  0.064511329   -2.1864764    1.0249097  1714436 
  573000    1.0132337   -2.1859829   -2.1859829   -1.1617675  0.064224283   -2.1859829    1.0242154  1714436 
  574000    1.0131824   -2.1859008   -2.1859008   -1.1617372  0.071517478   -2.1859008    1.0241636  1714436 
  575000    1.0134012   -2.1862712   -2.1862712   -1.1618865  0.067528117   -2.1862712    1.0243847  1714436 
  576000    1.0136284   -2.1861231   -2.1861231   -1.1615087  0.065017468   -2.1861231    1.0246144  1714436 
  577000    1.0130823    -2.185964    -2.185964   -1.1619017  0.067479809    -2.185964    1.0240623  1714436 
  578000     1.013066   -2.1863013   -2.1863013   -1.1622555   0.06394267   -2.1863013    1.0240458  1714436 
  579000    1.0131836   -2.1862014   -2.1862014   -1.1620366  0.064856711   -2.1862014    1.0241648  1714436 
  580000    1.0121806   -2.1858374   -2.1858374   -1.1626866   0.06571182   -2.1858374    1.0231509  1714436 
  581000    1.0123359   -2.1860405   -2.1860405   -1.1627327  0.072402124   -2.1860405    1.0233078  1714436 
  582000    1.0133998   -2.1869895   -2.1869895   -1.1626063  0.061055001   -2.1869895    1.0243833  1714436 
  583000    1.0126313   -2.1863064   -2.1863064   -1.1626999  0.063044797   -2.1863064    1.0236065  1714436 
  584000    1.0131169   -2.1870936   -2.1870936   -1.1629963  0.064035029   -2.1870936    1.0240973  1714436 
  585000    1.0117711   -2.1855433   -2.1855433   -1.1628064  0.063998941   -2.1855433    1.0227369  1714436 
  586000    1.0124719   -2.1860701   -2.1860701   -1.1626247  0.066869215   -2.1860701    1.0234453  1714436 
  587000    1.0119305   -2.1857027   -2.1857027   -1.1628046  0.062770911   -2.1857027    1.0228981  1714436 
  588000    1.0128196   -2.1865284   -2.1865284   -1.1627316  0.064819359   -2.1865284    1.0237968  1714436 
  589000    1.0119917   -2.1856759   -2.1856759    -1.162716  0.068845597   -2.1856759    1.0229599  1714436 
  590000    1.0127208   -2.1862876   -2.1862876   -1.1625907  0.069758095   -2.1862876    1.0236969  1714436 
  591000    1.0129327   -2.1866101   -2.1866101   -1.1626989  0.062715558   -2.1866101    1.0239111  1714436 
  592000     1.012695   -2.1861276   -2.1861276   -1.1624568  0.062621371   -2.1861276    1.0236708  1714436 
  593000    1.0125134   -2.1860486   -2.1860486   -1.1625613  0.061170457   -2.1860486    1.0234873  1714436 
  594000    1.0118556   -2.1855796   -2.1855796   -1.1627573  0.063751281   -2.1855796    1.0228223  1714436 
  595000    1.0122625   -2.1860227   -2.1860227    -1.162789   0.06641414   -2.1860227    1.0232337  1714436 
  596000    1.0130551   -2.1865402   -2.1865402   -1.1625053  0.060760933   -2.1865402    1.0240349  1714436 
  597000    1.0128625   -2.1860645   -2.1860645   -1.1622243  0.066245423   -2.1860645    1.0238402  1714436 
  598000    1.0142296    -2.187482    -2.187482     -1.16226  0.067080598    -2.187482     1.025222  1714436 
  599000    1.0136193   -2.1870114   -2.1870114   -1.1624063  0.061827276   -2.1870114    1.0246051  1714436 
  600000    1.0138533   -2.1873229   -2.1873229   -1.1624812  0.061535604   -2.1873229    1.0248417  1714436 
  601000    1.0131879   -2.1867001   -2.1867001    -1.162531  0.067984801   -2.1867001    1.0241691  1714436 
  602000    1.0136061   -2.1867836   -2.1867836   -1.1621918  0.067753023   -2.1867836    1.0245919  1714436 
  603000    1.0126067   -2.1865271   -2.1865271   -1.1629455  0.066443511   -2.1865271    1.0235816  1714436 
  604000    1.0128222   -2.1868295   -2.1868295   -1.1630301  0.069466558   -2.1868295    1.0237995  1714436 
  605000    1.0120502   -2.1860313   -2.1860313   -1.1630123  0.065672063   -2.1860313     1.023019  1714436 
  606000    1.0116502   -2.1857615   -2.1857615   -1.1631467  0.069995722   -2.1857615    1.0226148  1714436 
  607000     1.012683   -2.1863267   -2.1863267    -1.162668  0.066308883   -2.1863267    1.0236588  1714436 
  608000    1.0130139   -2.1863894   -2.1863894   -1.1623962  0.064468682   -2.1863894    1.0239932  1714436 
  609000    1.0120082   -2.1856288   -2.1856288   -1.1626522  0.066034259   -2.1856288    1.0229767  1714436 
  610000    1.0115211   -2.1854484   -2.1854484   -1.1629642  0.066268827   -2.1854484    1.0224842  1714436 
  611000    1.0124659   -2.1860954   -2.1860954   -1.1626561  0.062365643   -2.1860954    1.0234393  1714436 
  612000    1.0125913   -2.1864895   -2.1864895   -1.1629235   0.06833982   -2.1864895     1.023566  1714436 
  613000    1.0126716   -2.1866111   -2.1866111   -1.1629638   0.06194415   -2.1866111    1.0236472  1714436 
  614000    1.0123837    -2.186233    -2.186233   -1.1628769  0.067014354    -2.186233    1.0233561  1714436 
  615000    1.0125976   -2.1862171   -2.1862171   -1.1626447  0.069538571   -2.1862171    1.0235724  1714436 
  616000    1.0128859   -2.1865892   -2.1865892   -1.1627253  0.065635372   -2.1865892    1.0238639  1714436 
  617000    1.0127788   -2.1862439   -2.1862439   -1.1624884  0.068487907   -2.1862439    1.0237555  1714436 
  618000    1.0122869   -2.1854823   -2.1854823   -1.1622239  0.071031925   -2.1854823    1.0232584  1714436 
  619000    1.0135342   -2.1866029   -2.1866029   -1.1620838  0.062405543   -2.1866029    1.0245192  1714436 
  620000    1.0127918   -2.1858915   -2.1858915   -1.1621227  0.065593842   -2.1858915    1.0237687  1714436 
  621000    1.0136476   -2.1868976   -2.1868976   -1.1622638  0.067900318   -2.1868976    1.0246337  1714436 
  622000    1.0135284   -2.1869335   -2.1869335   -1.1624202  0.065811908   -2.1869335    1.0245133  1714436 
  623000    1.0134601   -2.1868711   -2.1868711   -1.1624269  0.065011183   -2.1868711    1.0244442  1714436 
  624000    1.0138264   -2.1869861   -2.1869861   -1.1621715  0.063516986   -2.1869861    1.0248146  1714436 
  625000    1.0115658   -2.1850303   -2.1850303   -1.1625009  0.066042997   -2.1850303    1.0225294  1714436 
  626000    1.0117916   -2.1858215   -2.1858215   -1.1630638  0.064021871   -2.1858215    1.0227576  1714436 
  627000    1.0126021   -2.1867018   -2.1867018   -1.1631249  0.062210724   -2.1867018    1.0235769  1714436 
  628000    1.0121334   -2.1861316   -2.1861316   -1.1630284  0.059118008   -2.1861316    1.0231032  1714436 
  629000    1.0120355    -2.186331    -2.186331   -1.1633267   0.06395704    -2.186331    1.0230042  1714436 
  630000    1.0118298   -2.1863441   -2.1863441   -1.1635479  0.061130543   -2.1863441    1.0227962  1714436 
  631000    1.0128123   -2.1872946   -2.1872946   -1.1635051  0.061169404   -2.1872946    1.0237895  1714436 
  632000    1.0117018   -2.1859838   -2.1859838    -1.163317  0.072448292   -2.1859838    1.0226669  1714436 
  633000    1.0121953   -2.1864694   -2.1864694   -1.1633037  0.064244278   -2.1864694    1.0231657  1714436 
  634000    1.0131015   -2.1868819   -2.1868819   -1.1628002  0.066620039   -2.1868819    1.0240818  1714436 
  635000    1.0123657   -2.1862655   -2.1862655   -1.1629275   0.06434507   -2.1862655     1.023338  1714436 
  636000    1.0120506   -2.1860664   -2.1860664    -1.163047  0.063920622   -2.1860664    1.0230194  1714436 
  637000    1.0121863   -2.1863379   -2.1863379   -1.1631813  0.064668744   -2.1863379    1.0231566  1714436 
  638000    1.0128974   -2.1870283   -2.1870283   -1.1631528  0.064828533   -2.1870283    1.0238754  1714436 
  639000    1.0127923   -2.1869521   -2.1869521   -1.1631829  0.065917848   -2.1869521    1.0237692  1714436 
  640000    1.0130655   -2.1872913   -2.1872913   -1.1632459  0.065902973   -2.1872913    1.0240454  1714436 
  641000     1.013273   -2.1875684   -2.1875684   -1.1633133  0.066866966   -2.1875684    1.0242551  1714436 
  642000    1.0136142   -2.1875122   -2.1875122   -1.1629122  0.068078652   -2.1875122       1.0246  1714436 
[...]
 9832000    1.0133785   -2.2024406   -2.2024406   -1.1780788  0.070917511   -2.2024406    1.0243617  1714436 
 9833000    1.0129465   -2.2018514   -2.2018514   -1.1779263  0.070575412   -2.2018514    1.0239251  1714436 
 9834000    1.0131898   -2.2012053   -2.2012053   -1.1770343  0.072629636   -2.2012053     1.024171  1714436 
 9835000    1.0130605   -2.2014468   -2.2014468   -1.1774066  0.072926628   -2.2014468    1.0240403  1714436 
 9836000    1.0135912   -2.2017987   -2.2017987    -1.177222  0.073535016   -2.2017987    1.0245767  1714436 
 9837000    1.0125115   -2.2008885   -2.2008885   -1.1774032  0.072815264   -2.2008885    1.0234854  1714436 
 9838000    1.0127211   -2.2015449   -2.2015449   -1.1778476  0.075164309   -2.2015449    1.0236972  1714436 
 9839000    1.0138378    -2.202319    -2.202319   -1.1774929   0.07333647    -2.202319     1.024826  1714436 
 9840000    1.0128816   -2.2019291   -2.2019291   -1.1780696  0.072047695   -2.2019291    1.0238595  1714436 
 9841000     1.013468    -2.202046    -2.202046   -1.1775938  0.070842648    -2.202046    1.0244522  1714436 
 9842000    1.0127734   -2.2018312   -2.2018312   -1.1780811  0.077371251   -2.2018312    1.0237501  1714436 
 9843000    1.0125193   -2.2016605   -2.2016605   -1.1781672  0.071939446   -2.2016605    1.0234933  1714436 
 9844000    1.0133909   -2.2024075   -2.2024075   -1.1780332  0.078209785   -2.2024075    1.0243743  1714436 
 9845000    1.0128404   -2.2019721   -2.2019721   -1.1781542  0.071231896   -2.2019721    1.0238179  1714436 
 9846000    1.0129096    -2.202838    -2.202838   -1.1789503  0.069316634    -2.202838    1.0238877  1714436 
 9847000    1.0130354   -2.2028762   -2.2028762   -1.1788613  0.073435635   -2.2028762     1.024015  1714436 
 9848000    1.0124209   -2.2027768   -2.2027768    -1.179383  0.076237272   -2.2027768    1.0233938  1714436 
 9849000    1.0124839    -2.202419    -2.202419   -1.1789616  0.069229218    -2.202419    1.0234574  1714436 
 9850000    1.0124486    -2.202662    -2.202662   -1.1792403  0.067113496    -2.202662    1.0234218  1714436 
 9851000    1.0120634   -2.2022896   -2.2022896   -1.1792572  0.067052181   -2.2022896    1.0230324  1714436 
 9852000    1.0119691   -2.2018917   -2.2018917   -1.1789546    0.0642961   -2.2018917    1.0229371  1714436 
 9853000    1.0112542   -2.2010278   -2.2010278   -1.1788133  0.070625684   -2.2010278    1.0222145  1714436 
 9854000    1.0122343   -2.2023281   -2.2023281    -1.179123  0.071410409   -2.2023281    1.0232052  1714436 
 9855000    1.0114509   -2.2012937   -2.2012937   -1.1788804  0.076871487   -2.2012937    1.0224133  1714436 
 9856000    1.0129852   -2.2024553   -2.2024553   -1.1784911  0.075884233   -2.2024553    1.0239642  1714436 
 9857000    1.0118941    -2.201865    -2.201865   -1.1790037  0.072711815    -2.201865    1.0228613  1714436 
 9858000    1.0130395   -2.2029257   -2.2029257   -1.1789067  0.067718578   -2.2029257     1.024019  1714436 
 9859000    1.0127253   -2.2023442   -2.2023442   -1.1786427  0.063670729   -2.2023442    1.0237015  1714436 
 9860000    1.0125535   -2.2025201   -2.2025201   -1.1789922  0.073719297   -2.2025201    1.0235279  1714436 
 9861000    1.0130465   -2.2027919   -2.2027919   -1.1787657    0.0726059   -2.2027919    1.0240262  1714436 
 9862000    1.0137355   -2.2032368   -2.2032368   -1.1785142  0.069278992   -2.2032368    1.0247226  1714436 
 9863000    1.0123524   -2.2017549   -2.2017549   -1.1784303  0.070846233   -2.2017549    1.0233245  1714436 
 9864000     1.012736   -2.2023273   -2.2023273   -1.1786149  0.077600676   -2.2023273    1.0237123  1714436 
 9865000    1.0126635   -2.2028464   -2.2028464   -1.1792074   0.07720741   -2.2028464     1.023639  1714436 
 9866000    1.0128058   -2.2023827   -2.2023827   -1.1785998  0.069935406   -2.2023827    1.0237829  1714436 
 9867000    1.0126353   -2.2017966   -2.2017966    -1.178186  0.072148919   -2.2017966    1.0236105  1714436 
 9868000    1.0128658    -2.201476    -2.201476   -1.1776326  0.068233996    -2.201476    1.0238435  1714436 
 9869000    1.0134931   -2.2026248   -2.2026248   -1.1781473  0.069117258   -2.2026248    1.0244776  1714436 
 9870000    1.0126642   -2.2015674   -2.2015674   -1.1779277  0.077480207   -2.2015674    1.0236397  1714436 
 9871000    1.0129453   -2.2019591   -2.2019591   -1.1780353  0.071966601   -2.2019591    1.0239238  1714436 
 9872000    1.0134732   -2.2021341   -2.2021341   -1.1776767  0.072815462   -2.2021341    1.0244575  1714436 
 9873000    1.0130737   -2.2020372   -2.2020372   -1.1779836  0.069340074   -2.2020372    1.0240537  1714436 
 9874000    1.0128191    -2.201686    -2.201686   -1.1778897  0.070991162    -2.201686    1.0237963  1714436 
 9875000    1.0133799   -2.2027954   -2.2027954   -1.1784322  0.075553972   -2.2027954    1.0243631  1714436 
 9876000     1.012675   -2.2020942   -2.2020942   -1.1784435  0.073651579   -2.2020942    1.0236506  1714436 
 9877000    1.0128751   -2.2020865   -2.2020865   -1.1782336  0.065513753   -2.2020865    1.0238529  1714436 
 9878000    1.0121545   -2.2017386   -2.2017386   -1.1786141  0.075354258   -2.2017386    1.0231245  1714436 
 9879000    1.0116563   -2.2010435   -2.2010435   -1.1784226  0.073966654   -2.2010435    1.0226208  1714436 
 9880000    1.0125821   -2.2019412   -2.2019412   -1.1783846    0.0736342   -2.2019412    1.0235567  1714436 
 9881000    1.0123804   -2.2017731   -2.2017731   -1.1784203  0.070049191   -2.2017731    1.0233528  1714436 
 9882000    1.0122915   -2.2016488   -2.2016488   -1.1783858  0.074676938   -2.2016488     1.023263  1714436 
 9883000    1.0127305   -2.2021923   -2.2021923   -1.1784856  0.072587875   -2.2021923    1.0237068  1714436 
 9884000    1.0129744   -2.2018211   -2.2018211   -1.1778678  0.073005078   -2.2018211    1.0239533  1714436 
 9885000    1.0122619   -2.2015212   -2.2015212   -1.1782882  0.076100327   -2.2015212     1.023233  1714436 
 9886000    1.0135121   -2.2030653   -2.2030653   -1.1785684   0.06610739   -2.2030653    1.0244968  1714436 
 9887000    1.0126728   -2.2021538   -2.2021538   -1.1785055  0.070697322   -2.2021538    1.0236484  1714436 
 9888000    1.0125829   -2.2018961   -2.2018961   -1.1783386  0.065942846   -2.2018961    1.0235575  1714436 
 9889000    1.0132996   -2.2027694   -2.2027694   -1.1784874  0.071809008   -2.2027694     1.024282  1714436 
 9890000    1.0138181   -2.2034706   -2.2034706   -1.1786645  0.069603607   -2.2034706    1.0248061  1714436 
 9891000    1.0126399   -2.2020318   -2.2020318   -1.1784166  0.072317303   -2.2020318    1.0236151  1714436 
 9892000    1.0131353   -2.2028915   -2.2028915   -1.1787756  0.071531488   -2.2028915    1.0241159  1714436 
 9893000    1.0123757   -2.2023484   -2.2023484   -1.1790003  0.075648335   -2.2023484    1.0233481  1714436 
 9894000    1.0126299   -2.2022465   -2.2022465   -1.1786415  0.066857725   -2.2022465     1.023605  1714436 
 9895000    1.0123616   -2.2017464   -2.2017464   -1.1784126  0.072574466   -2.2017464    1.0233338  1714436 
 9896000    1.0123069   -2.2019371   -2.2019371   -1.1786585  0.071614914   -2.2019371    1.0232785  1714436 
 9897000    1.0119349   -2.2015807   -2.2015807   -1.1786782  0.074260035   -2.2015807    1.0229025  1714436 
 9898000    1.0123415   -2.2024939   -2.2024939   -1.1791805  0.068021648   -2.2024939    1.0233135  1714436 
 9899000    1.0134486   -2.2032474   -2.2032474   -1.1788147  0.072143998   -2.2032474    1.0244326  1714436 
 9900000    1.0121489   -2.2018782   -2.2018782   -1.1787594  0.074234411   -2.2018782    1.0231189  1714436 
 9901000    1.0124924   -2.2025202   -2.2025202   -1.1790541  0.071630893   -2.2025202    1.0234661  1714436 
 9902000    1.0127038   -2.2021842   -2.2021842   -1.1785045  0.071306409   -2.2021842    1.0236797  1714436 
 9903000     1.012014   -2.2017214   -2.2017214   -1.1787389  0.075319541   -2.2017214    1.0229825  1714436 
 9904000    1.0122459   -2.2023496   -2.2023496   -1.1791327  0.071310056   -2.2023496    1.0232169  1714436 
 9905000    1.0140392   -2.2037666   -2.2037666    -1.178737  0.068846724   -2.2037666    1.0250296  1714436 
 9906000    1.0134108    -2.203013    -2.203013   -1.1786186    0.0726495    -2.203013    1.0243944  1714436 
 9907000    1.0136181   -2.2033747   -2.2033747   -1.1787707  0.069291466   -2.2033747     1.024604  1714436 
 9908000     1.013399   -2.2029394   -2.2029394   -1.1785569  0.066699526   -2.2029394    1.0243825  1714436 
 9909000    1.0126762    -2.201957    -2.201957   -1.1783052  0.072609499    -2.201957    1.0236518  1714436 
 9910000    1.0131268   -2.2025549   -2.2025549   -1.1784476  0.069838189   -2.2025549    1.0241073  1714436 
 9911000    1.0129927    -2.202002    -2.202002   -1.1780302    0.0688631    -2.202002    1.0239718  1714436 
 9912000    1.0139327   -2.2032073   -2.2032073   -1.1782853  0.068699805   -2.2032073     1.024922  1714436 
 9913000    1.0122987   -2.2018814   -2.2018814   -1.1786112  0.070702048   -2.2018814    1.0232702  1714436 
 9914000    1.0124798   -2.2021208   -2.2021208   -1.1786675  0.073277774   -2.2021208    1.0234533  1714436 
 9915000    1.0122347    -2.201543    -2.201543   -1.1783374  0.070750771    -2.201543    1.0232056  1714436 
 9916000    1.0134949   -2.2027363   -2.2027363   -1.1782569  0.078367242   -2.2027363    1.0244794  1714436 
 9917000    1.0135927   -2.2024403   -2.2024403    -1.177862  0.073323462   -2.2024403    1.0245783  1714436 
 9918000    1.0128554   -2.2021684   -2.2021684   -1.1783354  0.074396504   -2.2021684     1.023833  1714436 
 9919000    1.0125011   -2.2021514   -2.2021514   -1.1786765  0.070813688   -2.2021514    1.0234749  1714436 
 9920000     1.012304    -2.202079    -2.202079   -1.1788034  0.074698909    -2.202079    1.0232756  1714436 
 9921000    1.0132416    -2.202936    -2.202936   -1.1787126  0.074467547    -2.202936    1.0242234  1714436 
 9922000    1.0132893   -2.2030391   -2.2030391   -1.1787675  0.068353976   -2.2030391    1.0242716  1714436 
 9923000    1.0140631   -2.2037515   -2.2037515   -1.1786978  0.070012734   -2.2037515    1.0250538  1714436 
 9924000    1.0134891   -2.2024676   -2.2024676   -1.1779941  0.075299325   -2.2024676    1.0244735  1714436 
 9925000    1.0140276   -2.2030909   -2.2030909    -1.178073  0.070502668   -2.2030909    1.0250179  1714436 
 9926000    1.0137012   -2.2033245   -2.2033245   -1.1786366  0.069463112   -2.2033245     1.024688  1714436 
 9927000    1.0130757   -2.2029131   -2.2029131   -1.1788574  0.074500511   -2.2029131    1.0240557  1714436 
 9928000    1.0123925   -2.2023782   -2.2023782    -1.179013  0.074373627   -2.2023782    1.0233651  1714436 
 9929000    1.0120931   -2.2020775   -2.2020775   -1.1790151  0.072756003   -2.2020775    1.0230624  1714436 
 9930000    1.0126026    -2.202792    -2.202792   -1.1792145  0.068616542    -2.202792    1.0235775  1714436 
 9931000    1.0128369   -2.2032039   -2.2032039   -1.1793896  0.075883467   -2.2032039    1.0238143  1714436 
 9932000     1.012661   -2.2031564   -2.2031564   -1.1795199  0.068423706   -2.2031564    1.0236364  1714436 
 9933000     1.013465   -2.2036026   -2.2036026   -1.1791534  0.068638003   -2.2036026    1.0244492  1714436 
 9934000     1.013269   -2.2034346   -2.2034346   -1.1791835  0.071157494   -2.2034346    1.0242511  1714436 
 9935000    1.0127859   -2.2027924   -2.2027924   -1.1790296  0.067081458   -2.2027924    1.0237627  1714436 
 9936000    1.0123305   -2.2022229   -2.2022229   -1.1789206  0.068035701   -2.2022229    1.0233024  1714436 
 9937000    1.0130254    -2.203071    -2.203071   -1.1790662  0.071869398    -2.203071    1.0240049  1714436 
 9938000    1.0126903   -2.2025047   -2.2025047   -1.1788386  0.072306466   -2.2025047    1.0236661  1714436 
 9939000    1.0126788   -2.2025468   -2.2025468   -1.1788923  0.071925083   -2.2025468    1.0236545  1714436 
 9940000    1.0132792   -2.2029643   -2.2029643   -1.1787029  0.072729048   -2.2029643    1.0242614  1714436 
 9941000    1.0137026   -2.2032703   -2.2032703   -1.1785809  0.070943424   -2.2032703    1.0246894  1714436 
 9942000    1.0138861   -2.2030714   -2.2030714   -1.1781965  0.070064816   -2.2030714    1.0248748  1714436 
 9943000    1.0131297    -2.202146    -2.202146   -1.1780358  0.071954191    -2.202146    1.0241103  1714436 
 9944000    1.0140695   -2.2028057   -2.2028057   -1.1777454  0.071410673   -2.2028057    1.0250603  1714436 
 9945000    1.0138104   -2.2029523   -2.2029523   -1.1781539  0.074387893   -2.2029523    1.0247984  1714436 
 9946000    1.0134361   -2.2027004   -2.2027004   -1.1782805  0.073313222   -2.2027004      1.02442  1714436 
 9947000    1.0139911   -2.2033121   -2.2033121   -1.1783311  0.074525688   -2.2033121     1.024981  1714436 
 9948000    1.0139102   -2.2028223   -2.2028223   -1.1779231  0.074203308   -2.2028223    1.0248992  1714436 
 9949000     1.014115   -2.2026309   -2.2026309   -1.1775247  0.072300144   -2.2026309    1.0251062  1714436 
 9950000    1.0130682   -2.2015486   -2.2015486   -1.1775006  0.076315882   -2.2015486     1.024048  1714436 
 9951000    1.0138619   -2.2026548   -2.2026548   -1.1778044  0.071972827   -2.2026548    1.0248504  1714436 
 9952000    1.0142581   -2.2035255   -2.2035255   -1.1782746  0.074449939   -2.2035255    1.0252509  1714436 
 9953000    1.0134814   -2.2027928   -2.2027928    -1.178327  0.073558202   -2.2027928    1.0244658  1714436 
 9954000    1.0138222   -2.2029978   -2.2029978   -1.1781875  0.070631268   -2.2029978    1.0248103  1714436 
 9955000    1.0140575    -2.203175    -2.203175   -1.1781269  0.073192009    -2.203175    1.0250481  1714436 
 9956000    1.0139076   -2.2029775   -2.2029775    -1.178081  0.071374677   -2.2029775    1.0248966  1714436 
 9957000    1.0134063   -2.2027173   -2.2027173   -1.1783274  0.070924767   -2.2027173    1.0243899  1714436 
 9958000    1.0132433   -2.2024344   -2.2024344   -1.1782093  0.073081902   -2.2024344    1.0242251  1714436 
 9959000    1.0124535   -2.2016138   -2.2016138   -1.1781871   0.07186229   -2.2016138    1.0234267  1714436 
 9960000    1.0125424   -2.2014364   -2.2014364   -1.1779198  0.075286006   -2.2014364    1.0235166  1714436 
 9961000    1.0128428   -2.2018344   -2.2018344   -1.1780141  0.065305286   -2.2018344    1.0238203  1714436 
 9962000    1.0126205   -2.2022646   -2.2022646   -1.1786691  0.067259696   -2.2022646    1.0235956  1714436 
 9963000    1.0122329    -2.201469    -2.201469   -1.1782653  0.074624439    -2.201469    1.0232037  1714436 
 9964000    1.0120687   -2.2014032   -2.2014032   -1.1783654  0.069975511   -2.2014032    1.0230378  1714436 
 9965000    1.0122116   -2.2015639   -2.2015639   -1.1783818  0.073431649   -2.2015639    1.0231822  1714436 
 9966000     1.012311   -2.2016313   -2.2016313   -1.1783487  0.069862241   -2.2016313    1.0232827  1714436 
 9967000    1.0126785   -2.2026625   -2.2026625   -1.1790083  0.070538926   -2.2026625    1.0236542  1714436 
 9968000    1.0123923   -2.2019561   -2.2019561   -1.1785913  0.072328376   -2.2019561    1.0233649  1714436 
 9969000    1.0125323   -2.2021451   -2.2021451   -1.1786387   0.06546256   -2.2021451    1.0235063  1714436 
 9970000     1.011558   -2.2013823   -2.2013823   -1.1788608  0.071886063   -2.2013823    1.0225215  1714436 
 9971000    1.0132393   -2.2026445   -2.2026445   -1.1784235  0.071351426   -2.2026445     1.024221  1714436 
 9972000    1.0130015   -2.2025147   -2.2025147   -1.1785341  0.072197141   -2.2025147    1.0239806  1714436 
 9973000    1.0131912   -2.2023737   -2.2023737   -1.1782012   0.07328654   -2.2023737    1.0241725  1714436 
 9974000    1.0125415   -2.2014507   -2.2014507    -1.177935  0.076226997   -2.2014507    1.0235157  1714436 
 9975000    1.0123758   -2.2014926   -2.2014926   -1.1781444  0.076637176   -2.2014926    1.0233481  1714436 
 9976000    1.0132784   -2.2021933   -2.2021933   -1.1779328  0.068322098   -2.2021933    1.0242605  1714436 
 9977000    1.0133547   -2.2026138   -2.2026138   -1.1782761  0.065372068   -2.2026138    1.0243377  1714436 
 9978000    1.0128537   -2.2020882   -2.2020882   -1.1782569  0.072435362   -2.2020882    1.0238313  1714436 
 9979000    1.0128237   -2.2020242   -2.2020242   -1.1782233  0.069236714   -2.2020242    1.0238009  1714436 
 9980000    1.0125561   -2.2020421   -2.2020421   -1.1785116  0.068185507   -2.2020421    1.0235304  1714436 
 9981000    1.0131417   -2.2022204   -2.2022204   -1.1780981  0.064408745   -2.2022204    1.0241224  1714436 
 9982000    1.0133612   -2.2023657   -2.2023657   -1.1780214   0.06911228   -2.2023657    1.0243443  1714436 
 9983000    1.0128981   -2.2022366   -2.2022366   -1.1783605  0.071882487   -2.2022366    1.0238761  1714436 
 9984000    1.0133203   -2.2026719   -2.2026719    -1.178369  0.072063081   -2.2026719     1.024303  1714436 
 9985000    1.0131175   -2.2027276   -2.2027276   -1.1786296  0.071903502   -2.2027276     1.024098  1714436 
 9986000    1.0125259   -2.2027568   -2.2027568   -1.1792569  0.075904867   -2.2027568    1.0234999  1714436 
 9987000    1.0138344     -2.20354     -2.20354   -1.1787174     0.073129     -2.20354    1.0248226  1714436 
 9988000     1.013755   -2.2031527   -2.2031527   -1.1784103  0.074160165   -2.2031527    1.0247423  1714436 
 9989000    1.0127537   -2.2025447   -2.2025447   -1.1788145  0.074529046   -2.2025447    1.0237302  1714436 
 9990000    1.0130763   -2.2023449   -2.2023449   -1.1782886  0.079300235   -2.2023449    1.0240563  1714436 
 9991000    1.0136556   -2.2028787   -2.2028787   -1.1782369  0.071454309   -2.2028787    1.0246419  1714436 
 9992000     1.013323   -2.2024947   -2.2024947    -1.178189  0.072335016   -2.2024947    1.0243057  1714436 
 9993000    1.0131041   -2.2024456   -2.2024456   -1.1783613  0.072388207   -2.2024456    1.0240843  1714436 
 9994000    1.0132956   -2.2026959   -2.2026959   -1.1784179  0.069265827   -2.2026959     1.024278  1714436 
 9995000    1.0120843   -2.2014073   -2.2014073   -1.1783538  0.073099749   -2.2014073    1.0230535  1714436 
 9996000    1.0133835   -2.2026356   -2.2026356   -1.1782688  0.068981054   -2.2026356    1.0243668  1714436 
 9997000    1.0122848   -2.2017789   -2.2017789   -1.1785227  0.069681056   -2.2017789    1.0232562  1714436 
 9998000    1.0132643   -2.2024736   -2.2024736   -1.1782272  0.077432958   -2.2024736    1.0242464  1714436 
 9999000    1.0130317   -2.2023817   -2.2023817   -1.1783705  0.077470752   -2.2023817    1.0240112  1714436 
10000000     1.012387    -2.202279    -2.202279   -1.1789196  0.074630117    -2.202279    1.0233595  1714436 
Loop time of 19651.3 on 768 procs for 10000000 steps with 1714436 atoms

Performance: 219832.758 tau/day, 508.872 timesteps/s
91.8% CPU use with 768 MPI tasks x 1 OpenMP threads

MPI task timing breakdown:
Section |  min time  |  avg time  |  max time  |%varavg|  %CPU | %total
-----------------------------------------------------------------------
Pair    | 1589.1     | 4513.7     | 6747.2     |1426.1 |  93.2 | 22.97
Bond    | 6.2955     | 6.8924     | 7.7898     |   6.4 | 100.0 |  0.04
Neigh   | 1673.2     | 4313.1     | 5440.7     |1093.5 |  98.9 | 21.95
Comm    | 3995.9     | 6640.3     | 11855      |1632.8 |  88.8 | 33.79
Output  | 495.76     | 497.12     | 498.63     |   3.0 |  81.3 |  2.53
Modify  | 2623.2     | 3336.3     | 4365.8     | 504.7 |  89.9 | 16.98
Other   |            | 343.9      |            |       |       |  1.75

Nlocal:        2232.34 ave        3108 max        1612 min
Histogram: 3 38 137 189 190 120 68 16 6 1
Nghost:        5674.86 ave        9419 max        1824 min
Histogram: 43 47 41 47 123 178 183 79 26 1
Neighs:        42794.6 ave       69058 max       12056 min
Histogram: 44 5 24 84 127 182 170 78 11 43

Total # of neighbors = 32866273
Ave neighs/atom = 19.170312
Ave special neighs/atom = 0.0000000
Neighbor list builds = 1000000
Dangerous builds = 990000

Total wall time: 5:27:49
