LAMMPS (24 Dec 2020)
OMP_NUM_THREADS environment is not set. Defaulting to 1 thread. (src/comm.cpp:94)
  using 1 OpenMP thread(s) per MPI task
#Read the equilibrated lj fluid and add nanocubes

units           lj
atom_style      full
#atom_modify     map array first cubes
dimension       3
boundary        p p f
pair_style      lj/cut/opt 2.5

variable        sigma           equal 1.0
variable        epsilon         equal 1.0
read_restart	restart.dat.10000000
Reading restart file ...
  restart file = 24 Dec 2020, LAMMPS = 24 Dec 2020
  restoring atom style full from restart
  orthogonal box = (0.0000000 0.0000000 0.0000000) to (140.00000 140.00000 240.00000)
  8 by 8 by 12 MPI processor grid
  restoring pair style lj/cut/opt from restart
  1815307 atoms
Finding 1-2 1-3 1-4 neighbors ...
  special bond factors lj:    0        0        0       
  special bond factors coul:  0        0        0       
     0 = max # of 1-2 neighbors
     0 = max # of 1-3 neighbors
     0 = max # of 1-4 neighbors
     1 = max # of special neighbors
  special bonds CPU = 9.628 seconds
  read_restart CPU = 11.397 seconds

group		solvent type 1
1255237 atoms in group solvent
group 		hull  type 2
218540 atoms in group hull
group 		dummy type 3
341530 atoms in group dummy

neighbor      0.4 bin
neigh_modify  exclude molecule/intra cubes

pair_modify   shift yes

pair_coeff    1 1 1.0 1.0 #solvent
pair_coeff    2 2 1.0 1.0 1.12 #np
pair_coeff    3 3 0.0 0.0 0.0 #dummy
pair_coeff    2 3 0.0 0.0 0.0 #np dummy
pair_coeff    1 2 ${sol} 1.0  #np solvent
pair_coeff    1 2 0.675 1.0  
pair_coeff    1 3 0.0 0.0 0.0 #dummy solvent


comm_modify   mode multi cutoff/multi 1 2.5 cutoff/multi 2 2.5 cutoff/multi 3 6.95

reset_timestep 	0

balance 	1.05 shift z 10 1.05
Balancing ...
Unused restart file global fix info:
  fix style: STORE, fix ID: msd_COMPUTE_STORE
Unused restart file peratom fix info:
  fix style: STORE, fix ID: bin1_COMPUTE_STORE
  fix style: STORE, fix ID: bin3_COMPUTE_STORE
Neighbor list info ...
  update every 1 steps, delay 10 steps, check yes
  max neighbors/atom: 2000, page size: 100000
  master list distance cutoff = 2.9
  ghost atom cutoff = 6.95
  binsize = 1.45, bins = 97 97 166
  1 neighbor lists, perpetual/occasional/extra = 1 0 0
  (1) pair lj/cut/opt, perpetual
      attributes: half, newton on
      pair build: half/bin/newton
      stencil: half/bin/3d/newton
      bin: standard
 rebalancing time: 0.065 seconds
  iteration count = 4
  initial/final maximal load/proc = 4973.0000 3596.0000
  initial/final imbalance factor  = 2.1039218 1.5213559
  x cuts: 0.0000000 0.12500000 0.25000000 0.37500000 0.50000000 0.62500000 0.75000000 0.87500000 1.0000000
  y cuts: 0.0000000 0.12500000 0.25000000 0.37500000 0.50000000 0.62500000 0.75000000 0.87500000 1.0000000
  z cuts: 0.0000000 0.057291667 0.10937500 0.15625000 0.19791667 0.24479167 0.29687500 0.34895833 0.39583333 0.43750000 0.49479167 0.64583333 1.0000000

####################### WALLS ###########################

variable       epsilonWall equal 2*${epsilon}
variable       epsilonWall equal 2*1
variable       repulsive   equal   0.7147*${sigma}
variable       repulsive   equal   0.7147*1
variable       full	   equal   3*${sigma}
variable       full	   equal   3*1
region         lowWall block EDGE EDGE EDGE EDGE EDGE 2

fix            topWall all wall/lj93 zhi EDGE 	       ${epsilonWall} ${sigma} ${repulsive} units box
fix            topWall all wall/lj93 zhi EDGE 	       2 ${sigma} ${repulsive} units box
fix            topWall all wall/lj93 zhi EDGE 	       2 1 ${repulsive} units box
fix            topWall all wall/lj93 zhi EDGE 	       2 1 0.7147 units box
fix            lowSol solvent wall/lj93 zlo EDGE                ${epsilonWall} ${sigma} ${full} units box
fix            lowSol solvent wall/lj93 zlo EDGE                2 ${sigma} ${full} units box
fix            lowSol solvent wall/lj93 zlo EDGE                2 1 ${full} units box
fix            lowSol solvent wall/lj93 zlo EDGE                2 1 3 units box
fix 	       lowCub cubes wall/lj93 zlo EDGE                ${epsilonWall} ${sigma} ${repulsive} units box
fix 	       lowCub cubes wall/lj93 zlo EDGE                2 ${sigma} ${repulsive} units box
fix 	       lowCub cubes wall/lj93 zlo EDGE                2 1 ${repulsive} units box
fix 	       lowCub cubes wall/lj93 zlo EDGE                2 1 0.7147 units box


###################### COMPUTES ##########################

compute        bin1 solvent chunk/atom bin/1d z lower 1.0 units box
compute        bin3 solvent chunk/atom bin/3d x lower 5.0 y lower 5.0 z lower 5.0 units box

compute 	pe solvent 	   pe/atom
compute 	pe2 all 	   pe/atom

######################  FIXES ############################


fix             peclet solvent ave/chunk 10 10 10000 bin1 density/number norm                  none ave one file density.profile

fix              temp solvent ave/chunk 10 10 10000 bin1 temp norm                  none ave one file temp.profile

fix 		 dens solvent ave/chunk 10 10 500000 bin3 density/number norm 		 none ave one file dens3.profile

fix		 temp2 solvent ave/chunk 10 10 500000 bin3 temp norm none ave one file temp3.profile

fix 		pe solvent ave/chunk 1 1 500000 bin3 c_pe norm none ave one file pe3.profile



################### INTEGRATION

fix             1 cubes rigid/nve/small molecule
  create bodies CPU = 0.071 seconds
  490 rigid bodies with 560070 atoms
  6.9282032 = max distance from body owner to body atom

fix             2 solvent nve



## Thermostat
region          regthermo block EDGE EDGE EDGE EDGE 0 15
group           thermo dynamic solvent region regthermo every 1000
dynamic group thermo defined
fix             3 thermo langevin ${temp} ${temp} 10 156453
fix             3 thermo langevin 1.0 ${temp} 10 156453
fix             3 thermo langevin 1.0 1.0 10 156453

## Evaporation
region		regevap block EDGE EDGE EDGE EDGE 140 EDGE
fix 		4 solvent evaporate ${evap} 1 regevap 156415
fix 		4 solvent evaporate 37 1 regevap 156415


#### Load balancing

fix             bal all balance 1000 1.05 shift z 10 1.05

############### Diagnostics and computes ###################

compute        	com cubes          rigid/local   1 mol x y z
compute        	quat cubes         rigid/local   1 mol quatw quati quatj quatk

compute 	cc2 cubes 	   chunk/atom 	 molecule
compute 	msd cubes 	   msd/chunk 	 cc2

fix 		msd all ave/time  1 1 10000 c_msd[*] file dump.msd ave one mode vector

dump            1 all custom 500000 dump.lammpstrj id mol type x y z vx vy vz c_pe2
dump		sol  solvent custom 500000 dump.soltrj id x y z vx vy vz c_pe
dump		cubetrj cubes custom 500000 cubes.lammpstrj id mol type x y z vx vy vz
dump            com cubes local 500000 dump.*.xyz c_com[*]
dump	        xyz hull xyz 500000 cubes.xyz
#dump            quat cubes      local 100000 dump.*.quat c_quat[*]
dump		order cubes 	local 100000 dump.*.order c_com[*] c_quat[*]
#dump		mol cubes molfile 10000 mol.xyz xyz


dump            2 all image 100000 image.*.png type type zoom 1.5 size 1280 720
dump_modify     2 pad 8
dump		image cubes image 100000 image_cubes.*.png type type zoom 1.5 size 1280 720
dump_modify	image pad 8
dump            3 all movie 5000 movie.avi type type zoom 1.5 size 1280 720
dump		4 cubes movie 5000 movie_cubes.avi type type size 1280 720


thermo          1000
thermo_style    custom step temp epair evdwl etotal press pe ke atoms

restart         1000000 restart.dat
timestep        0.005
timer           full
New timer settings: style=full  mode=nosync  timeout=off

run 		${steps}
run 		30000000
Per MPI rank memory allocation (min/avg/max) = 17.51 | 23.56 | 27.06 Mbytes
Step Temp E_pair E_vdwl TotEng Press PotEng KinEng Atoms 
       0    1.0063868   -2.0754939   -2.0754939   -1.0308448  0.050825558   -2.0754939    1.0446491  1815307 
    1000    1.0062269   -2.0755884   -2.0755884   -1.0310898  0.066284401   -2.0755884    1.0444986  1815280 
    2000    1.0062717   -2.0753178   -2.0753178   -1.0307571  0.066296192   -2.0753178    1.0445607  1815253 
    3000    1.0063379   -2.0756943   -2.0756943   -1.0310493  0.066300339   -2.0756943     1.044645  1815226 
    4000    1.0061294   -2.0757264   -2.0757264   -1.0312824  0.066159914   -2.0757264     1.044444  1815199 
    5000    1.0070645   -2.0764121   -2.0764121   -1.0309818  0.065257635   -2.0764121    1.0454303  1815172 
    6000    1.0068114   -2.0761501   -2.0761501    -1.030967    0.0654541   -2.0761501    1.0451831  1815145 
    7000    1.0065215   -2.0757211   -2.0757211   -1.0308235  0.066970299   -2.0757211    1.0448977  1815118 
    8000    1.0070857   -2.0762136   -2.0762136   -1.0307146  0.061860126   -2.0762136     1.045499  1815091 
    9000    1.0066801   -2.0758305   -2.0758305    -1.030737  0.064265985   -2.0758305    1.0450935  1815064 
   10000    1.0066737   -2.0758346   -2.0758346   -1.0307323   0.06848239   -2.0758346    1.0451024  1815037 
   11000    1.0062901   -2.0755496   -2.0755496   -1.0308299  0.067695362   -2.0755496    1.0447197  1815010 
   12000    1.0066315   -2.0759688   -2.0759688   -1.0308792  0.068569646   -2.0759688    1.0450897  1814983 
   13000    1.0065898   -2.0760516   -2.0760516   -1.0309898  0.063875153   -2.0760516    1.0450618  1814956 
   14000    1.0067501   -2.0761999   -2.0761999    -1.030956  0.067022455   -2.0761999    1.0452439  1814929 
   15000    1.0063447   -2.0759222   -2.0759222   -1.0310838  0.063352351   -2.0759222    1.0448384  1814902 
   16000     1.006153   -2.0758194   -2.0758194   -1.0311644  0.067316934   -2.0758194     1.044655  1814875 
   17000    1.0067291   -2.0763108   -2.0763108   -1.0310421  0.062836392   -2.0763108    1.0452687  1814848 
   18000    1.0062295   -2.0758841   -2.0758841   -1.0311186   0.06591816   -2.0758841    1.0447655  1814821 
   19000    1.0067695    -2.075924    -2.075924   -1.0305823  0.068398632    -2.075924    1.0453417  1814794 
   20000    1.0066723   -2.0759813   -2.0759813   -1.0307249  0.066562871   -2.0759813    1.0452564  1814767 
   21000    1.0064669    -2.075903    -2.075903   -1.0308443  0.066948527    -2.075903    1.0450586  1814740 
   22000    1.0065206   -2.0757426   -2.0757426   -1.0306126  0.067510278   -2.0757426      1.04513  1814713 
   23000    1.0066733   -2.0756715   -2.0756715   -1.0303675  0.065001657   -2.0756715    1.0453041  1814686 
   24000    1.0061223   -2.0759148   -2.0759148   -1.0311673  0.063242057   -2.0759148    1.0447475  1814659 
   25000    1.0065666    -2.075782    -2.075782   -1.0305576  0.064900231    -2.075782    1.0452244  1814632 
   26000    1.0064547   -2.0752451   -2.0752451   -1.0301214  0.066505987   -2.0752451    1.0451237  1814605 
   27000    1.0068786   -2.0758472   -2.0758472   -1.0302677   0.06545137   -2.0758472    1.0455795  1814578 
   28000    1.0061125   -2.0753516   -2.0753516   -1.0305521  0.066018471   -2.0753516    1.0447995  1814551 
   29000    1.0055955   -2.0747208   -2.0747208   -1.0304427  0.065659891   -2.0747208    1.0442781  1814524 
   30000      1.00626   -2.0750611   -2.0750611   -1.0300774  0.064782854   -2.0750611    1.0449838  1814497 
   31000    1.0058689   -2.0752493   -2.0752493   -1.0306562  0.065994661   -2.0752493    1.0445932  1814470 
   32000    1.0062087   -2.0759203   -2.0759203   -1.0309587  0.062855262   -2.0759203    1.0449615  1814443 
   33000    1.0058627   -2.0753571   -2.0753571   -1.0307392   0.06907695   -2.0753571    1.0446178  1814416 
   34000    1.0056145   -2.0750759   -2.0750759   -1.0307004  0.066243434   -2.0750759    1.0443756  1814389 
   35000    1.0071489   -2.0763389   -2.0763389   -1.0303542  0.064888659   -2.0763389    1.0459847  1814362 
   36000    1.0064727    -2.075305    -2.075305    -1.030007  0.065715278    -2.075305     1.045298  1814335 
   37000     1.005687    -2.075262    -2.075262    -1.030764  0.065936728    -2.075262     1.044498  1814307 
   38000     1.005925   -2.0754411   -2.0754411   -1.0306803  0.066636575   -2.0754411    1.0447608  1814280 
   39000    1.0062053   -2.0757478   -2.0757478   -1.0306804  0.067663602   -2.0757478    1.0450674  1814253 
   40000    1.0062305   -2.0763141   -2.0763141   -1.0312049   0.06664547   -2.0763141    1.0451092  1814226 
   41000    1.0058042    -2.076264    -2.076264    -1.031582   0.06518481    -2.076264     1.044682  1814199 
   42000    1.0056142   -2.0764359   -2.0764359   -1.0319358  0.065596888   -2.0764359    1.0445002  1814172 
   43000    1.0047977   -2.0753943   -2.0753943   -1.0317266  0.066525461   -2.0753943    1.0436676  1814145 
   44000    1.0040694   -2.0750093   -2.0750093   -1.0320826  0.065691754   -2.0750093    1.0429267  1814118 
   45000    1.0048652   -2.0758148   -2.0758148   -1.0320459  0.065256481   -2.0758148    1.0437689  1814091 
   46000    1.0057018   -2.0762735   -2.0762735   -1.0316202  0.069180772   -2.0762735    1.0446533  1814064 
   47000    1.0046942   -2.0757974   -2.0757974   -1.0321751  0.065967019   -2.0757974    1.0436223  1814037 
   48000    1.0052878   -2.0764219   -2.0764219   -1.0321674  0.067573362   -2.0764219    1.0442544  1814010 
   49000    1.0055042    -2.076639    -2.076639   -1.0321443  0.064720363    -2.076639    1.0444947  1813983 
   50000    1.0044482   -2.0759497   -2.0759497   -1.0325364  0.067975733   -2.0759497    1.0434134  1813956 
   51000    1.0049978   -2.0774516   -2.0774516   -1.0334518  0.063592848   -2.0774516    1.0439998  1813929 
   52000    1.0044078   -2.0768167   -2.0768167   -1.0334143  0.065998285   -2.0768167    1.0434024  1813902 
   53000    1.0048428   -2.0770226   -2.0770226   -1.0331528  0.068297302   -2.0770226    1.0438699  1813875 
   54000    1.0047597   -2.0765041   -2.0765041   -1.0327051  0.065477116   -2.0765041     1.043799  1813848 
   55000    1.0054092   -2.0774106   -2.0774106   -1.0329212  0.066371555   -2.0774106    1.0444894  1813821 
   56000    1.0057516   -2.0777334   -2.0777334   -1.0328728  0.064954105   -2.0777334    1.0448606  1813794 
   57000    1.0058045   -2.0777965   -2.0777965   -1.0328654  0.064639749   -2.0777965    1.0449311  1813767 
   58000    1.0054784   -2.0776596   -2.0776596   -1.0330517  0.064799929   -2.0776596    1.0446079  1813740 
   59000    1.0059305   -2.0778078   -2.0778078   -1.0327147  0.064832783   -2.0778078    1.0450931  1813713 
   60000    1.0060045   -2.0782821   -2.0782821   -1.0330965   0.06210956   -2.0782821    1.0451856  1813686 
   61000    1.0057563   -2.0777582   -2.0777582   -1.0328149  0.064421632   -2.0777582    1.0449433  1813659 
   62000    1.0062797   -2.0775915   -2.0775915   -1.0320889  0.067254859   -2.0775915    1.0455026  1813632 
   63000    1.0059084   -2.0777909   -2.0777909   -1.0326585  0.070773019   -2.0777909    1.0451324  1813605 
   64000     1.006335   -2.0780997   -2.0780997   -1.0325085  0.063748303   -2.0780997    1.0455912  1813578 
   65000    1.0056289   -2.0776161   -2.0776161    -1.032743  0.066178501   -2.0776161    1.0448731  1813551 
   66000    1.0052558   -2.0770708   -2.0770708   -1.0325698  0.069310873   -2.0770708     1.044501  1813524 
   67000    1.0053789   -2.0772045   -2.0772045   -1.0325601  0.069286714   -2.0772045    1.0446444  1813497 
   68000    1.0057507   -2.0772242   -2.0772242   -1.0321779   0.06489976   -2.0772242    1.0450463  1813470 
   69000     1.005272   -2.0769506   -2.0769506   -1.0323861  0.068111617   -2.0769506    1.0445645  1813443 
   70000    1.0056032    -2.077179    -2.077179   -1.0322548   0.06584848    -2.077179    1.0449242  1813416 
   71000     1.004692   -2.0767013   -2.0767013   -1.0327084  0.069843254   -2.0767013    1.0439929  1813389 
   72000    1.0051083   -2.0772267   -2.0772267   -1.0327856  0.060716231   -2.0772267    1.0444411  1813362 
   73000    1.0047141   -2.0761996   -2.0761996   -1.0321526  0.069664472   -2.0761996     1.044047  1813335 
   74000    1.0052118   -2.0764161   -2.0764161   -1.0318358  0.066158121   -2.0764161    1.0445803  1813307 
   75000    1.0049964   -2.0755803   -2.0755803   -1.0312084  0.065005988   -2.0755803     1.044372  1813280 
   76000     1.006375   -2.0765021   -2.0765021   -1.0306819  0.066514339   -2.0765021    1.0458202  1813253 
   77000    1.0048934   -2.0758211   -2.0758211    -1.031525   0.06730669   -2.0758211    1.0442961  1813226 
   78000    1.0052071   -2.0760263   -2.0760263   -1.0313888  0.066440941   -2.0760263    1.0446376  1813199 
   79000    1.0050172   -2.0758068   -2.0758068    -1.031351  0.066774378   -2.0758068    1.0444558  1813172 
   80000    1.0049961   -2.0752571   -2.0752571   -1.0308077  0.066586448   -2.0752571    1.0444494  1813145 
   81000    1.0048375   -2.0747408   -2.0747408   -1.0304406  0.066206613   -2.0747408    1.0443002  1813118 
   82000    1.0043559   -2.0743392   -2.0743392    -1.030524  0.063573622   -2.0743392    1.0438152  1813091 
   83000    1.0035749   -2.0738965   -2.0738965   -1.0308774  0.065199365   -2.0738965    1.0430191  1813064 
   84000    1.0039176   -2.0745538   -2.0745538   -1.0311631  0.063000674   -2.0745538    1.0433907  1813037 
   85000    1.0033569   -2.0737973   -2.0737973   -1.0309737   0.06566372   -2.0737973    1.0428235  1813010 
   86000    1.0031134   -2.0733706   -2.0733706   -1.0307847  0.063250302   -2.0733706    1.0425859  1812983 
   87000    1.0029267   -2.0732343   -2.0732343   -1.0308269  0.063567664   -2.0732343    1.0424074  1812956 
   88000     1.003496    -2.074314    -2.074314   -1.0312993  0.063121072    -2.074314    1.0430147  1812929 
   89000    1.0035846   -2.0741746   -2.0741746   -1.0310523  0.063812312   -2.0741746    1.0431223  1812902 
   90000    1.0034741   -2.0735425   -2.0735425   -1.0305194   0.06760003   -2.0735425     1.043023  1812875 
   91000    1.0048715   -2.0740878   -2.0740878   -1.0295968  0.063698007   -2.0740878     1.044491  1812848 
   92000    1.0050405   -2.0747177   -2.0747177   -1.0300354  0.064526534   -2.0747177    1.0446823  1812821 
   93000    1.0039842    -2.073633    -2.073633   -1.0300332  0.065130294    -2.073633    1.0435998  1812794 
   94000     1.004846    -2.074218    -2.074218   -1.0297068  0.065853679    -2.074218    1.0445112  1812767 
   95000    1.0049071   -2.0743008   -2.0743008   -1.0297106  0.067019934   -2.0743008    1.0445903  1812740 
   96000    1.0053355   -2.0748867   -2.0748867   -1.0298356  0.064296974   -2.0748867    1.0450511  1812713 
   97000    1.0049936   -2.0745931   -2.0745931   -1.0298818  0.067703951   -2.0745931    1.0447113  1812686 
   98000    1.0050426   -2.0747349   -2.0747349   -1.0299571  0.065640154   -2.0747349    1.0447778  1812659 
   99000     1.004702   -2.0741486   -2.0741486   -1.0297093  0.063910298   -2.0741486    1.0444393  1812632 
  100000    1.0040849    -2.073849    -2.073849   -1.0300356  0.067297882    -2.073849    1.0438134  1812605 
  101000    1.0039865   -2.0737894   -2.0737894   -1.0300628  0.068845908   -2.0737894    1.0437266  1812578 
  102000     1.005198   -2.0752508   -2.0752508   -1.0302492  0.067458035   -2.0752508    1.0450016  1812551 
  103000    1.0044172   -2.0747468   -2.0747468   -1.0305413  0.066861565   -2.0747468    1.0442055  1812524 
  104000    1.0040825   -2.0745747   -2.0745747   -1.0307016  0.065182546   -2.0745747    1.0438731  1812497 
  105000    1.0046185   -2.0752882   -2.0752882   -1.0308423   0.06387594   -2.0752882    1.0444459  1812470 
  106000    1.0051047   -2.0757542   -2.0757542   -1.0307873  0.063433037   -2.0757542    1.0449669  1812443 
  107000    1.0048538   -2.0755992   -2.0755992   -1.0308776  0.067760955   -2.0755992    1.0447216  1812416 
  108000      1.00455   -2.0751516   -2.0751516   -1.0307303  0.069253407   -2.0751516    1.0444213  1812389 
  109000    1.0046256   -2.0751737   -2.0751737   -1.0306583  0.066403617   -2.0751737    1.0445155  1812362 
  110000    1.0054901   -2.0759587   -2.0759587   -1.0305288  0.065826421   -2.0759587    1.0454299  1812335 
  111000    1.0056214   -2.0762015   -2.0762015    -1.030619  0.066113435   -2.0762015    1.0455826  1812307 
  112000     1.004966   -2.0756659   -2.0756659   -1.0307492  0.067154817   -2.0756659    1.0449167  1812280 
  113000    1.0043354   -2.0755271   -2.0755271   -1.0312506  0.065903907   -2.0755271    1.0442766  1812253 
  114000    1.0037473   -2.0750917   -2.0750917   -1.0314111  0.066998014   -2.0750917    1.0436806  1812226 
  115000     1.004468   -2.0759699   -2.0759699   -1.0315243   0.06433875   -2.0759699    1.0444456  1812199 
  116000    1.0037992   -2.0754933   -2.0754933   -1.0317276    0.0625828   -2.0754933    1.0437657  1812172 
  117000    1.0042962   -2.0757163   -2.0757163   -1.0314183  0.068529767   -2.0757163    1.0442981  1812145 
  118000    1.0037427   -2.0754986   -2.0754986   -1.0317605  0.065776841   -2.0754986     1.043738  1812118 
  119000    1.0041159   -2.0757837   -2.0757837    -1.031642  0.065355265   -2.0757837    1.0441416  1812091 
  120000    1.0037178   -2.0755302   -2.0755302   -1.0317869  0.064952178   -2.0755302    1.0437432  1812064 
  121000    1.0046407   -2.0768275   -2.0768275    -1.032109  0.064365941   -2.0768275    1.0447185  1812037 
  122000    1.0050039   -2.0770194   -2.0770194   -1.0319076  0.062770929   -2.0770194    1.0451117  1812010 
  123000    1.0038977   -2.0761336   -2.0761336   -1.0321566  0.061871586   -2.0761336     1.043977  1811983 
  124000    1.0045521   -2.0770484   -2.0770484   -1.0323754  0.064631594   -2.0770484     1.044673  1811956 
  125000    1.0043746   -2.0767062   -2.0767062   -1.0322021  0.066873436   -2.0767062    1.0445041  1811929 
  126000    1.0046507   -2.0768596   -2.0768596   -1.0320528  0.067878557   -2.0768596    1.0448068  1811902 
  127000    1.0038876   -2.0759214   -2.0759214   -1.0318927  0.068075357   -2.0759214    1.0440287  1811875 
  128000    1.0038868   -2.0765271   -2.0765271   -1.0324837  0.067367985   -2.0765271    1.0440434  1811848 
  129000    1.0051836   -2.0776863   -2.0776863   -1.0322786  0.066359675   -2.0776863    1.0454077  1811821 
  130000    1.0041348   -2.0766902   -2.0766902   -1.0323578  0.069486695   -2.0766902    1.0443324  1811794 
  131000     1.004401   -2.0771454   -2.0771454   -1.0325205   0.06676428   -2.0771454    1.0446249  1811767 
  132000     1.004343    -2.077434    -2.077434   -1.0328538  0.065372162    -2.077434    1.0445802  1811740 
  133000    1.0043272   -2.0776663   -2.0776663    -1.033087  0.065449379   -2.0776663    1.0445793  1811713 
  134000    1.0036287   -2.0767705   -2.0767705   -1.0329021  0.068760434   -2.0767705    1.0438684  1811686 
  135000    1.0044658   -2.0776403   -2.0776403   -1.0328857  0.067071067   -2.0776403    1.0447546  1811659 
  136000    1.0040813   -2.0767064   -2.0767064   -1.0323362  0.067729706   -2.0767064    1.0443702  1811632 
  137000    1.0037928   -2.0771511   -2.0771511   -1.0330654   0.06269492   -2.0771511    1.0440857  1811605 
  138000    1.0036325   -2.0767716   -2.0767716   -1.0328371  0.062891005   -2.0767716    1.0439345  1811578 
  139000    1.0044701   -2.0778067   -2.0778067   -1.0329854  0.066234295   -2.0778067    1.0448213  1811551 
  140000    1.0035675   -2.0772607   -2.0772607   -1.0333627  0.063643322   -2.0772607     1.043898  1811524 
  141000    1.0027591   -2.0765532   -2.0765532   -1.0334805  0.064664699   -2.0765532    1.0430727  1811497 
  142000    1.0037018   -2.0770157   -2.0770157   -1.0329468  0.066432616   -2.0770157    1.0440689  1811470 
  143000    1.0034543   -2.0763711   -2.0763711   -1.0325441  0.064832387   -2.0763711     1.043827  1811443 
  144000    1.0028631   -2.0760661   -2.0760661   -1.0328386   0.06652722   -2.0760661    1.0432275  1811416 
  145000    1.0033989   -2.0765162   -2.0765162   -1.0327158  0.063845495   -2.0765162    1.0438005  1811389 
  146000    1.0030163   -2.0752627   -2.0752627   -1.0318447  0.067399216   -2.0752627     1.043418  1811362 
  147000    1.0030426   -2.0756401   -2.0756401   -1.0321792   0.06234681   -2.0756401    1.0434609  1811335 
  148000    1.0031272   -2.0755963   -2.0755963   -1.0320313  0.069782832   -2.0755963     1.043565  1811307 
  149000    1.0032123   -2.0764778   -2.0764778   -1.0328086  0.065225604   -2.0764778    1.0436691  1811280 
  150000    1.0024252    -2.076053    -2.076053   -1.0331871  0.063756205    -2.076053    1.0428658  1811253 
  151000    1.0030899   -2.0767461   -2.0767461   -1.0331733  0.066941148   -2.0767461    1.0435729  1811226 
  152000    1.0034593    -2.076775    -2.076775   -1.0328022  0.066587885    -2.076775    1.0439728  1811199 
  153000    1.0025043   -2.0753507   -2.0753507    -1.032356  0.064282397   -2.0753507    1.0429948  1811172 
  154000    1.0032377   -2.0754739   -2.0754739   -1.0317006  0.068935032   -2.0754739    1.0437733  1811145 
  155000    1.0038721   -2.0760464   -2.0760464   -1.0315975  0.067149724   -2.0760464    1.0444489  1811118 
  156000     1.002886   -2.0752302   -2.0752302   -1.0317917   0.06747353   -2.0752302    1.0434385  1811091 
  157000    1.0037951   -2.0765039   -2.0765039   -1.0321039  0.065573532   -2.0765039       1.0444  1811064 
  158000    1.0046202   -2.0774079   -2.0774079   -1.0321339  0.064390217   -2.0774079     1.045274  1811037 
  159000    1.0039059   -2.0762056   -2.0762056   -1.0316592  0.066147821   -2.0762056    1.0445464  1811010 
  160000    1.0043578   -2.0769483   -2.0769483    -1.031916  0.066145539   -2.0769483    1.0450322  1810983 
  161000    1.0039121   -2.0767013   -2.0767013   -1.0321172  0.062586739   -2.0767013     1.044584  1810956 
  162000    1.0039182   -2.0764697   -2.0764697   -1.0318638  0.064396488   -2.0764697    1.0446059  1810929 
  163000    1.0041061   -2.0762573   -2.0762573   -1.0314403  0.067388727   -2.0762573     1.044817  1810902 
  164000    1.0038767   -2.0760204   -2.0760204   -1.0314265  0.066498118   -2.0760204    1.0445939  1810875 
  165000    1.0042855   -2.0760717   -2.0760717   -1.0310369  0.068777138   -2.0760717    1.0450348  1810848 
  166000    1.0032078   -2.0754363   -2.0754363   -1.0315073  0.068928451   -2.0754363     1.043929  1810821 
  167000    1.0033127   -2.0749974   -2.0749974   -1.0309437  0.066187822   -2.0749974    1.0440537  1810794 
  168000    1.0033166   -2.0751656   -2.0751656   -1.0310923  0.066675681   -2.0751656    1.0440733  1810767 
  169000    1.0030854    -2.075486    -2.075486   -1.0316376  0.066987825    -2.075486    1.0438483  1810740 
  170000    1.0036335   -2.0759956   -2.0759956   -1.0315614  0.067953551   -2.0759956    1.0444342  1810713 
  171000    1.0028133   -2.0757127   -2.0757127   -1.0321165  0.067830594   -2.0757127    1.0435963  1810686 
  172000    1.0029244   -2.0756304   -2.0756304    -1.031903  0.066564436   -2.0756304    1.0437274  1810659 
  173000    1.0027219   -2.0751941   -2.0751941   -1.0316618  0.064592032   -2.0751941    1.0435323  1810632 
  174000    1.0033826   -2.0756336   -2.0756336   -1.0313981  0.066090264   -2.0756336    1.0442355  1810605 
  175000    1.0028871   -2.0749144   -2.0749144   -1.0311791  0.066185197   -2.0749144    1.0437354  1810578 
  176000    1.0035043   -2.0754334   -2.0754334   -1.0310402  0.067945106   -2.0754334    1.0443932  1810551 
  177000    1.0025251   -2.0750645   -2.0750645   -1.0316748  0.064022651   -2.0750645    1.0433897  1810524 
  178000    1.0032488   -2.0758156   -2.0758156   -1.0316572  0.064486841   -2.0758156    1.0441584  1810497 
  179000    1.0024127   -2.0752569   -2.0752569   -1.0319531  0.066476996   -2.0752569    1.0433038  1810470 
  180000    1.0028498   -2.0751105   -2.0751105   -1.0313361  0.064942404   -2.0751105    1.0437744  1810443 
  181000    1.0028677   -2.0755821   -2.0755821   -1.0317735  0.067891277   -2.0755821    1.0438086  1810416 
  182000    1.0032936   -2.0758836   -2.0758836   -1.0316161  0.063534013   -2.0758836    1.0442674  1810389 
  183000    1.0031307   -2.0750261   -2.0750261   -1.0309127  0.066070426   -2.0750261    1.0441134  1810362 
  184000    1.0034179    -2.075335    -2.075335   -1.0309071  0.063884574    -2.075335    1.0444279  1810335 
  185000    1.0036469   -2.0760325   -2.0760325     -1.03135  0.063945266   -2.0760325    1.0446824  1810307 
  186000     1.003068   -2.0754825   -2.0754825   -1.0313871  0.064418533   -2.0754825    1.0440954  1810280 
  187000    1.0020352   -2.0748123   -2.0748123   -1.0317763  0.069619546   -2.0748123     1.043036  1810253 
  188000    1.0027715   -2.0753144   -2.0753144   -1.0314965  0.064545937   -2.0753144    1.0438179  1810226 
  189000    1.0030821   -2.0761462   -2.0761462   -1.0319893  0.067108108   -2.0761462    1.0441569  1810199 
  190000    1.0023513   -2.0751864   -2.0751864   -1.0317747  0.064463539   -2.0751864    1.0434117  1810172 
  191000    1.0020217   -2.0751957   -2.0751957   -1.0321115  0.064655708   -2.0751957    1.0430842  1810145 
  192000    1.0032537   -2.0767436   -2.0767436   -1.0323614  0.062259704   -2.0767436    1.0443822  1810118 
  193000    1.0018727   -2.0752954   -2.0752954   -1.0323353  0.066677012   -2.0752954    1.0429602  1810091 
  194000     1.001916   -2.0754306   -2.0754306   -1.0324099  0.064462346   -2.0754306    1.0430208  1810064 
  195000    1.0022612   -2.0759064   -2.0759064   -1.0325107  0.061176717   -2.0759064    1.0433957  1810037 
  196000    1.0019816   -2.0754011   -2.0754011    -1.032281  0.064317054   -2.0754011    1.0431202  1810010 
  197000    1.0022699    -2.075954    -2.075954   -1.0325182  0.062001225    -2.075954    1.0434359  1809983 
  198000    1.0014145   -2.0750894   -2.0750894   -1.0325284  0.063788073   -2.0750894     1.042561  1809956 
  199000    1.0015487   -2.0749881   -2.0749881   -1.0322719  0.060656892   -2.0749881    1.0427161  1809929 
  200000    1.0016423   -2.0750653   -2.0750653   -1.0322362   0.06887166   -2.0750653    1.0428292  1809902 
  201000    1.0022107   -2.0756971   -2.0756971   -1.0322606  0.063722072   -2.0756971    1.0434366  1809875 
  202000    1.0031525   -2.0761873   -2.0761873   -1.0317546  0.064773937   -2.0761873    1.0444327  1809848 
  203000    1.0036191   -2.0762138   -2.0762138   -1.0312797  0.062395769   -2.0762138    1.0449341  1809821 
  204000    1.0045369   -2.0771711   -2.0771711    -1.031266  0.066242538   -2.0771711    1.0459052  1809794 
  205000     1.002836   -2.0756946   -2.0756946   -1.0315448  0.067078571   -2.0756946    1.0441499  1809767 
  206000    1.0024024   -2.0759392   -2.0759392   -1.0322253  0.065011624   -2.0759392    1.0437139  1809740 
  207000    1.0023137   -2.0762511   -2.0762511   -1.0326139  0.063984466   -2.0762511    1.0436372  1809713 
  208000    1.0021089   -2.0757781   -2.0757781   -1.0323386  0.064704881   -2.0757781    1.0434395  1809686 
  209000    1.0019677   -2.0752152   -2.0752152   -1.0319072  0.068122245   -2.0752152     1.043308  1809659 
  210000    1.0032134   -2.0765481   -2.0765481   -1.0319274  0.066311499   -2.0765481    1.0446207  1809632 
  211000     1.002856   -2.0771273   -2.0771273   -1.0328632  0.065874601   -2.0771273    1.0442642  1809605 
  212000    1.0021754   -2.0769357   -2.0769357   -1.0333647  0.065216619   -2.0769357    1.0435711  1809578 
  213000    1.0025222   -2.0773765   -2.0773765   -1.0334287  0.061557891   -2.0773765    1.0439478  1809551 
  214000    1.0015983   -2.0764878   -2.0764878   -1.0334865  0.069015881   -2.0764878    1.0430013  1809524 
  215000    1.0030967   -2.0780782   -2.0780782   -1.0335011  0.067425368   -2.0780782    1.0445772  1809497 
  216000    1.0014963   -2.0768689   -2.0768689   -1.0339427  0.068480977   -2.0768689    1.0429262  1809470 
  217000    1.0016822   -2.0773896   -2.0773896   -1.0342544  0.065904276   -2.0773896    1.0431352  1809443 
  218000    1.0020566   -2.0778207   -2.0778207   -1.0342799  0.066685833   -2.0778207    1.0435408  1809416 
  219000    1.0026276   -2.0779696   -2.0779696   -1.0338187  0.065129605   -2.0779696     1.044151  1809389 
  220000    1.0019247   -2.0767924   -2.0767924   -1.0333579  0.069066873   -2.0767924    1.0434345  1809362 
  221000    1.0022491   -2.0772708   -2.0772708   -1.0334829  0.064617996   -2.0772708    1.0437879  1809335 
  222000    1.0023291   -2.0775521   -2.0775521   -1.0336648  0.065827513   -2.0775521    1.0438874  1809307 
  223000    1.0014414   -2.0767252   -2.0767252   -1.0337467  0.067414131   -2.0767252    1.0429785  1809280 
  224000    1.0024309   -2.0782541   -2.0782541   -1.0342295  0.069894171   -2.0782541    1.0440246  1809253 
  225000    1.0026009   -2.0789904   -2.0789904   -1.0347732  0.063419682   -2.0789904    1.0442172  1809226 
  226000    1.0021733   -2.0781385   -2.0781385   -1.0343511  0.066353986   -2.0781385    1.0437874  1809199 
  227000    1.0013158   -2.0778538   -2.0778538   -1.0349439  0.063552528   -2.0778538    1.0429099  1809172 
  228000    1.0016424   -2.0781439   -2.0781439   -1.0348782  0.063506511   -2.0781439    1.0432657  1809145 
  229000    1.0023578   -2.0783227   -2.0783227   -1.0342964   0.07052663   -2.0783227    1.0440263  1809118 
  230000    1.0019438   -2.0778358   -2.0778358   -1.0342251  0.066583822   -2.0778358    1.0436107  1809091 
  231000    1.0017705   -2.0774908   -2.0774908    -1.034045  0.065660011   -2.0774908    1.0434458  1809064 
  232000    1.0012362   -2.0773346   -2.0773346   -1.0344298  0.064518814   -2.0773346    1.0429048  1809037 
  233000    1.0014996   -2.0779754   -2.0779754   -1.0347807  0.065871487   -2.0779754    1.0431947  1809010 
  234000    1.0011247   -2.0773152   -2.0773152   -1.0344953  0.066946608   -2.0773152    1.0428198  1808983 
  235000    1.0009181   -2.0771207   -2.0771207   -1.0345005  0.066573905   -2.0771207    1.0426202  1808956 
  236000    1.0012308   -2.0780475   -2.0780475    -1.035086  0.066567527   -2.0780475    1.0429615  1808929 
  237000    1.0011636   -2.0771519   -2.0771519   -1.0342449  0.068093475   -2.0771519     1.042907  1808902 
  238000    1.0016833   -2.0776048   -2.0776048   -1.0341409  0.065063996   -2.0776048    1.0434639  1808875 
  239000    1.0008836   -2.0770195   -2.0770195   -1.0343731  0.065749261   -2.0770195    1.0426465  1808848 
  240000    1.0010561   -2.0769924   -2.0769924   -1.0341506  0.067857641   -2.0769924    1.0428417  1808821 
  241000    1.0010929   -2.0772782   -2.0772782   -1.0343825  0.061818098   -2.0772782    1.0428957  1808794 
  242000   0.99952177   -2.0759853   -2.0759853   -1.0347109  0.065542538   -2.0759853    1.0412745  1808767 
  243000    1.0008772   -2.0769005   -2.0769005   -1.0341984  0.065370533   -2.0769005    1.0427021  1808740 
  244000    1.0000798   -2.0762806   -2.0762806   -1.0343936  0.064693879   -2.0762806    1.0418869  1808713 
  245000    1.0009716   -2.0770378   -2.0770378   -1.0342064  0.064175777   -2.0770378    1.0428315  1808686 
  246000    1.0000389   -2.0769749   -2.0769749   -1.0350995  0.064497894   -2.0769749    1.0418754  1808659 
  247000    1.0013803   -2.0779476   -2.0779476   -1.0346592   0.06497726   -2.0779476    1.0432885  1808632 
  248000   0.99952256    -2.076222    -2.076222   -1.0348534  0.064941879    -2.076222    1.0413685  1808605 
  249000    1.0008694   -2.0771184   -2.0771184    -1.034331  0.064818382   -2.0771184    1.0427874  1808578 
  250000    1.0001524   -2.0766473   -2.0766473   -1.0345914  0.065455767   -2.0766473    1.0420558  1808551 
  251000     1.001211   -2.0773473   -2.0773473   -1.0341729  0.064751006   -2.0773473    1.0431744  1808524 
  252000    1.0013577   -2.0776336   -2.0776336   -1.0342908  0.065633903   -2.0776336    1.0433428  1808497 
  253000    1.0006532   -2.0771483   -2.0771483    -1.034524  0.067761814   -2.0771483    1.0426243  1808470 
  254000    1.0015322    -2.078285    -2.078285   -1.0347292  0.061778976    -2.078285    1.0435558  1808443 
  255000    1.0006353   -2.0773073   -2.0773073   -1.0346704  0.065091597   -2.0773073    1.0426369  1808416 
  256000    1.0006932   -2.0772598   -2.0772598   -1.0345471  0.064747732   -2.0772598    1.0427127  1808389 
  257000    1.0011585    -2.077704    -2.077704   -1.0344908  0.063547441    -2.077704    1.0432132  1808362 
  258000    1.0006668   -2.0773224   -2.0773224   -1.0346061  0.067290957   -2.0773224    1.0427164  1808335 
  259000    1.0011894   -2.0778629   -2.0778629   -1.0345859  0.064022365   -2.0778629     1.043277  1808307 
  260000    1.0012979   -2.0780816   -2.0780816   -1.0346759  0.065998245   -2.0780816    1.0434057  1808280 
  261000    1.0012856   -2.0784261   -2.0784261   -1.0350176   0.06767836   -2.0784261    1.0434085  1808253 
  262000    1.0006758    -2.077522    -2.077522   -1.0347334  0.064927879    -2.077522    1.0427886  1808226 
  263000    1.0012331   -2.0774724   -2.0774724   -1.0340875  0.065621386   -2.0774724    1.0433849  1808199 
  264000    1.0005045   -2.0774632   -2.0774632    -1.034822  0.066391209   -2.0774632    1.0426412  1808172 
  265000    1.0010306   -2.0778675   -2.0778675   -1.0346625  0.066098463   -2.0778675    1.0432051  1808145 
  266000    1.0012913   -2.0776846   -2.0776846   -1.0341922  0.064224784   -2.0776846    1.0434923  1808118 
  267000    1.0012193   -2.0779057   -2.0779057   -1.0344729  0.067129394   -2.0779057    1.0434328  1808091 
  268000     1.001404   -2.0786158   -2.0786158   -1.0349748  0.068339328   -2.0786158    1.0436409  1808064 
  269000    1.0010857   -2.0777929   -2.0777929   -1.0344681  0.066009438   -2.0777929    1.0433247  1808037 
  270000    1.0002839   -2.0770981   -2.0770981   -1.0345934  0.066537653   -2.0770981    1.0425047  1808010 
  271000    1.0005581    -2.077638    -2.077638   -1.0348319  0.065996053    -2.077638    1.0428061  1807983 
  272000    1.0005208   -2.0776754   -2.0776754   -1.0348926  0.065547656   -2.0776754    1.0427828  1807956 
  273000    1.0007944   -2.0781417   -2.0781417   -1.0350583  0.061978915   -2.0781417    1.0430835  1807929 
  274000   0.99952605   -2.0770623   -2.0770623   -1.0352852  0.063817472   -2.0770623    1.0417771  1807902 
  275000   0.99998176   -2.0769938   -2.0769938   -1.0347261  0.063179358   -2.0769938    1.0422676  1807875 
  276000   0.99994482   -2.0766884   -2.0766884   -1.0344437  0.068232634   -2.0766884    1.0422447  1807848 
  277000    1.0011195   -2.0777533   -2.0777533   -1.0342686  0.065483233   -2.0777533    1.0434847  1807821 
  278000     1.000926   -2.0773879   -2.0773879   -1.0340893  0.067571012   -2.0773879    1.0432986  1807794 
  279000    1.0009885   -2.0769284   -2.0769284   -1.0335491  0.063735289   -2.0769284    1.0433793  1807767 
  280000      1.00133   -2.0775346   -2.0775346   -1.0337838  0.064910185   -2.0775346    1.0437508  1807740 
  281000    1.0013956   -2.0772201   -2.0772201   -1.0333853  0.068720808   -2.0772201    1.0438348  1807713 
  282000    1.0024913   -2.0779216   -2.0779216    -1.032929  0.065037136   -2.0779216    1.0449926  1807686 
  283000    1.0007971   -2.0764037   -2.0764037   -1.0331615  0.069457458   -2.0764037    1.0432421  1807659 
  284000    1.0011123   -2.0766007   -2.0766007   -1.0330144  0.068660523   -2.0766007    1.0435863  1807632 
  285000    1.0013033   -2.0768653   -2.0768653   -1.0330643  0.064397157   -2.0768653     1.043801  1807605 
  286000    1.0004494   -2.0758165   -2.0758165   -1.0328901  0.069327149   -2.0758165    1.0429264  1807578 
  287000    1.0011046   -2.0769734   -2.0769734   -1.0333484  0.064145873   -2.0769734     1.043625  1807551 
  288000    1.0005406   -2.0758832   -2.0758832   -1.0328306  0.064366872   -2.0758832    1.0430526  1807524 
  289000    1.0005506   -2.0755036   -2.0755036    -1.032425   0.06828314   -2.0755036    1.0430786  1807497 
  290000    1.0010399   -2.0764773   -2.0764773    -1.032873  0.063760649   -2.0764773    1.0436043  1807470 
  291000    1.0003726    -2.075843    -2.075843   -1.0329188  0.061903811    -2.075843    1.0429242  1807443 
  292000   0.99992812   -2.0758125   -2.0758125   -1.0333361  0.062376472   -2.0758125    1.0424764  1807416 
  293000   0.99946017   -2.0753716   -2.0753716   -1.0333674  0.063829485   -2.0753716    1.0420041  1807389 
  294000   0.99908863   -2.0751533   -2.0751533   -1.0335209   0.06043526   -2.0751533    1.0416323  1807362 
  295000   0.99941277   -2.0753635   -2.0753635   -1.0333777  0.063921943   -2.0753635    1.0419858  1807335 
  296000   0.99955261   -2.0749747   -2.0749747    -1.032827  0.061533991   -2.0749747    1.0421478  1807307 
  297000    1.0004656   -2.0759672   -2.0759672   -1.0328519  0.066064243   -2.0759672    1.0431153  1807280 
  298000   0.99927449   -2.0749222   -2.0749222   -1.0330332  0.065405283   -2.0749222    1.0418889  1807253 
  299000    1.0005588    -2.076319    -2.076319   -1.0330754  0.062049334    -2.076319    1.0432436  1807226 
  300000    0.9998368   -2.0752538   -2.0752538   -1.0327475  0.061826999   -2.0752538    1.0425064  1807199 
  301000    1.0002654   -2.0752117   -2.0752117   -1.0322429  0.064029197   -2.0752117    1.0429688  1807172 
  302000    1.0006555   -2.0755401   -2.0755401   -1.0321489   0.06618618   -2.0755401    1.0433912  1807145 
  303000    1.0006934   -2.0758442   -2.0758442   -1.0323979  0.065856445   -2.0758442    1.0434463  1807118 
  304000    1.0007656   -2.0756851   -2.0756851    -1.032148  0.066941068   -2.0756851    1.0435371  1807091 
  305000    1.0002786   -2.0753334   -2.0753334   -1.0322884  0.065300624   -2.0753334    1.0430449  1807064 
  306000   0.99968731   -2.0749488   -2.0749488   -1.0325048  0.069397782   -2.0749488     1.042444  1807037 
  307000    1.0006142   -2.0759915   -2.0759915   -1.0325655  0.065558417   -2.0759915     1.043426  1807010 
  308000    1.0004057   -2.0756718   -2.0756718   -1.0324476  0.065820806   -2.0756718    1.0432242  1806983 
  309000    0.9995779   -2.0755735   -2.0755735   -1.0331969  0.066434072   -2.0755735    1.0423766  1806956 
  310000   0.99981013   -2.0758585   -2.0758585   -1.0332241  0.065681041   -2.0758585    1.0426343  1806929 
  311000    1.0006146   -2.0771508   -2.0771508   -1.0336619  0.063587906   -2.0771508    1.0434889  1806902 
  312000   0.99963159   -2.0757687   -2.0757687   -1.0332894  0.066106985   -2.0757687    1.0424793  1806875 
  313000    0.9999225   -2.0765388   -2.0765388   -1.0337405  0.067003421   -2.0765388    1.0427983  1806848 
  314000   0.99974727   -2.0765948   -2.0765948   -1.0339637  0.066131171   -2.0765948    1.0426311  1806821 
  315000   0.99944299   -2.0767553   -2.0767553    -1.034426  0.065342517   -2.0767553    1.0423293  1806794 
  316000    1.0001291    -2.077887    -2.077887   -1.0348265  0.057838245    -2.077887    1.0430605  1806767 
  317000   0.99965482    -2.077342    -2.077342   -1.0347605  0.064707973    -2.077342    1.0425814  1806740 
  318000    1.0005791   -2.0780289   -2.0780289    -1.034468   0.06363333   -2.0780289     1.043561  1806713 
  319000   0.99983647   -2.0769638   -2.0769638   -1.0341617  0.064475492   -2.0769638     1.042802  1806686 
  320000   0.99936203    -2.076522    -2.076522   -1.0341992  0.065860895    -2.076522    1.0423228  1806659 
  321000   0.99977277   -2.0769412   -2.0769412   -1.0341744  0.066619527   -2.0769412    1.0427668  1806632 
  322000    1.0003892   -2.0776848   -2.0776848   -1.0342594  0.068132295   -2.0776848    1.0434254  1806605 
  323000   0.99968105   -2.0771884   -2.0771884   -1.0344861  0.065849081   -2.0771884    1.0427023  1806578 
  324000    1.0001637    -2.077794    -2.077794   -1.0345727  0.064157602    -2.077794    1.0432212  1806551 
  325000    1.0009321   -2.0782252   -2.0782252   -1.0341868  0.065717434   -2.0782252    1.0440383  1806524 
  326000   0.99901408   -2.0766815   -2.0766815   -1.0346281  0.067749928   -2.0766815    1.0420533  1806497 
  327000   0.99998182   -2.0774848   -2.0774848   -1.0344064   0.07102755   -2.0774848    1.0430783  1806470 
  328000    1.0004353   -2.0774024   -2.0774024   -1.0338354  0.064732272   -2.0774024    1.0435669  1806443 
  329000   0.99946957   -2.0774051   -2.0774051   -1.0348299  0.066780148   -2.0774051    1.0425752  1806416 
  330000    1.0001719   -2.0771608   -2.0771608   -1.0338375  0.065093519   -2.0771608    1.0433234  1806389 
  331000   0.99981015   -2.0767964   -2.0767964   -1.0338347  0.064846109   -2.0767964    1.0429616  1806362 
  332000    0.9993855   -2.0763343   -2.0763343   -1.0338001  0.066846409   -2.0763343    1.0425342  1806335 
  333000    1.0000729   -2.0770751   -2.0770751   -1.0338076   0.06779208   -2.0770751    1.0432674  1806307 
  334000   0.99988024   -2.0766937   -2.0766937   -1.0336116  0.066883872   -2.0766937    1.0430821  1806280 
  335000   0.99992961   -2.0764509   -2.0764509   -1.0333017  0.068503021   -2.0764509    1.0431492  1806253 
  336000    0.9992055   -2.0764599   -2.0764599   -1.0340505  0.066565553   -2.0764599    1.0424094  1806226 
  337000   0.99908034    -2.076132    -2.076132   -1.0338376  0.067313542    -2.076132    1.0422944  1806199 
  338000   0.99992049   -2.0771944   -2.0771944    -1.034008  0.063388922   -2.0771944    1.0431865  1806172 
  339000   0.99854107   -2.0761191   -2.0761191   -1.0343561  0.064065633   -2.0761191    1.0417629  1806145 
  340000   0.99961314   -2.0773524   -2.0773524   -1.0344554  0.064638288   -2.0773524     1.042897  1806118 
  341000   0.99956232   -2.0767876   -2.0767876    -1.033928  0.064826503   -2.0767876    1.0428596  1806091 
  342000   0.99839951   -2.0760275   -2.0760275   -1.0343655  0.067791118   -2.0760275     1.041662  1806064 
  343000    1.0001807   -2.0776699   -2.0776699   -1.0341339  0.066385116   -2.0776699     1.043536  1806037 
  344000   0.99936952   -2.0769124   -2.0769124   -1.0342072  0.064021073   -2.0769124    1.0427052  1806010 
  345000     1.000457   -2.0777983   -2.0777983   -1.0339429  0.060457816   -2.0777983    1.0438554  1805983 
  346000   0.99936855   -2.0761252   -2.0761252   -1.0333898  0.063700083   -2.0761252    1.0427353  1805956 
  347000   0.99904311   -2.0758345   -2.0758345   -1.0334231  0.062919312   -2.0758345    1.0424114  1805929 
  348000   0.99907662    -2.076463    -2.076463   -1.0340011  0.064896632    -2.076463    1.0424619  1805902 
  349000   0.99959253   -2.0761983   -2.0761983   -1.0331824  0.066010174   -2.0761983    1.0430158  1805875 
  350000   0.99914073   -2.0758101   -2.0758101   -1.0332502  0.067154631   -2.0758101      1.04256  1805848 
  351000   0.99877792   -2.0752836   -2.0752836   -1.0330866  0.069664573   -2.0752836     1.042197  1805821 
  352000   0.99854229   -2.0755933   -2.0755933   -1.0336266  0.064883237   -2.0755933    1.0419667  1805794 
  353000   0.99903024   -2.0764965   -2.0764965   -1.0340051  0.066014473   -2.0764965    1.0424915  1805767 
  354000   0.99867466   -2.0756816   -2.0756816   -1.0335456  0.067290581   -2.0756816     1.042136  1805740 
  355000    0.9983642   -2.0753342   -2.0753342   -1.0335066  0.063735353   -2.0753342    1.0418276  1805713 
  356000   0.99919597   -2.0764893   -2.0764893   -1.0337782  0.067309167   -2.0764893    1.0427112  1805686 
  357000    0.9987437   -2.0757356   -2.0757356   -1.0334808  0.064124467   -2.0757356    1.0422548  1805659 
  358000   0.99912757   -2.0756313   -2.0756313   -1.0329603  0.065186326   -2.0756313     1.042671  1805632 
  359000   0.99907609   -2.0760367   -2.0760367   -1.0334039  0.067920684   -2.0760367    1.0426328  1805605 
  360000   0.99810904   -2.0753252   -2.0753252    -1.033686  0.063878349   -2.0753252    1.0416392  1805578 
  361000   0.99787211   -2.0755082   -2.0755082   -1.0341007  0.062110317   -2.0755082    1.0414075  1805551 
  362000   0.99804379   -2.0752598   -2.0752598   -1.0336575  0.063215473   -2.0752598    1.0416023  1805524 
  363000   0.99860767   -2.0763205   -2.0763205   -1.0341142  0.065123805   -2.0763205    1.0422063  1805497 
  364000   0.99814061   -2.0755523   -2.0755523   -1.0338178  0.062794057   -2.0755523    1.0417345  1805470 
  365000   0.99860279    -2.076038    -2.076038   -1.0338056  0.064294231    -2.076038    1.0422324  1805443 
  366000   0.99797503    -2.075661    -2.075661   -1.0340682  0.066742943    -2.075661    1.0415928  1805416 
  367000   0.99894637   -2.0767337   -2.0767337   -1.0341116  0.064369298   -2.0767337    1.0426222  1805389 
  368000    0.9977482   -2.0756233   -2.0756233   -1.0342361  0.067746523   -2.0756233    1.0413872  1805362 
  369000   0.99929829   -2.0770972   -2.0770972   -1.0340765  0.064557988   -2.0770972    1.0430207  1805335 
  370000   0.99953916   -2.0767272   -2.0767272    -1.033439  0.066366906   -2.0767272    1.0432883  1805307 
  371000   0.99862907   -2.0760424   -2.0760424   -1.0336884  0.064823244   -2.0760424    1.0423539  1805280 
  372000   0.99906887   -2.0767127   -2.0767127   -1.0338841   0.06605437   -2.0767127    1.0428286  1805253 
  373000    0.9999342   -2.0771508   -2.0771508   -1.0334033  0.065801555   -2.0771508    1.0437474  1805226 
  374000   0.99931186   -2.0765746   -2.0765746   -1.0334612  0.065409539   -2.0765746    1.0431134  1805199 
  375000    0.9991122   -2.0767264   -2.0767264   -1.0338057  0.066097583   -2.0767264    1.0429206  1805172 
  376000   0.99994049   -2.0775287   -2.0775287   -1.0337279  0.066911048   -2.0775287    1.0438008  1805145 
  377000   0.99942899   -2.0776102   -2.0776102   -1.0343277  0.065753797   -2.0776102    1.0432825  1805118 
  378000   0.99913291   -2.0772433   -2.0772433   -1.0342543  0.064667681   -2.0772433     1.042989  1805091 
  379000   0.99892612   -2.0771442   -2.0771442   -1.0343554   0.06557976   -2.0771442    1.0427888  1805064 
  380000   0.99926433    -2.077427    -2.077427   -1.0342696  0.066933878    -2.077427    1.0431574  1805037 
  381000   0.99898473   -2.0776823   -2.0776823   -1.0348011  0.063294916   -2.0776823    1.0428812  1805010 
  382000   0.99859391   -2.0773083   -2.0773083   -1.0348196  0.065633054   -2.0773083    1.0424888  1804983 
  383000   0.99880437   -2.0776701   -2.0776701    -1.034946   0.06462313   -2.0776701    1.0427241  1804956 
  384000   0.99933678   -2.0779947   -2.0779947   -1.0346992  0.062383483   -2.0779947    1.0432955  1804929 
  385000   0.99726121   -2.0769464   -2.0769464   -1.0358022  0.064533881   -2.0769464    1.0411442  1804902 
  386000   0.99866734   -2.0782309   -2.0782309   -1.0356031  0.063075036   -2.0782309    1.0426278  1804875 
  387000   0.99839257   -2.0781224   -2.0781224   -1.0357659     0.067203   -2.0781224    1.0423565  1804848 
  388000   0.99771615   -2.0771059   -2.0771059     -1.03544  0.063390567   -2.0771059    1.0416659  1804821 
  389000   0.99873861   -2.0777719   -2.0777719   -1.0350229  0.061973933   -2.0777719     1.042749  1804794 
  390000   0.99806834   -2.0772159   -2.0772159   -1.0351511  0.064980897   -2.0772159    1.0420648  1804767 
  391000   0.99842782   -2.0777091   -2.0777091   -1.0352534  0.067707153   -2.0777091    1.0424557  1804740 
  392000   0.99925786   -2.0785127   -2.0785127   -1.0351747  0.065367904   -2.0785127     1.043338  1804713 
  393000   0.99808942   -2.0783066   -2.0783066   -1.0361731  0.065728912   -2.0783066    1.0421336  1804686 
  394000   0.99811963   -2.0784443   -2.0784443   -1.0362636  0.064072715   -2.0784443    1.0421807  1804659 
  395000   0.99754905   -2.0777896   -2.0777896   -1.0361891  0.064554946   -2.0777896    1.0416005  1804632 
  396000    0.9979749   -2.0781724   -2.0781724   -1.0361117  0.066209521   -2.0781724    1.0420608  1804605 
  397000   0.99742513   -2.0779439   -2.0779439   -1.0364416  0.064888347   -2.0779439    1.0415023  1804578 
  398000   0.99730743   -2.0772536   -2.0772536   -1.0358587  0.065710824   -2.0772536     1.041395  1804551 
  399000   0.99738809   -2.0773641   -2.0773641   -1.0358693  0.062232343   -2.0773641    1.0414948  1804524 
  400000   0.99765186   -2.0781801   -2.0781801   -1.0363943  0.065776515   -2.0781801    1.0417858  1804497 
  401000   0.99730507   -2.0775361   -2.0775361   -1.0360969  0.065333514   -2.0775361    1.0414392  1804470 
  402000   0.99774563   -2.0777636   -2.0777636   -1.0358487  0.066513579   -2.0777636    1.0419149  1804443 
  403000   0.99834683   -2.0781138   -2.0781138   -1.0355555  0.061549299   -2.0781138    1.0425583  1804416 
  404000   0.99794383    -2.077626    -2.077626   -1.0354729   0.06278337    -2.077626    1.0421531  1804389 
  405000   0.99804529   -2.0773343   -2.0773343   -1.0350597  0.064576808   -2.0773343    1.0422746  1804362 
  406000    0.9978348   -2.0769257   -2.0769257   -1.0348553  0.065837237   -2.0769257    1.0420704  1804335 
  407000   0.99837822   -2.0770319   -2.0770319   -1.0343778  0.067241502   -2.0770319    1.0426541  1804307 
  408000   0.99860384   -2.0774362   -2.0774362   -1.0345308  0.064524499   -2.0774362    1.0429053  1804280 
  409000   0.99778029   -2.0770093   -2.0770093   -1.0349485  0.066491405   -2.0770093    1.0420608  1804253 
  410000   0.99802711   -2.0773435   -2.0773435   -1.0350093  0.065233803   -2.0773435    1.0423342  1804226 
  411000   0.99709429   -2.0765149   -2.0765149   -1.0351394  0.068038616   -2.0765149    1.0413755  1804199 
  412000   0.99717952   -2.0762591   -2.0762591   -1.0347789  0.065395981   -2.0762591    1.0414801  1804172 
  413000   0.99763033   -2.0770853   -2.0770853   -1.0351187  0.063037635   -2.0770853    1.0419666  1804145 
  414000   0.99647373   -2.0761428   -2.0761428   -1.0353686  0.065357244   -2.0761428    1.0407741  1804118 
  415000   0.99755394   -2.0773409   -2.0773409    -1.035423   0.06303246   -2.0773409     1.041918  1804091 
  416000   0.99756185   -2.0774459   -2.0774459   -1.0355041  0.064223296   -2.0774459    1.0419418  1804064 
  417000    0.9971448   -2.0762997   -2.0762997   -1.0347779  0.063492595   -2.0762997    1.0415218  1804037 
  418000   0.99702966   -2.0759413   -2.0759413   -1.0345242  0.065195841   -2.0759413    1.0414171  1804010 
  419000   0.99705345   -2.0759097   -2.0759097   -1.0344521   0.06517004   -2.0759097    1.0414576  1803983 
  420000   0.99685705   -2.0757346   -2.0757346   -1.0344666   0.06680596   -2.0757346     1.041268  1803956 
  421000   0.99752083   -2.0761684   -2.0761684   -1.0341914  0.066047133   -2.0761684     1.041977  1803929 
  422000   0.99785485   -2.0765625   -2.0765625    -1.034221  0.063957509   -2.0765625    1.0423415  1803902 
  423000   0.99709804   -2.0758958   -2.0758958   -1.0343293  0.064729269   -2.0758958    1.0415665  1803875 
  424000   0.99719033   -2.0761626   -2.0761626   -1.0344841  0.067499461   -2.0761626    1.0416785  1803848 
  425000   0.99776648   -2.0768507   -2.0768507   -1.0345548  0.064187224   -2.0768507    1.0422959  1803821 
  426000   0.99795331   -2.0768418   -2.0768418    -1.034335  0.067160239   -2.0768418    1.0425067  1803794 
  427000    0.9961408   -2.0758856   -2.0758856   -1.0352567  0.061208956   -2.0758856    1.0406289  1803767 
  428000   0.99598755    -2.076056    -2.076056   -1.0355717  0.062776938    -2.076056    1.0404844  1803740 
  429000   0.99619646   -2.0765953   -2.0765953   -1.0358771  0.063000618   -2.0765953    1.0407182  1803713 
  430000   0.99613413   -2.0764295   -2.0764295   -1.0357609  0.063945539   -2.0764295    1.0406686  1803686 
  431000   0.99572976   -2.0764847   -2.0764847   -1.0362229  0.063376378   -2.0764847    1.0402618  1803659 
  432000     0.995972    -2.077183    -2.077183   -1.0366526  0.064605925    -2.077183    1.0405304  1803632 
  433000   0.99683194   -2.0785133   -2.0785133   -1.0370689  0.063839464   -2.0785133    1.0414444  1803605 
  434000   0.99599798   -2.0775758   -2.0775758    -1.036987  0.064536232   -2.0775758    1.0405887  1803578 
  435000    0.9969053   -2.0780618   -2.0780618   -1.0365096  0.066963831   -2.0780618    1.0415522  1803551 
  436000   0.99671946   -2.0782424   -2.0782424   -1.0368688  0.064193498   -2.0782424    1.0413737  1803524 
  437000   0.99735904   -2.0786883   -2.0786883   -1.0366308  0.065470482   -2.0786883    1.0420575  1803497 
  438000   0.99725325   -2.0786677   -2.0786677   -1.0367051  0.067442595   -2.0786677    1.0419626  1803470 
  439000   0.99712445   -2.0789856   -2.0789856    -1.037142  0.065013902   -2.0789856    1.0418436  1803443 
  440000   0.99680679   -2.0787789   -2.0787789   -1.0372516  0.065891748   -2.0787789    1.0415273  1803416 
  441000   0.99732447   -2.0793536   -2.0793536   -1.0372699  0.064327426   -2.0793536    1.0420838  1803389 
  442000   0.99733855    -2.079183    -2.079183   -1.0370689  0.065339794    -2.079183    1.0421141  1803362 
  443000    0.9976844   -2.0793135   -2.0793135   -1.0368224  0.064334475   -2.0793135    1.0424911  1803335 
  444000   0.99755085   -2.0788632   -2.0788632   -1.0364955  0.066016961   -2.0788632    1.0423677  1803307 
  445000   0.99703527   -2.0785499   -2.0785499   -1.0367054  0.068553059   -2.0785499    1.0418446  1803280 
  446000   0.99744701   -2.0792643   -2.0792643   -1.0369739  0.065478989   -2.0792643    1.0422904  1803253 
  447000    0.9986669   -2.0799047   -2.0799047   -1.0363239  0.066639911   -2.0799047    1.0435808  1803226 
  448000   0.99808232   -2.0799909   -2.0799909   -1.0370054  0.066687834   -2.0799909    1.0429855  1803199 
  449000   0.99838708   -2.0799317   -2.0799317   -1.0366121   0.06574502   -2.0799317    1.0433196  1803172 
  450000    0.9977618   -2.0794352   -2.0794352   -1.0367534  0.068949358   -2.0794352    1.0426818  1803145 
  451000   0.99784592   -2.0794834   -2.0794834   -1.0366981    0.0655911   -2.0794834    1.0427853  1803118 
  452000   0.99770451   -2.0794443   -2.0794443   -1.0367911  0.064485909   -2.0794443    1.0426532  1803091 
  453000    0.9976683   -2.0791861   -2.0791861   -1.0365551  0.067620738   -2.0791861    1.0426309  1803064 
  454000   0.99587616   -2.0778927   -2.0778927    -1.037119  0.067479907   -2.0778927    1.0407736  1803037 
  455000   0.99675649   -2.0783875   -2.0783875   -1.0366782  0.064546614   -2.0783875    1.0417092  1803010 
  456000   0.99561975   -2.0781381   -2.0781381   -1.0376013  0.064926245   -2.0781381    1.0405368  1802983 
  457000   0.99599169   -2.0781645   -2.0781645   -1.0372234   0.06311957   -2.0781645    1.0409411  1802956 
  458000   0.99571388   -2.0774807   -2.0774807   -1.0368143    0.0636601   -2.0774807    1.0406664  1802929 
  459000   0.99546782   -2.0771314   -2.0771314   -1.0367066  0.066770166   -2.0771314    1.0404248  1802902 
  460000    0.9959408   -2.0773463   -2.0773463   -1.0364116  0.061848991   -2.0773463    1.0409347  1802875 
  461000   0.99501528   -2.0767021   -2.0767021   -1.0367192  0.064576389   -2.0767021    1.0399829  1802848 
  462000   0.99493273   -2.0768202   -2.0768202    -1.036908  0.063143695   -2.0768202    1.0399122  1802821 
  463000   0.99518159    -2.076948    -2.076948     -1.03676  0.060562915    -2.076948    1.0401879  1802794 
  464000    0.9951979   -2.0771169   -2.0771169   -1.0368963  0.062793334   -2.0771169    1.0402206  1802767 
  465000   0.99533637   -2.0768808   -2.0768808      -1.0365  0.062375954   -2.0768808    1.0403809  1802740 
  466000   0.99640227   -2.0781198   -2.0781198   -1.0366092  0.062444864   -2.0781198    1.0415106  1802713 
  467000   0.99492023   -2.0764139   -2.0764139   -1.0364369   0.06500355   -2.0764139    1.0399771  1802686 
  468000   0.99531892   -2.0768164   -2.0768164    -1.036407  0.066050694   -2.0768164    1.0404094  1802659 
  469000   0.99560195   -2.0770593   -2.0770593   -1.0363385  0.063576913   -2.0770593    1.0407208  1802632 
  470000   0.99500352   -2.0772652   -2.0772652   -1.0371543  0.065824919   -2.0772652    1.0401109  1802605 
  471000   0.99450321   -2.0765972   -2.0765972   -1.0369937  0.065519988   -2.0765972    1.0396034  1802578 
  472000   0.99477315   -2.0768051   -2.0768051   -1.0369039  0.064705992   -2.0768051    1.0399012  1802551 
  473000   0.99490516   -2.0766258   -2.0766258    -1.036571  0.063217783   -2.0766258    1.0400548  1802524 
  474000   0.99594677   -2.0776837   -2.0776837   -1.0365244  0.062414142   -2.0776837    1.0411592  1802497 
  475000   0.99472637   -2.0768489   -2.0768489   -1.0369499  0.064592202   -2.0768489     1.039899  1802470 
  476000   0.99435973   -2.0767055   -2.0767055   -1.0371742  0.063432905   -2.0767055    1.0395313  1802443 
  477000   0.99490548   -2.0771511   -2.0771511   -1.0370337  0.063227579   -2.0771511    1.0401174  1802416 
  478000   0.99497086   -2.0775512   -2.0775512   -1.0373498   0.06186931   -2.0775512    1.0402014  1802389 
  479000   0.99445042   -2.0774796   -2.0774796   -1.0378067  0.066448441   -2.0774796    1.0396728  1802362 
  480000    0.9944425    -2.077407    -2.077407   -1.0377269  0.060988558    -2.077407    1.0396801  1802335 
  481000   0.99463918   -2.0776514   -2.0776514   -1.0377495   0.06852016   -2.0776514    1.0399019  1802307 
  482000    0.9959002     -2.07898     -2.07898   -1.0377441  0.065010477     -2.07898    1.0412359  1802280 
  483000   0.99481306   -2.0776812   -2.0776812   -1.0375663  0.068253046   -2.0776812    1.0401149  1802253 
  484000   0.99542501   -2.0781972   -2.0781972   -1.0374269  0.062730003   -2.0781972    1.0407703  1802226 
  485000   0.99582564   -2.0788676   -2.0788676   -1.0376628  0.064115505   -2.0788676    1.0412047  1802199 
  486000   0.99624758   -2.0788242   -2.0788242   -1.0371627  0.063363048   -2.0788242    1.0416615  1802172 
  487000   0.99592542   -2.0786577   -2.0786577   -1.0373174  0.066002357   -2.0786577    1.0413403  1802145 
  488000   0.99672478   -2.0794031   -2.0794031   -1.0372114   0.06640395   -2.0794031    1.0421917  1802118 
  489000   0.99525593   -2.0788305   -2.0788305   -1.0381591  0.066993294   -2.0788305    1.0406714  1802091 
  490000   0.99618426   -2.0795854   -2.0795854   -1.0379277  0.065594925   -2.0795854    1.0416577  1802064 
  491000   0.99622178   -2.0798911   -2.0798911   -1.0381785  0.067277616   -2.0798911    1.0417126  1802037 
  492000   0.99588151   -2.0800252   -2.0800252   -1.0386529  0.066510655   -2.0800252    1.0413724  1802010 
  493000   0.99631779   -2.0806115   -2.0806115   -1.0387673  0.065098481   -2.0806115    1.0418442  1801983 
  494000   0.99613489   -2.0799076   -2.0799076    -1.038239  0.062805302   -2.0799076    1.0416685  1801956 
  495000   0.99543508   -2.0795571   -2.0795571   -1.0386047   0.06521691   -2.0795571    1.0409523  1801929 
  496000   0.99502799   -2.0793107   -2.0793107   -1.0387685  0.065742903   -2.0793107    1.0405422  1801902 
  497000   0.99568963   -2.0794014   -2.0794014   -1.0381516  0.066686166   -2.0794014    1.0412497  1801875 
  498000    0.9956451   -2.0791957   -2.0791957   -1.0379769  0.065546303   -2.0791957    1.0412188  1801848 
  499000   0.99534458   -2.0795416   -2.0795416   -1.0386215  0.068284562   -2.0795416    1.0409201  1801821 
  500000   0.99486658    -2.078517    -2.078517   -1.0380812  0.063228052    -2.078517    1.0404358  1801794 
  501000   0.99520667   -2.0794158   -2.0794158   -1.0386087  0.063871244   -2.0794158    1.0408071  1801767 
  502000   0.99575326   -2.0796456   -2.0796456   -1.0382513  0.062754949   -2.0796456    1.0413943  1801740 
  503000   0.99511959     -2.07909     -2.07909   -1.0383428  0.064579859     -2.07909    1.0407472  1801713 
  504000   0.99515287   -2.0796556   -2.0796556    -1.038858    0.0636318   -2.0796556    1.0407976  1801686 
  505000   0.99438333   -2.0785227   -2.0785227   -1.0385144  0.065086963   -2.0785227    1.0400083  1801659 
  506000   0.99411466   -2.0786288   -2.0786288   -1.0388859  0.062602489   -2.0786288    1.0397429  1801632 
  507000   0.99527109   -2.0789611   -2.0789611   -1.0379931   0.06428394   -2.0789611     1.040968  1801605 
  508000    0.9948361   -2.0783313   -2.0783313   -1.0378026  0.064406622   -2.0783313    1.0405287  1801578 
  509000   0.99451062     -2.07787     -2.07787   -1.0376662  0.063753167     -2.07787    1.0402038  1801551 
  510000   0.99465604   -2.0782376   -2.0782376   -1.0378661  0.062390529   -2.0782376    1.0403715  1801524 
  511000   0.99454584   -2.0780473   -2.0780473   -1.0377755  0.067717125   -2.0780473    1.0402718  1801497 
  512000   0.99536374   -2.0792747   -2.0792747   -1.0381317  0.061878891   -2.0792747     1.041143  1801470 
  513000    0.9935278   -2.0771872   -2.0771872   -1.0379491  0.065931627   -2.0771872    1.0392381  1801443 
  514000    0.9942873   -2.0780608   -2.0780608   -1.0380126  0.064179224   -2.0780608    1.0400482  1801416 
  515000   0.99477938   -2.0787212   -2.0787212   -1.0381427  0.062319412   -2.0787212    1.0405785  1801389 
  516000   0.99463812   -2.0786209   -2.0786209   -1.0381746  0.063192602   -2.0786209    1.0404463  1801362 
  517000    0.9937307   -2.0776438   -2.0776438   -1.0381311  0.063044449   -2.0776438    1.0395127  1801335 
  518000   0.99445654   -2.0786525   -2.0786525   -1.0383644  0.064559525   -2.0786525    1.0402881  1801307 
  519000    0.9941558    -2.078437    -2.078437   -1.0384479  0.063776453    -2.078437    1.0399891  1801280 
  520000   0.99429689   -2.0779068   -2.0779068   -1.0377545  0.064761036   -2.0779068    1.0401523  1801253 
  521000   0.99475985   -2.0785237   -2.0785237   -1.0378715  0.064535423   -2.0785237    1.0406522  1801226 
  522000   0.99433405   -2.0780347   -2.0780347   -1.0378124  0.069250935   -2.0780347    1.0402224  1801199 
  523000   0.99462387   -2.0785762   -2.0785762   -1.0380351  0.064471169   -2.0785762    1.0405412  1801172 
  524000   0.99505928   -2.0792917   -2.0792917   -1.0382794  0.064451523   -2.0792917    1.0410123  1801145 
  525000   0.99472836   -2.0791122   -2.0791122   -1.0384305  0.061970124   -2.0791122    1.0406817  1801118 
  526000   0.99415373   -2.0785904   -2.0785904   -1.0384943  0.064268398   -2.0785904    1.0400961  1801091 
  527000   0.99534474   -2.0792597   -2.0792597   -1.0379019  0.065690783   -2.0792597    1.0413578  1801064 
  528000   0.99516437   -2.0789835   -2.0789835   -1.0377989  0.061327622   -2.0789835    1.0411847  1801037 
  529000   0.99560701   -2.0794575   -2.0794575   -1.0377941  0.064496978   -2.0794575    1.0416634  1801010 
  530000    0.9954662   -2.0793819   -2.0793819   -1.0378503  0.063775885   -2.0793819    1.0415317  1800983 
  531000   0.99444235   -2.0784584   -2.0784584   -1.0379824  0.065710399   -2.0784584    1.0404761  1800956 
  532000   0.99479832   -2.0790026   -2.0790026   -1.0381385  0.066037993   -2.0790026    1.0408641  1800929 
  533000   0.99521813   -2.0790547   -2.0790547   -1.0377357  0.065313308   -2.0790547     1.041319  1800902 
  534000   0.99446021   -2.0790669   -2.0790669   -1.0385254  0.065018462   -2.0790669    1.0405415  1800875 
  535000   0.99471596   -2.0791398   -2.0791398    -1.038315  0.067095334   -2.0791398    1.0408247  1800848 
  536000   0.99396403   -2.0786449   -2.0786449   -1.0385914  0.066254001   -2.0786449    1.0400536  1800821 
  537000   0.99440938   -2.0787797   -2.0787797   -1.0382446  0.067251231   -2.0787797    1.0405352  1800794 
  538000   0.99380826   -2.0785898   -2.0785898   -1.0386681  0.063711408   -2.0785898    1.0399217  1800767 
  539000   0.99363564   -2.0785728   -2.0785728   -1.0388161  0.063982625   -2.0785728    1.0397567  1800740 
  540000   0.99334489   -2.0786873   -2.0786873   -1.0392193  0.064692943   -2.0786873     1.039468  1800713 
  541000    0.9938427   -2.0784175   -2.0784175   -1.0384129  0.064897813   -2.0784175    1.0400046  1800686 
  542000   0.99373213   -2.0782413   -2.0782413   -1.0383369  0.063384451   -2.0782413    1.0399044  1800659 
  543000    0.9942459   -2.0787409   -2.0787409   -1.0382832  0.063127611   -2.0787409    1.0404577  1800632 
  544000   0.99421801   -2.0782121   -2.0782121    -1.037768  0.066687439   -2.0782121    1.0404441  1800605 
  545000   0.99348834   -2.0776659   -2.0776659   -1.0379698  0.063803175   -2.0776659    1.0396961  1800578 
  546000   0.99422609    -2.077749    -2.077749   -1.0372652  0.064914996    -2.077749    1.0404838  1800551 
  547000   0.99373314   -2.0772192   -2.0772192   -1.0372357  0.066929027   -2.0772192    1.0399835  1800524 
  548000   0.99391536   -2.0774405   -2.0774405   -1.0372507  0.064828482   -2.0774405    1.0401898  1800497 
  549000   0.99527818   -2.0787517   -2.0787517     -1.03712  0.064228142   -2.0787517    1.0416317  1800470 
  550000   0.99415215   -2.0772953   -2.0772953   -1.0368265   0.06803504   -2.0772953    1.0404688  1800443 
  551000   0.99371526    -2.076728    -2.076728   -1.0367008  0.064053699    -2.076728    1.0400271  1800416 
  552000   0.99469141   -2.0780159   -2.0780159   -1.0369515  0.063474273   -2.0780159    1.0410644  1800389 
  553000   0.99393289   -2.0772732   -2.0772732   -1.0369871  0.063618832   -2.0772732    1.0402861  1800362 
  554000   0.99292781   -2.0764267   -2.0764267    -1.037177  0.065253347   -2.0764267    1.0392497  1800335 
  555000   0.99360709   -2.0772976   -2.0772976   -1.0373207  0.062639749   -2.0772976    1.0399769  1800307 
  556000   0.99332188   -2.0775036   -2.0775036   -1.0378096  0.061178471   -2.0775036     1.039694  1800280 
  557000   0.99326048   -2.0770123   -2.0770123    -1.037367  0.062331635   -2.0770123    1.0396453  1800253 
  558000    0.9939271   -2.0780898   -2.0780898   -1.0377311  0.062220311   -2.0780898    1.0403587  1800226 
  559000   0.99311305    -2.077436    -2.077436   -1.0379139   0.06496009    -2.077436    1.0395222  1800199 
  560000   0.99338882   -2.0775116   -2.0775116   -1.0376852  0.068294838   -2.0775116    1.0398264  1800172 
  561000   0.99341467   -2.0774379   -2.0774379   -1.0375688  0.061807473   -2.0774379    1.0398691  1800145 
  562000   0.99326595   -2.0774556   -2.0774556   -1.0377266  0.064905731   -2.0774556     1.039729  1800118 
  563000   0.99366096   -2.0780584   -2.0780584   -1.0379003  0.063238068   -2.0780584    1.0401581  1800091 
  564000   0.99362516   -2.0784729   -2.0784729   -1.0383367  0.065047608   -2.0784729    1.0401362  1800064 
  565000   0.99344721   -2.0778984   -2.0778984   -1.0379329  0.062680535   -2.0778984    1.0399655  1800037 
  566000   0.99362234    -2.077777    -2.077777   -1.0376125  0.066070104    -2.077777    1.0401645  1800010 
  567000   0.99309914   -2.0775533   -2.0775533   -1.0379209  0.064706678   -2.0775533    1.0396323  1799983 
  568000   0.99429747   -2.0781777   -2.0781777   -1.0372753  0.063677221   -2.0781777    1.0409024  1799956 
  569000   0.99447559    -2.078556    -2.078556   -1.0374515  0.064088234    -2.078556    1.0411045  1799929 
  570000   0.99359086   -2.0772149   -2.0772149    -1.037021  0.064664561   -2.0772149    1.0401939  1799902 
  571000   0.99472052   -2.0783446   -2.0783446   -1.0369524  0.067004093   -2.0783446    1.0413922  1799875 
  572000   0.99449378   -2.0786738   -2.0786738   -1.0375034  0.064234108   -2.0786738    1.0411704  1799848 
  573000   0.99425032   -2.0786153   -2.0786153   -1.0376842   0.06830202   -2.0786153    1.0409311  1799821 
  574000   0.99434124   -2.0781406   -2.0781406   -1.0370986  0.065867584   -2.0781406     1.041042  1799794 
  575000   0.99491327   -2.0783993   -2.0783993   -1.0367428  0.067903744   -2.0783993    1.0416565  1799767 
  576000   0.99480206   -2.0784943   -2.0784943   -1.0369386  0.066357222   -2.0784943    1.0415557  1799740 
  577000   0.99453164   -2.0781651   -2.0781651    -1.036877  0.068910136   -2.0781651    1.0412882  1799713 
  578000   0.99527078   -2.0794496   -2.0794496    -1.037372  0.064455269   -2.0794496    1.0420777  1799686 
  579000   0.99402541   -2.0785691   -2.0785691   -1.0377797   0.06418637   -2.0785691    1.0407894  1799659 
  580000   0.99383514   -2.0778037   -2.0778037    -1.037198  0.066542645   -2.0778037    1.0406058  1799632 
  581000   0.99267729   -2.0767574   -2.0767574   -1.0373484  0.065229234   -2.0767574     1.039409  1799605 
  582000   0.99401445   -2.0778203   -2.0778203   -1.0369956  0.063523865   -2.0778203    1.0408247  1799578 
  583000   0.99358455    -2.077729    -2.077729   -1.0373388  0.067697751    -2.077729    1.0403902  1799551 
  584000   0.99282978   -2.0772189   -2.0772189   -1.0376034   0.06594864   -2.0772189    1.0396155  1799524 
  585000   0.99190105   -2.0765154   -2.0765154   -1.0378568   0.06415357   -2.0765154    1.0386586  1799497 
  586000   0.99282952    -2.077603    -2.077603   -1.0379566  0.063135131    -2.077603    1.0396464  1799470 
  587000    0.9925729   -2.0779277   -2.0779277   -1.0385344  0.064948389   -2.0779277    1.0393933  1799443 
  588000   0.99220065   -2.0773595   -2.0773595   -1.0383405  0.062560567   -2.0773595     1.039019  1799416 
  589000    0.9924417   -2.0774764   -2.0774764   -1.0381894  0.062451608   -2.0774764    1.0392871  1799389 
  590000   0.99212434   -2.0773942   -2.0773942   -1.0384239  0.061305897   -2.0773942    1.0389703  1799362 
  591000   0.99233722   -2.0775665   -2.0775665   -1.0383577  0.059855713   -2.0775665    1.0392088  1799335 
  592000    0.9924066    -2.077026    -2.077026   -1.0377283   0.06237758    -2.077026    1.0392977  1799307 
  593000   0.99289395   -2.0777391   -2.0777391   -1.0379154  0.061810192   -2.0777391    1.0398237  1799280 
  594000   0.99323346   -2.0780714   -2.0780714   -1.0378766   0.06167326   -2.0780714    1.0401948  1799253 
  595000   0.99353638   -2.0782244   -2.0782244   -1.0376968   0.06201464   -2.0782244    1.0405277  1799226 
  596000   0.99239037   -2.0773859   -2.0773859   -1.0380428  0.064557126   -2.0773859    1.0393431  1799199 
  597000   0.99373956   -2.0780849   -2.0780849   -1.0373132  0.063471632   -2.0780849    1.0407717  1799172 
  598000   0.99330164   -2.0772132   -2.0772132   -1.0368845    0.0652322   -2.0772132    1.0403287  1799145 
  599000   0.99359108   -2.0776064   -2.0776064    -1.036959  0.069841743   -2.0776064    1.0406474  1799118 
  600000   0.99357255   -2.0772569   -2.0772569   -1.0366133  0.066552331   -2.0772569    1.0406436  1799091 
  601000   0.99394896   -2.0773998   -2.0773998   -1.0363463  0.063867527   -2.0773998    1.0410535  1799064 
  602000   0.99363078   -2.0768001   -2.0768001   -1.0360642  0.065855413   -2.0768001    1.0407359  1799037 
  603000   0.99375881     -2.07697     -2.07697   -1.0360844  0.064442854     -2.07697    1.0408856  1799010 
  604000   0.99352446   -2.0775379   -2.0775379   -1.0368822  0.065091582   -2.0775379    1.0406557  1798983 
  605000   0.99444126   -2.0785083   -2.0785083   -1.0368766  0.061352181   -2.0785083    1.0416317  1798956 
  606000   0.99326685   -2.0780346   -2.0780346   -1.0376175  0.064608785   -2.0780346    1.0404171  1798929 
  607000   0.99453547   -2.0790429   -2.0790429   -1.0372813  0.065264772   -2.0790429    1.0417616  1798902 
  608000   0.99402259   -2.0781092   -2.0781092   -1.0368692  0.066322756   -2.0781092      1.04124  1798875 
  609000   0.99438826   -2.0781982   -2.0781982   -1.0365595  0.068795094   -2.0781982    1.0416387  1798848 
  610000   0.99318136   -2.0772545   -2.0772545   -1.0368644  0.066398915   -2.0772545    1.0403901  1798821 
  611000   0.99257725   -2.0766709   -2.0766709    -1.036898  0.065379241   -2.0766709    1.0397728  1798794 
  612000   0.99363035   -2.0775378   -2.0775378   -1.0366461  0.066226414   -2.0775378    1.0408916  1798767 
  613000   0.99319896   -2.0773349   -2.0773349   -1.0368795  0.062552524   -2.0773349    1.0404553  1798740 
  614000   0.99298579   -2.0772415   -2.0772415   -1.0369938    0.0655425   -2.0772415    1.0402476  1798713 
  615000   0.99237424   -2.0769848   -2.0769848   -1.0373622  0.065376423   -2.0769848    1.0396226  1798686 
  616000    0.9912348   -2.0761883   -2.0761883   -1.0377438  0.064372957   -2.0761883    1.0384445  1798659 
  617000   0.99105429    -2.076413    -2.076413    -1.038142  0.061980551    -2.076413     1.038271  1798632 
  618000   0.99199157   -2.0777967   -2.0777967   -1.0385282  0.061227315   -2.0777967    1.0392685  1798605 
  619000     0.992005   -2.0771671   -2.0771671   -1.0378689  0.064887861   -2.0771671    1.0392982  1798578 
  620000   0.99174925   -2.0770288   -2.0770288   -1.0379829  0.062981041   -2.0770288    1.0390458  1798551 
  621000   0.99154543   -2.0767761   -2.0767761   -1.0379283   0.06440564   -2.0767761    1.0388479  1798524 
  622000   0.99230235    -2.077226    -2.077226   -1.0375695  0.064351469    -2.077226    1.0396565  1798497 
  623000   0.99190847   -2.0767375   -2.0767375   -1.0374781  0.063820357   -2.0767375    1.0392594  1798470 
  624000   0.99277847   -2.0769292   -2.0769292   -1.0367426  0.065639283   -2.0769292    1.0401866  1798443 
  625000    0.9932397   -2.0778115   -2.0778115   -1.0371261  0.062045349   -2.0778115    1.0406855  1798416 
  626000   0.99172779   -2.0760542   -2.0760542   -1.0369372  0.062432394   -2.0760542    1.0391169  1798389 
  627000   0.99229306   -2.0765115   -2.0765115   -1.0367866  0.063309691   -2.0765115    1.0397248  1798362 
  628000   0.99239004   -2.0768882   -2.0768882   -1.0370461   0.06545117   -2.0768882    1.0398421  1798335 
  629000    0.9929113   -2.0781961   -2.0781961   -1.0377916  0.062744138   -2.0781961    1.0404044  1798307 
  630000    0.9921684   -2.0770184   -2.0770184   -1.0373768  0.064273036   -2.0770184    1.0396416  1798280 
  631000   0.99217105   -2.0774839   -2.0774839   -1.0378239  0.063852528   -2.0774839      1.03966  1798253 
  632000   0.99193608   -2.0773247   -2.0773247   -1.0378953  0.063891843   -2.0773247    1.0394294  1798226 
  633000   0.99209747   -2.0775163   -2.0775163   -1.0379022    0.0608161   -2.0775163    1.0396141  1798199 
  634000   0.99210589   -2.0774454   -2.0774454   -1.0378068  0.063801372   -2.0774454    1.0396386  1798172 
  635000   0.99238132    -2.077694    -2.077694   -1.0377512  0.068046398    -2.077694    1.0399428  1798145 
  636000   0.99250226   -2.0781789   -2.0781789   -1.0380938  0.064561501   -2.0781789    1.0400851  1798118 
  637000   0.99273363   -2.0781825   -2.0781825   -1.0378393  0.066946461   -2.0781825    1.0403432  1798091 
  638000   0.99229573   -2.0781953   -2.0781953   -1.0382954   0.06589013   -2.0781953    1.0398999  1798064 
  639000   0.99243937   -2.0786877   -2.0786877   -1.0386216  0.062287627   -2.0786877    1.0400661  1798037 
  640000   0.99225141   -2.0784477   -2.0784477    -1.038563  0.064680453   -2.0784477    1.0398847  1798010 
  641000   0.99198498   -2.0781874   -2.0781874   -1.0385663  0.061971633   -2.0781874    1.0396211  1797983 
  642000   0.99129132   -2.0773487   -2.0773487   -1.0384389  0.065399396   -2.0773487    1.0389098  1797956 
  643000   0.99150753   -2.0778156   -2.0778156   -1.0386637  0.062761489   -2.0778156     1.039152  1797929 
  644000   0.99236368   -2.0785697   -2.0785697   -1.0385048  0.059854133   -2.0785697    1.0400649  1797902 
  645000   0.99322261   -2.0788092   -2.0788092   -1.0378285  0.064638262   -2.0788092    1.0409807  1797875 
  646000   0.99190872   -2.0780459   -2.0780459   -1.0384266  0.064413849   -2.0780459    1.0396193  1797848 
  647000   0.99212842   -2.0781958   -2.0781958   -1.0383307  0.062949844   -2.0781958    1.0398651  1797821 
  648000   0.99174549   -2.0777476   -2.0777476   -1.0382682   0.06468411   -2.0777476    1.0394794  1797794 
  649000   0.99201728   -2.0781709   -2.0781709    -1.038391  0.067831918   -2.0781709    1.0397799  1797767 
  650000   0.99231451   -2.0784651   -2.0784651    -1.038358  0.064520246   -2.0784651    1.0401071  1797740 
  651000   0.99232727   -2.0786128   -2.0786128   -1.0384767  0.062522858   -2.0786128     1.040136  1797713 
  652000   0.99209008   -2.0784624   -2.0784624   -1.0385594  0.065620096   -2.0784624     1.039903  1797686 
  653000   0.99251405    -2.078981    -2.078981   -1.0386179  0.065014986    -2.078981    1.0403631  1797659 
  654000   0.99234546   -2.0779784   -2.0779784   -1.0377765  0.065049695   -2.0779784     1.040202  1797632 
  655000   0.99265915   -2.0783111   -2.0783111   -1.0377647  0.064280539   -2.0783111    1.0405464  1797605 
  656000   0.99183186   -2.0777686   -2.0777686   -1.0380738  0.060509785   -2.0777686    1.0396948  1797578 
[...]
29832000   0.35933666   -0.9973146   -0.9973146  -0.32627211   0.04494082   -0.9973146   0.67104249  1009037 
29833000   0.35997126  -0.99806718  -0.99806718  -0.32582164  0.043779344  -0.99806718   0.67224554  1009010 
29834000    0.3600256  -0.99776022  -0.99776022   -0.3253952  0.042422967  -0.99776022   0.67236503  1008983 
29835000   0.36011206  -0.99771216  -0.99771216  -0.32516767   0.04379222  -0.99771216   0.67254449  1008956 
29836000   0.35990591  -0.99783508  -0.99783508  -0.32565762   0.04295157  -0.99783508   0.67217746  1008929 
29837000   0.35944513  -0.99615915  -0.99615915  -0.32482428   0.04420918  -0.99615915   0.67133487  1008902 
29838000   0.35906263  -0.99666828  -0.99666828  -0.32602985  0.041435435  -0.99666828   0.67063842  1008875 
29839000   0.35963659  -0.99701992  -0.99701992  -0.32529151  0.043961079  -0.99701992   0.67172841  1008848 
29840000   0.35979784  -0.99658977  -0.99658977  -0.32454219   0.04552202  -0.99658977   0.67204758  1008821 
29841000    0.3594361  -0.99644901  -0.99644901  -0.32505914   0.04136026  -0.99644901   0.67138988  1008794 
29842000   0.35893338  -0.99582784  -0.99582784  -0.32535907  0.046848415  -0.99582784   0.67046877  1008767 
29843000   0.35876402  -0.99484442  -0.99484442  -0.32467405  0.045841603  -0.99484442   0.67017036  1008740 
29844000   0.35874981  -0.99488347  -0.99488347  -0.32472171  0.041144924  -0.99488347   0.67016176  1008713 
29845000   0.35912632   -0.9955753   -0.9955753  -0.32469224  0.041860393   -0.9955753   0.67088306  1008686 
29846000   0.35863682  -0.99438391  -0.99438391  -0.32439736  0.047622494  -0.99438391   0.66998655  1008659 
29847000   0.35944891  -0.99533163  -0.99533163  -0.32380999  0.042822568  -0.99533163   0.67152164  1008632 
29848000   0.35945477  -0.99578983  -0.99578983  -0.32423926  0.040865681  -0.99578983   0.67155056  1008605 
29849000   0.35893975  -0.99441766  -0.99441766  -0.32381134  0.044566869  -0.99441766   0.67060632  1008578 
29850000   0.35925029   -0.9954481   -0.9954481  -0.32424362  0.045097876   -0.9954481   0.67120448  1008551 
29851000    0.3592839  -0.99494664  -0.99494664  -0.32366139  0.044146754  -0.99494664   0.67128525  1008524 
29852000    0.3590126  -0.99472882  -0.99472882  -0.32393251   0.04415655  -0.99472882   0.67079631  1008497 
29853000   0.35856095  -0.99417168  -0.99417168  -0.32420133  0.042690877  -0.99417168   0.66997035  1008470 
29854000   0.35888937  -0.99502645  -0.99502645  -0.32442449  0.045006413  -0.99502645   0.67060196  1008443 
29855000   0.35959571  -0.99522785  -0.99522785  -0.32328806  0.042430977  -0.99522785   0.67193978  1008416 
29856000   0.35923302  -0.99493194  -0.99493194   -0.3236519  0.046073755  -0.99493194   0.67128004  1008389 
29857000   0.35906591  -0.99484556  -0.99484556  -0.32385983  0.045594282  -0.99484556   0.67098573  1008362 
29858000   0.35956334  -0.99538784  -0.99538784  -0.32345457    0.0440579  -0.99538784   0.67193327  1008335 
29859000   0.35882901  -0.99504261  -0.99504261    -0.324463  0.044033113  -0.99504261   0.67057961  1008307 
29860000     0.358514  -0.99428159  -0.99428159  -0.32427272   0.04385604  -0.99428159   0.67000887  1008280 
29861000   0.35901984  -0.99528525  -0.99528525  -0.32431309  0.043227374  -0.99528525   0.67097216  1008253 
29862000   0.35906769  -0.99543968  -0.99543968  -0.32436012  0.043608583  -0.99543968   0.67107956  1008226 
29863000   0.35909088  -0.99510234  -0.99510234  -0.32396146  0.044451036  -0.99510234   0.67114087  1008199 
29864000   0.35946778   -0.9952609   -0.9952609   -0.3233976  0.043607561   -0.9952609    0.6718633  1008172 
29865000   0.35869054  -0.99423631  -0.99423631  -0.32380775  0.044687336  -0.99423631   0.67042856  1008145 
29866000   0.35928565  -0.99514561  -0.99514561  -0.32358675   0.04279805  -0.99514561   0.67155886  1008118 
29867000   0.35916343     -0.99561     -0.99561  -0.32426161  0.042714232     -0.99561   0.67134838  1008091 
29868000   0.35897434  -0.99492824  -0.99492824  -0.32391532  0.044599226  -0.99492824   0.67101292  1008064 
29869000   0.35859398  -0.99371544  -0.99371544  -0.32339556  0.043229661  -0.99371544   0.67031988  1008037 
29870000   0.35888613  -0.99432049  -0.99432049  -0.32343651  0.043516528  -0.99432049   0.67088397  1008010 
29871000   0.35880366  -0.99413146  -0.99413146   -0.3233837  0.046802127  -0.99413146   0.67074776  1007983 
29872000   0.35892077  -0.99560106  -0.99560106  -0.32461639  0.042856557  -0.99560106   0.67098467  1007956 
29873000   0.35884664  -0.99469077  -0.99469077  -0.32382671  0.039541899  -0.99469077   0.67086406  1007929 
29874000   0.35896765  -0.99451816  -0.99451816   -0.3234099  0.042169074  -0.99451816   0.67110826  1007902 
29875000   0.35896652  -0.99365071  -0.99365071  -0.32252659  0.042989591  -0.99365071   0.67112412  1007875 
29876000   0.35864467  -0.99365989  -0.99365989  -0.32311953  0.041694505  -0.99365989   0.67054036  1007848 
29877000   0.35864576  -0.99405308  -0.99405308  -0.32349273  0.042271987  -0.99405308   0.67056035  1007821 
29878000   0.35807564  -0.99323409  -0.99323409  -0.32372174  0.045376875  -0.99323409   0.66951235  1007794 
29879000   0.35837569  -0.99325872  -0.99325872  -0.32316742   0.04107536  -0.99325872   0.67009131  1007767 
29880000   0.35830327  -0.99336954  -0.99336954  -0.32339569  0.040867715  -0.99336954   0.66997385  1007740 
29881000    0.3585737  -0.99382496  -0.99382496  -0.32332747  0.042156777  -0.99382496   0.67049748  1007713 
29882000   0.35878179  -0.99395642  -0.99395642  -0.32305186  0.044692737  -0.99395642   0.67090457  1007686 
29883000   0.35876764  -0.99373307  -0.99373307    -0.322837  0.045407125  -0.99373307   0.67089608  1007659 
29884000    0.3591201  -0.99417326  -0.99417326  -0.32260008  0.045902957  -0.99417326   0.67157318  1007632 
29885000   0.35945295  -0.99481514  -0.99481514   -0.3226015  0.040699665  -0.99481514   0.67221364  1007605 
29886000   0.35857105  -0.99284009  -0.99284009  -0.32225774  0.043225172  -0.99284009   0.67058235  1007578 
29887000   0.35824818  -0.99319845  -0.99319845  -0.32320194  0.040183685  -0.99319845   0.66999651  1007551 
29888000   0.35784642  -0.99250449  -0.99250449  -0.32324143  0.043808972  -0.99250449   0.66926306  1007524 
29889000   0.35820906  -0.99301369  -0.99301369  -0.32305445  0.045268026  -0.99301369   0.66995924  1007497 
29890000   0.35829438  -0.99253305  -0.99253305  -0.32239628  0.040522587  -0.99253305   0.67013677  1007470 
29891000   0.35808714  -0.99278811  -0.99278811    -0.323021     0.045166  -0.99278811   0.66976711  1007443 
29892000   0.35832831  -0.99341856  -0.99341856  -0.32318239  0.046250162  -0.99341856   0.67023617  1007416 
29893000   0.35793035  -0.99266737  -0.99266737  -0.32315762  0.040916471  -0.99266737   0.66950975  1007389 
29894000   0.35799674  -0.99240947  -0.99240947   -0.3227576  0.044894193  -0.99240947   0.66965187  1007362 
29895000   0.35789904  -0.99293918  -0.99293918  -0.32345212   0.04117846  -0.99293918   0.66948706  1007335 
29896000   0.35771203  -0.99194122  -0.99194122  -0.32278538  0.042468502  -0.99194122   0.66915584  1007307 
29897000   0.35741853  -0.99119387  -0.99119387  -0.32256914  0.046984138  -0.99119387   0.66862473  1007280 
29898000   0.35837694  -0.99201767  -0.99201767  -0.32158206  0.044830366  -0.99201767    0.6704356  1007253 
29899000   0.35813548  -0.99207708  -0.99207708  -0.32207523   0.04403013  -0.99207708   0.67000185  1007226 
29900000   0.35832967  -0.99164959  -0.99164959  -0.32126648  0.044844124  -0.99164959   0.67038311  1007199 
29901000   0.35840291  -0.99234532  -0.99234532  -0.32180721  0.042974008  -0.99234532   0.67053811  1007172 
29902000   0.35819232  -0.99179877  -0.99179877  -0.32163669  0.043617497  -0.99179877   0.67016208  1007145 
29903000   0.35769456  -0.99129656  -0.99129656  -0.32204782  0.043626227  -0.99129656   0.66924874  1007118 
29904000   0.35738301  -0.99157448  -0.99157448  -0.32289073  0.043000996  -0.99157448   0.66868374  1007091 
29905000   0.35758246  -0.99139218  -0.99139218  -0.32231732  0.043812907  -0.99139218   0.66907487  1007064 
29906000   0.35754594  -0.99179651  -0.99179651  -0.32277204   0.04340117  -0.99179651   0.66902447  1007037 
29907000   0.35736776  -0.99108407  -0.99108407  -0.32237508  0.040286827  -0.99108407   0.66870899  1007010 
29908000   0.35791709  -0.99238561  -0.99238561  -0.32263075   0.04012196  -0.99238561   0.66975486  1006983 
29909000   0.35762373  -0.99210923  -0.99210923  -0.32288538  0.041822494  -0.99210923   0.66922385  1006956 
29910000   0.35745998  -0.99205323  -0.99205323  -0.32311786  0.044446122  -0.99205323   0.66893537  1006929 
29911000   0.35752545  -0.99176564  -0.99176564   -0.3226898  0.044407618  -0.99176564   0.66907583  1006902 
29912000   0.35735388  -0.99119779  -0.99119779  -0.32242511  0.046046089  -0.99119779   0.66877268  1006875 
29913000   0.35737054  -0.99120477  -0.99120477  -0.32238298  0.041842923  -0.99120477   0.66882179  1006848 
29914000   0.35800699  -0.99178253  -0.99178253  -0.32175165  0.043391547  -0.99178253   0.67003088  1006821 
29915000   0.35812355   -0.9908491   -0.9908491  -0.32058208  0.045541176   -0.9908491   0.67026701  1006794 
29916000   0.35784335  -0.99207252  -0.99207252  -0.32231198  0.042908372  -0.99207252   0.66976054  1006767 
29917000   0.35752819   -0.9916161   -0.9916161  -0.32242748  0.043235211   -0.9916161   0.66918861  1006740 
29918000   0.35756727  -0.99124129  -0.99124129  -0.32196158  0.040891082  -0.99124129   0.66927971  1006713 
29919000   0.35726777  -0.99033465  -0.99033465   -0.3215976  0.044337568  -0.99033465   0.66873705  1006686 
29920000   0.35756515  -0.99035741  -0.99035741  -0.32104575  0.044425443  -0.99035741   0.66931165  1006659 
29921000   0.35810503  -0.99099277  -0.99099277  -0.32065256  0.042007966  -0.99099277   0.67034021  1006632 
29922000   0.35763032   -0.9909203   -0.9909203  -0.32145075  0.046445908   -0.9909203   0.66946956  1006605 
29923000   0.35812192  -0.99160619  -0.99160619   -0.3211984  0.043478266  -0.99160619   0.67040778  1006578 
29924000   0.35752111  -0.99041857  -0.99041857  -0.32111755  0.044172048  -0.99041857   0.66930102  1006551 
29925000   0.35786883  -0.99050135  -0.99050135  -0.32053142  0.046497364  -0.99050135   0.66996994  1006524 
29926000   0.35735274  -0.99044873  -0.99044873  -0.32142702  0.041345577  -0.99044873    0.6690217  1006497 
29927000    0.3572297  -0.98976922  -0.98976922  -0.32095992  0.042022262  -0.98976922    0.6688093  1006470 
29928000   0.35745625  -0.99025996  -0.99025996  -0.32100857  0.043086863  -0.99025996    0.6692514  1006443 
29929000   0.35762393   -0.9907937   -0.9907937   -0.3212104  0.042195211   -0.9907937    0.6695833  1006416 
29930000   0.35760412  -0.99091659  -0.99091659  -0.32135241  0.040950441  -0.99091659   0.66956419  1006389 
29931000    0.3575395  -0.99059823  -0.99059823  -0.32113708  0.043686999  -0.99059823   0.66946116  1006362 
29932000   0.35702508   -0.9905792   -0.9905792  -0.32206332  0.044062835   -0.9905792   0.66851589  1006335 
29933000   0.35691918  -0.99073078  -0.99073078  -0.32239461  0.044378189  -0.99073078   0.66833617  1006307 
29934000   0.35750235  -0.99101487  -0.99101487  -0.32156873   0.04102882  -0.99101487   0.66944614  1006280 
29935000   0.35694086  -0.98988767  -0.98988767  -0.32147502  0.042754182  -0.98988767   0.66841265  1006253 
29936000   0.35710747  -0.98940623  -0.98940623  -0.32066365  0.042106326  -0.98940623   0.66874258  1006226 
29937000   0.35736748  -0.99020747  -0.99020747  -0.32096001  0.043759547  -0.99020747   0.66924746  1006199 
29938000   0.35733643  -0.98944869  -0.98944869  -0.32024143  0.045334087  -0.98944869   0.66920726  1006172 
29939000   0.35656649  -0.98830432  -0.98830432  -0.32052105  0.043695789  -0.98830432   0.66778327  1006145 
29940000    0.3572729  -0.98909699  -0.98909699   -0.3199728  0.041613109  -0.98909699   0.66912419  1006118 
29941000   0.35711359  -0.98916164  -0.98916164  -0.32031787  0.043272918  -0.98916164   0.66884377  1006091 
29942000   0.35679967  -0.98890085  -0.98890085  -0.32062709  0.041007945  -0.98890085   0.66827376  1006064 
29943000   0.35697772  -0.98871985  -0.98871985  -0.32009465  0.042717028  -0.98871985    0.6686252  1006037 
29944000   0.35765447  -0.98867393  -0.98867393  -0.31876318  0.043449408  -0.98867393   0.66991074  1006010 
29945000   0.35735482  -0.98799627  -0.98799627  -0.31862883   0.04567947  -0.98799627   0.66936744  1005983 
29946000   0.35730832   -0.9882635   -0.9882635  -0.31896519  0.044148346   -0.9882635   0.66929831  1005956 
29947000   0.35724603  -0.98803822  -0.98803822  -0.31883865  0.042663025  -0.98803822   0.66919958  1005929 
29948000   0.35671368  -0.98712834  -0.98712834  -0.31890804  0.043376035  -0.98712834    0.6682203  1005902 
29949000   0.35697076   -0.9870042   -0.9870042  -0.31828437  0.045099654   -0.9870042   0.66871984  1005875 
29950000   0.35743623  -0.98777232  -0.98777232  -0.31816254  0.040924452  -0.98777232   0.66960978  1005848 
29951000   0.35693562  -0.98709479  -0.98709479  -0.31840487   0.04410572  -0.98709479   0.66868992  1005821 
29952000   0.35673873  -0.98713637  -0.98713637  -0.31879737  0.043064233  -0.98713637     0.668339  1005794 
29953000   0.35647222  -0.98665897  -0.98665897  -0.31880134  0.041268502  -0.98665897   0.66785763  1005767 
29954000   0.35652868  -0.98630147  -0.98630147  -0.31832013  0.045744663  -0.98630147   0.66798134  1005740 
29955000   0.35723535  -0.98782427  -0.98782427  -0.31850097  0.042684182  -0.98782427    0.6693233  1005713 
29956000   0.35647377  -0.98687507  -0.98687507  -0.31896074   0.04206282  -0.98687507   0.66791432  1005686 
29957000   0.35648649  -0.98683119  -0.98683119  -0.31887511  0.043579229  -0.98683119   0.66795608  1005659 
29958000   0.35594673  -0.98606653  -0.98606653  -0.31910389  0.041475798  -0.98606653   0.66696264  1005632 
29959000   0.35588907  -0.98624503  -0.98624503  -0.31937253   0.04323009  -0.98624503    0.6668725  1005605 
29960000   0.35652002  -0.98721808  -0.98721808  -0.31914535  0.045453836  -0.98721808   0.66807272  1005578 
29961000   0.35572745  -0.98596719  -0.98596719  -0.31936175  0.044790486  -0.98596719   0.66660545  1005551 
29962000    0.3566999  -0.98735566  -0.98735566  -0.31890997  0.044191789  -0.98735566   0.66844569  1005524 
29963000   0.35708484  -0.98844687  -0.98844687  -0.31926184  0.044593672  -0.98844687   0.66918503  1005497 
29964000   0.35685907  -0.98763549  -0.98763549  -0.31885561  0.042340606  -0.98763549   0.66877988  1005470 
29965000   0.35660638  -0.98721554  -0.98721554  -0.31889127  0.041255698  -0.98721554   0.66832427  1005443 
29966000   0.35667436  -0.98674042  -0.98674042   -0.3182708  0.044463392  -0.98674042   0.66846962  1005416 
29967000    0.3570692  -0.98693288  -0.98693288  -0.31770527  0.042741761  -0.98693288    0.6692276  1005389 
29968000   0.35655937   -0.9868402   -0.9868402   -0.3185502  0.044992617   -0.9868402      0.66829  1005362 
29969000   0.35599565  -0.98626548  -0.98626548  -0.31901412  0.042609237  -0.98626548   0.66725137  1005335 
29970000   0.35685428  -0.98766901  -0.98766901  -0.31878967  0.043503748  -0.98766901   0.66887934  1005307 
29971000   0.35646584  -0.98698162  -0.98698162  -0.31881242  0.045200212  -0.98698162   0.66816921  1005280 
29972000   0.35680066   -0.9871518   -0.9871518  -0.31833703  0.039975775   -0.9871518   0.66881477  1005253 
29973000   0.35638757  -0.98606253  -0.98606253  -0.31800415  0.045389105  -0.98606253   0.66805839  1005226 
29974000   0.35642829  -0.98568079  -0.98568079  -0.31752814  0.041028355  -0.98568079   0.66815265  1005199 
29975000   0.35656798  -0.98611896  -0.98611896  -0.31768649  0.044515834  -0.98611896   0.66843247  1005172 
29976000   0.35623099  -0.98596199  -0.98596199  -0.31814331  0.043794183  -0.98596199   0.66781868  1005145 
29977000    0.3563565  -0.98556739  -0.98556739  -0.31749549  0.044278149  -0.98556739   0.66807191  1005118 
29978000    0.3566297  -0.98570908  -0.98570908  -0.31710703  0.043181652  -0.98570908   0.66860204  1005091 
29979000   0.35613608   -0.9854698   -0.9854698  -0.31777524  0.044251054   -0.9854698   0.66769456  1005064 
29980000   0.35662651  -0.98600751  -0.98600751  -0.31737551  0.042544522  -0.98600751     0.668632  1005037 
29981000   0.35681242  -0.98666315  -0.98666315  -0.31766463  0.041677395  -0.98666315   0.66899852  1005010 
29982000   0.35588299  -0.98519692  -0.98519692   -0.3179231  0.043226964  -0.98519692   0.66727383  1004983 
29983000   0.35578698  -0.98602634  -0.98602634  -0.31891461  0.043578593  -0.98602634   0.66711173  1004956 
29984000   0.35612219  -0.98623447  -0.98623447  -0.31847626   0.04488237  -0.98623447   0.66775821  1004929 
29985000   0.35596124  -0.98552628  -0.98552628  -0.31805194  0.042908911  -0.98552628   0.66747434  1004902 
29986000   0.35580353  -0.98497051  -0.98497051  -0.31777397  0.044696701  -0.98497051   0.66719654  1004875 
29987000   0.35605733  -0.98483979  -0.98483979  -0.31714937  0.043709818  -0.98483979   0.66769042  1004848 
29988000   0.35606028  -0.98556758  -0.98556758  -0.31785369  0.042757692  -0.98556758   0.66771389  1004821 
29989000   0.35624104  -0.98547388  -0.98547388  -0.31740308  0.045553815  -0.98547388    0.6680708  1004794 
29990000   0.35586741  -0.98550403  -0.98550403  -0.31811597  0.044916666  -0.98550403   0.66738806  1004767 
29991000   0.35692875  -0.98597768  -0.98597768  -0.31658122  0.043951182  -0.98597768   0.66939646  1004740 
29992000   0.35594158  -0.98490954  -0.98490954  -0.31734649  0.044161701  -0.98490954   0.66756305  1004713 
29993000   0.35643236  -0.98525826  -0.98525826  -0.31675681  0.045189736  -0.98525826   0.66850145  1004686 
29994000   0.35572952  -0.98409234  -0.98409234  -0.31689117   0.04080839  -0.98409234   0.66720118  1004659 
29995000   0.35601878  -0.98464493  -0.98464493  -0.31688326  0.041366471  -0.98464493   0.66776167  1004632 
29996000   0.35596663  -0.98434849  -0.98434849  -0.31666671  0.043058956  -0.98434849   0.66768179  1004605 
29997000   0.35666625  -0.98508591  -0.98508591  -0.31607387  0.042147401  -0.98508591   0.66901204  1004578 
29998000   0.35613852  -0.98436022  -0.98436022  -0.31632011  0.044434553  -0.98436022   0.66804011  1004551 
29999000   0.35582939   -0.9838217   -0.9838217  -0.31634351  0.043771227   -0.9838217   0.66747819  1004524 
30000000   0.35576687  -0.98392083  -0.98392083  -0.31654198  0.044493822  -0.98392083   0.66737885  1004497 
Loop time of 56802.9 on 768 procs for 30000000 steps with 1004497 atoms

Performance: 228157.429 tau/day, 528.142 timesteps/s
89.0% CPU use with 768 MPI tasks x 1 OpenMP threads

MPI task timing breakdown:
Section |  min time  |  avg time  |  max time  |%varavg|  %CPU | %total
-----------------------------------------------------------------------
Pair    | 2290.9     | 8901.3     | 15961      |3601.4 |  91.2 | 15.67
Bond    | 19.286     | 20.45      | 21.952     |   9.9 | 100.0 |  0.04
Neigh   | 3006.6     | 10841      | 15112      |2805.1 |  98.2 | 19.09
Comm    | 14120      | 21295      | 31376      |2428.0 |  86.9 | 37.49
Output  | 3154.1     | 3161.5     | 3172.3     |   9.3 |  78.6 |  5.57
Modify  | 8930.3     | 11854      | 22491      |2686.5 |  86.7 | 20.87
Other   |            | 730        |            |       |       |  1.29

Nlocal:        1307.94 ave        3719 max         124 min
Histogram: 18 33 87 564 60 3 1 0 1 1
Nghost:        5637.24 ave       10230 max         913 min
Histogram: 133 16 40 49 54 80 165 170 54 7
Neighs:        11996.1 ave       36443 max         612 min
Histogram: 134 100 137 159 123 52 33 16 9 5

Total # of neighbors = 9213027
Ave neighs/atom = 9.1717815
Ave special neighs/atom = 0.0000000
Neighbor list builds = 3262701
Dangerous builds = 2422701

Total wall time: 15:46:58
