LAMMPS (24 Dec 2020)
OMP_NUM_THREADS environment is not set. Defaulting to 1 thread. (src/comm.cpp:94)
  using 1 OpenMP thread(s) per MPI task
# Simple rigid body system
# needed variables:

#variable	startTemp equal 0.5
#variable 	temp 	  equal 0.8

units		lj
atom_style	full
dimension 	3
boundary	p p f
pair_style	lj/smooth/linear 1.5

variable 	sigma		equal 1.0
variable 	epsilon 	equal 1.0

region		box block 0 80 0 80 0 160
create_box 	3 box
Created orthogonal box = (0.0000000 0.0000000 0.0000000) to (80.000000 80.000000 160.00000)
  2 by 3 by 8 MPI processor grid



lattice 	sc 0.66
Lattice spacing in x,y,z = 1.1485556 1.1485556 1.1485556
region		fluid block EDGE EDGE EDGE EDGE 2 100 units box
create_atoms 	1 region fluid
Created 421400 atoms
  create_atoms CPU = 0.009 seconds

lattice 	sc 0.045
Lattice spacing in x,y,z = 2.8114422 2.8114422 2.8114422
region		gas block EDGE EDGE EDGE EDGE 101 158 units box
create_atoms    1 region gas
Created 17661 atoms
  create_atoms CPU = 0.005 seconds

group		solvent type 1
439061 atoms in group solvent

mass		1 1.0
mass		2 1.0
mass		3 1.0



neighbor 	0.4 bin

pair_coeff	1 1 1.0 1.0
pair_coeff	2 2 0.0 0.0
pair_coeff	3 3 0.0 0.0
pair_coeff	2 3 0.0 0.0
pair_coeff	1 2*3 0.0 0.0

pair_modify 	shift yes

delete_atoms	overlap 0.5 solvent solvent
System init for delete_atoms ...
Neighbor list info ...
  update every 1 steps, delay 10 steps, check yes
  max neighbors/atom: 2000, page size: 100000
  master list distance cutoff = 1.9
  ghost atom cutoff = 1.9
  binsize = 0.95, bins = 85 85 169
  2 neighbor lists, perpetual/occasional/extra = 1 1 0
  (1) command delete_atoms, occasional
      attributes: full, newton on
      pair build: full/bin
      stencil: full/bin/3d
      bin: standard
  (2) pair lj/smooth/linear, perpetual
      attributes: half, newton on
      pair build: half/bin/newton
      stencil: half/bin/3d/newton
      bin: standard
WARNING: Ignoring 'compress yes' for molecular system (src/delete_atoms.cpp:125)
Deleted 0 atoms, new total = 439061

velocity 	solvent create ${startTemp} 563435 loop geom
velocity 	solvent create 1.0 563435 loop geom

balance 	1.05 shift z 10 1.05
Balancing ...
Neighbor list info ...
  update every 1 steps, delay 10 steps, check yes
  max neighbors/atom: 2000, page size: 100000
  master list distance cutoff = 1.9
  ghost atom cutoff = 1.9
  binsize = 0.95, bins = 85 85 169
  1 neighbor lists, perpetual/occasional/extra = 1 0 0
  (1) pair lj/smooth/linear, perpetual
      attributes: half, newton on
      pair build: half/bin/newton
      stencil: half/bin/3d/newton
      bin: standard
 rebalancing time: 0.012 seconds
  iteration count = 5
  initial/final maximal load/proc = 15120.000 10920.000
  initial/final imbalance factor  = 1.6529822 1.1938204
  x cuts: 0.0000000 0.50000000 1.0000000
  y cuts: 0.0000000 0.33333333 0.66666667 1.0000000
  z cuts: 0.0000000 0.089843750 0.17578125 0.25390625 0.33593750 0.41406250 0.50390625 0.58203125 1.0000000


####################### WALLS ###########################


variable       epsilonWall equal 2*${epsilon}
variable       epsilonWall equal 2*1

variable       cutoffTop   equal   0.7147*${sigma}
variable       cutoffTop   equal   0.7147*1

variable       cutoffLow   equal   3*${sigma}
variable       cutoffLow   equal   3*1


fix            topWall all wall/lj93 zhi EDGE                ${epsilonWall} ${sigma} ${cutoffTop} units box
fix            topWall all wall/lj93 zhi EDGE                2 ${sigma} ${cutoffTop} units box
fix            topWall all wall/lj93 zhi EDGE                2 1 ${cutoffTop} units box
fix            topWall all wall/lj93 zhi EDGE                2 1 0.7147 units box

fix            lowWall all wall/lj93 zlo EDGE                ${epsilonWall} ${sigma} ${cutoffLow} units box
fix            lowWall all wall/lj93 zlo EDGE                2 ${sigma} ${cutoffLow} units box
fix            lowWall all wall/lj93 zlo EDGE                2 1 ${cutoffLow} units box
fix            lowWall all wall/lj93 zlo EDGE                2 1 3 units box


###################### COMPUTES ##########################

compute        bin1 solvent chunk/atom bin/1d z upper 1.0


######################	FIXES ############################


fix 		peclet solvent ave/chunk 1000 1 1000 bin1 density/number norm 		 none ave one file density.profile

fix 		 temp solvent ave/chunk 1000 1 1000 bin1 temp norm 		 none ave one file temp.profile

fix 		2 solvent nve


## Thermostat


region		regthermo block EDGE EDGE EDGE EDGE 0 20 units box

group 		thermo dynamic solvent region regthermo every 1000
dynamic group thermo defined

fix 		3 thermo langevin ${startTemp} ${temp} 10 156453
fix 		3 thermo langevin 1.0 ${temp} 10 156453
fix 		3 thermo langevin 1.0 1.0 10 156453



#### Load balancing


fix 		bal all balance 1000 1.05 shift z 10 1.05


############### Diagnostics and computes ###################
#compute 	com cube	  rigid/local	1 mol x y z
#compute 	quat cube	  rigid/local	1 mol quatw quati quatj quatk

thermo 		1000
thermo_style 	custom step temp epair evdwl etotal press pe ke atoms

dump		1 all custom 100000 dump.lammpstrj id mol type x y z
dump 		2 all image 10000 image.*.png type type
dump 		3 all movie 1000 movie.avi type type

#dump 		com cube local 1000 dump.*.xyz c_com[*]
#dump		quat cube      local 1000 dump.*.quat c_quat[*]


restart 	1000000 restart.dat
timestep 	0.005
timer 		full
New timer settings: style=full  mode=nosync  timeout=off

run		3000000
Per MPI rank memory allocation (min/avg/max) = 11.24 | 15.17 | 17.59 Mbytes
Step Temp E_pair E_vdwl TotEng Press PotEng KinEng Atoms 
       0            1    2.1636708    2.1636708    3.6636674    5.8516817    2.1636708    1.4999966   439061 
    1000    1.9946985   0.20262392   0.20262392    3.1946648     3.278442   0.20262392    2.9920409   439061 
    2000    2.0230494 -0.015042338 -0.015042338    3.0195248    2.4104558 -0.015042338    3.0345671   439061 
    3000    1.9831673  -0.08684896  -0.08684896    2.8878952     2.025665  -0.08684896    2.9747442   439061 
    4000    1.9747907  -0.13107993  -0.13107993    2.8310993     1.770173  -0.13107993    2.9621793   439061 
    5000    1.9673577  -0.11014093  -0.11014093    2.8408889    1.7270842  -0.11014093    2.9510298   439061 
    6000    1.9578994 -0.061783424 -0.061783424     2.875059    1.8021421 -0.061783424    2.9368425   439061 
    7000    1.9481056 -0.011290276 -0.011290276    2.9108615    1.9219385 -0.011290276    2.9221518   439061 
    8000    1.9381476  0.034774123  0.034774123    2.9419889    2.0458827  0.034774123    2.9072147   439061 
    9000     1.942029  0.054452093  0.054452093    2.9674889    2.1263266  0.054452093    2.9130368   439061 
   10000     1.962608  0.045125197  0.045125197    2.9890305    2.1008915  0.045125197    2.9439053   439061 
   11000    1.9769437  0.040290032  0.040290032    3.0056988    2.0976539  0.040290032    2.9654088   439061 
   12000     2.000461  0.019888623  0.019888623    3.0205733    2.0524128  0.019888623    3.0006846   439061 
   13000    1.9986769 0.0018880115 0.0018880115    2.9998965    1.9853041 0.0018880115    2.9980085   439061 
   14000    1.9442805 -0.015943542 -0.015943542    2.9004706    1.8919643 -0.015943542    2.9164142   439061 
   15000    1.8529342 -0.014205289 -0.014205289    2.7651897    1.8928608 -0.014205289     2.779395   439061 
   16000    1.7647935 -0.013122649 -0.013122649    2.6340615    1.9095989 -0.013122649    2.6471842   439061 
   17000    1.7043209 -0.016064291 -0.016064291    2.5404113     1.905406 -0.016064291    2.5564756   439061 
   18000    1.6736182 -0.024846379 -0.024846379    2.4855753    1.8747899 -0.024846379    2.5104216   439061 
   19000    1.6585639 -0.032259217 -0.032259217    2.4555809     1.844385 -0.032259217    2.4878402   439061 
   20000    1.6552576 -0.039608417 -0.039608417    2.4432723    1.8196832 -0.039608417    2.4828807   439061 
   21000     1.657766 -0.047007973 -0.047007973    2.4396353    1.7869579 -0.047007973    2.4866433   439061 
   22000    1.6644947 -0.051945863 -0.051945863    2.4447905    1.7401102 -0.051945863    2.4967364   439061 
   23000    1.6750273 -0.060953063 -0.060953063    2.4515821    1.6835987 -0.060953063    2.5125352   439061 
   24000    1.6767204 -0.054015997 -0.054015997    2.4610588    1.6791444 -0.054015997    2.5150748   439061 
   25000    1.6802659 -0.047501169 -0.047501169    2.4728919    1.6867983 -0.047501169    2.5203931   439061 
   26000    1.6827278 -0.040052924 -0.040052924     2.484033    1.7034665 -0.040052924    2.5240859   439061 
   27000    1.6896251 -0.037248774 -0.037248774    2.4971832    1.7087756 -0.037248774    2.5344319   439061 
   28000    1.6964959  -0.03470921  -0.03470921    2.5100289    1.7142821  -0.03470921    2.5447381   439061 
   29000     1.703956 -0.032616102 -0.032616102    2.5233121    1.7229369 -0.032616102    2.5559282   439061 
   30000    1.7106916 -0.029054841 -0.029054841    2.5369766    1.7416916 -0.029054841    2.5660315   439061 
   31000    1.7181412 -0.030232134 -0.030232134    2.5469738      1.74871 -0.030232134     2.577206   439061 
   32000    1.7090353 -0.035193216 -0.035193216    2.5283538    1.7395665 -0.035193216     2.563547   439061 
   33000    1.6836834 -0.039042649 -0.039042649    2.4864767    1.7367737 -0.039042649    2.5255193   439061 
   34000    1.6591285  -0.04215371  -0.04215371    2.4465334    1.7345366  -0.04215371    2.4886871   439061 
   35000    1.6412236 -0.044357012 -0.044357012    2.4174728    1.7305456 -0.044357012    2.4618298   439061 
   36000    1.6297366 -0.046538965 -0.046538965    2.3980604    1.7256436 -0.046538965    2.4445994   439061 
   37000    1.6229292 -0.049495669 -0.049495669    2.3848926    1.7155146 -0.049495669    2.4343882   439061 
   38000    1.6180487 -0.048900738 -0.048900738    2.3781668     1.714272 -0.048900738    2.4270676   439061 
   39000    1.6179568 -0.051239226 -0.051239226    2.3756905    1.6993805 -0.051239226    2.4269297   439061 
   40000    1.6193465 -0.053609112 -0.053609112    2.3754051    1.6814046 -0.053609112    2.4290142   439061 
   41000    1.6224967 -0.055091356 -0.055091356    2.3786482     1.668127 -0.055091356    2.4337395   439061 
   42000    1.6241529 -0.051277444 -0.051277444    2.3849464    1.6686089 -0.051277444    2.4362238   439061 
   43000    1.6284709  -0.05322765  -0.05322765    2.3894731    1.6568974  -0.05322765    2.4427007   439061 
   44000     1.631148 -0.051654258 -0.051654258    2.3950622    1.6555791 -0.051654258    2.4467165   439061 
   45000    1.6345974 -0.050745519 -0.050745519     2.401145    1.6536467 -0.050745519    2.4518905   439061 
   46000    1.6369524 -0.047517067 -0.047517067    2.4079059    1.6628818 -0.047517067     2.455423   439061 
   47000    1.6406093  -0.04536452  -0.04536452    2.4155439    1.6705326  -0.04536452    2.4609084   439061 
   48000     1.644484 -0.043915205 -0.043915205    2.4228052    1.6771599 -0.043915205    2.4667204   439061 
   49000    1.6474921 -0.043575654 -0.043575654    2.4276569    1.6846537 -0.043575654    2.4712326   439061 
   50000    1.6435503 -0.046593902 -0.046593902     2.418726    1.6818593 -0.046593902    2.4653199   439061 
   51000    1.6326583 -0.047935674 -0.047935674    2.4010462    1.6813361 -0.047935674    2.4489819   439061 
   52000    1.6221766 -0.050448086 -0.050448086    2.3828112    1.6815425 -0.050448086    2.4332593   439061 
   53000    1.6119533 -0.049864171 -0.049864171    2.3680602    1.6839253 -0.049864171    2.4179244   439061 
   54000    1.6064586 -0.053050444 -0.053050444     2.356632    1.6772187 -0.053050444    2.4096824   439061 
   55000     1.601802 -0.053587891 -0.053587891    2.3491097    1.6752512 -0.053587891    2.4026976   439061 
   56000    1.5992695 -0.052356386 -0.052356386    2.3465424    1.6762197 -0.052356386    2.3988988   439061 
   57000    1.5973104 -0.054052634 -0.054052634    2.3419076    1.6688717 -0.054052634    2.3959602   439061 
   58000    1.5982978 -0.055428462 -0.055428462    2.3420128    1.6613079 -0.055428462    2.3974412   439061 
   59000    1.5994616 -0.056960222 -0.056960222    2.3422267    1.6475554 -0.056960222    2.3991869   439061 
   60000     1.600308 -0.056958643 -0.056958643    2.3434979    1.6433305 -0.056958643    2.4004565   439061 
   61000    1.6014398 -0.054631689 -0.054631689    2.3475225    1.6443487 -0.054631689    2.4021542   439061 
   62000    1.6028919 -0.054081386 -0.054081386    2.3502509    1.6415299 -0.054081386    2.4043323   439061 
   63000    1.6059736 -0.054575971 -0.054575971    2.3543789    1.6372005 -0.054575971    2.4089549   439061 
   64000    1.6064037 -0.050358468 -0.050358468    2.3592417    1.6470273 -0.050358468    2.4096001   439061 
   65000    1.6108034  -0.05163818  -0.05163818    2.3645614    1.6454316  -0.05163818    2.4161996   439061 
   66000     1.614388 -0.052108978 -0.052108978    2.3694675    1.6479952 -0.052108978    2.4215765   439061 
   67000    1.6149154 -0.050874157 -0.050874157    2.3714934    1.6552145 -0.050874157    2.4223675   439061 
   68000    1.6141665 -0.052963908 -0.052963908    2.3682803    1.6531359 -0.052963908    2.4212442   439061 
   69000    1.6063758 -0.051613514 -0.051613514    2.3579446    1.6586605 -0.051613514    2.4095582   439061 
   70000    1.5999644 -0.053705712 -0.053705712    2.3462354    1.6552362 -0.053705712    2.3999411   439061 
   71000    1.5961436 -0.056874582 -0.056874582    2.3373354    1.6488486 -0.056874582      2.39421   439061 
   72000    1.5910976 -0.057072699 -0.057072699    2.3295683    1.6478356 -0.057072699     2.386641   439061 
   73000    1.5886981 -0.057826373 -0.057826373    2.3252153    1.6459614 -0.057826373    2.3830417   439061 
   74000    1.5871445 -0.058071425 -0.058071425    2.3226399     1.646132 -0.058071425    2.3807113   439061 
   75000    1.5846904 -0.057589601 -0.057589601    2.3194406    1.6434576 -0.057589601    2.3770302   439061 
   76000    1.5851284 -0.058495488 -0.058495488    2.3191917    1.6379587 -0.058495488    2.3776872   439061 
   77000     1.584781 -0.058404075 -0.058404075     2.318762    1.6370567 -0.058404075    2.3771661   439061 
   78000    1.5866941 -0.059037162 -0.059037162    2.3209986    1.6317741 -0.059037162    2.3800357   439061 
   79000    1.5854797 -0.057690685 -0.057690685    2.3205235    1.6302528 -0.057690685    2.3782142   439061 
   80000    1.5859379 -0.058099145 -0.058099145    2.3208023    1.6275927 -0.058099145    2.3789014   439061 
   81000    1.5870884 -0.058422031 -0.058422031    2.3222051    1.6241994 -0.058422031    2.3806272   439061 
   82000     1.587654 -0.056678601 -0.056678601     2.324797    1.6273644 -0.056678601    2.3814756   439061 
   83000    1.5879312 -0.054580682 -0.054580682    2.3273107    1.6333185 -0.054580682    2.3818914   439061 
   84000    1.5911735 -0.056519133 -0.056519133    2.3302357    1.6293613 -0.056519133    2.3867549   439061 
   85000    1.5913581 -0.055528492 -0.055528492    2.3315032     1.633748 -0.055528492    2.3870317   439061 
   86000    1.5901269 -0.055331518 -0.055331518    2.3298534    1.6357946 -0.055331518    2.3851849   439061 
   87000    1.5854715 -0.053930749 -0.053930749     2.324271    1.6402704 -0.053930749    2.3782018   439061 
   88000    1.5822224 -0.055513217 -0.055513217     2.317815    1.6374757 -0.055513217    2.3733282   439061 
   89000    1.5800595 -0.057958785 -0.057958785     2.312125    1.6354246 -0.057958785    2.3700838   439061 
   90000      1.57673 -0.059300248 -0.059300248    2.3057894    1.6310311 -0.059300248    2.3650897   439061 
   91000    1.5741679 -0.060483189 -0.060483189    2.3007634    1.6264627 -0.060483189    2.3612465   439061 
   92000    1.5710912 -0.059845713 -0.059845713    2.2967857    1.6273615 -0.059845713    2.3566314   439061 
   93000     1.568845 -0.057796789 -0.057796789    2.2954653    1.6318577 -0.057796789    2.3532621   439061 
   94000    1.5704231 -0.061004455 -0.061004455    2.2946248    1.6224738 -0.061004455    2.3556292   439061 
   95000    1.5701873 -0.061460253 -0.061460253    2.2938154    1.6188051 -0.061460253    2.3552756   439061 
   96000    1.5701378 -0.060236928 -0.060236928    2.2949644    1.6204967 -0.060236928    2.3552014   439061 
   97000    1.5717173 -0.061637134 -0.061637134    2.2959334    1.6109832 -0.061637134    2.3575705   439061 
   98000    1.5718281 -0.060988498 -0.060988498    2.2967482    1.6151199 -0.060988498    2.3577367   439061 
   99000    1.5721824 -0.060396167 -0.060396167     2.297872    1.6131263 -0.060396167    2.3582682   439061 
  100000    1.5720131 -0.059637007 -0.059637007    2.2983772    1.6127175 -0.059637007    2.3580142   439061 
  101000    1.5716504 -0.059365332 -0.059365332    2.2981049    1.6169078 -0.059365332    2.3574702   439061 
  102000    1.5717983 -0.060363116 -0.060363116    2.2973289    1.6133335 -0.060363116     2.357692   439061 
  103000    1.5721019 -0.061174795 -0.061174795    2.2969727    1.6120022 -0.061174795    2.3581475   439061 
  104000    1.5693923 -0.058866193 -0.058866193    2.2952168    1.6206872 -0.058866193     2.354083   439061 
  105000    1.5683029 -0.060162423 -0.060162423    2.2922866    1.6166864 -0.060162423     2.352449   439061 
  106000     1.566719 -0.059906399 -0.059906399    2.2901668    1.6158766 -0.059906399    2.3500732   439061 
  107000      1.56516 -0.059982137 -0.059982137    2.2877525    1.6198023 -0.059982137    2.3477347   439061 
  108000    1.5651034 -0.063091129 -0.063091129    2.2845586    1.6134179 -0.063091129    2.3476497   439061 
  109000    1.5611244 -0.061348844 -0.061348844    2.2803324    1.6161531 -0.061348844    2.3416812   439061 
  110000    1.5589047 -0.062483233 -0.062483233    2.2758685    1.6106377 -0.062483233    2.3383517   439061 
  111000    1.5565958 -0.063068281 -0.063068281    2.2718201     1.608477 -0.063068281    2.3348884   439061 
  112000    1.5554647 -0.062737942 -0.062737942    2.2704538    1.6083606 -0.062737942    2.3331917   439061 
  113000    1.5541699 -0.060978686 -0.060978686    2.2702708    1.6105608 -0.060978686    2.3312495   439061 
  114000     1.555202 -0.062797426 -0.062797426    2.2700003     1.605102 -0.062797426    2.3327977   439061 
  115000    1.5556287 -0.064146483 -0.064146483    2.2692912    1.5992382 -0.064146483    2.3334377   439061 
  116000    1.5553843 -0.063292428 -0.063292428    2.2697786    1.6008777 -0.063292428    2.3330711   439061 
  117000    1.5565625 -0.064206387 -0.064206387    2.2706321    1.5989505 -0.064206387    2.3348385   439061 
  118000    1.5557837 -0.061982932 -0.061982932    2.2716873    1.6030123 -0.061982932    2.3336702   439061 
  119000    1.5564318 -0.061000409 -0.061000409     2.273642    1.6062604 -0.061000409    2.3346424   439061 
  120000    1.5573588 -0.063183011 -0.063183011    2.2728498    1.5992298 -0.063183011    2.3360328   439061 
  121000    1.5573156 -0.062783238 -0.062783238    2.2731849    1.6012905 -0.062783238    2.3359681   439061 
  122000    1.5546522 -0.061364704 -0.061364704    2.2706082    1.6044624 -0.061364704    2.3319729   439061 
  123000    1.5548744 -0.064763646 -0.064763646    2.2675426    1.5983507 -0.064763646    2.3323063   439061 
  124000    1.5534108 -0.063513634 -0.063513634    2.2665973    1.6017729 -0.063513634    2.3301109   439061 
  125000     1.551005 -0.062279392 -0.062279392    2.2642227    1.6037652 -0.062279392    2.3265021   439061 
  126000    1.5502088 -0.064099313 -0.064099313    2.2612086    1.6009392 -0.064099313     2.325308   439061 
  127000    1.5482347 -0.065367527 -0.065367527    2.2569792    1.5974533 -0.065367527    2.3223467   439061 
  128000    1.5466185 -0.064019365 -0.064019365    2.2559031     1.599949 -0.064019365    2.3199225   439061 
  129000    1.5456961 -0.065610835 -0.065610835     2.252928    1.5945768 -0.065610835    2.3185388   439061 
  130000    1.5434289 -0.063244347 -0.063244347    2.2518937    1.5983478 -0.063244347    2.3151381   439061 
  131000    1.5442111 -0.064660716 -0.064660716    2.2516507     1.595663 -0.064660716    2.3163114   439061 
  132000    1.5434487 -0.063382858 -0.063382858    2.2517849    1.5956135 -0.063382858    2.3151677   439061 
  133000    1.5446434  -0.06618765  -0.06618765    2.2507722    1.5887404  -0.06618765    2.3169598   439061 
  134000    1.5445756  -0.06624796  -0.06624796    2.2506101    1.5884813  -0.06624796    2.3168581   439061 
  135000     1.541855 -0.064657159 -0.064657159    2.2481201    1.5903946 -0.064657159    2.3127772   439061 
  136000    1.5416423  -0.06451402  -0.06451402    2.2479442    1.5915102  -0.06451402    2.3124582   439061 
  137000    1.5420257 -0.065421411 -0.065421411    2.2476119    1.5868125 -0.065421411    2.3130333   439061 
  138000    1.5423767  -0.06540893  -0.06540893    2.2481509    1.5874329  -0.06540893    2.3135598   439061 
  139000    1.5422066 -0.066373897 -0.066373897    2.2469308    1.5868353 -0.066373897    2.3133047   439061 
  140000    1.5407247  -0.06526696  -0.06526696    2.2458148    1.5891187  -0.06526696    2.3110818   439061 
  141000     1.539569 -0.066086017 -0.066086017    2.2432622    1.5894266 -0.066086017    2.3093482   439061 
  142000    1.5399613 -0.066037049 -0.066037049    2.2438997    1.5887642 -0.066037049    2.3099367   439061 
  143000    1.5396365 -0.066853416 -0.066853416    2.2425961    1.5868908 -0.066853416    2.3094495   439061 
  144000    1.5368909 -0.066270838 -0.066270838    2.2390603    1.5867537 -0.066270838    2.3053311   439061 
  145000    1.5347687 -0.065067368 -0.065067368    2.2370805    1.5892611 -0.065067368    2.3021479   439061 
  146000    1.5349383 -0.066590522 -0.066590522    2.2358117    1.5854341 -0.066590522    2.3024023   439061 
  147000    1.5334125 -0.066122007 -0.066122007    2.2339916    1.5867536 -0.066122007    2.3001136   439061 
  148000    1.5321954 -0.065786979 -0.065786979    2.2325008    1.5860469 -0.065786979    2.2982878   439061 
  149000    1.5325228 -0.068063363 -0.068063363    2.2307155    1.5782925 -0.068063363    2.2987789   439061 
  150000    1.5312688 -0.066167633 -0.066167633    2.2307303    1.5838414 -0.066167633    2.2968979   439061 
  151000    1.5314449 -0.067142174 -0.067142174    2.2300199     1.579609 -0.067142174    2.2971621   439061 
  152000    1.5310723 -0.066777279 -0.066777279     2.229826    1.5800001 -0.066777279    2.2966033   439061 
  153000    1.5302692 -0.065928909 -0.065928909    2.2294697    1.5825226 -0.065928909    2.2953986   439061 
  154000    1.5302772 -0.066336877 -0.066336877    2.2290737    1.5790988 -0.066336877    2.2954106   439061 
  155000    1.5299082 -0.066834866 -0.066834866    2.2280222    1.5779499 -0.066834866     2.294857   439061 
  156000    1.5296703  -0.06602337  -0.06602337    2.2284769    1.5814419  -0.06602337    2.2945002   439061 
  157000    1.5299378 -0.068350818 -0.068350818    2.2265507    1.5753815 -0.068350818    2.2949015   439061 
  158000    1.5283288  -0.06693418  -0.06693418    2.2255538    1.5781549  -0.06693418     2.292488   439061 
  159000    1.5276962 -0.068180039 -0.068180039    2.2233591    1.5740274 -0.068180039    2.2915391   439061 
  160000    1.5258218 -0.067318284 -0.067318284    2.2214092    1.5783589 -0.067318284    2.2887275   439061 
  161000    1.5246756 -0.066727477 -0.066727477    2.2202807    1.5791505 -0.066727477    2.2870082   439061 
  162000    1.5230576 -0.068298817 -0.068298817    2.2162824    1.5750765 -0.068298817    2.2845812   439061 
  163000    1.5225056 -0.068801641 -0.068801641    2.2149516    1.5722381 -0.068801641    2.2837532   439061 
  164000    1.5215876 -0.067963998 -0.067963998    2.2144122    1.5739026 -0.067963998    2.2823762   439061 
  165000    1.5205197  -0.06742255  -0.06742255    2.2133518    1.5767455  -0.06742255    2.2807743   439061 
  166000    1.5204626 -0.067664696 -0.067664696     2.213024    1.5762752 -0.067664696    2.2806887   439061 
  167000    1.5209929 -0.069904159 -0.069904159    2.2115799    1.5705756 -0.069904159    2.2814841   439061 
  168000    1.5191447 -0.068221517 -0.068221517    2.2104904    1.5720688 -0.068221517    2.2787119   439061 
  169000    1.5203532 -0.070033295 -0.070033295    2.2104913    1.5661989 -0.070033295    2.2805246   439061 
  170000     1.519484 -0.068088339 -0.068088339    2.2111325    1.5714117 -0.068088339    2.2792208   439061 
  171000    1.5201671 -0.068035299 -0.068035299    2.2122101    1.5699922 -0.068035299    2.2802454   439061 
  172000    1.5198888 -0.070510929 -0.070510929    2.2093171    1.5648424 -0.070510929     2.279828   439061 
  173000    1.5177996 -0.068507101 -0.068507101    2.2081871    1.5685929 -0.068507101    2.2766942   439061 
  174000    1.5183054 -0.069389229 -0.069389229    2.2080637    1.5672803 -0.069389229     2.277453   439061 
  175000    1.5177839 -0.069230101 -0.069230101    2.2074406    1.5673019 -0.069230101    2.2766707   439061 
  176000    1.5157356 -0.068027281 -0.068027281    2.2055709    1.5692012 -0.068027281    2.2735982   439061 
  177000     1.517039 -0.070652895 -0.070652895    2.2049004    1.5627947 -0.070652895    2.2755533   439061 
  178000    1.5153898 -0.068950433 -0.068950433    2.2041291    1.5669275 -0.068950433    2.2730795   439061 
  179000    1.5166764 -0.071701642 -0.071701642    2.2033078    1.5597875 -0.071701642    2.2750095   439061 
  180000    1.5142998 -0.069871277 -0.069871277    2.2015733    1.5636566 -0.069871277    2.2714446   439061 
  181000    1.5132161 -0.069206421 -0.069206421    2.2006126    1.5672447 -0.069206421     2.269819   439061 
  182000    1.5120995 -0.069784834 -0.069784834    2.1983592    1.5648835 -0.069784834     2.268144   439061 
  183000     1.511846  -0.07040036  -0.07040036    2.1973635    1.5618216  -0.07040036    2.2677638   439061 
  184000    1.5100021  -0.07012083  -0.07012083    2.1948772    1.5620358  -0.07012083    2.2649981   439061 
  185000    1.5094701  -0.07135756  -0.07135756    2.1928425    1.5578951  -0.07135756       2.2642   439061 
  186000    1.5098253 -0.072071021 -0.072071021    2.1926618    1.5548116 -0.072071021    2.2647328   439061 
  187000    1.5081104 -0.069956618 -0.069956618    2.1922039    1.5613856 -0.069956618    2.2621605   439061 
  188000    1.5091865 -0.071684801 -0.071684801    2.1920899    1.5569446 -0.071684801    2.2637747   439061 
  189000    1.5087478 -0.072203498 -0.072203498    2.1909131    1.5525055 -0.072203498    2.2631166   439061 
  190000    1.5063614 -0.069118728 -0.069118728    2.1904182     1.562471 -0.069118728    2.2595369   439061 
  191000     1.507769 -0.071226256 -0.071226256    2.1904221    1.5563967 -0.071226256    2.2616484   439061 
  192000     1.507748 -0.073121009 -0.073121009    2.1884958    1.5514431 -0.073121009    2.2616168   439061 
  193000    1.5067564 -0.072891433 -0.072891433     2.187238    1.5516222 -0.072891433    2.2601295   439061 
  194000    1.5048736 -0.071092158 -0.071092158    2.1862131    1.5563691 -0.071092158    2.2573052   439061 
  195000    1.5070909 -0.073673408 -0.073673408    2.1869577    1.5503271 -0.073673408    2.2606311   439061 
  196000    1.5057646 -0.072290017 -0.072290017    2.1863517     1.553178 -0.072290017    2.2586417   439061 
  197000    1.5043999  -0.07232821  -0.07232821    2.1842665    1.5526486  -0.07232821    2.2565947   439061 
  198000    1.5044953 -0.073675211 -0.073675211    2.1830625    1.5493663 -0.073675211    2.2567378   439061 
  199000    1.5038053   -0.0728567   -0.0728567    2.1828462    1.5490226   -0.0728567    2.2557029   439061 
  200000    1.5019248  -0.07125834  -0.07125834    2.1816237    1.5545081  -0.07125834     2.252882   439061 
  201000    1.5021028 -0.072353866 -0.072353866    2.1807952    1.5512883 -0.072353866    2.2531491   439061 
  202000    1.5010791 -0.071903188 -0.071903188    2.1797103    1.5535544 -0.071903188    2.2516135   439061 
  203000    1.5003404 -0.073371661 -0.073371661    2.1771338    1.5483864 -0.073371661    2.2505054   439061 
  204000    1.4992955 -0.073173455 -0.073173455    2.1757646    1.5477007 -0.073173455    2.2489381   439061 
  205000    1.4961258 -0.071608925 -0.071608925    2.1725746     1.551729 -0.071608925    2.2441835   439061 
  206000    1.4963907 -0.072520148 -0.072520148    2.1720608     1.546584 -0.072520148     2.244581   439061 
  207000    1.4975627 -0.075484529 -0.075484529    2.1708545    1.5415558 -0.075484529     2.246339   439061 
  208000    1.4960889 -0.073546396 -0.073546396    2.1705819    1.5473807 -0.073546396    2.2441283   439061 
  209000    1.4966453 -0.074982582 -0.074982582    2.1699802    1.5410173 -0.074982582    2.2449628   439061 
  210000    1.4941795 -0.072760951 -0.072760951    2.1685031    1.5450224 -0.072760951    2.2412641   439061 
  211000    1.4932392 -0.072255953 -0.072255953    2.1675977    1.5462768 -0.072255953    2.2398536   439061 
  212000    1.4949828 -0.075222118 -0.075222118    2.1672469    1.5398383 -0.075222118     2.242469   439061 
  213000    1.4926708 -0.072012908 -0.072012908    2.1669882    1.5470725 -0.072012908    2.2390011   439061 
  214000    1.4921423 -0.072102987 -0.072102987    2.1661053    1.5473304 -0.072102987    2.2382083   439061 
  215000    1.4934623 -0.075052223 -0.075052223    2.1651362     1.541347 -0.075052223    2.2401884   439061 
  216000    1.4922481 -0.073977672 -0.073977672    2.1643894    1.5416973 -0.073977672    2.2383671   439061 
  217000    1.4911644 -0.074367742 -0.074367742    2.1623738    1.5403307 -0.074367742    2.2367416   439061 
  218000    1.4900954 -0.074388252 -0.074388252    2.1607497    1.5415406 -0.074388252     2.235138   439061 
  219000    1.4889787  -0.07396245  -0.07396245    2.1595005    1.5409286  -0.07396245     2.233463   439061 
  220000    1.4882069 -0.074475419 -0.074475419    2.1578299    1.5397684 -0.074475419    2.2323053   439061 
  221000    1.4874991 -0.074695409 -0.074695409    2.1565481    1.5373873 -0.074695409    2.2312435   439061 
  222000    1.4867043 -0.073722854 -0.073722854    2.1563286      1.54034 -0.073722854    2.2300514   439061 
  223000    1.4865319 -0.074962694 -0.074962694    2.1548301    1.5374541 -0.074962694    2.2297928   439061 
  224000    1.4858324 -0.075060339 -0.075060339    2.1536832    1.5363415 -0.075060339    2.2287435   439061 
  225000     1.486434 -0.075881908 -0.075881908     2.153764    1.5342868 -0.075881908    2.2296459   439061 
  226000    1.4862193 -0.074506133 -0.074506133    2.1548177    1.5357754 -0.074506133    2.2293239   439061 
  227000     1.486524 -0.076716572 -0.076716572    2.1530643    1.5315062 -0.076716572    2.2297809   439061 
  228000    1.4853911 -0.076291844 -0.076291844    2.1517898    1.5314029 -0.076291844    2.2280816   439061 
  229000    1.4838142 -0.074815213 -0.074815213     2.150901    1.5365584 -0.074815213    2.2257162   439061 
  230000    1.4838075 -0.074293055 -0.074293055    2.1514132     1.535651 -0.074293055    2.2257062   439061 
  231000    1.4839657 -0.075786309 -0.075786309    2.1501572    1.5333616 -0.075786309    2.2259435   439061 
  232000    1.4835332  -0.07674543  -0.07674543    2.1485492    1.5296005  -0.07674543    2.2252947   439061 
  233000    1.4817118 -0.075042421 -0.075042421    2.1475203    1.5320627 -0.075042421    2.2225627   439061 
  234000    1.4815635 -0.077347563 -0.077347563    2.1449926     1.527076 -0.077347563    2.2223401   439061 
  235000    1.4808876 -0.076543743 -0.076543743    2.1447826    1.5282052 -0.076543743    2.2213263   439061 
  236000    1.4802828  -0.07577258  -0.07577258    2.1446466    1.5322463  -0.07577258    2.2204192   439061 
  237000    1.4783117 -0.074953108 -0.074953108    2.1425094    1.5338665 -0.074953108    2.2174625   439061 
  238000    1.4783976 -0.075873716 -0.075873716    2.1417176    1.5289835 -0.075873716    2.2175913   439061 
  239000    1.4782251 -0.075921548 -0.075921548    2.1414111    1.5281642 -0.075921548    2.2173327   439061 
  240000    1.4780487 -0.078198007 -0.078198007      2.13887    1.5224281 -0.078198007    2.2170681   439061 
  241000    1.4767606 -0.076674411 -0.076674411    2.1384614    1.5265193 -0.076674411    2.2151358   439061 
  242000    1.4776955 -0.078505366 -0.078505366    2.1380329     1.522399 -0.078505366    2.2165382   439061 
  243000    1.4769738 -0.077726822 -0.077726822    2.1377288    1.5240286 -0.077726822    2.2154556   439061 
  244000    1.4764742 -0.076495208 -0.076495208     2.138211    1.5263433 -0.076495208    2.2147062   439061 
  245000    1.4748326 -0.075533945 -0.075533945      2.13671    1.5280482 -0.075533945    2.2122439   439061 
  246000    1.4748596 -0.076334502 -0.076334502    2.1359498    1.5259783 -0.076334502    2.2122843   439061 
  247000    1.4739575 -0.076586179 -0.076586179     2.134345    1.5241107 -0.076586179    2.2109312   439061 
  248000    1.4727906 -0.076210244 -0.076210244    2.1329706    1.5263494 -0.076210244    2.2091808   439061 
  249000    1.4737114 -0.077201503 -0.077201503    2.1333606    1.5231247 -0.077201503    2.2105621   439061 
  250000     1.473277 -0.078215215 -0.078215215    2.1316953    1.5198646 -0.078215215    2.2099105   439061 
  251000    1.4724047 -0.077668096 -0.077668096    2.1309339    1.5210311 -0.077668096     2.208602   439061 
  252000    1.4711981 -0.077660611 -0.077660611    2.1291315    1.5217153 -0.077660611    2.2067921   439061 
  253000     1.470529 -0.077914529 -0.077914529     2.127874    1.5195755 -0.077914529    2.2057885   439061 
  254000    1.4720876   -0.0794528   -0.0794528    2.1286735    1.5170498   -0.0794528    2.2081263   439061 
  255000    1.4703631 -0.077611959 -0.077611959    2.1279276    1.5210132 -0.077611959    2.2055396   439061 
  256000    1.4692602 -0.077200036 -0.077200036    2.1266853    1.5209572 -0.077200036    2.2038853   439061 
  257000    1.4697541 -0.077850536 -0.077850536    2.1267757    1.5182304 -0.077850536    2.2046262   439061 
  258000    1.4686203 -0.078388169 -0.078388169    2.1245372     1.517742 -0.078388169    2.2029254   439061 
  259000    1.4676686 -0.078402013 -0.078402013    2.1230959    1.5152308 -0.078402013    2.2014979   439061 
  260000    1.4657059 -0.077139202 -0.077139202    2.1214146    1.5194574 -0.077139202    2.1985538   439061 
  261000    1.4670051 -0.080391147 -0.080391147    2.1201114    1.5122987 -0.080391147    2.2005026   439061 
  262000    1.4639876 -0.077450066 -0.077450066    2.1185263    1.5177599 -0.077450066    2.1959764   439061 
  263000    1.4648202 -0.078367092 -0.078367092    2.1188583    1.5168271 -0.078367092    2.1972253   439061 
  264000     1.465137 -0.079361813 -0.079361813    2.1183387    1.5132737 -0.079361813    2.1977005   439061 
  265000    1.4650206 -0.080094434 -0.080094434    2.1174315    1.5126053 -0.080094434    2.1975259   439061 
  266000    1.4646467 -0.080312252 -0.080312252    2.1166528    1.5110783 -0.080312252    2.1969651   439061 
  267000     1.463709 -0.080010939 -0.080010939    2.1155476    1.5108379 -0.080010939    2.1955585   439061 
  268000    1.4619748 -0.078920061 -0.078920061    2.1140371    1.5132072 -0.078920061    2.1929572   439061 
  269000    1.4607433 -0.078089982 -0.078089982      2.11302    1.5143451 -0.078089982      2.19111   439061 
  270000    1.4612187 -0.079522842 -0.079522842    2.1123001    1.5107272 -0.079522842     2.191823   439061 
  271000    1.4595364 -0.078208454 -0.078208454    2.1110911    1.5123148 -0.078208454    2.1892996   439061 
  272000    1.4605899  -0.07978899  -0.07978899    2.1110909     1.510733  -0.07978899    2.1908799   439061 
  273000    1.4599241 -0.079963125 -0.079963125     2.109918    1.5089648 -0.079963125    2.1898811   439061 
  274000    1.4585123 -0.078885011 -0.078885011    2.1088784    1.5090864 -0.078885011    2.1877635   439061 
  275000    1.4574688 -0.078062603 -0.078062603    2.1081356    1.5124012 -0.078062603    2.1861982   439061 
  276000     1.458571 -0.079840827 -0.079840827    2.1080107     1.506348 -0.079840827    2.1878516   439061 
  277000    1.4569926 -0.078880043 -0.078880043    2.1066038    1.5104997 -0.078880043    2.1854839   439061 
  278000    1.4576287 -0.080939803 -0.080939803    2.1054982    1.5045907 -0.080939803     2.186438   439061 
  279000    1.4562506 -0.079234249 -0.079234249    2.1051367    1.5096915 -0.079234249    2.1843709   439061 
  280000    1.4556916 -0.078730831 -0.078730831    2.1048016    1.5096144 -0.078730831    2.1835324   439061 
  281000    1.4559918 -0.080714738 -0.080714738     2.103268    1.5047683 -0.080714738    2.1839827   439061 
  282000    1.4553102 -0.081428002 -0.081428002    2.1015324    1.5027221 -0.081428002    2.1829604   439061 
  283000    1.4536296 -0.079573433 -0.079573433     2.100866    1.5066369 -0.079573433    2.1804394   439061 
  284000    1.4528982 -0.078281513 -0.078281513    2.1010608     1.510952 -0.078281513    2.1793423   439061 
  285000    1.4533105 -0.080644723 -0.080644723     2.099316     1.502179 -0.080644723    2.1799607   439061 
  286000    1.4530459 -0.080810272 -0.080810272    2.0987537    1.5020167 -0.080810272     2.179564   439061 
  287000    1.4524129 -0.081391221 -0.081391221    2.0972232    1.5009524 -0.081391221    2.1786144   439061 
  288000     1.451167 -0.080589559 -0.080589559     2.096156    1.5039373 -0.080589559    2.1767455   439061 
  289000    1.4514012   -0.0810805   -0.0810805    2.0960164    1.5013194   -0.0810805    2.1770969   439061 
  290000    1.4500526 -0.079542119 -0.079542119    2.0955319    1.5024265 -0.079542119     2.175074   439061 
  291000    1.4514259  -0.08155921  -0.08155921    2.0955746    1.4995422  -0.08155921    2.1771339   439061 
  292000    1.4507503 -0.082274241 -0.082274241    2.0938463     1.496708 -0.082274241    2.1761205   439061 
  293000     1.448581   -0.0818773   -0.0818773    2.0909893    1.4980913   -0.0818773    2.1728666   439061 
  294000    1.4481468 -0.081244348 -0.081244348    2.0909709    1.4993903 -0.081244348    2.1722152   439061 
  295000    1.4479725 -0.081862579 -0.081862579    2.0900912    1.4989319 -0.081862579    2.1719538   439061 
  296000    1.4473151 -0.082052414 -0.082052414    2.0889152    1.4965916 -0.082052414    2.1709676   439061 
  297000    1.4463265  -0.08172573  -0.08172573    2.0877591     1.499251  -0.08172573    2.1694848   439061 
  298000    1.4453652 -0.080370414 -0.080370414    2.0876724      1.50128 -0.080370414    2.1680428   439061 
  299000    1.4474532 -0.082829546 -0.082829546    2.0883453    1.4935181 -0.082829546    2.1711749   439061 
  300000     1.445969 -0.082344203 -0.082344203    2.0866044    1.4958208 -0.082344203    2.1689486   439061 
  301000    1.4454022 -0.082671316 -0.082671316     2.085427    1.4934862 -0.082671316    2.1680983   439061 
  302000    1.4444079 -0.083244996 -0.083244996    2.0833619    1.4913607 -0.083244996    2.1666069   439061 
  303000    1.4413312 -0.080254145 -0.080254145    2.0817377    1.4992134 -0.080254145    2.1619918   439061 
  304000    1.4435225 -0.084096511 -0.084096511    2.0811823     1.488896 -0.084096511    2.1652788   439061 
  305000    1.4421449  -0.08412868  -0.08412868    2.0790838    1.4893076  -0.08412868    2.1632124   439061 
  306000    1.4410692 -0.083553595 -0.083553595    2.0780453    1.4893122 -0.083553595    2.1615989   439061 
  307000    1.4403977 -0.084272707 -0.084272707    2.0763189    1.4858577 -0.084272707    2.1605916   439061 
  308000    1.4406127 -0.084290392 -0.084290392    2.0766238    1.4868445 -0.084290392    2.1609142   439061 
  309000    1.4395038 -0.083682289 -0.083682289    2.0755685    1.4887681 -0.083682289    2.1592508   439061 
  310000    1.4389333 -0.083206914 -0.083206914    2.0751881    1.4878445 -0.083206914     2.158395   439061 
  311000    1.4373963 -0.082255583 -0.082255583    2.0738339    1.4913597 -0.082255583    2.1560895   439061 
  312000    1.4383498 -0.083514225 -0.083514225    2.0740056    1.4919778 -0.083514225    2.1575198   439061 
  313000    1.4377978 -0.083312784 -0.083312784    2.0733791    1.4887884 -0.083312784    2.1566918   439061 
  314000    1.4379848 -0.083416077 -0.083416077    2.0735561     1.490461 -0.083416077    2.1569722   439061 
  315000    1.4375279 -0.084255877 -0.084255877     2.072031    1.4864342 -0.084255877    2.1562869   439061 
  316000    1.4362287 -0.083201995 -0.083201995    2.0711362    1.4884449 -0.083201995    2.1543382   439061 
  317000    1.4350255 -0.082730279 -0.082730279    2.0698031    1.4901926 -0.082730279    2.1525334   439061 
  318000    1.4336872 -0.082352275 -0.082352275    2.0681737    1.4887985 -0.082352275    2.1505259   439061 
  319000    1.4343892  -0.08495299  -0.08495299    2.0666259    1.4823388  -0.08495299    2.1515789   439061 
  320000     1.433569 -0.085118489 -0.085118489    2.0652301    1.4818456 -0.085118489    2.1503486   439061 
  321000       1.4338 -0.084554537 -0.084554537    2.0661406    1.4825227 -0.084554537    2.1506951   439061 
  322000    1.4335088 -0.084307089 -0.084307089    2.0659513    1.4832276 -0.084307089    2.1502584   439061 
  323000    1.4346885 -0.085858688 -0.085858688    2.0661691    1.4794951 -0.085858688    2.1520278   439061 
  324000    1.4335317 -0.086053096 -0.086053096    2.0642396    1.4797293 -0.086053096    2.1502927   439061 
  325000    1.4327132 -0.084713083 -0.084713083    2.0643519    1.4818941 -0.084713083    2.1490649   439061 
  326000    1.4315634 -0.084068337 -0.084068337    2.0632718    1.4830538 -0.084068337    2.1473402   439061 
  327000    1.4315526 -0.085542505 -0.085542505    2.0617815      1.47851 -0.085542505     2.147324   439061 
  328000    1.4297694 -0.084344618 -0.084344618    2.0603046    1.4819885 -0.084344618    2.1446493   439061 
  329000    1.4313015 -0.087087788 -0.087087788    2.0598595    1.4766692 -0.087087788    2.1469473   439061 
  330000    1.4293427 -0.085406999 -0.085406999    2.0586022    1.4796347 -0.085406999    2.1440092   439061 
  331000    1.4285136 -0.084909459 -0.084909459     2.057856    1.4792724 -0.084909459    2.1427655   439061 
  332000    1.4287128 -0.085804757 -0.085804757    2.0572595    1.4760692 -0.085804757    2.1430643   439061 
  333000    1.4277854 -0.085167349 -0.085167349    2.0565059    1.4773649 -0.085167349    2.1416733   439061 
  334000    1.4276949 -0.085294222 -0.085294222    2.0562433    1.4787792 -0.085294222    2.1415375   439061 
  335000    1.4285153 -0.087562457 -0.087562457    2.0552056    1.4717144 -0.087562457    2.1427681   439061 
  336000    1.4273151 -0.085218847 -0.085218847     2.055749    1.4788382 -0.085218847    2.1409678   439061 
  337000    1.4276944 -0.087394179 -0.087394179    2.0541426    1.4717964 -0.087394179    2.1415367   439061 
  338000     1.426697 -0.085718616 -0.085718616     2.054322    1.4750568 -0.085718616    2.1400406   439061 
  339000    1.4256128 -0.086218009 -0.086218009    2.0521964    1.4757272 -0.086218009    2.1384144   439061 
  340000    1.4256623 -0.087091446 -0.087091446    2.0513971    1.4705238 -0.087091446    2.1384886   439061 
  341000    1.4251245 -0.087091145 -0.087091145    2.0505908    1.4709428 -0.087091145    2.1376819   439061 
  342000    1.4251627 -0.087463499 -0.087463499    2.0502757    1.4721597 -0.087463499    2.1377392   439061 
  343000    1.4231735 -0.086385751 -0.086385751    2.0483697    1.4741582 -0.086385751    2.1347554   439061 
  344000    1.4236726 -0.088198437 -0.088198437    2.0473056    1.4670455 -0.088198437    2.1355041   439061 
  345000    1.4238814 -0.088845113 -0.088845113    2.0469721    1.4656198 -0.088845113    2.1358173   439061 
  346000    1.4220995 -0.085855757 -0.085855757    2.0472886    1.4718447 -0.085855757    2.1331444   439061 
  347000    1.4209609 -0.085675705 -0.085675705    2.0457608    1.4722459 -0.085675705    2.1314365   439061 
  348000    1.4211724 -0.087074401 -0.087074401    2.0446793    1.4706312 -0.087074401    2.1317537   439061 
  349000    1.4213132  -0.08771648  -0.08771648    2.0442485    1.4702467  -0.08771648    2.1319649   439061 
  350000    1.4208819 -0.086851471 -0.086851471    2.0444665    1.4721807 -0.086851471     2.131318   439061 
  351000    1.4206223 -0.088533344 -0.088533344    2.0423952    1.4650257 -0.088533344    2.1309285   439061 
  352000    1.4196978 -0.087260377 -0.087260377    2.0422815    1.4708021 -0.087260377    2.1295419   439061 
  353000    1.4195655 -0.087956212 -0.087956212    2.0413871     1.466734 -0.087956212    2.1293434   439061 
  354000    1.4180041 -0.087292509 -0.087292509    2.0397087    1.4661852 -0.087292509    2.1270012   439061 
  355000    1.4186024 -0.087730324 -0.087730324    2.0401684    1.4675799 -0.087730324    2.1278987   439061 
  356000    1.4178402 -0.086878564 -0.086878564    2.0398769    1.4677394 -0.086878564    2.1267555   439061 
  357000    1.4175345 -0.087051924 -0.087051924     2.039245    1.4681808 -0.087051924    2.1262969   439061 
  358000    1.4187451 -0.088875557 -0.088875557    2.0392373    1.4647093 -0.088875557    2.1281128   439061 
  359000    1.4166836 -0.087065577 -0.087065577     2.037955    1.4678735 -0.087065577    2.1250206   439061 
  360000    1.4172638  -0.08858539  -0.08858539    2.0373055    1.4633646  -0.08858539    2.1258909   439061 
  361000     1.415258 -0.086673098 -0.086673098    2.0362091    1.4684172 -0.086673098    2.1228822   439061 
  362000    1.4157833 -0.087757925 -0.087757925    2.0359122    1.4636389 -0.087757925    2.1236702   439061 
  363000    1.4155653 -0.088383704 -0.088383704    2.0349593     1.464396 -0.088383704     2.123343   439061 
  364000    1.4150567 -0.088545638 -0.088545638    2.0340346     1.462499 -0.088545638    2.1225802   439061 
  365000    1.4140476 -0.086998477 -0.086998477    2.0340681    1.4642121 -0.086998477    2.1210666   439061 
  366000    1.4157853 -0.089539401 -0.089539401    2.0341336    1.4616469 -0.089539401     2.123673   439061 
  367000     1.413882 -0.088098785 -0.088098785    2.0327193    1.4621979 -0.088098785    2.1208181   439061 
  368000    1.4141284 -0.088089494 -0.088089494    2.0330982    1.4644556 -0.088089494    2.1211877   439061 
  369000    1.4132664 -0.087483062 -0.087483062    2.0324118    1.4657619 -0.087483062    2.1198948   439061 
  370000    1.4115276  -0.08724704  -0.08724704    2.0300396    1.4645028  -0.08724704    2.1172866   439061 
  371000    1.4112311 -0.088022692 -0.088022692    2.0288191    1.4613992 -0.088022692    2.1168418   439061 
  372000    1.4116309 -0.089050565 -0.089050565     2.028391    1.4580706 -0.089050565    2.1174415   439061 
  373000    1.4123434 -0.090560395 -0.090560395    2.0279499    1.4565057 -0.090560395    2.1185103   439061 
  374000    1.4110208 -0.089356384 -0.089356384      2.02717    1.4589861 -0.089356384    2.1165264   439061 
  375000    1.4088328 -0.088149136 -0.088149136    2.0250953    1.4608731 -0.088149136    2.1132444   439061 
  376000    1.4083342 -0.088696577 -0.088696577       2.0238    1.4590993 -0.088696577    2.1124966   439061 
  377000    1.4082325 -0.088737001 -0.088737001     2.023607    1.4592105 -0.088737001     2.112344   439061 
  378000    1.4093742 -0.089829562 -0.089829562     2.024227    1.4577546 -0.089829562    2.1140565   439061 
  379000    1.4078297 -0.088287806 -0.088287806     2.023452    1.4582937 -0.088287806    2.1117398   439061 
  380000    1.4081807 -0.089396504 -0.089396504    2.0228697     1.456951 -0.089396504    2.1122662   439061 
  381000    1.4067724 -0.088051196 -0.088051196    2.0221026    1.4588035 -0.088051196    2.1101538   439061 
  382000    1.4071703 -0.089043067 -0.089043067    2.0217076    1.4567336 -0.089043067    2.1107507   439061 
  383000    1.4059163 -0.089305228 -0.089305228    2.0195645    1.4554315 -0.089305228    2.1088697   439061 
  384000    1.4053083 -0.089275051 -0.089275051    2.0186826    1.4575413 -0.089275051    2.1079577   439061 
  385000    1.4055105 -0.088880854 -0.088880854    2.0193801    1.4581263 -0.088880854    2.1082609   439061 
  386000    1.4062537 -0.091460026 -0.091460026    2.0179157    1.4505076 -0.091460026    2.1093758   439061 
  387000    1.4054681 -0.090951052 -0.090951052    2.0172463    1.4508556 -0.090951052    2.1081973   439061 
  388000    1.4047325 -0.090207919 -0.090207919     2.016886    1.4527167 -0.090207919    2.1070939   439061 
  389000    1.4043733 -0.090586036 -0.090586036    2.0159692    1.4514389 -0.090586036    2.1065552   439061 
  390000     1.403235 -0.089798277 -0.089798277    2.0150494    1.4529809 -0.089798277    2.1048477   439061 
  391000    1.4024966 -0.089415837 -0.089415837    2.0143243    1.4534866 -0.089415837    2.1037402   439061 
  392000    1.4027584 -0.091149932 -0.091149932    2.0129829    1.4511123 -0.091149932    2.1041328   439061 
  393000    1.4021923 -0.090588615 -0.090588615    2.0126951     1.450825 -0.090588615    2.1032837   439061 
  394000    1.4022131 -0.090351454 -0.090351454    2.0129634      1.45229 -0.090351454    2.1033148   439061 
  395000    1.4014779 -0.091658785 -0.091658785    2.0105533    1.4474593 -0.091658785    2.1022121   439061 
  396000    1.4009275 -0.091649415 -0.091649415    2.0097371    1.4475258 -0.091649415    2.1013865   439061 
  397000    1.4007799 -0.091347265 -0.091347265    2.0098178    1.4479457 -0.091347265    2.1011651   439061 
  398000    1.3999026 -0.091345129 -0.091345129    2.0085039    1.4472178 -0.091345129    2.0998491   439061 
  399000    1.3988559 -0.090210415 -0.090210415    2.0080687    1.4487855 -0.090210415    2.0982791   439061 
  400000    1.3994072 -0.092639525 -0.092639525    2.0064664    1.4438202 -0.092639525     2.099106   439061 
  401000    1.3979631 -0.090374636 -0.090374636    2.0065652    1.4498318 -0.090374636    2.0969398   439061 
  402000    1.3982573 -0.093636725 -0.093636725    2.0037445     1.438811 -0.093636725    2.0973812   439061 
  403000    1.3983307 -0.092831104 -0.092831104    2.0046602    1.4424856 -0.092831104    2.0974913   439061 
  404000    1.3964103  -0.09174283  -0.09174283    2.0028678    1.4447602  -0.09174283    2.0946106   439061 
  405000    1.3951962 -0.092045574 -0.092045574     2.000744    1.4455476 -0.092045574    2.0927896   439061 
  406000    1.3947062 -0.092017779 -0.092017779    2.0000367    1.4422988 -0.092017779    2.0920545   439061 
  407000    1.3940685 -0.090490591 -0.090490591    2.0006074    1.4478222 -0.090490591     2.091098   439061 
  408000    1.3950693 -0.091962872 -0.091962872    2.0006363    1.4441228 -0.091962872    2.0925991   439061 
  409000    1.3947044 -0.090893079 -0.090893079    2.0011588    1.4445682 -0.090893079    2.0920519   439061 
  410000    1.3947924 -0.091867501 -0.091867501    2.0003163    1.4438464 -0.091867501    2.0921838   439061 
  411000    1.3943593 -0.092187914 -0.092187914    1.9993463    1.4440827 -0.092187914    2.0915342   439061 
  412000    1.3929786  -0.09105046  -0.09105046    1.9984126    1.4443735  -0.09105046    2.0894631   439061 
  413000     1.393251 -0.091931772 -0.091931772      1.99794    1.4424013 -0.091931772    2.0898717   439061 
  414000    1.3936622 -0.093669579 -0.093669579     1.996819    1.4378214 -0.093669579    2.0904886   439061 
  415000    1.3921206 -0.091960051 -0.091960051    1.9962162    1.4408086 -0.091960051    2.0881762   439061 
  416000    1.3917325 -0.092148519 -0.092148519    1.9954455    1.4414091 -0.092148519    2.0875941   439061 
  417000    1.3918653 -0.092973362 -0.092973362    1.9948198     1.437925 -0.092973362    2.0877932   439061 
  418000    1.3919201 -0.093550607 -0.093550607    1.9943247    1.4377464 -0.093550607    2.0878753   439061 
  419000    1.3901585 -0.090379341 -0.090379341    1.9948537    1.4452791 -0.090379341     2.085233   439061 
  420000    1.3905704 -0.091567369 -0.091567369    1.9942835     1.443388 -0.091567369    2.0858509   439061 
  421000    1.3899547 -0.091963054 -0.091963054    1.9929642    1.4398889 -0.091963054    2.0849272   439061 
  422000    1.3888023 -0.091219891 -0.091219891    1.9919788    1.4423542 -0.091219891    2.0831987   439061 
  423000    1.3895051 -0.093366143 -0.093366143    1.9908868    1.4373996 -0.093366143    2.0842529   439061 
  424000    1.3878709 -0.092861233 -0.092861233    1.9889403    1.4366361 -0.092861233    2.0818016   439061 
  425000    1.3870777 -0.094343119 -0.094343119    1.9862687    1.4333163 -0.094343119    2.0806118   439061 
  426000    1.3858589 -0.093258293 -0.093258293    1.9855254    1.4364481 -0.093258293    2.0787837   439061 
  427000    1.3861812 -0.092906823 -0.092906823    1.9863602    1.4367983 -0.092906823     2.079267   439061 
  428000    1.3858608 -0.093061467 -0.093061467    1.9857249     1.435783 -0.093061467    2.0787864   439061 
  429000    1.3858757  -0.09279355  -0.09279355    1.9860153    1.4367754  -0.09279355    2.0788088   439061 
  430000    1.3863424 -0.093085679 -0.093085679    1.9864231    1.4354055 -0.093085679    2.0795088   439061 
  431000    1.3856565  -0.09275412  -0.09275412    1.9857259    1.4368864  -0.09275412      2.07848   439061 
  432000     1.383763 -0.091354666 -0.091354666    1.9842851    1.4378205 -0.091354666    2.0756397   439061 
  433000    1.3852718  -0.09347841  -0.09347841    1.9844245     1.434927  -0.09347841    2.0779029   439061 
  434000     1.384546 -0.093838025 -0.093838025    1.9829763    1.4353781 -0.093838025    2.0768143   439061 
  435000    1.3846184 -0.094252072 -0.094252072    1.9826709    1.4309528 -0.094252072    2.0769229   439061 
  436000    1.3843147 -0.093927294 -0.093927294      1.98254     1.432889 -0.093927294    2.0764673   439061 
  437000    1.3829094 -0.093452607 -0.093452607    1.9809068    1.4335937 -0.093452607    2.0743594   439061 
  438000    1.3819829   -0.0941518   -0.0941518    1.9788178    1.4297224   -0.0941518    2.0729696   439061 
  439000    1.3814992 -0.091572567 -0.091572567    1.9806715    1.4372603 -0.091572567    2.0722441   439061 
  440000    1.3825859 -0.094997987 -0.094997987    1.9788762    1.4261014 -0.094997987    2.0738742   439061 
  441000    1.3815914 -0.094707943 -0.094707943    1.9776745    1.4281075 -0.094707943    2.0723824   439061 
  442000    1.3818615 -0.095217314 -0.095217314    1.9775702    1.4275569 -0.095217314    2.0727875   439061 
  443000    1.3801668 -0.093199954 -0.093199954    1.9770456    1.4317963 -0.093199954    2.0702455   439061 
  444000     1.380938 -0.094257768 -0.094257768    1.9771445    1.4287978 -0.094257768    2.0714022   439061 
  445000    1.3801299 -0.095158017 -0.095158017    1.9750321    1.4281711 -0.095158017    2.0701902   439061 
  446000    1.3792736 -0.092435687 -0.092435687      1.97647    1.4325047 -0.092435687    2.0689057   439061 
  447000    1.3794869 -0.093496313 -0.093496313    1.9757294    1.4313476 -0.093496313    2.0692257   439061 
  448000    1.3790956 -0.094005704 -0.094005704     1.974633    1.4290219 -0.094005704    2.0686387   439061 
  449000     1.379357 -0.094948076 -0.094948076    1.9740827    1.4280783 -0.094948076    2.0690308   439061 
  450000    1.3792968 -0.096156575 -0.096156575    1.9727839    1.4244858 -0.096156575    2.0689404   439061 
  451000    1.3786969 -0.095881167 -0.095881167    1.9721595    1.4254601 -0.095881167    2.0680407   439061 
  452000    1.3774547 -0.094741493 -0.094741493    1.9714358     1.426934 -0.094741493    2.0661773   439061 
  453000    1.3755071 -0.094100837 -0.094100837    1.9691551    1.4272063 -0.094100837    2.0632559   439061 
  454000     1.376683 -0.095799514 -0.095799514    1.9692203    1.4235697 -0.095799514    2.0650198   439061 
  455000    1.3755472 -0.095564349 -0.095564349    1.9677518    1.4255968 -0.095564349    2.0633161   439061 
  456000     1.376657 -0.096558014 -0.096558014    1.9684228    1.4197444 -0.096558014    2.0649808   439061 
  457000     1.374977 -0.094157723 -0.094157723    1.9683031    1.4282475 -0.094157723    2.0624608   439061 
  458000    1.3742769 -0.094347851 -0.094347851    1.9670629     1.425901 -0.094347851    2.0614107   439061 
  459000    1.3745629 -0.094991276 -0.094991276    1.9668483    1.4253636 -0.094991276    2.0618396   439061 
  460000    1.3747561 -0.096381483 -0.096381483     1.965748    1.4209261 -0.096381483    2.0621294   439061 
  461000    1.3721496 -0.094899392 -0.094899392    1.9633203    1.4236296 -0.094899392    2.0582197   439061 
  462000    1.3729905 -0.095489222 -0.095489222    1.9639918    1.4224592 -0.095489222     2.059481   439061 
  463000     1.371655 -0.094502528 -0.094502528    1.9629753    1.4242187 -0.094502528    2.0574778   439061 
  464000    1.3732187 -0.097231291 -0.097231291    1.9625921    1.4190455 -0.097231291    2.0598234   439061 
  465000    1.3720816 -0.095476777 -0.095476777    1.9626409     1.421785 -0.095476777    2.0581177   439061 
  466000    1.3732243  -0.09713178  -0.09713178    1.9626999     1.417838  -0.09713178    2.0598317   439061 
  467000    1.3706044 -0.093938462 -0.093938462    1.9619634    1.4269329 -0.093938462    2.0559019   439061 
  468000    1.3718922 -0.096046499 -0.096046499    1.9617871    1.4216699 -0.096046499    2.0578336   439061 
  469000    1.3722473 -0.097383844 -0.097383844    1.9609824    1.4184951 -0.097383844    2.0583662   439061 
  470000    1.3705757  -0.09608251  -0.09608251    1.9597764    1.4204022  -0.09608251    2.0558589   439061 
  471000    1.3695368 -0.094826594 -0.094826594    1.9594739    1.4232704 -0.094826594    2.0543005   439061 
  472000    1.3707726 -0.097163251 -0.097163251    1.9589909    1.4142189 -0.097163251    2.0561542   439061 
  473000    1.3697221 -0.096615066 -0.096615066    1.9579634    1.4166415 -0.096615066    2.0545784   439061 
  474000    1.3690419 -0.096561674 -0.096561674    1.9569965    1.4182936 -0.096561674    2.0535582   439061 
  475000    1.3691571 -0.097439208 -0.097439208    1.9562918    1.4161035 -0.097439208     2.053731   439061 
  476000    1.3695007 -0.097965509 -0.097965509    1.9562809     1.414484 -0.097965509    2.0542464   439061 
  477000    1.3683057 -0.097380977 -0.097380977    1.9550728    1.4140638 -0.097380977    2.0524538   439061 
  478000    1.3673812 -0.097079895 -0.097079895    1.9539872    1.4153058 -0.097079895    2.0510671   439061 
  479000    1.3667829 -0.096550292 -0.096550292    1.9536194    1.4146546 -0.096550292    2.0501697   439061 
  480000    1.3663655 -0.097255648 -0.097255648    1.9522879    1.4138074 -0.097255648    2.0495436   439061 
  481000     1.364923 -0.097060188 -0.097060188    1.9503197    1.4144553 -0.097060188    2.0473799   439061 
  482000    1.3660318 -0.097279041 -0.097279041     1.951764    1.4147686 -0.097279041     2.049043   439061 
  483000    1.3656927 -0.096837301 -0.096837301    1.9516972    1.4168513 -0.096837301    2.0485345   439061 
  484000    1.3637304 -0.096289121 -0.096289121    1.9493018    1.4179476 -0.096289121     2.045591   439061 
  485000    1.3640309 -0.097795935 -0.097795935    1.9482457     1.413057 -0.097795935    2.0460417   439061 
  486000    1.3632771 -0.098243231 -0.098243231    1.9466677    1.4138673 -0.098243231    2.0449109   439061 
  487000    1.3627458 -0.097118214 -0.097118214    1.9469959    1.4121876 -0.097118214    2.0441141   439061 
  488000    1.3630749 -0.098039121 -0.098039121    1.9465685    1.4113346 -0.098039121    2.0446077   439061 
  489000    1.3622837 -0.098126059 -0.098126059    1.9452948    1.4099133 -0.098126059    2.0434208   439061 
  490000    1.3629297 -0.098457073 -0.098457073    1.9459328    1.4078872 -0.098457073    2.0443899   439061 
  491000    1.3618054 -0.097459711 -0.097459711    1.9452438    1.4129132 -0.097459711    2.0427035   439061 
  492000     1.361255 -0.097180919 -0.097180919     1.944697    1.4127306 -0.097180919    2.0418779   439061 
  493000     1.361556 -0.099080795 -0.099080795    1.9432486    1.4060775 -0.099080795    2.0423294   439061 
  494000    1.3600644 -0.098206588 -0.098206588    1.9418854    1.4078025 -0.098206588     2.040092   439061 
  495000     1.359144 -0.096949715 -0.096949715    1.9417617    1.4119627 -0.096949715    2.0387114   439061 
  496000     1.360747   -0.1000881   -0.1000881    1.9410278    1.4045168   -0.1000881    2.0411159   439061 
  497000      1.35888 -0.097430436 -0.097430436    1.9408849    1.4116464 -0.097430436    2.0383154   439061 
  498000    1.3591325 -0.098780362 -0.098780362    1.9399138    1.4077928 -0.098780362    2.0386941   439061 
  499000    1.3606456  -0.10120293  -0.10120293    1.9397608    1.4022416  -0.10120293    2.0409638   439061 
  500000     1.358479 -0.099753145 -0.099753145    1.9379607    1.4046178 -0.099753145    2.0377138   439061 
  501000    1.3585276 -0.099218655 -0.099218655    1.9385681    1.4076309 -0.099218655    2.0377868   439061 
  502000    1.3579662 -0.098660315 -0.098660315    1.9382843    1.4070773 -0.098660315    2.0369446   439061 
  503000    1.3564548 -0.098554282 -0.098554282    1.9361234    1.4079656 -0.098554282    2.0346776   439061 
  504000    1.3561823  -0.10073196  -0.10073196    1.9335368    1.4023533  -0.10073196    2.0342688   439061 
  505000    1.3557056 -0.099258862 -0.099258862    1.9342949     1.404549 -0.099258862    2.0335538   439061 
  506000    1.3558968 -0.099544734 -0.099544734    1.9342958    1.4056522 -0.099544734    2.0338405   439061 
  507000    1.3551333 -0.099672339 -0.099672339     1.933023    1.4023586 -0.099672339    2.0326954   439061 
  508000    1.3546916 -0.099520338 -0.099520338    1.9325125     1.404128 -0.099520338    2.0320328   439061 
  509000    1.3548455 -0.099468693 -0.099468693    1.9327949    1.4022209 -0.099468693    2.0322636   439061 
  510000    1.3544562  -0.09939388  -0.09939388    1.9322859    1.4024995  -0.09939388    2.0316797   439061 
  511000     1.354324  -0.09877635  -0.09877635     1.932705    1.4051502  -0.09877635    2.0314813   439061 
  512000    1.3534054 -0.099160833 -0.099160833    1.9309427    1.4034413 -0.099160833    2.0301035   439061 
  513000    1.3546816  -0.10064222  -0.10064222    1.9313756    1.3978441  -0.10064222    2.0320178   439061 
  514000    1.3537015 -0.099352443 -0.099352443    1.9311952    1.4004756 -0.099352443    2.0305476   439061 
  515000    1.3545269 -0.099813416 -0.099813416    1.9319723    1.4031146 -0.099813416    2.0317857   439061 
  516000    1.3537503 -0.099321014 -0.099321014    1.9312999    1.4032903 -0.099321014    2.0306209   439061 
  517000    1.3539371   -0.1009939   -0.1009939    1.9299071    1.3969777   -0.1009939     2.030901   439061 
  518000    1.3534624  -0.10202173  -0.10202173    1.9281673    1.3959998  -0.10202173     2.030189   439061 
  519000    1.3514884 -0.099668239 -0.099668239    1.9275597    1.4019884 -0.099668239    2.0272279   439061 
  520000    1.3503265  -0.09943469  -0.09943469    1.9260504    1.4017284  -0.09943469    2.0254851   439061 
  521000    1.3507611  -0.10075354  -0.10075354    1.9253835    1.3955099  -0.10075354     2.026137   439061 
  522000    1.3515092  -0.10198041  -0.10198041    1.9252788    1.3942727  -0.10198041    2.0272593   439061 
  523000    1.3486141 -0.099141464 -0.099141464    1.9237751    1.4021938 -0.099141464    2.0229166   439061 
  524000    1.3493847  -0.10008365  -0.10008365    1.9239887    1.4004503  -0.10008365    2.0240724   439061 
  525000    1.3489511  -0.10107475  -0.10107475    1.9223473    1.3957343  -0.10107475     2.023422   439061 
  526000    1.3483781   -0.1004376   -0.1004376     1.922125    1.3977563   -0.1004376    2.0225626   439061 
  527000    1.3482218  -0.10037647  -0.10037647    1.9219516    1.3969683  -0.10037647     2.022328   439061 
  528000    1.3472342 -0.099150961 -0.099150961    1.9216957    1.4008766 -0.099150961    2.0208467   439061 
  529000    1.3488608  -0.10209597  -0.10209597    1.9211907    1.3935853  -0.10209597    2.0232866   439061 
  530000    1.3479266  -0.10108746  -0.10108746    1.9207978     1.394045  -0.10108746    2.0218853   439061 
  531000    1.3478932    -0.101639    -0.101639    1.9201962    1.3934494    -0.101639    2.0218352   439061 
  532000    1.3459939 -0.099889375 -0.099889375    1.9190969    1.3985576 -0.099889375    2.0189863   439061 
  533000    1.3458332 -0.099956568 -0.099956568    1.9187886    1.3972267 -0.099956568    2.0187452   439061 
  534000    1.3464147  -0.10142535  -0.10142535    1.9181921    1.3944896  -0.10142535    2.0196174   439061 
  535000    1.3461621  -0.10090427  -0.10090427    1.9183342    1.3951162  -0.10090427    2.0192385   439061 
  536000    1.3453253  -0.10040725  -0.10040725    1.9175761     1.397057  -0.10040725    2.0179834   439061 
  537000    1.3455974   -0.1015299   -0.1015299    1.9168616    1.3922609   -0.1015299    2.0183915   439061 
  538000    1.3464717  -0.10244755  -0.10244755    1.9172555    1.3905672  -0.10244755     2.019703   439061 
  539000    1.3466862  -0.10253467  -0.10253467      1.91749    1.3903916  -0.10253467    2.0200247   439061 
  540000    1.3449719  -0.10048001  -0.10048001    1.9169732    1.3948241  -0.10048001    2.0174532   439061 
  541000     1.345364  -0.10203748  -0.10203748     1.916004    1.3913241  -0.10203748    2.0180415   439061 
  542000    1.3443554  -0.10132659  -0.10132659    1.9152019    1.3927932  -0.10132659    2.0165284   439061 
  543000     1.343302  -0.10161941  -0.10161941    1.9133291    1.3911895  -0.10161941    2.0149485   439061 
  544000    1.3430471  -0.10268719  -0.10268719    1.9118788    1.3882939  -0.10268719     2.014566   439061 
  545000    1.3421286  -0.10189806  -0.10189806    1.9112902    1.3903911  -0.10189806    2.0131883   439061 
  546000    1.3416474  -0.10169016  -0.10169016    1.9107764    1.3911132  -0.10169016    2.0124666   439061 
  547000    1.3407638  -0.10148289  -0.10148289    1.9096582    1.3922905  -0.10148289    2.0111411   439061 
  548000    1.3421428  -0.10282178  -0.10282178    1.9103878    1.3890239  -0.10282178    2.0132096   439061 
  549000    1.3408135  -0.10226288  -0.10226288    1.9089528    1.3883853  -0.10226288    2.0112157   439061 
  550000    1.3398922  -0.10300312  -0.10300312    1.9068305    1.3875674  -0.10300312    2.0098337   439061 
  551000    1.3389896  -0.10136776  -0.10136776     1.907112    1.3903164  -0.10136776    2.0084798   439061 
  552000    1.3398741  -0.10214576  -0.10214576    1.9076609    1.3890841  -0.10214576    2.0098066   439061 
  553000    1.3388793  -0.10219107  -0.10219107    1.9061232    1.3886347  -0.10219107    2.0083143   439061 
  554000    1.3383034  -0.10229464  -0.10229464    1.9051559    1.3877093  -0.10229464    2.0074505   439061 
  555000     1.339296  -0.10349957  -0.10349957    1.9054399    1.3836072  -0.10349957    2.0089395   439061 
  556000    1.3379146  -0.10160259  -0.10160259    1.9052647    1.3879551  -0.10160259    2.0068673   439061 
  557000    1.3375978  -0.10205925  -0.10205925    1.9043329    1.3869848  -0.10205925    2.0063922   439061 
  558000     1.338115  -0.10314377  -0.10314377    1.9040241    1.3858688  -0.10314377    2.0071679   439061 
  559000    1.3372422  -0.10277294  -0.10277294    1.9030859    1.3857085  -0.10277294    2.0058588   439061 
  560000    1.3359808  -0.10260165  -0.10260165     1.901365    1.3843055  -0.10260165    2.0039667   439061 
  561000    1.3374506  -0.10462179  -0.10462179    1.9015496     1.379545  -0.10462179    2.0061714   439061 
  562000    1.3363398  -0.10317257  -0.10317257    1.9013325    1.3842076  -0.10317257    2.0045051   439061 
  563000    1.3362247  -0.10416419  -0.10416419    1.9001682     1.380502  -0.10416419    2.0043324   439061 
  564000     1.335507  -0.10330575  -0.10330575    1.8999502    1.3818092  -0.10330575     2.003256   439061 
  565000    1.3340834  -0.10189923  -0.10189923    1.8992214    1.3857006  -0.10189923    2.0011206   439061 
  566000    1.3339885  -0.10367121  -0.10367121     1.897307    1.3814953  -0.10367121    2.0009782   439061 
  567000    1.3346208  -0.10368883  -0.10368883    1.8982378    1.3838607  -0.10368883    2.0019266   439061 
  568000    1.3321835  -0.10238569  -0.10238569     1.895885    1.3854252  -0.10238569    1.9982707   439061 
  569000    1.3315019  -0.10288199  -0.10288199    1.8943662    1.3821124  -0.10288199    1.9972482   439061 
  570000    1.3317151  -0.10261796  -0.10261796    1.8949501    1.3839148  -0.10261796     1.997568   439061 
  571000    1.3324693  -0.10474945  -0.10474945      1.89395    1.3769631  -0.10474945    1.9986995   439061 
  572000    1.3320015  -0.10451093  -0.10451093    1.8934867    1.3773477  -0.10451093    1.9979977   439061 
  573000    1.3311449  -0.10411939  -0.10411939    1.8925934    1.3790486  -0.10411939    1.9967128   439061 
  574000    1.3317286  -0.10474249  -0.10474249    1.8928458    1.3784714  -0.10474249    1.9975883   439061 
  575000    1.3300935  -0.10321644  -0.10321644    1.8919192    1.3785424  -0.10321644    1.9951356   439061 
  576000    1.3308145  -0.10517243  -0.10517243    1.8910448    1.3777748  -0.10517243    1.9962172   439061 
  577000    1.3296532  -0.10428506  -0.10428506    1.8901902     1.377815  -0.10428506    1.9944752   439061 
  578000    1.3310283  -0.10483512  -0.10483512    1.8917028    1.3768336  -0.10483512     1.996538   439061 
  579000    1.3293196  -0.10284055  -0.10284055    1.8911343    1.3812589  -0.10284055    1.9939749   439061 
  580000    1.3307512   -0.1044151   -0.1044151    1.8917072    1.3773999   -0.1044151    1.9961223   439061 
  581000    1.3295449  -0.10393336  -0.10393336    1.8903795    1.3779258  -0.10393336    1.9943128   439061 
  582000    1.3295323  -0.10511087  -0.10511087     1.889183    1.3756958  -0.10511087    1.9942939   439061 
  583000    1.3285776  -0.10541938  -0.10541938    1.8874424    1.3731246  -0.10541938    1.9928618   439061 
  584000    1.3288086  -0.10551509  -0.10551509    1.8876932    1.3751874  -0.10551509    1.9932083   439061 
  585000    1.3285013  -0.10516409  -0.10516409    1.8875833    1.3725633  -0.10516409    1.9927474   439061 
  586000    1.3280366   -0.1046323   -0.1046323    1.8874181    1.3761219   -0.1046323    1.9920504   439061 
  587000    1.3280944   -0.1057427   -0.1057427    1.8863944    1.3726935   -0.1057427    1.9921371   439061 
  588000    1.3264583  -0.10442438  -0.10442438    1.8852585    1.3769682  -0.10442438    1.9896829   439061 
  589000    1.3253168  -0.10290601  -0.10290601    1.8850647    1.3807495  -0.10290601    1.9879707   439061 
  590000    1.3261251  -0.10469386  -0.10469386    1.8844893    1.3745426  -0.10469386    1.9891832   439061 
  591000    1.3249949  -0.10377028  -0.10377028    1.8837175    1.3771722  -0.10377028    1.9874878   439061 
  592000    1.3247018  -0.10335177  -0.10335177    1.8836963    1.3775901  -0.10335177    1.9870481   439061 
  593000    1.3260889  -0.10506756  -0.10506756    1.8840613    1.3724693  -0.10506756    1.9891289   439061 
  594000    1.3253265  -0.10544076  -0.10544076    1.8825445    1.3733441  -0.10544076    1.9879853   439061 
  595000    1.3245686  -0.10380983  -0.10380983    1.8830385    1.3769224  -0.10380983    1.9868483   439061 
  596000     1.325956  -0.10631165  -0.10631165    1.8826178    1.3717749  -0.10631165    1.9889294   439061 
  597000    1.3249807  -0.10573225  -0.10573225    1.8817342    1.3711223  -0.10573225    1.9874664   439061 
  598000     1.324895  -0.10427912  -0.10427912    1.8830589    1.3741616  -0.10427912     1.987338   439061 
  599000    1.3260855  -0.10723009  -0.10723009    1.8818936    1.3681363  -0.10723009    1.9891237   439061 
  600000    1.3248314  -0.10610667  -0.10610667    1.8811359    1.3698432  -0.10610667    1.9872426   439061 
  601000    1.3248732  -0.10661601  -0.10661601    1.8806893    1.3674907  -0.10661601    1.9873053   439061 
  602000     1.324406  -0.10691343  -0.10691343    1.8796911    1.3675503  -0.10691343    1.9866045   439061 
  603000    1.3239391  -0.10600535  -0.10600535    1.8798988    1.3686994  -0.10600535    1.9859042   439061 
  604000    1.3224303  -0.10517409  -0.10517409    1.8784668    1.3720899  -0.10517409    1.9836409   439061 
  605000    1.3226154  -0.10552566  -0.10552566    1.8783929    1.3717269  -0.10552566    1.9839185   439061 
  606000    1.3224864  -0.10516761  -0.10516761    1.8785574      1.37122  -0.10516761     1.983725   439061 
  607000    1.3214756  -0.10487205  -0.10487205    1.8773369    1.3739383  -0.10487205     1.982209   439061 
  608000    1.3201819  -0.10543606  -0.10543606    1.8748323    1.3687528  -0.10543606    1.9802684   439061 
  609000     1.320206  -0.10610598  -0.10610598    1.8741984    1.3673842  -0.10610598    1.9803044   439061 
  610000     1.320187  -0.10573544  -0.10573544    1.8745405    1.3701419  -0.10573544     1.980276   439061 
  611000    1.3203715  -0.10610376  -0.10610376    1.8744489    1.3688358  -0.10610376    1.9805527   439061 
  612000    1.3192906   -0.1048792   -0.1048792    1.8740521    1.3701001   -0.1048792    1.9789313   439061 
  613000    1.3199015   -0.1068204   -0.1068204    1.8730273     1.364884   -0.1068204    1.9798477   439061 
  614000    1.3198414  -0.10652765  -0.10652765      1.87323    1.3664752  -0.10652765    1.9797576   439061 
  615000    1.3185384  -0.10612543  -0.10612543    1.8716776    1.3653487  -0.10612543     1.977803   439061 
  616000     1.318165  -0.10596049  -0.10596049    1.8712825    1.3675162  -0.10596049     1.977243   439061 
  617000    1.3193975   -0.1082521   -0.1082521    1.8708397     1.362778   -0.1082521    1.9790918   439061 
  618000     1.318405  -0.10790464  -0.10790464    1.8696983    1.3622279  -0.10790464     1.977603   439061 
  619000    1.3169054  -0.10538002  -0.10538002    1.8699736    1.3673703  -0.10538002    1.9753536   439061 
  620000    1.3181331  -0.10700048  -0.10700048    1.8701947    1.3659522  -0.10700048    1.9771952   439061 
  621000    1.3182437  -0.10786791  -0.10786791    1.8694932    1.3619418  -0.10786791    1.9773611   439061 
  622000    1.3169541  -0.10571508  -0.10571508    1.8697116    1.3688273  -0.10571508    1.9754267   439061 
  623000    1.3180017  -0.10842401  -0.10842401     1.868574    1.3587458  -0.10842401    1.9769981   439061 
  624000    1.3173462  -0.10757292  -0.10757292    1.8684419    1.3652025  -0.10757292    1.9760148   439061 
  625000    1.3166794  -0.10591952  -0.10591952     1.869095    1.3678001  -0.10591952    1.9750145   439061 
  626000    1.3162298  -0.10514512  -0.10514512    1.8691951    1.3685687  -0.10514512    1.9743403   439061 
  627000    1.3168712  -0.10746995  -0.10746995    1.8678324    1.3625122  -0.10746995    1.9753024   439061 
  628000     1.315641  -0.10787308  -0.10787308    1.8655839    1.3606246  -0.10787308     1.973457   439061 
  629000    1.3150044  -0.10688924  -0.10688924    1.8656128    1.3643393  -0.10688924     1.972502   439061 
  630000    1.3164239  -0.10906308  -0.10906308    1.8655683    1.3580716  -0.10906308    1.9746314   439061 
  631000    1.3144936  -0.10674428  -0.10674428    1.8649917    1.3628818  -0.10674428     1.971736   439061 
  632000    1.3149683  -0.10675454  -0.10675454    1.8656933    1.3636766  -0.10675454    1.9724479   439061 
  633000    1.3143322  -0.10571278  -0.10571278     1.865781    1.3656759  -0.10571278    1.9714938   439061 
  634000     1.314862  -0.10777995  -0.10777995    1.8645086    1.3619345  -0.10777995    1.9722886   439061 
  635000    1.3144594  -0.10696164  -0.10696164    1.8647229    1.3626427  -0.10696164    1.9716846   439061 
  636000    1.3136402  -0.10810603  -0.10810603    1.8623498    1.3580336  -0.10810603    1.9704559   439061 
  637000    1.3120653  -0.10640562  -0.10640562    1.8616879    1.3624302  -0.10640562    1.9680935   439061 
  638000    1.3144454  -0.10961113  -0.10961113    1.8620525    1.3559485  -0.10961113    1.9716637   439061 
  639000     1.312801  -0.10666873  -0.10666873    1.8625283    1.3631069  -0.10666873    1.9691971   439061 
  640000    1.3121471   -0.1069633   -0.1069633    1.8612529    1.3624424   -0.1069633    1.9682162   439061 
  641000    1.3128737  -0.10825652  -0.10825652    1.8610496    1.3583092  -0.10825652    1.9693061   439061 
  642000    1.3116917  -0.10761873  -0.10761873    1.8599143    1.3606955  -0.10761873     1.967533   439061 
  643000    1.3119145  -0.10950774  -0.10950774    1.8583595    1.3552246  -0.10950774    1.9678673   439061 
  644000    1.3122215  -0.10937168  -0.10937168     1.858956    1.3552618  -0.10937168    1.9683277   439061 
  645000     1.310444  -0.10699312  -0.10699312    1.8586685    1.3597117  -0.10699312    1.9656616   439061 
  646000    1.3113477  -0.10757764  -0.10757764    1.8594394    1.3603631  -0.10757764     1.967017   439061 
  647000    1.3116348  -0.10878116  -0.10878116    1.8586666    1.3558344  -0.10878116    1.9674478   439061 
  648000    1.3101728  -0.10689411  -0.10689411    1.8583606    1.3619278  -0.10689411    1.9652547   439061 
  649000    1.3098027  -0.10762304  -0.10762304    1.8570766    1.3579369  -0.10762304    1.9646996   439061 
  650000    1.3092374  -0.10803173  -0.10803173    1.8558199     1.358276  -0.10803173    1.9638517   439061 
  651000    1.3089547  -0.10839252  -0.10839252    1.8550351    1.3577612  -0.10839252    1.9634276   439061 
  652000    1.3077126  -0.10773769  -0.10773769    1.8538268    1.3582692  -0.10773769    1.9615645   439061 
  653000     1.309559  -0.10941034  -0.10941034    1.8549237    1.3529525  -0.10941034    1.9643341   439061 
  654000    1.3087376  -0.10886083  -0.10886083    1.8542411    1.3549039  -0.10886083    1.9631019   439061 
  655000    1.3087224  -0.10871688  -0.10871688    1.8543623     1.355049  -0.10871688    1.9630792   439061 
  656000    1.3075574  -0.10683965  -0.10683965     1.854492    1.3575118  -0.10683965    1.9613317   439061 
  657000    1.3079521  -0.10808394  -0.10808394    1.8538398    1.3569577  -0.10808394    1.9619237   439061 
  658000    1.3076688  -0.10788478  -0.10788478     1.853614     1.357978  -0.10788478    1.9614988   439061 
  659000    1.3061302  -0.10705687  -0.10705687     1.852134    1.3585508  -0.10705687    1.9591909   439061 
  660000    1.3063342  -0.10748091  -0.10748091     1.852016    1.3562561  -0.10748091    1.9594969   439061 
  661000    1.3080545  -0.10926169  -0.10926169    1.8528156     1.351386  -0.10926169    1.9620773   439061 
  662000    1.3075724  -0.10996984  -0.10996984    1.8513843    1.3515538  -0.10996984    1.9613541   439061 
  663000    1.3063601  -0.10887351  -0.10887351    1.8506622    1.3547598  -0.10887351    1.9595357   439061 
  664000    1.3049861  -0.10777927  -0.10777927    1.8496954    1.3551293  -0.10777927    1.9574746   439061 
  665000    1.3041338  -0.10787221  -0.10787221     1.848324    1.3557446  -0.10787221    1.9561962   439061 
  666000    1.3051313  -0.10974927  -0.10974927    1.8479432    1.3493691  -0.10974927    1.9576924   439061 
  667000    1.3042598  -0.10750425  -0.10750425    1.8488811    1.3566564  -0.10750425    1.9563853   439061 
  668000     1.304275  -0.10719172  -0.10719172    1.8492164    1.3575793  -0.10719172    1.9564081   439061 
  669000    1.3048843  -0.10844332  -0.10844332    1.8488786    1.3528083  -0.10844332    1.9573219   439061 
  670000    1.3037466  -0.10808046  -0.10808046     1.847535    1.3553209  -0.10808046    1.9556155   439061 
  671000     1.304727  -0.10969389  -0.10969389    1.8473921    1.3489461  -0.10969389     1.957086   439061 
  672000    1.3054753  -0.11108703  -0.11108703    1.8471215    1.3456348  -0.11108703    1.9582086   439061 
  673000    1.3040574  -0.11018398  -0.11018398    1.8458977    1.3494387  -0.11018398    1.9560817   439061 
  674000    1.3031808   -0.1095123   -0.1095123    1.8452544    1.3493419   -0.1095123    1.9547667   439061 
  675000    1.3025864  -0.10908359  -0.10908359    1.8447916    1.3512517  -0.10908359    1.9538752   439061 
[...]
 2832000    1.1329251  -0.14431246  -0.14431246    1.5550713    1.1724031  -0.14431246    1.6993838   439061 
 2833000    1.1307623  -0.14250912  -0.14250912    1.5536304    1.1768458  -0.14250912    1.6961396   439061 
 2834000    1.1313191  -0.14433899  -0.14433899    1.5526357    1.1723814  -0.14433899    1.6969747   439061 
 2835000    1.1309672   -0.1438473   -0.1438473    1.5525996    1.1736334   -0.1438473    1.6964469   439061 
 2836000    1.1315164  -0.14454101  -0.14454101    1.5527298    1.1704745  -0.14454101    1.6972708   439061 
 2837000    1.1321786    -0.144131    -0.144131     1.554133    1.1727464    -0.144131     1.698264   439061 
 2838000    1.1319304  -0.14478774  -0.14478774     1.553104    1.1708209  -0.14478774    1.6978917   439061 
 2839000    1.1326652   -0.1446155   -0.1446155    1.5543785    1.1709239   -0.1446155     1.698994   439061 
 2840000    1.1326964  -0.14416313  -0.14416313    1.5548776    1.1721665  -0.14416313    1.6990407   439061 
 2841000    1.1320174  -0.14372777  -0.14372777    1.5542944     1.172698  -0.14372777    1.6980222   439061 
 2842000    1.1328938  -0.14506519  -0.14506519    1.5542717    1.1691215  -0.14506519    1.6993369   439061 
 2843000    1.1325375  -0.14412116  -0.14412116    1.5546812    1.1721441  -0.14412116    1.6988023   439061 
 2844000     1.133099  -0.14414155  -0.14414155     1.555503    1.1724986  -0.14414155    1.6996446   439061 
 2845000     1.132974  -0.14353409  -0.14353409     1.555923    1.1737954  -0.14353409    1.6994571   439061 
 2846000    1.1333201  -0.14555521  -0.14555521     1.554421    1.1681579  -0.14555521    1.6999762   439061 
 2847000    1.1323059  -0.14316717  -0.14316717    1.5552879    1.1736673  -0.14316717     1.698455   439061 
 2848000    1.1319411  -0.14406935  -0.14406935    1.5538384    1.1727425  -0.14406935    1.6979078   439061 
 2849000    1.1320471  -0.14423206  -0.14423206    1.5538348    1.1726927  -0.14423206    1.6980668   439061 
 2850000    1.1314339  -0.14391747  -0.14391747    1.5532296     1.171361  -0.14391747    1.6971471   439061 
 2851000    1.1323439  -0.14444501  -0.14444501     1.554067    1.1703494  -0.14444501    1.6985121   439061 
 2852000      1.13182  -0.14340064  -0.14340064    1.5543256    1.1738809  -0.14340064    1.6977262   439061 
 2853000    1.1316739  -0.14506869  -0.14506869    1.5524383     1.169712  -0.14506869     1.697507   439061 
 2854000    1.1315261  -0.14427042  -0.14427042    1.5530148    1.1712417  -0.14427042    1.6972852   439061 
 2855000    1.1315465    -0.144734    -0.144734    1.5525819    1.1690356    -0.144734    1.6973159   439061 
 2856000    1.1316026  -0.14425202  -0.14425202     1.553148    1.1727251  -0.14425202       1.6974   439061 
 2857000    1.1318807  -0.14425319  -0.14425319     1.553564    1.1712364  -0.14425319    1.6978172   439061 
 2858000    1.1313937  -0.14440037  -0.14440037    1.5526864     1.170434  -0.14440037    1.6970867   439061 
 2859000    1.1314234  -0.14379852  -0.14379852    1.5533327    1.1739423  -0.14379852    1.6971312   439061 
 2860000    1.1316338  -0.14496881  -0.14496881     1.552478    1.1713504  -0.14496881    1.6974468   439061 
 2861000    1.1305166  -0.14285994  -0.14285994    1.5529111    1.1751434  -0.14285994    1.6957711   439061 
 2862000    1.1317882  -0.14392337  -0.14392337     1.553755    1.1724432  -0.14392337    1.6976784   439061 
 2863000    1.1317632  -0.14468477  -0.14468477    1.5529561    1.1706469  -0.14468477    1.6976409   439061 
 2864000    1.1323806  -0.14443865  -0.14443865    1.5541284    1.1701806  -0.14443865     1.698567   439061 
 2865000    1.1322377  -0.14443473  -0.14443473     1.553918     1.170028  -0.14443473    1.6983527   439061 
 2866000    1.1331942  -0.14474855  -0.14474855    1.5550389    1.1702141  -0.14474855    1.6997875   439061 
 2867000    1.1327351   -0.1445302   -0.1445302    1.5545685    1.1719462   -0.1445302    1.6990987   439061 
 2868000    1.1325607  -0.14496839  -0.14496839    1.5538688    1.1690417  -0.14496839    1.6988372   439061 
 2869000    1.1330553  -0.14445729  -0.14445729    1.5551218    1.1716196  -0.14445729    1.6995791   439061 
 2870000    1.1330041  -0.14527178  -0.14527178    1.5542305    1.1680792  -0.14527178    1.6995023   439061 
 2871000    1.1329544  -0.14451642  -0.14451642    1.5549113    1.1698705  -0.14451642    1.6994277   439061 
 2872000    1.1321999  -0.14366112  -0.14366112    1.5546349    1.1732431  -0.14366112     1.698296   439061 
 2873000    1.1317278  -0.14375765  -0.14375765    1.5538301    1.1720544  -0.14375765    1.6975878   439061 
 2874000    1.1304078  -0.14265429  -0.14265429    1.5529536    1.1749935  -0.14265429    1.6956079   439061 
 2875000    1.1328813   -0.1466671   -0.1466671     1.552651    1.1658538   -0.1466671    1.6993181   439061 
 2876000    1.1300093  -0.14320314  -0.14320314     1.551807    1.1738038  -0.14320314    1.6950101   439061 
 2877000    1.1302433  -0.14430212  -0.14430212     1.551059    1.1704926  -0.14430212    1.6953611   439061 
 2878000    1.1303502  -0.14341021  -0.14341021    1.5521112    1.1724995  -0.14341021    1.6955214   439061 
 2879000    1.1303697   -0.1430111   -0.1430111    1.5525396    1.1743043   -0.1430111    1.6955507   439061 
 2880000    1.1316757  -0.14561007  -0.14561007    1.5518996    1.1674675  -0.14561007    1.6975097   439061 
 2881000    1.1303869  -0.14417314  -0.14417314    1.5514034    1.1719956  -0.14417314    1.6955765   439061 
 2882000    1.1309235  -0.14538631  -0.14538631    1.5509951     1.167899  -0.14538631    1.6963814   439061 
 2883000    1.1313868  -0.14397103  -0.14397103    1.5531052    1.1715465  -0.14397103    1.6970763   439061 
 2884000    1.1319957   -0.1449958   -0.1449958    1.5529939    1.1709427   -0.1449958    1.6979897   439061 
 2885000    1.1312769  -0.14428294  -0.14428294    1.5526285    1.1703623  -0.14428294    1.6969114   439061 
 2886000    1.1317638  -0.14428623  -0.14428623    1.5533556    1.1714464  -0.14428623    1.6976418   439061 
 2887000    1.1321054  -0.14392414  -0.14392414      1.55423    1.1722913  -0.14392414    1.6981542   439061 
 2888000    1.1325971  -0.14423005  -0.14423005    1.5546617    1.1702234  -0.14423005    1.6988918   439061 
 2889000    1.1329641  -0.14541266  -0.14541266    1.5540296    1.1664477  -0.14541266    1.6994423   439061 
 2890000    1.1318523  -0.14353061  -0.14353061     1.554244    1.1746438  -0.14353061    1.6977746   439061 
 2891000    1.1318455  -0.14337212  -0.14337212    1.5543923    1.1720831  -0.14337212    1.6977644   439061 
 2892000    1.1319359  -0.14269161  -0.14269161    1.5552084    1.1770006  -0.14269161       1.6979   439061 
 2893000    1.1311551  -0.14340538  -0.14340538    1.5533234    1.1739823  -0.14340538    1.6967288   439061 
 2894000    1.1313433  -0.14386787  -0.14386787    1.5531432    1.1726846  -0.14386787    1.6970111   439061 
 2895000     1.131211  -0.14370172  -0.14370172    1.5531109    1.1718733  -0.14370172    1.6968126   439061 
 2896000    1.1312916  -0.14444136  -0.14444136    1.5524922    1.1705751  -0.14444136    1.6969336   439061 
 2897000    1.1316846   -0.1443126   -0.1443126    1.5532104    1.1709602   -0.1443126     1.697523   439061 
 2898000    1.1318251  -0.14437815  -0.14437815    1.5533556    1.1710527  -0.14437815    1.6977338   439061 
 2899000    1.1315927  -0.14505791  -0.14505791    1.5523273    1.1677457  -0.14505791    1.6973852   439061 
 2900000    1.1315524  -0.14401354  -0.14401354    1.5533112    1.1721177  -0.14401354    1.6973248   439061 
 2901000     1.131692  -0.14511226  -0.14511226    1.5524218    1.1698474  -0.14511226    1.6975341   439061 
 2902000    1.1313817  -0.14411748  -0.14411748    1.5529511     1.171396  -0.14411748    1.6970686   439061 
 2903000       1.1312  -0.14508851  -0.14508851    1.5517077    1.1694223  -0.14508851    1.6967962   439061 
 2904000    1.1306193  -0.14426567  -0.14426567    1.5516595    1.1719028  -0.14426567    1.6959252   439061 
 2905000    1.1305264  -0.14426649  -0.14426649    1.5515193    1.1720619  -0.14426649    1.6957858   439061 
 2906000    1.1305552  -0.14467942  -0.14467942    1.5511495    1.1698077  -0.14467942    1.6958289   439061 
 2907000    1.1303778  -0.14469982  -0.14469982    1.5508631    1.1708031  -0.14469982    1.6955629   439061 
 2908000    1.1311988  -0.14550526  -0.14550526     1.551289    1.1688184  -0.14550526    1.6967943   439061 
 2909000    1.1308503  -0.14472488  -0.14472488    1.5515467    1.1700546  -0.14472488    1.6962716   439061 
 2910000    1.1300308  -0.14338638  -0.14338638     1.551656    1.1741372  -0.14338638    1.6950424   439061 
 2911000     1.130337  -0.14365963  -0.14365963    1.5518421    1.1721117  -0.14365963    1.6955017   439061 
 2912000    1.1316517  -0.14531262  -0.14531262    1.5521611    1.1683883  -0.14531262    1.6974737   439061 
 2913000    1.1319535  -0.14483327  -0.14483327    1.5530931    1.1670879  -0.14483327    1.6979263   439061 
 2914000    1.1319439  -0.14402911  -0.14402911    1.5538828    1.1733161  -0.14402911     1.697912   439061 
 2915000    1.1317975  -0.14453245  -0.14453245      1.55316    1.1686009  -0.14453245    1.6976924   439061 
 2916000    1.1313269  -0.14483208  -0.14483208    1.5521543    1.1699277  -0.14483208    1.6969864   439061 
 2917000    1.1305494  -0.14379814  -0.14379814    1.5520221    1.1734599  -0.14379814    1.6958203   439061 
 2918000    1.1299714  -0.14348496  -0.14348496    1.5514683    1.1735249  -0.14348496    1.6949533   439061 
 2919000    1.1315193  -0.14528049  -0.14528049    1.5519946    1.1685573  -0.14528049    1.6972751   439061 
 2920000    1.1312572  -0.14360447  -0.14360447    1.5532774    1.1737818  -0.14360447    1.6968819   439061 
 2921000     1.132595  -0.14482773  -0.14482773    1.5540609    1.1701181  -0.14482773    1.6988886   439061 
 2922000    1.1315237  -0.14368787  -0.14368787    1.5535938    1.1720407  -0.14368787    1.6972816   439061 
 2923000    1.1316174  -0.14343949  -0.14343949    1.5539827    1.1722064  -0.14343949    1.6974222   439061 
 2924000    1.1326881  -0.14572087  -0.14572087    1.5533074    1.1668399  -0.14572087    1.6990282   439061 
 2925000    1.1305885  -0.14268465  -0.14268465    1.5531942    1.1752428  -0.14268465    1.6958789   439061 
 2926000    1.1314737  -0.14401185  -0.14401185    1.5531948    1.1718375  -0.14401185    1.6972067   439061 
 2927000    1.1312455  -0.14453118  -0.14453118    1.5523333    1.1706498  -0.14453118    1.6968644   439061 
 2928000    1.1315419  -0.14490427  -0.14490427    1.5524047    1.1699157  -0.14490427     1.697309   439061 
 2929000    1.1306858  -0.14331655  -0.14331655    1.5527083     1.174436  -0.14331655    1.6960249   439061 
 2930000    1.1310694  -0.14407061  -0.14407061    1.5525297    1.1724431  -0.14407061    1.6966003   439061 
 2931000    1.1311814  -0.14390766  -0.14390766    1.5528606    1.1720944  -0.14390766    1.6967683   439061 
 2932000    1.1320615  -0.14426253  -0.14426253    1.5538258    1.1715544  -0.14426253    1.6980883   439061 
 2933000    1.1315518  -0.14494715  -0.14494715    1.5523767    1.1691892  -0.14494715    1.6973238   439061 
 2934000    1.1309508  -0.14336762  -0.14336762    1.5530548    1.1728682  -0.14336762    1.6964224   439061 
 2935000     1.131047  -0.14422793  -0.14422793    1.5523387    1.1722311  -0.14422793    1.6965666   439061 
 2936000    1.1306331  -0.14437878  -0.14437878    1.5515669    1.1713736  -0.14437878    1.6959457   439061 
 2937000    1.1312041   -0.1446443   -0.1446443     1.552158    1.1680476   -0.1446443    1.6968022   439061 
 2938000    1.1312358  -0.14527545  -0.14527545    1.5515743    1.1679617  -0.14527545    1.6968498   439061 
 2939000    1.1310129  -0.14469733  -0.14469733    1.5518182    1.1704446  -0.14469733    1.6965155   439061 
 2940000    1.1313811  -0.14468842  -0.14468842    1.5523794    1.1709973  -0.14468842    1.6970678   439061 
 2941000    1.1311707  -0.14502203  -0.14502203    1.5517301    1.1699826  -0.14502203    1.6967522   439061 
 2942000    1.1306604  -0.14442676  -0.14442676      1.55156     1.170963  -0.14442676    1.6959867   439061 
 2943000     1.130015   -0.1432888   -0.1432888    1.5517299     1.172872   -0.1432888    1.6950187   439061 
 2944000    1.1306167  -0.14468605  -0.14468605    1.5512352    1.1687005  -0.14468605    1.6959212   439061 
 2945000    1.1313938  -0.14418756  -0.14418756    1.5528993    1.1701316  -0.14418756    1.6970869   439061 
 2946000    1.1313624  -0.14454112  -0.14454112    1.5524986    1.1710555  -0.14454112    1.6970397   439061 
 2947000    1.1309393  -0.14509812  -0.14509812     1.551307    1.1704815  -0.14509812    1.6964051   439061 
 2948000    1.1311146   -0.1452231   -0.1452231     1.551445    1.1691736   -0.1452231    1.6966681   439061 
 2949000    1.1308452  -0.14380063  -0.14380063    1.5524633     1.171647  -0.14380063    1.6962639   439061 
 2950000    1.1321757  -0.14542711  -0.14542711    1.5528325     1.168763  -0.14542711    1.6982596   439061 
 2951000    1.1312777  -0.14506632  -0.14506632    1.5518463    1.1693836  -0.14506632    1.6969127   439061 
 2952000    1.1305007  -0.14361442  -0.14361442    1.5521327    1.1729379  -0.14361442    1.6957471   439061 
 2953000    1.1308832  -0.14449541  -0.14449541    1.5518256    1.1692668  -0.14449541     1.696321   439061 
 2954000    1.1315613  -0.14509002  -0.14509002    1.5522481    1.1685187  -0.14509002    1.6973381   439061 
 2955000    1.1310681  -0.14525158  -0.14525158    1.5513467    1.1682239  -0.14525158    1.6965983   439061 
 2956000    1.1309482  -0.14481948  -0.14481948     1.551599    1.1689448  -0.14481948    1.6964185   439061 
 2957000    1.1312548  -0.14403074  -0.14403074    1.5528476      1.17272  -0.14403074    1.6968784   439061 
 2958000    1.1310574  -0.14409319  -0.14409319     1.552489    1.1695674  -0.14409319    1.6965822   439061 
 2959000    1.1313913  -0.14473537  -0.14473537    1.5523478    1.1704419  -0.14473537    1.6970832   439061 
 2960000    1.1313202  -0.14438542  -0.14438542    1.5525911    1.1703247  -0.14438542    1.6969765   439061 
 2961000    1.1317453   -0.1458257   -0.1458257    1.5517884    1.1688479   -0.1458257    1.6976141   439061 
 2962000    1.1301342  -0.14301923  -0.14301923    1.5521782    1.1737786  -0.14301923    1.6951975   439061 
 2963000    1.1308034  -0.14450409  -0.14450409    1.5516971    1.1704258  -0.14450409    1.6962012   439061 
 2964000    1.1304221  -0.14323742  -0.14323742    1.5523919    1.1751431  -0.14323742    1.6956293   439061 
 2965000    1.1308528  -0.14480336  -0.14480336    1.5514719    1.1683872  -0.14480336    1.6962753   439061 
 2966000    1.1315614  -0.14445417  -0.14445417    1.5528841    1.1709795  -0.14445417    1.6973382   439061 
 2967000    1.1317495  -0.14527596  -0.14527596    1.5523445    1.1703523  -0.14527596    1.6976204   439061 
 2968000     1.131015  -0.14407706  -0.14407706    1.5524415    1.1711237  -0.14407706    1.6965186   439061 
 2969000    1.1297301  -0.14430164  -0.14430164    1.5502897     1.170652  -0.14430164    1.6945913   439061 
 2970000    1.1297727  -0.14386638  -0.14386638    1.5507888    1.1729753  -0.14386638    1.6946552   439061 
 2971000    1.1296745  -0.14463322  -0.14463322    1.5498747    1.1698383  -0.14463322    1.6945079   439061 
 2972000    1.1304224  -0.14482146  -0.14482146    1.5508083    1.1698332  -0.14482146    1.6956297   439061 
 2973000    1.1307188  -0.14529958  -0.14529958    1.5507748    1.1683808  -0.14529958    1.6960743   439061 
 2974000    1.1300008  -0.14464844  -0.14464844    1.5503489    1.1703582  -0.14464844    1.6949974   439061 
 2975000     1.130822  -0.14446423  -0.14446423    1.5517649    1.1714682  -0.14446423    1.6962291   439061 
 2976000    1.1318735  -0.14583354  -0.14583354    1.5519728    1.1663834  -0.14583354    1.6978063   439061 
 2977000    1.1314737  -0.14642197  -0.14642197    1.5507847    1.1658238  -0.14642197    1.6972067   439061 
 2978000    1.1306352  -0.14488777  -0.14488777    1.5510612    1.1693291  -0.14488777    1.6959489   439061 
 2979000     1.131465  -0.14542639  -0.14542639    1.5517672    1.1666935  -0.14542639    1.6971936   439061 
 2980000    1.1311706  -0.14473438  -0.14473438    1.5520177      1.16952  -0.14473438     1.696752   439061 
 2981000      1.13031  -0.14444588  -0.14444588    1.5510152     1.170808  -0.14444588    1.6954611   439061 
 2982000    1.1316865  -0.14571992  -0.14571992     1.551806    1.1669527  -0.14571992    1.6975259   439061 
 2983000    1.1324915   -0.1453586   -0.1453586    1.5533749     1.167249   -0.1453586    1.6987335   439061 
 2984000    1.1310134  -0.14446586  -0.14446586    1.5520504    1.1710541  -0.14446586    1.6965163   439061 
 2985000     1.130387  -0.14303364  -0.14303364    1.5525429    1.1741486  -0.14303364    1.6955766   439061 
 2986000    1.1310886    -0.144897    -0.144897     1.551732    1.1699925    -0.144897     1.696629   439061 
 2987000    1.1319207  -0.14537201  -0.14537201    1.5525051    1.1698696  -0.14537201    1.6978771   439061 
 2988000    1.1307347  -0.14491811  -0.14491811    1.5511801     1.168708  -0.14491811    1.6960982   439061 
 2989000    1.1307084  -0.14468566  -0.14468566     1.551373    1.1685186  -0.14468566    1.6960587   439061 
 2990000    1.1299881  -0.14405023  -0.14405023    1.5509281    1.1723072  -0.14405023    1.6949783   439061 
 2991000    1.1307747  -0.14494315  -0.14494315     1.551215    1.1681718  -0.14494315    1.6961581   439061 
 2992000    1.1306846  -0.14459385  -0.14459385    1.5514292    1.1678516  -0.14459385     1.696023   439061 
 2993000     1.130084  -0.14479673  -0.14479673    1.5503254    1.1675481  -0.14479673    1.6951221   439061 
 2994000     1.129723  -0.14398836  -0.14398836    1.5505923    1.1699956  -0.14398836    1.6945806   439061 
 2995000    1.1285896  -0.14390608  -0.14390608    1.5489744    1.1722833  -0.14390608    1.6928805   439061 
 2996000    1.1305273  -0.14497117  -0.14497117    1.5508159    1.1682199  -0.14497117     1.695787   439061 
 2997000    1.1297789  -0.14487208  -0.14487208    1.5497924    1.1694339  -0.14487208    1.6946644   439061 
 2998000    1.1302699  -0.14504654  -0.14504654    1.5503545    1.1689293  -0.14504654     1.695401   439061 
 2999000     1.130232  -0.14561536  -0.14561536    1.5497288    1.1680284  -0.14561536    1.6953441   439061 
 3000000    1.1287641  -0.14294689  -0.14294689    1.5501954    1.1726933  -0.14294689    1.6931423   439061 
Loop time of 6674.9 on 48 procs for 3000000 steps with 439061 atoms

Performance: 194160.200 tau/day, 449.445 timesteps/s
91.1% CPU use with 48 MPI tasks x 1 OpenMP threads

MPI task timing breakdown:
Section |  min time  |  avg time  |  max time  |%varavg|  %CPU | %total
-----------------------------------------------------------------------
Pair    | 2181.1     | 2399.7     | 2586.5     | 222.7 |  91.7 | 35.95
Bond    | 2.0283     | 2.1063     | 2.2506     |   2.9 | 100.0 |  0.03
Neigh   | 1598.2     | 1736.8     | 1817.5     | 152.4 |  99.4 | 26.02
Comm    | 747.9      | 1703.7     | 1984.6     | 845.2 |  86.8 | 25.52
Output  | 75.965     | 76.157     | 76.165     |   0.3 |  71.1 |  1.14
Modify  | 312.19     | 472.37     | 1380.7     |1584.1 |  89.8 |  7.08
Other   |            | 284.2      |            |       |       |  4.26

Nlocal:        9147.10 ave        9566 max        8741 min
Histogram: 4 5 5 3 6 3 10 6 5 1
Nghost:        4215.02 ave        4581 max        3340 min
Histogram: 12 0 0 0 0 0 0 0 8 28
Neighs:        52332.6 ave       54805 max       48270 min
Histogram: 1 3 1 2 4 8 8 10 8 3

Total # of neighbors = 2511967
Ave neighs/atom = 5.7212255
Ave special neighs/atom = 0.0000000
Neighbor list builds = 300000
Dangerous builds = 297000

write_data	data.lj
System init for write_data ...
Total wall time: 1:51:16
