LAMMPS (24 Dec 2020)
OMP_NUM_THREADS environment is not set. Defaulting to 1 thread. (src/comm.cpp:94)
  using 1 OpenMP thread(s) per MPI task
#Read the equilibrated lj fluid and add nanocubes

units           lj
atom_style      full
#atom_modify     map array first cubes
dimension       3
boundary        p p f
pair_style      lj/cut/opt 2.5

variable        sigma           equal 1.0
variable        epsilon         equal 1.0
read_restart	restart.dat.10000000
Reading restart file ...
  restart file = 24 Dec 2020, LAMMPS = 24 Dec 2020
  restoring atom style full from restart
  orthogonal box = (0.0000000 0.0000000 0.0000000) to (140.00000 140.00000 240.00000)
  8 by 8 by 12 MPI processor grid
  restoring pair style lj/cut/opt from restart
  1815307 atoms
Finding 1-2 1-3 1-4 neighbors ...
  special bond factors lj:    0        0        0       
  special bond factors coul:  0        0        0       
     0 = max # of 1-2 neighbors
     0 = max # of 1-3 neighbors
     0 = max # of 1-4 neighbors
     1 = max # of special neighbors
  special bonds CPU = 7.699 seconds
  read_restart CPU = 9.475 seconds

group		solvent type 1
1255237 atoms in group solvent
group 		hull  type 2
218540 atoms in group hull
group 		dummy type 3
341530 atoms in group dummy

neighbor      0.4 bin
neigh_modify  exclude molecule/intra cubes

pair_modify   shift yes

pair_coeff    1 1 1.0 1.0 #solvent
pair_coeff    2 2 1.0 1.0 1.12 #np
pair_coeff    3 3 0.0 0.0 0.0 #dummy
pair_coeff    2 3 0.0 0.0 0.0 #np dummy
pair_coeff    1 2 ${sol} 1.0  #np solvent
pair_coeff    1 2 0.70 1.0  
pair_coeff    1 3 0.0 0.0 0.0 #dummy solvent


comm_modify   mode multi cutoff/multi 1 2.5 cutoff/multi 2 2.5 cutoff/multi 3 6.95

reset_timestep 	0

balance 	1.05 shift z 10 1.05
Balancing ...
Unused restart file global fix info:
  fix style: STORE, fix ID: msd_COMPUTE_STORE
Unused restart file peratom fix info:
  fix style: STORE, fix ID: bin1_COMPUTE_STORE
  fix style: STORE, fix ID: bin3_COMPUTE_STORE
Neighbor list info ...
  update every 1 steps, delay 10 steps, check yes
  max neighbors/atom: 2000, page size: 100000
  master list distance cutoff = 2.9
  ghost atom cutoff = 6.95
  binsize = 1.45, bins = 97 97 166
  1 neighbor lists, perpetual/occasional/extra = 1 0 0
  (1) pair lj/cut/opt, perpetual
      attributes: half, newton on
      pair build: half/bin/newton
      stencil: half/bin/3d/newton
      bin: standard
 rebalancing time: 0.082 seconds
  iteration count = 4
  initial/final maximal load/proc = 5063.0000 3458.0000
  initial/final imbalance factor  = 2.1419980 1.4629724
  x cuts: 0.0000000 0.12500000 0.25000000 0.37500000 0.50000000 0.62500000 0.75000000 0.87500000 1.0000000
  y cuts: 0.0000000 0.12500000 0.25000000 0.37500000 0.50000000 0.62500000 0.75000000 0.87500000 1.0000000
  z cuts: 0.0000000 0.057291667 0.10937500 0.15625000 0.19791667 0.24479167 0.29687500 0.34895833 0.39583333 0.43750000 0.49479167 0.64583333 1.0000000

####################### WALLS ###########################

variable       epsilonWall equal 2*${epsilon}
variable       epsilonWall equal 2*1
variable       repulsive   equal   0.7147*${sigma}
variable       repulsive   equal   0.7147*1
variable       full	   equal   3*${sigma}
variable       full	   equal   3*1
region         lowWall block EDGE EDGE EDGE EDGE EDGE 2

fix            topWall all wall/lj93 zhi EDGE 	       ${epsilonWall} ${sigma} ${repulsive} units box
fix            topWall all wall/lj93 zhi EDGE 	       2 ${sigma} ${repulsive} units box
fix            topWall all wall/lj93 zhi EDGE 	       2 1 ${repulsive} units box
fix            topWall all wall/lj93 zhi EDGE 	       2 1 0.7147 units box
fix            lowSol solvent wall/lj93 zlo EDGE                ${epsilonWall} ${sigma} ${full} units box
fix            lowSol solvent wall/lj93 zlo EDGE                2 ${sigma} ${full} units box
fix            lowSol solvent wall/lj93 zlo EDGE                2 1 ${full} units box
fix            lowSol solvent wall/lj93 zlo EDGE                2 1 3 units box
fix 	       lowCub cubes wall/lj93 zlo EDGE                ${epsilonWall} ${sigma} ${repulsive} units box
fix 	       lowCub cubes wall/lj93 zlo EDGE                2 ${sigma} ${repulsive} units box
fix 	       lowCub cubes wall/lj93 zlo EDGE                2 1 ${repulsive} units box
fix 	       lowCub cubes wall/lj93 zlo EDGE                2 1 0.7147 units box


###################### COMPUTES ##########################

compute        bin1 solvent chunk/atom bin/1d z lower 1.0 units box
compute        bin3 solvent chunk/atom bin/3d x lower 5.0 y lower 5.0 z lower 5.0 units box

compute 	pe solvent 	   pe/atom
compute 	pe2 all 	   pe/atom

######################  FIXES ############################


fix             peclet solvent ave/chunk 10 10 10000 bin1 density/number norm                  none ave one file density.profile

fix              temp solvent ave/chunk 10 10 10000 bin1 temp norm                  none ave one file temp.profile

fix 		 dens solvent ave/chunk 10 10 500000 bin3 density/number norm 		 none ave one file dens3.profile

fix		 temp2 solvent ave/chunk 10 10 500000 bin3 temp norm none ave one file temp3.profile

fix 		pe solvent ave/chunk 1 1 500000 bin3 c_pe norm none ave one file pe3.profile



################### INTEGRATION

fix             1 cubes rigid/nve/small molecule
  create bodies CPU = 0.061 seconds
  490 rigid bodies with 560070 atoms
  6.9282032 = max distance from body owner to body atom

fix             2 solvent nve



## Thermostat
region          regthermo block EDGE EDGE EDGE EDGE 0 15
group           thermo dynamic solvent region regthermo every 1000
dynamic group thermo defined
fix             3 thermo langevin ${temp} ${temp} 10 156453
fix             3 thermo langevin 1.0 ${temp} 10 156453
fix             3 thermo langevin 1.0 1.0 10 156453

## Evaporation
region		regevap block EDGE EDGE EDGE EDGE 140 EDGE
fix 		4 solvent evaporate ${evap} 1 regevap 156415
fix 		4 solvent evaporate 74 1 regevap 156415


#### Load balancing

fix             bal all balance 1000 1.05 shift z 10 1.05

############### Diagnostics and computes ###################

compute        	com cubes          rigid/local   1 mol x y z
compute        	quat cubes         rigid/local   1 mol quatw quati quatj quatk

compute 	cc2 cubes 	   chunk/atom 	 molecule
compute 	msd cubes 	   msd/chunk 	 cc2

fix 		msd all ave/time  1 1 10000 c_msd[*] file dump.msd ave one mode vector

dump            1 all custom 500000 dump.lammpstrj id mol type x y z vx vy vz c_pe2
dump		sol  solvent custom 500000 dump.soltrj id x y z vx vy vz c_pe
dump		cubetrj cubes custom 500000 cubes.lammpstrj id mol type x y z vx vy vz
dump            com cubes local 500000 dump.*.xyz c_com[*]
dump	        xyz hull xyz 500000 cubes.xyz
#dump            quat cubes      local 100000 dump.*.quat c_quat[*]
dump		order cubes 	local 100000 dump.*.order c_com[*] c_quat[*]
#dump		mol cubes molfile 10000 mol.xyz xyz


dump            2 all image 100000 image.*.png type type zoom 1.5 size 1280 720
dump_modify     2 pad 8
dump		image cubes image 100000 image_cubes.*.png type type zoom 1.5 size 1280 720
dump_modify	image pad 8
dump            3 all movie 5000 movie.avi type type zoom 1.5 size 1280 720
dump		4 cubes movie 5000 movie_cubes.avi type type size 1280 720


thermo          1000
thermo_style    custom step temp epair evdwl etotal press pe ke atoms

restart         1000000 restart.dat
timestep        0.005
timer           full
New timer settings: style=full  mode=nosync  timeout=off

run 		${steps}
run 		30000000
Per MPI rank memory allocation (min/avg/max) = 17.48 | 23.62 | 26.87 Mbytes
Step Temp E_pair E_vdwl TotEng Press PotEng KinEng Atoms 
       0    1.0076716   -2.0848625   -2.0848625   -1.0388797  0.097673866   -2.0848625    1.0459828  1815307 
    1000    1.0086498    -2.085945    -2.085945   -1.0389393  0.066760579    -2.085945    1.0470056  1815294 
    2000    1.0085091   -2.0861956   -2.0861956    -1.039328  0.070278441   -2.0861956    1.0468676  1815280 
    3000    1.0089679   -2.0860287   -2.0860287   -1.0386773  0.064727102   -2.0860287    1.0473514  1815267 
    4000    1.0091308    -2.086382    -2.086382   -1.0388534  0.068309153    -2.086382    1.0475286  1815253 
    5000    1.0081227    -2.085298    -2.085298   -1.0388085  0.068418326    -2.085298    1.0464896  1815240 
    6000    1.0086378   -2.0861988   -2.0861988   -1.0391664  0.063080961   -2.0861988    1.0470324  1815226 
    7000    1.0082826   -2.0858575   -2.0858575   -1.0391863  0.067264335   -2.0858575    1.0466712  1815213 
    8000    1.0088186   -2.0864978   -2.0864978   -1.0392621  0.067485819   -2.0864978    1.0472356  1815199 
    9000    1.0080767   -2.0854061   -2.0854061   -1.0389331  0.065762549   -2.0854061     1.046473  1815186 
   10000    1.0076688   -2.0851247   -2.0851247   -1.0390671  0.065650719   -2.0851247    1.0460576  1815172 
   11000    1.0074125    -2.085073    -2.085073    -1.039274   0.06688184    -2.085073     1.045799  1815159 
   12000    1.0076826   -2.0853033   -2.0853033   -1.0392157  0.067692681   -2.0853033    1.0460875  1815145 
   13000    1.0076895   -2.0850422   -2.0850422     -1.03894  0.069490573   -2.0850422    1.0461022  1815132 
   14000    1.0076927   -2.0853507   -2.0853507   -1.0392372  0.067954799   -2.0853507    1.0461136  1815118 
   15000    1.0066004   -2.0840577   -2.0840577   -1.0390707  0.069943973   -2.0840577    1.0449871  1815105 
   16000    1.0080573   -2.0851828   -2.0851828   -1.0386752  0.065780889   -2.0851828    1.0465076  1815091 
   17000     1.008012   -2.0852165   -2.0852165   -1.0387485  0.069157417   -2.0852165     1.046468  1815078 
   18000    1.0083671   -2.0858971   -2.0858971   -1.0390522  0.062661792   -2.0858971    1.0468448  1815064 
   19000    1.0077775   -2.0849342   -2.0849342    -1.038694  0.065659474   -2.0849342    1.0462402  1815051 
   20000    1.0077131    -2.084971    -2.084971   -1.0387896  0.067453625    -2.084971    1.0461814  1815037 
   21000    1.0080701   -2.0853422   -2.0853422   -1.0387827  0.065361892   -2.0853422    1.0465595  1815024 
   22000    1.0074762   -2.0845258   -2.0845258   -1.0385748  0.067400524   -2.0845258    1.0459511  1815010 
   23000    1.0074501   -2.0845681   -2.0845681   -1.0386367  0.069202362   -2.0845681    1.0459314  1814997 
   24000    1.0070276    -2.084448    -2.084448   -1.0389471  0.065151373    -2.084448    1.0455009  1814983 
   25000    1.0070271   -2.0842949   -2.0842949   -1.0387871  0.068177679   -2.0842949    1.0455079  1814970 
   26000    1.0076523   -2.0850688   -2.0850688   -1.0389038  0.065424639   -2.0850688     1.046165  1814956 
   27000    1.0071532   -2.0847412   -2.0847412   -1.0390869  0.066078925   -2.0847412    1.0456543  1814943 
   28000    1.0071602   -2.0849662   -2.0849662   -1.0392966  0.065471123   -2.0849662    1.0456696  1814929 
   29000    1.0071845   -2.0848195   -2.0848195   -1.0391172  0.066395928   -2.0848195    1.0457024  1814916 
   30000    1.0066626   -2.0841368   -2.0841368   -1.0389683  0.066514019   -2.0841368    1.0451685  1814902 
   31000    1.0069848      -2.0839      -2.0839   -1.0383894  0.072242044      -2.0839    1.0455106  1814889 
   32000    1.0080724   -2.0852402   -2.0852402   -1.0385924  0.065930446   -2.0852402    1.0466478  1814875 
   33000    1.0076074   -2.0843199   -2.0843199   -1.0381474  0.066802789   -2.0843199    1.0461726  1814862 
   34000    1.0084555   -2.0847825   -2.0847825   -1.0377213  0.065983535   -2.0847825    1.0470612  1814848 
   35000    1.0081726   -2.0841697   -2.0841697   -1.0373948  0.068507198   -2.0841697    1.0467749  1814835 
   36000    1.0084032    -2.084393    -2.084393   -1.0373705  0.069845038    -2.084393    1.0470225  1814821 
   37000     1.008681   -2.0844201   -2.0844201   -1.0371011  0.065159018   -2.0844201     1.047319  1814807 
   38000    1.0088072   -2.0849964   -2.0849964   -1.0375388    0.0669823   -2.0849964    1.0474575  1814794 
   39000    1.0082431   -2.0846181   -2.0846181   -1.0377383  0.066982102   -2.0846181    1.0468798  1814780 
   40000    1.0087837   -2.0848152   -2.0848152   -1.0373665  0.066511113   -2.0848152    1.0474487  1814767 
   41000     1.007662   -2.0843918   -2.0843918   -1.0380996  0.067481924   -2.0843918    1.0462921  1814753 
   42000    1.0075988   -2.0849832   -2.0849832   -1.0387493  0.064074334   -2.0849832    1.0462339  1814740 
   43000    1.0071109   -2.0848773   -2.0848773   -1.0391419  0.067440936   -2.0848773    1.0457354  1814726 
   44000    1.0064539   -2.0850101   -2.0850101   -1.0399494   0.06515976   -2.0850101    1.0450607  1814713 
   45000     1.005972   -2.0844951   -2.0844951   -1.0399267  0.067032342   -2.0844951    1.0445684  1814699 
   46000    1.0060233   -2.0849499   -2.0849499   -1.0403208  0.066575174   -2.0849499    1.0446291  1814686 
   47000    1.0057064   -2.0849816   -2.0849816   -1.0406735  0.063756766   -2.0849816    1.0443081  1814672 
   48000    1.0062085   -2.0844403   -2.0844403   -1.0396034  0.062126153   -2.0844403     1.044837  1814659 
   49000    1.0067115   -2.0850685   -2.0850685   -1.0397011  0.064231914   -2.0850685    1.0453674  1814645 
   50000    1.0065135   -2.0844502   -2.0844502    -1.039281  0.065928009   -2.0844502    1.0451693  1814632 
   51000    1.0070927   -2.0849024   -2.0849024   -1.0391236  0.067578282   -2.0849024    1.0457788  1814618 
   52000    1.0068806    -2.085521    -2.085521    -1.039955  0.065303829    -2.085521     1.045566  1814605 
   53000     1.005787   -2.0840592   -2.0840592   -1.0396208  0.067660609   -2.0840592    1.0444385  1814591 
   54000    1.0068054   -2.0851601   -2.0851601   -1.0396567  0.066271356   -2.0851601    1.0455034  1814578 
   55000    1.0071853   -2.0854269   -2.0854269   -1.0395208  0.063665856   -2.0854269    1.0459061  1814564 
   56000    1.0076037   -2.0860526   -2.0860526   -1.0397046  0.067170854   -2.0860526     1.046348  1814551 
   57000    1.0074504   -2.0855569   -2.0855569   -1.0393599  0.066893081   -2.0855569    1.0461969  1814537 
   58000    1.0075466   -2.0852342   -2.0852342   -1.0389299  0.067700763   -2.0852342    1.0463043  1814524 
   59000    1.0079325    -2.085854    -2.085854   -1.0391409  0.068376537    -2.085854    1.0467131  1814510 
   60000    1.0075727   -2.0854484   -2.0854484   -1.0391015  0.067248699   -2.0854484     1.046347  1814497 
   61000    1.0079329   -2.0862359   -2.0862359   -1.0395067  0.067163948   -2.0862359    1.0467291  1814483 
   62000    1.0079668   -2.0860563   -2.0860563   -1.0392845  0.065555517   -2.0860563    1.0467718  1814470 
   63000    1.0072894   -2.0856825   -2.0856825   -1.0396061  0.067748867   -2.0856825    1.0460764  1814456 
   64000    1.0071426   -2.0861967   -2.0861967   -1.0402652  0.068803547   -2.0861967    1.0459314  1814443 
   65000    1.0077416   -2.0863966   -2.0863966   -1.0398351  0.068205913   -2.0863966    1.0465616  1814429 
   66000    1.0072279   -2.0856005   -2.0856005    -1.039565  0.068029717   -2.0856005    1.0460355  1814416 
   67000    1.0060231   -2.0849018   -2.0849018   -1.0401094  0.068541837   -2.0849018    1.0447925  1814402 
   68000    1.0072819   -2.0862674   -2.0862674   -1.0401602  0.064657034   -2.0862674    1.0461072  1814389 
   69000    1.0074833   -2.0862911   -2.0862911   -1.0399666  0.065553363   -2.0862911    1.0463245  1814375 
   70000    1.0064546   -2.0849373   -2.0849373   -1.0396737  0.066219411   -2.0849373    1.0452636  1814362 
   71000    1.0075553   -2.0857892   -2.0857892   -1.0393745  0.066378492   -2.0857892    1.0464148  1814348 
   72000    1.0071675   -2.0852012   -2.0852012   -1.0391816  0.069085952   -2.0852012    1.0460196  1814335 
   73000    1.0078035   -2.0860488   -2.0860488   -1.0393606  0.064807484   -2.0860488    1.0466882  1814321 
   74000    1.0075763   -2.0856515   -2.0856515   -1.0391913  0.066390428   -2.0856515    1.0464602  1814307 
   75000    1.0077781   -2.0858986   -2.0858986   -1.0392213  0.064877896   -2.0858986    1.0466773  1814294 
   76000    1.0072446   -2.0853182   -2.0853182   -1.0391869  0.065553592   -2.0853182    1.0461313  1814280 
   77000    1.0068953   -2.0851417   -2.0851417   -1.0393656  0.063063206   -2.0851417    1.0457761  1814267 
   78000    1.0067656   -2.0851211   -2.0851211   -1.0394717  0.064020298   -2.0851211    1.0456495  1814253 
   79000     1.006899   -2.0849273   -2.0849273   -1.0391319  0.066947908   -2.0849273    1.0457955  1814240 
   80000    1.0073527   -2.0854854   -2.0854854   -1.0392106  0.066563002   -2.0854854    1.0462748  1814226 
   81000    1.0068175   -2.0844369   -2.0844369   -1.0387105  0.062966152   -2.0844369    1.0457264  1814213 
   82000    1.0068946   -2.0847999   -2.0847999   -1.0389853   0.06970355   -2.0847999    1.0458146  1814199 
   83000    1.0058055    -2.083887    -2.083887   -1.0391962  0.066798243    -2.083887    1.0446908  1814186 
   84000    1.0072437   -2.0849966   -2.0849966   -1.0388038  0.067938998   -2.0849966    1.0461927  1814172 
   85000    1.0058349   -2.0837183   -2.0837183   -1.0389814  0.068869104   -2.0837183    1.0447369  1814159 
   86000    1.0073186   -2.0851754   -2.0851754   -1.0388894  0.069849781   -2.0851754     1.046286  1814145 
   87000    1.0067373   -2.0846957   -2.0846957   -1.0390059  0.070067137   -2.0846957    1.0456898  1814132 
   88000    1.0066213   -2.0847815   -2.0847815   -1.0392042  0.066051611   -2.0847815    1.0455773  1814118 
   89000    1.0064233   -2.0848096   -2.0848096   -1.0394304  0.066672406   -2.0848096    1.0453792  1814105 
   90000    1.0067006   -2.0856842   -2.0856842    -1.040009  0.064467658   -2.0856842    1.0456753  1814091 
   91000    1.0061282   -2.0855324   -2.0855324   -1.0404442  0.066204425   -2.0855324    1.0450882  1814078 
   92000    1.0055836   -2.0845158   -2.0845158   -1.0399852  0.067814767   -2.0845158    1.0445306  1814064 
   93000    1.0059563   -2.0846018   -2.0846018   -1.0396765  0.063584246   -2.0846018    1.0449252  1814051 
   94000    1.0058611   -2.0851612   -2.0851612   -1.0403268  0.063499941   -2.0851612    1.0448344  1814037 
   95000     1.005962   -2.0846031   -2.0846031   -1.0396565  0.065518906   -2.0846031    1.0449466  1814024 
   96000     1.006278   -2.0845877   -2.0845877   -1.0393047  0.063902726   -2.0845877     1.045283  1814010 
   97000    1.0057367   -2.0844916   -2.0844916   -1.0397634  0.067101327   -2.0844916    1.0447282  1813997 
   98000    1.0062455   -2.0846628   -2.0846628    -1.039398  0.065974993   -2.0846628    1.0452648  1813983 
   99000     1.007485   -2.0860921   -2.0860921   -1.0395323  0.062762407   -2.0860921    1.0465598  1813970 
  100000    1.0065481   -2.0847261   -2.0847261   -1.0391314  0.064717626   -2.0847261    1.0455947  1813956 
  101000    1.0063476   -2.0847488   -2.0847488   -1.0393549  0.069108135   -2.0847488    1.0453939  1813943 
  102000    1.0070174   -2.0858284   -2.0858284   -1.0397307  0.067943434   -2.0858284    1.0460978  1813929 
  103000    1.0066391   -2.0850583   -2.0850583    -1.039346  0.069749249   -2.0850583    1.0457123  1813916 
  104000    1.0067236   -2.0850101   -2.0850101    -1.039202  0.066210467   -2.0850101    1.0458081  1813902 
  105000    1.0065198   -2.0847966   -2.0847966   -1.0391926  0.065025375   -2.0847966    1.0456039  1813889 
  106000    1.0068701   -2.0849245   -2.0849245   -1.0389486  0.066235567   -2.0849245    1.0459759  1813875 
  107000    1.0069346   -2.0850882   -2.0850882   -1.0390378  0.063322948   -2.0850882    1.0460504  1813862 
  108000    1.0076315    -2.085954    -2.085954   -1.0391716  0.066226742    -2.085954    1.0467824  1813848 
  109000    1.0074904   -2.0854647   -2.0854647   -1.0388213  0.068284597   -2.0854647    1.0466434  1813835 
  110000    1.0079611   -2.0854631   -2.0854631   -1.0383226  0.067278469   -2.0854631    1.0471405  1813821 
  111000    1.0073504   -2.0851845   -2.0851845   -1.0386704  0.067886247   -2.0851845    1.0465141  1813807 
  112000    1.0080219   -2.0861153   -2.0861153   -1.0388961  0.065387755   -2.0861153    1.0472192  1813794 
  113000    1.0086935   -2.0866533   -2.0866533   -1.0387283  0.065348551   -2.0866533     1.047925  1813780 
  114000    1.0079865   -2.0866933   -2.0866933   -1.0394954  0.063946212   -2.0866933    1.0471979  1813767 
  115000    1.0075431   -2.0863985   -2.0863985   -1.0396531  0.068025064   -2.0863985    1.0467454  1813753 
  116000    1.0078325   -2.0865146   -2.0865146    -1.039461  0.064572096   -2.0865146    1.0470536  1813740 
  117000    1.0084006    -2.086754    -2.086754   -1.0391021  0.067706018    -2.086754    1.0476519  1813726 
  118000    1.0072483   -2.0854485   -2.0854485   -1.0389863  0.069184133   -2.0854485    1.0464622  1813713 
  119000    1.0071177   -2.0855144   -2.0855144   -1.0391798   0.06830379   -2.0855144    1.0463346  1813699 
  120000    1.0068772    -2.085506    -2.085506   -1.0394138  0.069942854    -2.085506    1.0460922  1813686 
  121000    1.0065014   -2.0851958   -2.0851958    -1.039486  0.063803119   -2.0851958    1.0457099  1813672 
  122000     1.006652   -2.0853991   -2.0853991   -1.0395252  0.066816648   -2.0853991    1.0458738  1813659 
  123000    1.0074047   -2.0860973   -2.0860973   -1.0394333  0.066822149   -2.0860973     1.046664  1813645 
  124000     1.006683   -2.0850882   -2.0850882   -1.0391666  0.062924049   -2.0850882    1.0459217  1813632 
  125000    1.0068408    -2.085026    -2.085026   -1.0389324  0.065931081    -2.085026    1.0460937  1813618 
  126000     1.007131   -2.0854419   -2.0854419   -1.0390393  0.065839016   -2.0854419    1.0464027  1813605 
  127000    1.0066069   -2.0849258   -2.0849258   -1.0390596  0.067363328   -2.0849258    1.0458662  1813591 
  128000    1.0065822   -2.0843637   -2.0843637   -1.0385157  0.067213299   -2.0843637     1.045848  1813578 
  129000    1.0066065   -2.0845293   -2.0845293    -1.038648   0.06571981   -2.0845293    1.0458813  1813564 
  130000    1.0073426   -2.0850979   -2.0850979   -1.0384442  0.066447462   -2.0850979    1.0466537  1813551 
  131000    1.0061563   -2.0837292   -2.0837292      -1.0383  0.065749831   -2.0837292    1.0454292  1813537 
  132000    1.0075614   -2.0849034   -2.0849034   -1.0380067  0.064895597   -2.0849034    1.0468967  1813524 
  133000    1.0075611   -2.0849174   -2.0849174    -1.038013  0.065861468   -2.0849174    1.0469044  1813510 
  134000    1.0062991   -2.0833346   -2.0833346    -1.037734  0.067323978   -2.0833346    1.0456006  1813497 
  135000    1.0065891   -2.0838243   -2.0838243   -1.0379143  0.065127323   -2.0838243      1.04591  1813483 
  136000    1.0063435   -2.0827169   -2.0827169   -1.0370546  0.066973357   -2.0827169    1.0456623  1813470 
  137000    1.0063113   -2.0831147   -2.0831147   -1.0374777  0.066752189   -2.0831147    1.0456369  1813456 
  138000    1.0065504   -2.0835877   -2.0835877   -1.0376948  0.065715551   -2.0835877    1.0458929  1813443 
  139000    1.0066784   -2.0839147   -2.0839147   -1.0378808  0.065390559   -2.0839147    1.0460339  1813429 
  140000    1.0064624   -2.0839104   -2.0839104   -1.0380934  0.065693967   -2.0839104     1.045817  1813416 
  141000    1.0067508   -2.0837979   -2.0837979   -1.0376731  0.066796953   -2.0837979    1.0461248  1813402 
  142000     1.006282   -2.0840636   -2.0840636   -1.0384185  0.063406846   -2.0840636    1.0456451  1813389 
  143000    1.0055836   -2.0841384   -2.0841384   -1.0392109  0.066656538   -2.0841384    1.0449274  1813375 
  144000    1.0050169   -2.0836345   -2.0836345   -1.0392884  0.065963858   -2.0836345     1.044346  1813362 
  145000    1.0057932   -2.0837453   -2.0837453   -1.0385844  0.064760469   -2.0837453    1.0451608  1813348 
  146000     1.006248   -2.0839267   -2.0839267   -1.0382858  0.061491072   -2.0839267    1.0456409  1813335 
  147000    1.0067044   -2.0841733   -2.0841733   -1.0380501  0.061994548   -2.0841733    1.0461233  1813321 
  148000     1.006609   -2.0838858   -2.0838858   -1.0378536  0.067459137   -2.0838858    1.0460322  1813307 
  149000    1.0062333   -2.0836274   -2.0836274   -1.0379782  0.063670633   -2.0836274    1.0456493  1813294 
  150000    1.0064692   -2.0845202   -2.0845202   -1.0386177  0.064519735   -2.0845202    1.0459025  1813280 
  151000    1.0066605   -2.0846614   -2.0846614   -1.0385527  0.070527349   -2.0846614    1.0461088  1813267 
  152000    1.0067854   -2.0849792   -2.0849792   -1.0387325  0.068162865   -2.0849792    1.0462467  1813253 
  153000    1.0067517   -2.0847166   -2.0847166   -1.0384974  0.066255992   -2.0847166    1.0462192  1813240 
  154000    1.0069116   -2.0850087   -2.0850087   -1.0386153  0.066553055   -2.0850087    1.0463934  1813226 
  155000    1.0068209   -2.0848956   -2.0848956    -1.038589  0.069501458   -2.0848956    1.0463066  1813213 
  156000     1.006813   -2.0853503   -2.0853503   -1.0390437  0.068811557   -2.0853503    1.0463066  1813199 
  157000    1.0068163   -2.0852966   -2.0852966   -1.0389791  0.066286328   -2.0852966    1.0463175  1813186 
  158000    1.0056268   -2.0839393   -2.0839393     -1.03885   0.06795461   -2.0839393    1.0450893  1813172 
  159000    1.0067773   -2.0854972   -2.0854972   -1.0392047   0.06980509   -2.0854972    1.0462925  1813159 
  160000     1.006592   -2.0851375   -2.0851375   -1.0390295  0.065974418   -2.0851375     1.046108  1813145 
  161000    1.0060386   -2.0852574   -2.0852574    -1.039717  0.065668281   -2.0852574    1.0455404  1813132 
  162000    1.0060949   -2.0853498   -2.0853498   -1.0397429  0.063490462   -2.0853498    1.0456069  1813118 
  163000    1.0067364   -2.0857783   -2.0857783   -1.0394972  0.066708628   -2.0857783    1.0462812  1813105 
  164000    1.0066681   -2.0856068   -2.0856068   -1.0393885   0.06369182   -2.0856068    1.0462183  1813091 
  165000    1.0058374    -2.084694    -2.084694   -1.0393316  0.063042992    -2.084694    1.0453624  1813078 
  166000     1.006746   -2.0856202   -2.0856202   -1.0393054  0.069796259   -2.0856202    1.0463148  1813064 
  167000    1.0065064   -2.0854436   -2.0854436   -1.0393704   0.06986305   -2.0854436    1.0460733  1813051 
  168000    1.0057945    -2.084924    -2.084924   -1.0395826  0.066761972    -2.084924    1.0453414  1813037 
  169000    1.0067491   -2.0864139   -2.0864139   -1.0400728  0.063015643   -2.0864139    1.0463411  1813024 
  170000    1.0067847   -2.0857007   -2.0857007   -1.0393146  0.066497612   -2.0857007    1.0463861  1813010 
  171000    1.0052035    -2.084672    -2.084672   -1.0399218  0.063837553    -2.084672    1.0447502  1812997 
  172000    1.0052011   -2.0848726   -2.0848726   -1.0401168   0.06657023   -2.0848726    1.0447558  1812983 
  173000    1.0049918   -2.0844435   -2.0844435   -1.0398978  0.066786095   -2.0844435    1.0445458  1812970 
  174000    1.0058741   -2.0852186   -2.0852186   -1.0397478   0.06571421   -2.0852186    1.0454709  1812956 
  175000    1.0054216   -2.0850541   -2.0850541    -1.040046  0.062564962   -2.0850541     1.045008  1812943 
  176000    1.0053619   -2.0848438   -2.0848438   -1.0398898  0.065592153   -2.0848438     1.044954  1812929 
  177000    1.0054125   -2.0850149   -2.0850149   -1.0400007  0.065821416   -2.0850149    1.0450142  1812916 
  178000    1.0066856   -2.0858799   -2.0858799   -1.0395345   0.06313704   -2.0858799    1.0463455  1812902 
  179000    1.0059971   -2.0847973   -2.0847973   -1.0391599  0.066976463   -2.0847973    1.0456374  1812889 
  180000    1.0068775   -2.0855744   -2.0855744   -1.0390139  0.064398823   -2.0855744    1.0465605  1812875 
  181000    1.0063326   -2.0849381   -2.0849381   -1.0389364  0.066887565   -2.0849381    1.0460017  1812862 
  182000    1.0065836   -2.0854086   -2.0854086    -1.039138  0.070084682   -2.0854086    1.0462706  1812848 
  183000    1.0067758   -2.0855203   -2.0855203   -1.0390423  0.065206446   -2.0855203    1.0464779  1812835 
  184000    1.0064687   -2.0852963   -2.0852963   -1.0391295  0.068045282   -2.0852963    1.0461668  1812821 
  185000    1.0073036   -2.0855258   -2.0855258   -1.0384832  0.068042273   -2.0855258    1.0470427  1812807 
  186000    1.0075818   -2.0855871   -2.0855871   -1.0382477  0.068457863   -2.0855871    1.0473394  1812794 
  187000    1.0068241   -2.0854416   -2.0854416   -1.0388817  0.067018537   -2.0854416    1.0465599  1812780 
  188000    1.0070602   -2.0858984   -2.0858984   -1.0390856  0.067123567   -2.0858984    1.0468128  1812767 
  189000    1.0062447    -2.085144    -2.085144   -1.0391708  0.065409714    -2.085144    1.0459732  1812753 
  190000     1.006589   -2.0858535   -2.0858535   -1.0395149  0.067542747   -2.0858535    1.0463386  1812740 
  191000    1.0065206   -2.0852252   -2.0852252   -1.0389496  0.066231931   -2.0852252    1.0462755  1812726 
  192000    1.0063231   -2.0857257   -2.0857257    -1.039648  0.067572395   -2.0857257    1.0460777  1812713 
  193000    1.0054985     -2.08464     -2.08464   -1.0394113  0.067246192     -2.08464    1.0452287  1812699 
  194000    1.0051426   -2.0850648   -2.0850648   -1.0401986  0.064635798   -2.0850648    1.0448662  1812686 
  195000    1.0053351   -2.0855262   -2.0855262   -1.0404518   0.06356274   -2.0855262    1.0450744  1812672 
  196000    1.0056941   -2.0854967   -2.0854967   -1.0400417  0.066977702   -2.0854967     1.045455  1812659 
  197000    1.0052388   -2.0848103   -2.0848103   -1.0398205  0.067781451   -2.0848103    1.0449899  1812645 
  198000    1.0058897   -2.0854831   -2.0854831   -1.0398091  0.065958131   -2.0854831     1.045674  1812632 
  199000    1.0058404   -2.0850353   -2.0850353   -1.0394045  0.065890079   -2.0850353    1.0456308  1812618 
  200000    1.0058292   -2.0848554   -2.0848554   -1.0392288  0.066332074   -2.0848554    1.0456267  1812605 
  201000     1.005189   -2.0848102   -2.0848102    -1.039841  0.066782363   -2.0848102    1.0449692  1812591 
  202000    1.0060578    -2.085491    -2.085491   -1.0396111  0.064300768    -2.085491    1.0458799  1812578 
  203000     1.005826   -2.0857542   -2.0857542   -1.0401072  0.065010938   -2.0857542     1.045647  1812564 
  204000    1.0057351   -2.0848002   -2.0848002   -1.0392402  0.064978952   -2.0848002      1.04556  1812551 
  205000    1.0059784   -2.0849244   -2.0849244   -1.0391034   0.06515937   -2.0849244     1.045821  1812537 
  206000    1.0057467   -2.0846878   -2.0846878   -1.0391002  0.068250037   -2.0846878    1.0455876  1812524 
  207000     1.005621   -2.0846359   -2.0846359   -1.0391709  0.065454267   -2.0846359     1.045465  1812510 
  208000    1.0057774   -2.0850545   -2.0850545   -1.0394194   0.06631104   -2.0850545    1.0456351  1812497 
  209000    1.0064496   -2.0859122   -2.0859122   -1.0395702  0.068737337   -2.0859122     1.046342  1812483 
  210000    1.0054561   -2.0848511   -2.0848511   -1.0395344  0.062752485   -2.0848511    1.0453167  1812470 
  211000    1.0055806   -2.0848861   -2.0848861    -1.039432  0.064274608   -2.0848861    1.0454541  1812456 
  212000    1.0057233   -2.0849744   -2.0849744   -1.0393643   0.06408042   -2.0849744    1.0456101  1812443 
  213000    1.0053094   -2.0850819   -2.0850819   -1.0398941  0.068203907   -2.0850819    1.0451878  1812429 
  214000    1.0061098   -2.0863745   -2.0863745   -1.0403471  0.065071608   -2.0863745    1.0460274  1812416 
  215000    1.0055875   -2.0856074   -2.0856074   -1.0401149  0.068700094   -2.0856074    1.0454925  1812402 
  216000    1.0057748   -2.0856574   -2.0856574   -1.0399627  0.063893312   -2.0856574    1.0456947  1812389 
  217000    1.0055606   -2.0857839   -2.0857839   -1.0403038  0.066345154   -2.0857839    1.0454801  1812375 
  218000    1.0055094   -2.0855191   -2.0855191   -1.0400847   0.06435745   -2.0855191    1.0454344  1812362 
  219000    1.0053432   -2.0852639   -2.0852639   -1.0399943  0.065920341   -2.0852639    1.0452696  1812348 
  220000    1.0053091   -2.0848733   -2.0848733   -1.0396316  0.068579232   -2.0848733    1.0452417  1812335 
  221000    1.0059917    -2.086024    -2.086024   -1.0400645  0.068351215    -2.086024    1.0459595  1812321 
  222000    1.0065948    -2.086558    -2.086558   -1.0399634   0.06736429    -2.086558    1.0465946  1812307 
  223000    1.0069548    -2.086391    -2.086391   -1.0394146   0.06674284    -2.086391    1.0469764  1812294 
  224000    1.0067909   -2.0864063   -2.0864063   -1.0395922  0.064496419   -2.0864063    1.0468141  1812280 
  225000     1.006765   -2.0865768   -2.0865768   -1.0397822  0.068391554   -2.0865768    1.0467946  1812267 
  226000    1.0064637   -2.0861611   -2.0861611   -1.0396716  0.066974169   -2.0861611    1.0464895  1812253 
  227000    1.0062392   -2.0860869   -2.0860869   -1.0398234  0.067744749   -2.0860869    1.0462635  1812240 
  228000    1.0055791    -2.085861    -2.085861   -1.0402757  0.065670679    -2.085861    1.0455853  1812226 
  229000    1.0052902   -2.0859207   -2.0859207   -1.0406283  0.063778398   -2.0859207    1.0452924  1812213 
  230000    1.0049099   -2.0858628   -2.0858628   -1.0409578  0.067387014   -2.0858628     1.044905  1812199 
  231000    1.0055846   -2.0860993   -2.0860993   -1.0404853  0.066093782   -2.0860993     1.045614  1812186 
  232000    1.0050803   -2.0853854   -2.0853854   -1.0402876   0.06590971   -2.0853854    1.0450978  1812172 
  233000    1.0059054   -2.0865007   -2.0865007   -1.0405375  0.064353835   -2.0865007    1.0459633  1812159 
  234000    1.0057244   -2.0860289   -2.0860289   -1.0402458   0.06868602   -2.0860289    1.0457831  1812145 
  235000    1.0058305   -2.0858727   -2.0858727   -1.0399718  0.069303269   -2.0858727    1.0459009  1812132 
  236000    1.0058438   -2.0856193   -2.0856193   -1.0396964  0.065981575   -2.0856193    1.0459229  1812118 
  237000     1.005896     -2.08575     -2.08575   -1.0397654  0.064966608     -2.08575    1.0459846  1812105 
  238000    1.0045573   -2.0847289   -2.0847289   -1.0401282  0.065275251   -2.0847289    1.0446007  1812091 
  239000    1.0047498   -2.0847568   -2.0847568   -1.0399484  0.067528988   -2.0847568    1.0448083  1812078 
  240000    1.0053905   -2.0850863   -2.0850863   -1.0396037  0.066724261   -2.0850863    1.0454827  1812064 
  241000      1.00464   -2.0848797   -2.0848797   -1.0401699  0.064188729   -2.0848797    1.0447097  1812051 
  242000    1.0047482   -2.0848566   -2.0848566   -1.0400264  0.069260928   -2.0848566    1.0448303  1812037 
  243000    1.0043911   -2.0849039   -2.0849039   -1.0404375   0.06528844   -2.0849039    1.0444664  1812024 
  244000    1.0047423    -2.084398    -2.084398   -1.0395582  0.066008158    -2.084398    1.0448398  1812010 
  245000    1.0050894   -2.0843236   -2.0843236   -1.0391154  0.069017547   -2.0843236    1.0452082  1811997 
  246000    1.0052406   -2.0845326   -2.0845326   -1.0391591  0.062533731   -2.0845326    1.0453735  1811983 
  247000    1.0050047   -2.0842466   -2.0842466   -1.0391109  0.067155022   -2.0842466    1.0451357  1811970 
  248000    1.0050335   -2.0838724   -2.0838724   -1.0386988  0.064484487   -2.0838724    1.0451736  1811956 
  249000    1.0060021   -2.0846003   -2.0846003   -1.0384118  0.066967322   -2.0846003    1.0461885  1811943 
  250000    1.0063208   -2.0849483   -2.0849483   -1.0384202  0.065617579   -2.0849483     1.046528  1811929 
  251000    1.0055179   -2.0840136   -2.0840136   -1.0383131  0.066008696   -2.0840136    1.0457005  1811916 
  252000    1.0051443   -2.0836962   -2.0836962   -1.0383761  0.065573408   -2.0836962    1.0453201  1811902 
  253000    1.0050364   -2.0836314   -2.0836314    -1.038416  0.065539487   -2.0836314    1.0452154  1811889 
  254000    1.0058621   -2.0843601   -2.0843601   -1.0382779  0.064492227   -2.0843601    1.0460822  1811875 
  255000    1.0052317    -2.083763    -2.083763    -1.038329   0.06384133    -2.083763     1.045434  1811862 
  256000    1.0053006   -2.0837941   -2.0837941   -1.0382804  0.065910386   -2.0837941    1.0455137  1811848 
  257000    1.0047282   -2.0829992   -2.0829992   -1.0380732  0.064697351   -2.0829992     1.044926  1811835 
  258000    1.0053544   -2.0832754   -2.0832754   -1.0376902  0.067012497   -2.0832754    1.0455853  1811821 
  259000    1.0057056   -2.0838785   -2.0838785   -1.0379198   0.06367174   -2.0838785    1.0459587  1811807 
  260000    1.0054093   -2.0836927   -2.0836927   -1.0380347  0.072105367   -2.0836927     1.045658  1811794 
  261000    1.0054042   -2.0834323   -2.0834323   -1.0377715  0.064512822   -2.0834323    1.0456608  1811780 
  262000    1.0058719   -2.0839775   -2.0839775   -1.0378228  0.066657308   -2.0839775    1.0461547  1811767 
  263000    1.0058799   -2.0843466   -2.0843466   -1.0381755  0.062578178   -2.0843466    1.0461711  1811753 
  264000    1.0052527   -2.0835731   -2.0835731   -1.0380468  0.067059401   -2.0835731    1.0455262  1811740 
  265000    1.0052711   -2.0835949   -2.0835949   -1.0380414  0.065126636   -2.0835949    1.0455535  1811726 
  266000     1.005541   -2.0839156   -2.0839156   -1.0380739  0.065986181   -2.0839156    1.0458417  1811713 
  267000    1.0057733   -2.0844405   -2.0844405    -1.038349  0.066763424   -2.0844405    1.0460914  1811699 
  268000    1.0051275   -2.0834367   -2.0834367   -1.0380095  0.065822489   -2.0834367    1.0454272  1811686 
  269000    1.0064021    -2.084901    -2.084901     -1.03814  0.062587774    -2.084901     1.046761  1811672 
  270000     1.004161   -2.0824977   -2.0824977   -1.0380602  0.068801121   -2.0824977    1.0444375  1811659 
  271000    1.0042434   -2.0825152   -2.0825152   -1.0379838  0.064500604   -2.0825152    1.0445313  1811645 
  272000    1.0056425   -2.0834983   -2.0834983   -1.0375043  0.067383159   -2.0834983    1.0459941  1811632 
  273000    1.0048092   -2.0828487   -2.0828487   -1.0377132  0.065633478   -2.0828487    1.0451354  1811618 
  274000    1.0052342   -2.0834294   -2.0834294   -1.0378445  0.069395112   -2.0834294    1.0455849  1811605 
  275000    1.0064685   -2.0848736   -2.0848736   -1.0379968  0.061625853   -2.0848736    1.0468769  1811591 
  276000    1.0060279   -2.0843441   -2.0843441    -1.037918  0.063439851   -2.0843441    1.0464261  1811578 
  277000    1.0060443   -2.0843824   -2.0843824   -1.0379312  0.068126552   -2.0843824    1.0464512  1811564 
  278000    1.0056007    -2.083496    -2.083496   -1.0374986  0.066236741    -2.083496    1.0459973  1811551 
  279000    1.0063319   -2.0851267   -2.0851267   -1.0383607  0.063029252   -2.0851267     1.046766  1811537 
  280000    1.0058216   -2.0844218   -2.0844218   -1.0381791  0.067064641   -2.0844218    1.0462427  1811524 
  281000    1.0063787   -2.0850062   -2.0850062   -1.0381759  0.066193549   -2.0850062    1.0468303  1811510 
  282000    1.0053731   -2.0844099   -2.0844099   -1.0386181  0.063683564   -2.0844099    1.0457918  1811497 
  283000    1.0053662   -2.0846069   -2.0846069   -1.0388142   0.06230725   -2.0846069    1.0457927  1811483 
  284000    1.0047157   -2.0839898   -2.0839898   -1.0388663  0.067540021   -2.0839898    1.0451235  1811470 
  285000    1.0056298   -2.0843859   -2.0843859   -1.0383034  0.063619962   -2.0843859    1.0460825  1811456 
  286000    1.0052596     -2.08407     -2.08407    -1.038365  0.067963331     -2.08407    1.0457049  1811443 
  287000    1.0052217   -2.0838337   -2.0838337   -1.0381601  0.067491081   -2.0838337    1.0456736  1811429 
  288000    1.0053853    -2.084392    -2.084392   -1.0385408  0.065127436    -2.084392    1.0458512  1811416 
  289000    1.0047641   -2.0842593   -2.0842593   -1.0390462  0.064794089   -2.0842593    1.0452131  1811402 
  290000    1.0045829    -2.084036    -2.084036    -1.039004  0.065936068    -2.084036    1.0450321  1811389 
  291000    1.0048704   -2.0834136   -2.0834136   -1.0380743  0.065293932   -2.0834136    1.0453393  1811375 
  292000     1.005098   -2.0841458   -2.0841458   -1.0385622  0.060834025   -2.0841458    1.0455835  1811362 
  293000    1.0060016   -2.0847282   -2.0847282   -1.0381966  0.062314922   -2.0847282    1.0465316  1811348 
  294000    1.0053462   -2.0844083   -2.0844083   -1.0385509  0.070417587   -2.0844083    1.0458573  1811335 
  295000    1.0053102   -2.0843072   -2.0843072   -1.0384792   0.06576215   -2.0843072    1.0458279  1811321 
  296000    1.0044087   -2.0837698   -2.0837698   -1.0388716  0.069907725   -2.0837698    1.0448982  1811307 
  297000      1.00466    -2.083844    -2.083844   -1.0386769  0.063849295    -2.083844    1.0451671  1811294 
  298000    1.0050968   -2.0843033   -2.0843033   -1.0386737  0.067988603   -2.0843033    1.0456296  1811280 
  299000    1.0052404   -2.0839889   -2.0839889   -1.0382024  0.064876765   -2.0839889    1.0457865  1811267 
  300000    1.0043917   -2.0834543   -2.0834543   -1.0385427   0.06630692   -2.0834543    1.0449116  1811253 
  301000    1.0043335   -2.0832229   -2.0832229   -1.0383643  0.065972778   -2.0832229    1.0448586  1811240 
  302000     1.005548   -2.0845352   -2.0845352   -1.0384051  0.065651742   -2.0845352    1.0461302  1811226 
  303000    1.0054377   -2.0843403   -2.0843403   -1.0383174   0.06475952   -2.0843403    1.0460229  1811213 
  304000    1.0052647    -2.084229    -2.084229   -1.0383779  0.062431957    -2.084229    1.0458511  1811199 
  305000    1.0053367   -2.0846589   -2.0846589   -1.0387254  0.066946606   -2.0846589    1.0459335  1811186 
  306000    1.0046985   -2.0835593   -2.0835593   -1.0382817  0.066958307   -2.0835593    1.0452776  1811172 
  307000    1.0053897   -2.0839313   -2.0839313   -1.0379271  0.067519406   -2.0839313    1.0460042  1811159 
  308000    1.0053513   -2.0838194   -2.0838194    -1.037847  0.066902441   -2.0838194    1.0459724  1811145 
  309000    1.0053848    -2.083679    -2.083679   -1.0376642  0.069443164    -2.083679    1.0460147  1811132 
  310000    1.0054418   -2.0837033   -2.0837033   -1.0376212   0.06702529   -2.0837033    1.0460821  1811118 
  311000    1.0058978   -2.0837541   -2.0837541   -1.0371901  0.066958751   -2.0837541     1.046564  1811105 
  312000    1.0055415   -2.0838611   -2.0838611   -1.0376596   0.06352899   -2.0838611    1.0462014  1811091 
  313000    1.0052026   -2.0841692   -2.0841692   -1.0383129  0.067402848   -2.0841692    1.0458563  1811078 
  314000    1.0054429   -2.0839115   -2.0839115   -1.0377971  0.067689675   -2.0839115    1.0461144  1811064 
  315000    1.0048884    -2.083794    -2.083794    -1.038249  0.063525897    -2.083794     1.045545  1811051 
  316000    1.0056452   -2.0839616   -2.0839616   -1.0376211  0.062426696   -2.0839616    1.0463405  1811037 
  317000    1.0052585   -2.0834415   -2.0834415   -1.0374959  0.068200014   -2.0834415    1.0459457  1811024 
  318000     1.005637    -2.083327    -2.083327   -1.0369795  0.069054765    -2.083327    1.0463475  1811010 
  319000    1.0065545   -2.0838432   -2.0838432   -1.0365334  0.066967733   -2.0838432    1.0473098  1810997 
  320000    1.0059086   -2.0836629   -2.0836629   -1.0370172  0.066727625   -2.0836629    1.0466458  1810983 
  321000    1.0058259   -2.0833396   -2.0833396   -1.0367724  0.069226414   -2.0833396    1.0465673  1810970 
  322000    1.0049124   -2.0823378   -2.0823378   -1.0367129  0.065383473   -2.0823378    1.0456248  1810956 
  323000    1.0055681   -2.0833201   -2.0833201   -1.0370055  0.066224821   -2.0833201    1.0463146  1810943 
  324000    1.0050855    -2.083041    -2.083041   -1.0372205   0.06702427    -2.083041    1.0458205  1810929 
  325000    1.0047091   -2.0826774   -2.0826774    -1.037241  0.068099207   -2.0826774    1.0454363  1810916 
  326000    1.0048767    -2.082586    -2.082586   -1.0369671  0.067607664    -2.082586    1.0456189  1810902 
  327000    1.0065033   -2.0842053   -2.0842053   -1.0368864  0.062114586   -2.0842053    1.0473189  1810889 
  328000    1.0045225   -2.0822122   -2.0822122   -1.0369463  0.063107103   -2.0822122    1.0452659  1810875 
  329000    1.0051126   -2.0826472   -2.0826472   -1.0367598   0.06375635   -2.0826472    1.0458875  1810862 
  330000    1.0046235   -2.0825072   -2.0825072   -1.0371207  0.068640026   -2.0825072    1.0453865  1810848 
  331000    1.0040628   -2.0821041   -2.0821041   -1.0372934  0.065870822   -2.0821041    1.0448106  1810835 
  332000     1.004627   -2.0817565   -2.0817565   -1.0363508  0.069498599   -2.0817565    1.0454058  1810821 
  333000    1.0044781    -2.082354    -2.082354   -1.0370951  0.067249881    -2.082354    1.0452589  1810807 
  334000    1.0046922   -2.0826128   -2.0826128   -1.0371236  0.064431297   -2.0826128    1.0454892  1810794 
  335000    1.0045202   -2.0825572   -2.0825572   -1.0372389  0.068513185   -2.0825572    1.0453183  1810780 
  336000    1.0047366    -2.082283    -2.082283   -1.0367319  0.066045597    -2.082283    1.0455511  1810767 
  337000    1.0041171   -2.0818846   -2.0818846   -1.0369701  0.063891695   -2.0818846    1.0449145  1810753 
  338000    1.0043781     -2.08264     -2.08264   -1.0374464  0.063966437     -2.08264    1.0451936  1810740 
  339000    1.0038154   -2.0822353   -2.0822353   -1.0376192   0.06785159   -2.0822353    1.0446161  1810726 
  340000    1.0039181   -2.0824937   -2.0824937   -1.0377632   0.06534238   -2.0824937    1.0447305  1810713 
  341000    1.0042039   -2.0821423   -2.0821423   -1.0371064  0.064637047   -2.0821423    1.0450359  1810699 
  342000    1.0042211   -2.0824048   -2.0824048   -1.0373435  0.067049209   -2.0824048    1.0450613  1810686 
  343000    1.0045921   -2.0828307   -2.0828307   -1.0373752  0.065593066   -2.0828307    1.0454555  1810672 
  344000    1.0038886   -2.0824362   -2.0824362   -1.0377053  0.067563068   -2.0824362    1.0447309  1810659 
  345000     1.004937   -2.0833001   -2.0833001   -1.0374701  0.062423208   -2.0833001      1.04583  1810645 
  346000    1.0037877   -2.0817622   -2.0817622   -1.0371208  0.065649923   -2.0817622    1.0446415  1810632 
  347000    1.0048655   -2.0825854   -2.0825854   -1.0368142  0.066288513   -2.0825854    1.0457712  1810618 
  348000    1.0040305   -2.0826689   -2.0826689   -1.0377592   0.06850971   -2.0826689    1.0449097  1810605 
  349000    1.0043757    -2.083078    -2.083078    -1.037801  0.065448706    -2.083078     1.045277  1810591 
  350000    1.0050527   -2.0835785   -2.0835785   -1.0375894  0.065186102   -2.0835785    1.0459891  1810578 
  351000    1.0047591   -2.0835831   -2.0835831   -1.0378915  0.067788621   -2.0835831    1.0456917  1810564 
  352000    1.0034214   -2.0825245   -2.0825245   -1.0382175  0.069339197   -2.0825245    1.0443069  1810551 
  353000    1.0037178   -2.0829708   -2.0829708   -1.0383473  0.065620599   -2.0829708    1.0446235  1810537 
  354000     1.004684    -2.084555    -2.084555   -1.0389184  0.064952888    -2.084555    1.0456366  1810524 
  355000    1.0049837   -2.0850623   -2.0850623   -1.0391057     0.068369   -2.0850623    1.0459566  1810510 
  356000    1.0040033   -2.0840394   -2.0840394   -1.0390957  0.067926262   -2.0840394    1.0449438  1810497 
  357000    1.0033321   -2.0837637   -2.0837637   -1.0395104  0.066770653   -2.0837637    1.0442533  1810483 
  358000    1.0042626   -2.0847183   -2.0847183   -1.0394891  0.063798413   -2.0847183    1.0452292  1810470 
  359000    1.0041089   -2.0845749   -2.0845749   -1.0394976  0.066653397   -2.0845749    1.0450773  1810456 
  360000    1.0041903    -2.085025    -2.085025   -1.0398555  0.067085948    -2.085025    1.0451696  1810443 
  361000    1.0044278   -2.0856124   -2.0856124   -1.0401875  0.067704086   -2.0856124    1.0454249  1810429 
  362000    1.0048182   -2.0857476   -2.0857476    -1.039909  0.067129428   -2.0857476    1.0458387  1810416 
  363000    1.0047404   -2.0857286   -2.0857286   -1.0399628  0.069777639   -2.0857286    1.0457658  1810402 
  364000    1.0044236   -2.0852917   -2.0852917   -1.0398481  0.067042222   -2.0852917    1.0454436  1810389 
  365000    1.0041514   -2.0855589   -2.0855589   -1.0403906    0.0667044   -2.0855589    1.0451683  1810375 
  366000     1.003869     -2.08519     -2.08519   -1.0403081   0.06577871     -2.08519    1.0448819  1810362 
  367000    1.0042722   -2.0854928   -2.0854928   -1.0401832  0.066206317   -2.0854928    1.0453096  1810348 
  368000    1.0048914   -2.0860015   -2.0860015   -1.0400398  0.069727096   -2.0860015    1.0459617  1810335 
  369000    1.0038504    -2.084845    -2.084845   -1.0399587  0.068354699    -2.084845    1.0448862  1810321 
  370000    1.0050838   -2.0861643   -2.0861643   -1.0399862  0.070498914   -2.0861643    1.0461781  1810307 
  371000    1.0042241   -2.0851671   -2.0851671   -1.0398763  0.065353804   -2.0851671    1.0452907  1810294 
  372000    1.0052371   -2.0865254   -2.0865254   -1.0401721  0.069081763   -2.0865254    1.0463532  1810280 
  373000    1.0039882   -2.0853522   -2.0853522   -1.0402914  0.067978576   -2.0853522    1.0450608  1810267 
  374000    1.0058379   -2.0865586   -2.0865586   -1.0395643  0.067502356   -2.0865586    1.0469943  1810253 
  375000     1.006508   -2.0870849   -2.0870849   -1.0393856  0.069772483   -2.0870849    1.0476993  1810240 
  376000    1.0047066    -2.085607    -2.085607   -1.0397748  0.067557746    -2.085607    1.0458322  1810226 
  377000     1.004761   -2.0860133   -2.0860133   -1.0401169  0.069141409   -2.0860133    1.0458964  1810213 
  378000    1.0047606    -2.085997    -2.085997   -1.0400929  0.066267931    -2.085997    1.0459041  1810199 
  379000    1.0037436   -2.0848277   -2.0848277   -1.0399747  0.067972303   -2.0848277     1.044853  1810186 
  380000    1.0045164     -2.08562     -2.08562   -1.0399545  0.069415645     -2.08562    1.0456655  1810172 
  381000     1.004864   -2.0859347   -2.0859347   -1.0398999  0.066454426   -2.0859347    1.0460348  1810159 
  382000    1.0030282   -2.0846226   -2.0846226   -1.0404907   0.06650406   -2.0846226    1.0441319  1810145 
  383000     1.002826   -2.0842023   -2.0842023   -1.0402735  0.065665611   -2.0842023    1.0439289  1810132 
  384000    1.0043704   -2.0855645   -2.0855645   -1.0400197  0.065009486   -2.0855645    1.0455447  1810118 
  385000    1.0038935   -2.0847141   -2.0847141   -1.0396583  0.066305662   -2.0847141    1.0450558  1810105 
  386000    1.0035877    -2.084285    -2.084285   -1.0395396   0.06628018    -2.084285    1.0447455  1810091 
  387000    1.0033551   -2.0841834   -2.0841834   -1.0396726  0.067262557   -2.0841834    1.0445108  1810078 
  388000    1.0032731   -2.0844286   -2.0844286   -1.0399951  0.064831263   -2.0844286    1.0444335  1810064 
  389000    1.0042171   -2.0845027   -2.0845027   -1.0390789  0.065329027   -2.0845027    1.0454238  1810051 
  390000    1.0037429   -2.0843062   -2.0843062    -1.039368  0.066937324   -2.0843062    1.0449382  1810037 
  391000    1.0045676    -2.084803    -2.084803   -1.0389987  0.069376432    -2.084803    1.0458043  1810024 
  392000    1.0051621   -2.0848846   -2.0848846   -1.0384533  0.066198562   -2.0848846    1.0464313  1810010 
  393000    1.0042706   -2.0840629   -2.0840629   -1.0385523  0.066100076   -2.0840629    1.0455106  1809997 
  394000    1.0030526    -2.083237    -2.083237   -1.0389863  0.066005846    -2.083237    1.0442507  1809983 
  395000    1.0040915   -2.0844973   -2.0844973   -1.0391575  0.064103514   -2.0844973    1.0453398  1809970 
  396000    1.0032986   -2.0833341   -2.0833341   -1.0388117  0.066240798   -2.0833341    1.0445224  1809956 
  397000    1.0028489   -2.0832916   -2.0832916   -1.0392299  0.066939327   -2.0832916    1.0440617  1809943 
  398000    1.0030357   -2.0836702   -2.0836702   -1.0394059    0.0654784   -2.0836702    1.0442644  1809929 
  399000    1.0032603   -2.0846446   -2.0846446   -1.0401389  0.064629032   -2.0846446    1.0445056  1809916 
  400000    1.0024619   -2.0837533   -2.0837533   -1.0400708  0.067760851   -2.0837533    1.0436825  1809902 
  401000    1.0021667   -2.0832586   -2.0832586   -1.0398759  0.064427586   -2.0832586    1.0433827  1809889 
  402000     1.002097    -2.083163    -2.083163   -1.0398449  0.066958967    -2.083163    1.0433181  1809875 
  403000    1.0024924   -2.0831263   -2.0831263    -1.039389  0.066534301   -2.0831263    1.0437373  1809862 
  404000    1.0026169   -2.0831672   -2.0831672   -1.0392922  0.066249329   -2.0831672     1.043875  1809848 
  405000    1.0035671   -2.0834629   -2.0834629    -1.038591  0.063854126   -2.0834629    1.0448719  1809835 
  406000    1.0034874   -2.0834949   -2.0834949   -1.0386981  0.067957097   -2.0834949    1.0447969  1809821 
  407000    1.0045916   -2.0848208   -2.0848208   -1.0388661  0.068102965   -2.0848208    1.0459546  1809807 
  408000     1.003431   -2.0838356   -2.0838356   -1.0390818  0.068562377   -2.0838356    1.0447538  1809794 
  409000    1.0028303   -2.0832088   -2.0832088   -1.0390724  0.065271744   -2.0832088    1.0441364  1809780 
  410000    1.0043459   -2.0848686   -2.0848686   -1.0391466   0.06538068   -2.0848686     1.045722  1809767 
  411000     1.004061   -2.0841826   -2.0841826   -1.0387492  0.069194817   -2.0841826    1.0454334  1809753 
  412000    1.0042437   -2.0846542   -2.0846542    -1.039023  0.064752015   -2.0846542    1.0456311  1809740 
  413000    1.0039007   -2.0837026   -2.0837026   -1.0384206  0.068707843   -2.0837026    1.0452821  1809726 
  414000    1.0049536   -2.0846329   -2.0846329    -1.038247  0.069883362   -2.0846329    1.0463859  1809713 
  415000    1.0044679   -2.0846266   -2.0846266   -1.0387383  0.065049743   -2.0846266    1.0458883  1809699 
  416000    1.0035555   -2.0840762   -2.0840762   -1.0391304  0.066341003   -2.0840762    1.0449458  1809686 
  417000    1.0035434    -2.084664    -2.084664   -1.0397228  0.061885629    -2.084664    1.0449412  1809672 
  418000    1.0027713   -2.0836109   -2.0836109   -1.0394662   0.06360332   -2.0836109    1.0441448  1809659 
  419000    1.0030082   -2.0843383   -2.0843383   -1.0399387  0.069090013   -2.0843383    1.0443996  1809645 
  420000    1.0033453   -2.0844233   -2.0844233   -1.0396652   0.06710459   -2.0844233    1.0447581  1809632 
  421000    1.0042123   -2.0852201   -2.0852201   -1.0395511  0.065334203   -2.0852201     1.045669  1809618 
  422000    1.0031325   -2.0840612   -2.0840612   -1.0395091    0.0656847   -2.0840612    1.0445521  1809605 
  423000    1.0031657   -2.0845515   -2.0845515   -1.0399568   0.06624334   -2.0845515    1.0445947  1809591 
  424000    1.0039373   -2.0855873   -2.0855873   -1.0401816  0.064692686   -2.0855873    1.0454057  1809578 
  425000      1.00317   -2.0852921   -2.0852921   -1.0406774  0.067431749   -2.0852921    1.0446148  1809564 
  426000    1.0032684   -2.0853014   -2.0853014   -1.0405767  0.067436113   -2.0853014    1.0447247  1809551 
  427000    1.0040425   -2.0861414   -2.0861414   -1.0406025  0.066278702   -2.0861414     1.045539  1809537 
  428000    1.0034281   -2.0855174   -2.0855174   -1.0406107  0.064542537   -2.0855174    1.0449067  1809524 
  429000     1.003662   -2.0852997   -2.0852997   -1.0401414  0.063850441   -2.0852997    1.0451583  1809510 
  430000    1.0028319   -2.0842181   -2.0842181   -1.0399168  0.069073826   -2.0842181    1.0443013  1809497 
  431000    1.0046583    -2.085852    -2.085852   -1.0396406  0.063110071    -2.085852    1.0462114  1809483 
  432000    1.0027503   -2.0847151   -2.0847151   -1.0404831  0.066354743   -2.0847151     1.044232  1809470 
  433000    1.0034618   -2.0856637   -2.0856637   -1.0406827  0.064469829   -2.0856637     1.044981  1809456 
  434000     1.003191   -2.0856588   -2.0856588   -1.0409522  0.068602599   -2.0856588    1.0447066  1809443 
  435000     1.002782   -2.0854721   -2.0854721   -1.0411834  0.063765869   -2.0854721    1.0442887  1809429 
  436000    1.0028272   -2.0854817   -2.0854817   -1.0411384  0.063864336   -2.0854817    1.0443432  1809416 
  437000    1.0030257    -2.085463    -2.085463    -1.040905   0.06545266    -2.085463    1.0445581  1809402 
  438000     1.002577   -2.0848366   -2.0848366   -1.0407384  0.068169403   -2.0848366    1.0440983  1809389 
  439000    1.0040317   -2.0856685   -2.0856685   -1.0400472  0.065050764   -2.0856685    1.0456213  1809375 
  440000    1.0026911   -2.0850282   -2.0850282   -1.0407956   0.06530332   -2.0850282    1.0442326  1809362 
  441000    1.0026687   -2.0853538   -2.0853538   -1.0411363  0.068355294   -2.0853538    1.0442174  1809348 
  442000    1.0030966   -2.0848293   -2.0848293   -1.0401587  0.064187003   -2.0848293    1.0446706  1809335 
  443000    1.0031657   -2.0850526   -2.0850526   -1.0403019  0.065057496   -2.0850526    1.0447507  1809321 
  444000    1.0035931   -2.0853428   -2.0853428    -1.040139  0.063135342   -2.0853428    1.0452038  1809307 
  445000    1.0032266   -2.0849063   -2.0849063   -1.0400767  0.064748447   -2.0849063    1.0448296  1809294 
  446000    1.0039391   -2.0851041   -2.0851041   -1.0395244  0.067651087   -2.0851041    1.0455797  1809280 
  447000    1.0031657   -2.0847835   -2.0847835   -1.0400018  0.064758719   -2.0847835    1.0447817  1809267 
  448000    1.0035263   -2.0848593   -2.0848593   -1.0396939  0.068487568   -2.0848593    1.0451654  1809253 
  449000     1.002531   -2.0841203   -2.0841203   -1.0399839   0.06338108   -2.0841203    1.0441364  1809240 
  450000    1.0030157   -2.0843815   -2.0843815   -1.0397323  0.066365121   -2.0843815    1.0446492  1809226 
  451000    1.0035212    -2.084829    -2.084829   -1.0396458  0.064215142    -2.084829    1.0451832  1809213 
  452000    1.0037909   -2.0848281   -2.0848281   -1.0393559  0.065552223   -2.0848281    1.0454722  1809199 
  453000    1.0038564   -2.0849552   -2.0849552   -1.0394073  0.065205441   -2.0849552    1.0455479  1809186 
  454000     1.003072   -2.0838806   -2.0838806   -1.0391416  0.063513965   -2.0838806     1.044739  1809172 
  455000    1.0043419   -2.0852587   -2.0852587   -1.0391895  0.066070985   -2.0852587    1.0460693  1809159 
  456000    1.0028952   -2.0836067   -2.0836067   -1.0390362  0.065252034   -2.0836067    1.0445705  1809145 
  457000    1.0030857   -2.0839169   -2.0839169   -1.0391405  0.067070783   -2.0839169    1.0447764  1809132 
  458000    1.0030157   -2.0838164   -2.0838164   -1.0391048  0.065172605   -2.0838164    1.0447116  1809118 
  459000    1.0034753   -2.0841245   -2.0841245   -1.0389267  0.065518527   -2.0841245    1.0451978  1809105 
  460000     1.003858    -2.084778    -2.084778   -1.0391735  0.066323288    -2.084778    1.0456046  1809091 
  461000     1.003664    -2.084351    -2.084351   -1.0389411  0.065880422    -2.084351    1.0454099  1809078 
  462000    1.0031838   -2.0840015   -2.0840015   -1.0390836  0.069773644   -2.0840015    1.0449179  1809064 
  463000     1.002834   -2.0830198   -2.0830198   -1.0384587  0.067036651   -2.0830198     1.044561  1809051 
  464000     1.002532   -2.0827496   -2.0827496    -1.038495  0.066633319   -2.0827496    1.0442546  1809037 
  465000    1.0026669   -2.0830849   -2.0830849   -1.0386823  0.065827032   -2.0830849    1.0444026  1809024 
  466000    1.0028938   -2.0838081   -2.0838081   -1.0391611   0.06316071   -2.0838081     1.044647  1809010 
  467000     1.002184   -2.0830771   -2.0830771   -1.0391619  0.062339956   -2.0830771    1.0439152  1808997 
  468000     1.002321   -2.0828906   -2.0828906   -1.0388246  0.066496372   -2.0828906     1.044066  1808983 
  469000    1.0029851   -2.0830614   -2.0830614   -1.0382963  0.066572308   -2.0830614    1.0447652  1808970 
  470000    1.0022452   -2.0827982   -2.0827982   -1.0387956  0.066277607   -2.0827982    1.0440026  1808956 
  471000    1.0024667   -2.0827906   -2.0827906   -1.0385498  0.068650821   -2.0827906    1.0442408  1808943 
  472000    1.0025322   -2.0830704   -2.0830704   -1.0387533  0.066122385   -2.0830704    1.0443171  1808929 
  473000    1.0016769   -2.0827104   -2.0827104   -1.0392768  0.065058122   -2.0827104    1.0434337  1808916 
  474000    1.0016325   -2.0826642   -2.0826642   -1.0392687  0.067048322   -2.0826642    1.0433954  1808902 
  475000    1.0024518   -2.0829443   -2.0829443   -1.0386879  0.062182175   -2.0829443    1.0442564  1808889 
  476000    1.0024728   -2.0833063   -2.0833063   -1.0390199   0.06455383   -2.0833063    1.0442864  1808875 
  477000      1.00309   -2.0840381   -2.0840381   -1.0391012  0.062790951   -2.0840381    1.0449369  1808862 
  478000    1.0021598   -2.0833225   -2.0833225   -1.0393466  0.061110564   -2.0833225    1.0439759  1808848 
  479000     1.002695   -2.0839846   -2.0839846   -1.0394437  0.062867217   -2.0839846    1.0445409  1808835 
  480000    1.0016381   -2.0828656   -2.0828656   -1.0394176  0.065074736   -2.0828656     1.043448  1808821 
  481000     1.002839   -2.0843139   -2.0843139   -1.0396067  0.063450469   -2.0843139    1.0447072  1808807 
  482000    1.0025163   -2.0836049   -2.0836049   -1.0392264  0.064160706   -2.0836049    1.0443785  1808794 
  483000    1.0021927   -2.0831759   -2.0831759   -1.0391264   0.06525615   -2.0831759    1.0440495  1808780 
  484000    1.0026982   -2.0839166   -2.0839166    -1.039333  0.067279432   -2.0839166    1.0445836  1808767 
  485000    1.0025119   -2.0840919   -2.0840919   -1.0396944  0.066156231   -2.0840919    1.0443975  1808753 
  486000    1.0021485   -2.0836434   -2.0836434    -1.039617  0.063924731   -2.0836434    1.0440265  1808740 
  487000    1.0018182   -2.0835316   -2.0835316   -1.0398412  0.064869151   -2.0835316    1.0436904  1808726 
  488000    1.0019399   -2.0837091   -2.0837091   -1.0398844  0.068170565   -2.0837091    1.0438247  1808713 
  489000    1.0023596   -2.0843318   -2.0843318   -1.0400617   0.06898549   -2.0843318    1.0442701  1808699 
  490000    1.0026833   -2.0851239   -2.0851239   -1.0405091  0.066699303   -2.0851239    1.0446148  1808686 
  491000    1.0020713   -2.0847163   -2.0847163    -1.040731  0.066647478   -2.0847163    1.0439854  1808672 
  492000    1.0036667   -2.0855675   -2.0855675   -1.0399125  0.064097619   -2.0855675     1.045655  1808659 
  493000    1.0029702   -2.0848699   -2.0848699   -1.0399325  0.069202254   -2.0848699    1.0449374  1808645 
  494000    1.0032042   -2.0854422   -2.0854422   -1.0402536  0.068189231   -2.0854422    1.0451887  1808632 
  495000    1.0028998   -2.0856434   -2.0856434   -1.0407638  0.065347965   -2.0856434    1.0448796  1808618 
  496000    1.0032562   -2.0860569   -2.0860569   -1.0407984   0.06967965   -2.0860569    1.0452585  1808605 
  497000    1.0029924   -2.0857523   -2.0857523   -1.0407606  0.064399459   -2.0857523    1.0449917  1808591 
  498000    1.0023981   -2.0853438   -2.0853438   -1.0409638  0.066063651   -2.0853438      1.04438  1808578 
  499000    1.0028519   -2.0859313   -2.0859313   -1.0410704  0.066328686   -2.0859313    1.0448609  1808564 
  500000    1.0025685   -2.0854602   -2.0854602    -1.040887  0.065188516   -2.0854602    1.0445732  1808551 
  501000     1.002554   -2.0855032   -2.0855032    -1.040937  0.066765323   -2.0855032    1.0445662  1808537 
  502000    1.0020286   -2.0849545   -2.0849545   -1.0409283  0.069323014   -2.0849545    1.0440262  1808524 
  503000     1.002708   -2.0861999   -2.0861999   -1.0414576  0.063883504   -2.0861999    1.0447422  1808510 
  504000     1.001557   -2.0854622   -2.0854622   -1.0419118  0.067003235   -2.0854622    1.0435505  1808497 
  505000    1.0026135   -2.0864535   -2.0864535   -1.0417942  0.062669405   -2.0864535    1.0446593  1808483 
  506000    1.0014372   -2.0851826   -2.0851826   -1.0417414  0.067097503   -2.0851826    1.0434413  1808470 
  507000    1.0019651   -2.0854838   -2.0854838   -1.0414844  0.065772916   -2.0854838    1.0439994  1808456 
  508000    1.0017614   -2.0851679   -2.0851679   -1.0413733   0.06734748   -2.0851679    1.0437946  1808443 
  509000    1.0013546   -2.0848833   -2.0848833   -1.0415045  0.068348453   -2.0848833    1.0433788  1808429 
  510000    1.0022152   -2.0852918   -2.0852918   -1.0410088  0.065545746   -2.0852918     1.044283  1808416 
  511000    1.0026583   -2.0859272   -2.0859272   -1.0411744  0.064327466   -2.0859272    1.0447528  1808402 
  512000    1.0025462   -2.0852446   -2.0852446   -1.0406011  0.065113305   -2.0852446    1.0446436  1808389 
  513000    1.0022449   -2.0851292   -2.0851292   -1.0407916  0.067043046   -2.0851292    1.0443376  1808375 
  514000    1.0017095   -2.0849468   -2.0849468   -1.0411596  0.066750414   -2.0849468    1.0437872  1808362 
  515000    1.0012135   -2.0841621   -2.0841621   -1.0408836  0.067769019   -2.0841621    1.0432785  1808348 
  516000    1.0018315   -2.0847598   -2.0847598   -1.0408298  0.065568548   -2.0847598      1.04393  1808335 
  517000    1.0016864   -2.0845414   -2.0845414   -1.0407545  0.066364718   -2.0845414    1.0437869  1808321 
  518000    1.0021274   -2.0847865   -2.0847865    -1.040532   0.06812571   -2.0847865    1.0442544  1808307 
  519000    1.0009121   -2.0835196   -2.0835196   -1.0405239   0.06603946   -2.0835196    1.0429956  1808294 
  520000    1.0026138   -2.0855784   -2.0855784   -1.0408014  0.060900914   -2.0855784    1.0447769  1808280 
  521000    1.0010358   -2.0834898   -2.0834898   -1.0403498  0.068992412   -2.0834898      1.04314  1808267 
  522000    1.0018518   -2.0848097   -2.0848097   -1.0408113   0.06345058   -2.0848097    1.0439985  1808253 
  523000    1.0011562   -2.0841954   -2.0841954   -1.0409143   0.06646674   -2.0841954    1.0432811  1808240 
  524000    1.0018655   -2.0844514   -2.0844514   -1.0404231  0.063880316   -2.0844514    1.0440283  1808226 
  525000     1.002171   -2.0846574   -2.0846574   -1.0403032   0.06043274   -2.0846574    1.0443542  1808213 
  526000    1.0021929   -2.0844206   -2.0844206   -1.0400355   0.06462332   -2.0844206    1.0443852  1808199 
  527000    1.0014642   -2.0838943   -2.0838943    -1.040261  0.066327479   -2.0838943    1.0436333  1808186 
  528000    1.0010776   -2.0835395   -2.0835395    -1.040301  0.066606319   -2.0835395    1.0432385  1808172 
  529000    1.0018688   -2.0839764   -2.0839764   -1.0399059  0.065967706   -2.0839764    1.0440704  1808159 
  530000    1.0008343   -2.0833565   -2.0833565    -1.040356    0.0641128   -2.0833565    1.0430005  1808145 
  531000    1.0013637   -2.0839611   -2.0839611   -1.0404014  0.061849138   -2.0839611    1.0435597  1808132 
  532000     1.001823   -2.0841344   -2.0841344   -1.0400881  0.064696072   -2.0841344    1.0440464  1808118 
  533000    1.0013686   -2.0836892   -2.0836892   -1.0401087  0.062608617   -2.0836892    1.0435804  1808105 
  534000    1.0029556   -2.0848108   -2.0848108   -1.0395685  0.066567322   -2.0848108    1.0452424  1808091 
  535000    1.0021919   -2.0839465   -2.0839465   -1.0394926  0.066285439   -2.0839465     1.044454  1808078 
  536000    1.0009921   -2.0825039   -2.0825039   -1.0392922   0.06467051   -2.0825039    1.0432116  1808064 
  537000     1.002488     -2.08451     -2.08451   -1.0397318  0.065059266     -2.08451    1.0447781  1808051 
  538000    1.0021761   -2.0838861   -2.0838861   -1.0394249  0.065580368   -2.0838861    1.0444612  1808037 
  539000    1.0014314   -2.0831987   -2.0831987   -1.0395061  0.064723997   -2.0831987    1.0436926  1808024 
  540000    1.0010656   -2.0829398   -2.0829398   -1.0396204  0.066830185   -2.0829398    1.0433194  1808010 
  541000    1.0017061    -2.083681    -2.083681   -1.0396866  0.066239947    -2.083681    1.0439944  1807997 
  542000      1.00152   -2.0835049   -2.0835049   -1.0396963  0.065916505   -2.0835049    1.0438086  1807983 
  543000    1.0020783   -2.0843533   -2.0843533   -1.0399554  0.066574082   -2.0843533    1.0443979  1807970 
  544000     1.002422   -2.0840418   -2.0840418   -1.0392775  0.065132223   -2.0840418    1.0447643  1807956 
  545000    1.0010831   -2.0832928   -2.0832928   -1.0399165  0.066741232   -2.0832928    1.0433763  1807943 
  546000    1.0007773   -2.0833283   -2.0833283   -1.0402627  0.066880901   -2.0833283    1.0430656  1807929 
  547000    1.0007155   -2.0837245   -2.0837245   -1.0407158  0.064767641   -2.0837245    1.0430087  1807916 
  548000    1.0001212   -2.0828665   -2.0828665   -1.0404691  0.064000756   -2.0828665    1.0423974  1807902 
  549000    1.0008334   -2.0838951   -2.0838951   -1.0407478  0.065601611   -2.0838951    1.0431473  1807889 
  550000    1.0019174    -2.084707    -2.084707   -1.0404219  0.061637626    -2.084707    1.0442851  1807875 
  551000    1.0011985   -2.0848215   -2.0848215   -1.0412782  0.062259973   -2.0848215    1.0435433  1807862 
  552000    1.0007997   -2.0846683   -2.0846683   -1.0415326  0.066160074   -2.0846683    1.0431358  1807848 
  553000    1.0003805   -2.0836716   -2.0836716   -1.0409653  0.066647781   -2.0836716    1.0427064  1807835 
  554000    1.0010524   -2.0849149   -2.0849149   -1.0415002  0.065999085   -2.0849149    1.0434147  1807821 
  555000    1.0014403   -2.0850362   -2.0850362    -1.041209  0.065159581   -2.0850362    1.0438272  1807807 
  556000    1.0016838    -2.084919    -2.084919   -1.0408305  0.063868461    -2.084919    1.0440885  1807794 
  557000    1.0020533   -2.0856687   -2.0856687   -1.0411871  0.066497678   -2.0856687    1.0444817  1807780 
  558000    1.0018818   -2.0858434   -2.0858434   -1.0415329  0.062553362   -2.0858434    1.0443105  1807767 
  559000    1.0018972   -2.0856296   -2.0856296    -1.041295  0.064117025   -2.0856296    1.0443346  1807753 
  560000    1.0022822   -2.0862869   -2.0862869   -1.0415435  0.065552083   -2.0862869    1.0447434  1807740 
  561000     1.001131   -2.0855704   -2.0855704    -1.042019  0.067142461   -2.0855704    1.0435515  1807726 
  562000    1.0031531    -2.086862    -2.086862   -1.0411952  0.067853125    -2.086862    1.0456668  1807713 
  563000    1.0032499   -2.0868553   -2.0868553   -1.0410796  0.066587322   -2.0868553    1.0457758  1807699 
  564000     1.002245   -2.0860772   -2.0860772   -1.0413414  0.068067439   -2.0860772    1.0447358  1807686 
  565000    1.0028595   -2.0866422   -2.0866422   -1.0412578  0.067129962   -2.0866422    1.0453844  1807672 
  566000    1.0021382   -2.0860007   -2.0860007   -1.0413606  0.067192207   -2.0860007    1.0446401  1807659 
  567000     1.001987   -2.0859908   -2.0859908   -1.0415001  0.067224414   -2.0859908    1.0444906  1807645 
  568000    1.0014734   -2.0856812   -2.0856812   -1.0417186  0.065761584   -2.0856812    1.0439627  1807632 
  569000    1.0014636   -2.0858129   -2.0858129   -1.0418524  0.065459203   -2.0858129    1.0439605  1807618 
  570000     1.000946   -2.0852195   -2.0852195    -1.041791  0.069094496   -2.0852195    1.0434285  1807605 
  571000    1.0013482   -2.0857109   -2.0857109   -1.0418551  0.065593217   -2.0857109    1.0438558  1807591 
  572000    1.0012574   -2.0857314   -2.0857314   -1.0419628  0.066720472   -2.0857314    1.0437687  1807578 
  573000    1.0006077   -2.0855516   -2.0855516   -1.0424521  0.066694652   -2.0855516    1.0430995  1807564 
  574000    1.0014615   -2.0861181   -2.0861181   -1.0421211  0.065229181   -2.0861181     1.043997  1807551 
  575000    1.0004572   -2.0848758   -2.0848758   -1.0419175  0.067904998   -2.0848758    1.0429582  1807537 
  576000    1.0006082   -2.0853662   -2.0853662   -1.0422431  0.068107506   -2.0853662    1.0431231  1807524 
  577000    1.0007778   -2.0856938   -2.0856938   -1.0423858  0.065603707   -2.0856938     1.043308  1807510 
  578000    1.0008882    -2.085335    -2.085335   -1.0419044  0.067939622    -2.085335    1.0434306  1807497 
  579000    1.0008989   -2.0851304   -2.0851304   -1.0416806  0.066542801   -2.0851304    1.0434498  1807483 
  580000    1.0001833   -2.0843343   -2.0843343    -1.041623  0.062785866   -2.0843343    1.0427113  1807470 
  581000    1.0005879   -2.0848399   -2.0848399   -1.0416986  0.064646645   -2.0848399    1.0431412  1807456 
  582000    1.0014659   -2.0852696   -2.0852696   -1.0412056  0.065917857   -2.0852696     1.044064  1807443 
  583000    1.0008397   -2.0842962   -2.0842962    -1.040877   0.06376729   -2.0842962    1.0434193  1807429 
  584000    1.0008929   -2.0843735   -2.0843735   -1.0408913  0.064393332   -2.0843735    1.0434823  1807416 
  585000     1.001877   -2.0850756   -2.0850756   -1.0405592  0.062661183   -2.0850756    1.0445163  1807402 
  586000    1.0011127   -2.0841608   -2.0841608   -1.0404338  0.064808209   -2.0841608     1.043727  1807389 
  587000    1.0005921   -2.0837554   -2.0837554   -1.0405631  0.063645939   -2.0837554    1.0431923  1807375 
  588000    1.0011407   -2.0844591   -2.0844591   -1.0406873   0.06488793   -2.0844591    1.0437718  1807362 
  589000    1.0005809   -2.0844918   -2.0844918   -1.0412955  0.065255944   -2.0844918    1.0431962  1807348 
  590000    1.0009827   -2.0843907   -2.0843907    -1.040768  0.066423652   -2.0843907    1.0436226  1807335 
  591000    1.0004478   -2.0844018   -2.0844018   -1.0413288  0.063183398   -2.0844018     1.043073  1807321 
  592000    1.0012452   -2.0847112   -2.0847112   -1.0407986  0.065024038   -2.0847112    1.0439125  1807307 
  593000    1.0002271    -2.083807    -2.083807   -1.0409484  0.062947238    -2.083807    1.0428586  1807294 
  594000    1.0009387   -2.0837499   -2.0837499   -1.0401415   0.06532034   -2.0837499    1.0436085  1807280 
  595000    1.0013752   -2.0840883   -2.0840883   -1.0400172  0.061836102   -2.0840883    1.0440711  1807267 
  596000    1.0015154   -2.0842042   -2.0842042   -1.0399788  0.066095341   -2.0842042    1.0442254  1807253 
  597000    1.0017478   -2.0843849   -2.0843849   -1.0399097   0.06602892   -2.0843849    1.0444753  1807240 
  598000    1.0013253   -2.0843552   -2.0843552   -1.0403125   0.06489286   -2.0843552    1.0440428  1807226 
  599000    1.0011413   -2.0845905   -2.0845905   -1.0407321  0.064751155   -2.0845905    1.0438584  1807213 
  600000     1.001461    -2.085306    -2.085306   -1.0411061  0.062801735    -2.085306    1.0441999  1807199 
  601000     1.000651   -2.0841416   -2.0841416   -1.0407788  0.067957406   -2.0841416    1.0433628  1807186 
  602000     1.000616   -2.0839908   -2.0839908   -1.0406564  0.067245543   -2.0839908    1.0433344  1807172 
  603000    1.0019631   -2.0855098   -2.0855098   -1.0407633  0.066598879   -2.0855098    1.0447466  1807159 
  604000    1.0009617   -2.0846004   -2.0846004   -1.0408898  0.070881873   -2.0846004    1.0437105  1807145 
  605000    1.0007803   -2.0845053   -2.0845053   -1.0409764  0.063967024   -2.0845053    1.0435289  1807132 
  606000    1.0001418     -2.08376     -2.08376   -1.0408888  0.066553175     -2.08376    1.0428712  1807118 
  607000    1.0010893   -2.0848333   -2.0848333   -1.0409667  0.067897951   -2.0848333    1.0438666  1807105 
  608000    1.0014803    -2.085036    -2.085036   -1.0407536  0.063641897    -2.085036    1.0442824  1807091 
  609000    1.0015456   -2.0849602   -2.0849602   -1.0406021  0.065838442   -2.0849602    1.0443581  1807078 
  610000    1.0005962   -2.0839215   -2.0839215   -1.0405454    0.0680924   -2.0839215    1.0433761  1807064 
  611000    1.0020767   -2.0851474   -2.0851474   -1.0402199  0.066585938   -2.0851474    1.0449275  1807051 
  612000    1.0020315   -2.0851504   -2.0851504    -1.040262  0.066480425   -2.0851504    1.0448884  1807037 
  613000    1.0015725   -2.0849502   -2.0849502    -1.040533  0.068524528   -2.0849502    1.0444172  1807024 
  614000    1.0012406   -2.0850674   -2.0850674   -1.0409882  0.066520864   -2.0850674    1.0440792  1807010 
  615000    1.0002762   -2.0841031   -2.0841031    -1.041022  0.067621507   -2.0841031    1.0430811  1806997 
  616000    1.0009364   -2.0852173   -2.0852173   -1.0414397  0.063821257   -2.0852173    1.0437776  1806983 
  617000    1.0011326   -2.0851745   -2.0851745   -1.0411848  0.063079604   -2.0851745    1.0439897  1806970 
  618000    1.0010602    -2.085286    -2.085286   -1.0413636  0.065282301    -2.085286    1.0439224  1806956 
  619000     1.000807   -2.0846515   -2.0846515   -1.0409857  0.064292482   -2.0846515    1.0436658  1806943 
  620000    1.0007423   -2.0845269   -2.0845269   -1.0409205  0.064818065   -2.0845269    1.0436064  1806929 
  621000    1.0014497    -2.085262    -2.085262   -1.0409104  0.063460247    -2.085262    1.0443517  1806916 
  622000    1.0015272   -2.0855632   -2.0855632   -1.0411226  0.064423211   -2.0855632    1.0444406  1806902 
  623000    1.0000377   -2.0839003   -2.0839003   -1.0410055  0.066959744   -2.0839003    1.0428948  1806889 
  624000    1.0004833   -2.0847311   -2.0847311   -1.0413635  0.066798406   -2.0847311    1.0433676  1806875 
  625000    1.0009853   -2.0854797   -2.0854797   -1.0415812  0.068058327   -2.0854797    1.0438985  1806862 
  626000    1.0018503   -2.0863602   -2.0863602   -1.0415515  0.065351704   -2.0863602    1.0448087  1806848 
  627000    1.0015666    -2.085742    -2.085742   -1.0412216  0.067662998    -2.085742    1.0445204  1806835 
  628000    1.0010488   -2.0849792   -2.0849792   -1.0409908   0.06479514   -2.0849792    1.0439885  1806821 
  629000    1.0009279   -2.0842607   -2.0842607   -1.0403903  0.065247381   -2.0842607    1.0438704  1806807 
  630000    1.0010904   -2.0848029   -2.0848029   -1.0407554  0.066175134   -2.0848029    1.0440475  1806794 
  631000     1.001497   -2.0848325   -2.0848325   -1.0403529  0.064478774   -2.0848325    1.0444796  1806780 
  632000    1.0008834   -2.0840639   -2.0840639   -1.0402167  0.066999993   -2.0840639    1.0438472  1806767 
  633000    1.0015083   -2.0854985   -2.0854985   -1.0409915  0.063726207   -2.0854985    1.0445069  1806753 
  634000    1.0010931   -2.0851063   -2.0851063   -1.0410248  0.066514487   -2.0851063    1.0440815  1806740 
  635000    1.0009654   -2.0846652   -2.0846652   -1.0407088  0.066610239   -2.0846652    1.0439564  1806726 
  636000    1.0013816   -2.0845503   -2.0845503   -1.0401523  0.067035738   -2.0845503     1.044398  1806713 
  637000    1.0011337   -2.0844519   -2.0844519   -1.0403044  0.066854472   -2.0844519    1.0441475  1806699 
  638000    1.0008087   -2.0841013   -2.0841013   -1.0402852  0.068758747   -2.0841013     1.043816  1806686 
  639000    1.0021298   -2.0853017   -2.0853017   -1.0400997  0.066124606   -2.0853017     1.045202  1806672 
  640000    1.0015095   -2.0846996   -2.0846996    -1.040137  0.067913612   -2.0846996    1.0445625  1806659 
  641000    1.0022081    -2.085561    -2.085561   -1.0402617   0.06663236    -2.085561    1.0452994  1806645 
  642000    1.0012615   -2.0845292   -2.0845292   -1.0402097  0.065771057   -2.0845292    1.0443195  1806632 
  643000    1.0014583   -2.0847474   -2.0847474   -1.0402145  0.069388407   -2.0847474    1.0445329  1806618 
  644000    1.0009749   -2.0839367   -2.0839367   -1.0399005  0.065587076   -2.0839367    1.0440362  1806605 
  645000    1.0008603   -2.0839926   -2.0839926   -1.0400678  0.064725876   -2.0839926    1.0439247  1806591 
  646000    1.0008667   -2.0839673   -2.0839673   -1.0400283  0.064936448   -2.0839673     1.043939  1806578 
  647000    1.0013158   -2.0848418   -2.0848418   -1.0404263  0.066251911   -2.0848418    1.0444155  1806564 
  648000    1.0004255   -2.0839191   -2.0839191   -1.0404248  0.066765593   -2.0839191    1.0434943  1806551 
  649000   0.99993058   -2.0835845   -2.0835845   -1.0405983  0.066708572   -2.0835845    1.0429862  1806537 
  650000   0.99959094   -2.0829615   -2.0829615   -1.0403221  0.064096597   -2.0829615    1.0426395  1806524 
  651000    1.0003968   -2.0838246   -2.0838246   -1.0403364  0.064138886   -2.0838246    1.0434881  1806510 
  652000    1.0008018   -2.0835613   -2.0835613   -1.0396432  0.063647764   -2.0835613    1.0439181  1806497 
  653000    0.9998429   -2.0824265   -2.0824265   -1.0395005   0.06497697   -2.0824265    1.0429259  1806483 
  654000     1.000929   -2.0832015   -2.0832015   -1.0391351  0.065721861   -2.0832015    1.0440664  1806470 
  655000    1.0015058   -2.0837357   -2.0837357   -1.0390596  0.064504254   -2.0837357    1.0446761  1806456 
  656000    1.0007579    -2.083224    -2.083224   -1.0393205  0.062552579    -2.083224    1.0439035  1806443 
[...]
29832000    0.6820814   -1.6844688   -1.6844688   -0.7743372  0.055709317   -1.6844688   0.91013159  1412172 
29833000   0.68160487   -1.6843789   -1.6843789   -0.7748748  0.053833092   -1.6843789   0.90950411  1412159 
29834000   0.68106537   -1.6835474   -1.6835474  -0.77475415  0.056464267   -1.6835474   0.90879323  1412145 
29835000   0.68082309   -1.6832561   -1.6832561   -0.7747778  0.059470726   -1.6832561   0.90847831  1412132 
29836000   0.68170527   -1.6830815   -1.6830815  -0.77341704  0.053944391   -1.6830815   0.90966449  1412118 
29837000   0.68108172   -1.6820941   -1.6820941  -0.77325327  0.057127686   -1.6820941    0.9088408  1412105 
29838000   0.68201938   -1.6834011   -1.6834011  -0.77330008  0.057837037   -1.6834011   0.91010104  1412091 
29839000   0.68113756   -1.6823313   -1.6823313  -0.77339857  0.060494647   -1.6823313   0.90893268  1412078 
29840000   0.68086684   -1.6823145   -1.6823145  -0.77373408  0.055123898   -1.6823145   0.90858044  1412064 
29841000   0.68116235   -1.6829903   -1.6829903  -0.77400718  0.056051111   -1.6829903   0.90898315  1412051 
29842000   0.68171937   -1.6831232   -1.6831232  -0.77338773  0.054135018   -1.6831232   0.90973549  1412037 
29843000   0.68096023   -1.6822161   -1.6822161  -0.77348525  0.053994643   -1.6822161    0.9087308  1412024 
29844000    0.6809819   -1.6825628   -1.6825628  -0.77379402  0.054734938   -1.6825628   0.90876874  1412010 
29845000   0.68106957   -1.6831281   -1.6831281  -0.77423399  0.055144777   -1.6831281    0.9088941  1411997 
29846000   0.68161118    -1.683185    -1.683185  -0.77355907  0.054219754    -1.683185    0.9096259  1411983 
29847000   0.68179437   -1.6837977   -1.6837977  -0.77391899  0.055324868   -1.6837977   0.90987875  1411970 
29848000   0.68030845   -1.6817939   -1.6817939  -0.77388918  0.055833199   -1.6817939   0.90790473  1411956 
29849000   0.68069568   -1.6824827   -1.6824827   -0.7740528   0.05905991   -1.6824827   0.90842987  1411943 
29850000   0.68160018   -1.6828162   -1.6828162  -0.77317014  0.056591022   -1.6828162   0.90964601  1411929 
29851000   0.68142008   -1.6828558   -1.6828558  -0.77344179  0.057588999   -1.6828558   0.90941402  1411916 
29852000   0.68102629   -1.6823516   -1.6823516  -0.77345412  0.055227777   -1.6823516   0.90889749  1411902 
29853000   0.68075186   -1.6823627   -1.6823627  -0.77382306  0.057041181   -1.6823627   0.90853961  1411889 
29854000   0.68181049    -1.683786    -1.683786  -0.77382451   0.05823719    -1.683786   0.90996149  1411875 
29855000   0.68172752   -1.6831445   -1.6831445  -0.77328534  0.057534841   -1.6831445   0.90985912  1411862 
29856000   0.68098201   -1.6824377   -1.6824377  -0.77356453   0.05696542   -1.6824377   0.90887315  1411848 
29857000   0.68168951   -1.6833027   -1.6833027  -0.77347693  0.054564031   -1.6833027   0.90982579  1411835 
29858000   0.68167508   -1.6822658   -1.6822658  -0.77245021  0.056350592   -1.6822658   0.90981556  1411821 
29859000   0.68185308    -1.682526    -1.682526  -0.77246385  0.055263153    -1.682526   0.91006215  1411807 
29860000   0.68185482   -1.6819208   -1.6819208  -0.77184798   0.05881845   -1.6819208   0.91007286  1411794 
29861000   0.68176179   -1.6821413   -1.6821413  -0.77218358  0.058262552   -1.6821413   0.90995771  1411780 
29862000   0.68155784   -1.6820265   -1.6820265  -0.77233266  0.057216933   -1.6820265   0.90969388  1411767 
29863000   0.68155075   -1.6813174   -1.6813174  -0.77162395  0.056473119   -1.6813174   0.90969343  1411753 
29864000    0.6817943   -1.6816685   -1.6816685  -0.77164161  0.057354054   -1.6816685   0.91002689  1411740 
29865000   0.68092453   -1.6807868   -1.6807868  -0.77191185  0.055891148   -1.6807868   0.90887498  1411726 
29866000    0.6809465   -1.6809675   -1.6809675  -0.77205485  0.055132323   -1.6809675   0.90891268  1411713 
29867000   0.68147542   -1.6811627   -1.6811627  -0.77153499  0.055887152   -1.6811627   0.90962769  1411699 
29868000   0.68135426   -1.6806804   -1.6806804  -0.77120608   0.05721567   -1.6806804   0.90947433  1411686 
29869000   0.68108279   -1.6802774   -1.6802774  -0.77115638  0.056621572   -1.6802774   0.90912099  1411672 
29870000   0.68179889   -1.6812116   -1.6812116  -0.77112632  0.059447745   -1.6812116   0.91008524  1411659 
29871000   0.68152084   -1.6804218   -1.6804218  -0.77069866  0.059400555   -1.6804218   0.90972311  1411645 
29872000   0.68114717   -1.6801788   -1.6801788  -0.77094609  0.056605174   -1.6801788   0.90923269  1411632 
29873000   0.68099233   -1.6805572   -1.6805572  -0.77152217  0.056256502   -1.6805572   0.90903501  1411618 
29874000   0.68072778    -1.680208    -1.680208  -0.77151777  0.056606051    -1.680208   0.90869025  1411605 
29875000   0.68184401   -1.6811777   -1.6811777  -0.77098843  0.057156977   -1.6811777    0.9101893  1411591 
29876000   0.68115072   -1.6807124   -1.6807124  -0.77144017  0.054595157   -1.6807124   0.90927222  1411578 
29877000    0.6808124   -1.6805499   -1.6805499   -0.7717203  0.056776848   -1.6805499    0.9088296  1411564 
29878000   0.68140299   -1.6812284   -1.6812284  -0.77160205  0.057823738   -1.6812284   0.90962637  1411551 
29879000   0.68111648   -1.6804922   -1.6804922   -0.7712393  0.062139932   -1.6804922   0.90925292  1411537 
29880000   0.68142067   -1.6810924   -1.6810924  -0.77142505  0.058264295   -1.6810924   0.90966737  1411524 
29881000    0.6811007   -1.6805452   -1.6805452  -0.77129599  0.058905452   -1.6805452   0.90924923  1411510 
29882000   0.68114858   -1.6807799   -1.6807799  -0.77145841  0.054903878   -1.6807799   0.90932154  1411497 
29883000   0.68148214   -1.6817573   -1.6817573  -0.77198149  0.057146655   -1.6817573   0.90977585  1411483 
29884000   0.68055265   -1.6801326   -1.6801326  -0.77158921  0.057744986   -1.6801326   0.90854336  1411470 
29885000   0.68105595   -1.6805497   -1.6805497  -0.77132544  0.061245765   -1.6805497   0.90922428  1411456 
29886000   0.68108349   -1.6806931   -1.6806931  -0.77142367  0.057355506   -1.6806931   0.90926943  1411443 
29887000   0.68128814   -1.6811679   -1.6811679  -0.77161625  0.056725331   -1.6811679   0.90955166  1411429 
29888000   0.68182213   -1.6813813   -1.6813813  -0.77110831  0.056410874   -1.6813813   0.91027295  1411416 
29889000   0.68187716   -1.6817134   -1.6817134  -0.77135795  0.060534301   -1.6817134   0.91035545  1411402 
29890000   0.68172106   -1.6816119   -1.6816119  -0.77145647  0.057160166   -1.6816119   0.91015542  1411389 
29891000   0.68082877   -1.6808013   -1.6808013  -0.77182815  0.058116452   -1.6808013   0.90897315  1411375 
29892000   0.68205471   -1.6817819   -1.6817819  -0.77116361  0.060243926   -1.6817819    0.9106183  1411362 
29893000   0.68152404   -1.6814161   -1.6814161  -0.77149726  0.058019379   -1.6814161   0.90991882  1411348 
29894000   0.68169519   -1.6818223   -1.6818223  -0.77166663  0.060178713   -1.6818223   0.91015571  1411335 
29895000   0.68162784    -1.681621    -1.681621  -0.77154614  0.057995988    -1.681621   0.91007481  1411321 
29896000   0.68166994   -1.6819852   -1.6819852  -0.77184512  0.057521534   -1.6819852   0.91014005  1411307 
29897000   0.68077307   -1.6812953   -1.6812953  -0.77234433  0.063543157   -1.6812953   0.90895096  1411294 
29898000   0.68112161     -1.68111     -1.68111  -0.77168469  0.057741247     -1.68111   0.90942534  1411280 
29899000   0.68159917   -1.6815947   -1.6815947  -0.77152338  0.059991654   -1.6815947   0.91007136  1411267 
29900000   0.68174652   -1.6817786   -1.6817786  -0.77150152   0.05672598   -1.6817786   0.91027712  1411253 
29901000   0.68160486   -1.6818217   -1.6818217   -0.7717253  0.059124509   -1.6818217   0.91009637  1411240 
29902000   0.68028641   -1.6799961   -1.6799961  -0.77165114  0.054707589   -1.6799961   0.90834495  1411226 
29903000   0.68024336   -1.6805987   -1.6805987  -0.77230288  0.057610084   -1.6805987   0.90829584  1411213 
29904000   0.67999692    -1.680948    -1.680948  -0.77297218  0.054067304    -1.680948   0.90797578  1411199 
29905000   0.68088416   -1.6813363   -1.6813363  -0.77216741  0.056216924   -1.6813363   0.90916886  1411186 
29906000   0.68031604   -1.6805799   -1.6805799  -0.77216064  0.054652373   -1.6805799   0.90841927  1411172 
29907000   0.68075369   -1.6809531   -1.6809531  -0.77194109  0.057155785   -1.6809531   0.90901204  1411159 
29908000   0.68103619   -1.6808568   -1.6808568  -0.77145856  0.057093138   -1.6808568   0.90939828  1411145 
29909000   0.68108776   -1.6806245   -1.6806245    -0.771149  0.060597212   -1.6806245   0.90947552  1411132 
29910000   0.68161621    -1.680337    -1.680337   -0.7701468   0.06176908    -1.680337    0.9101902  1411118 
29911000    0.6807111   -1.6795548   -1.6795548  -0.77056489  0.059375759   -1.6795548   0.90898996  1411105 
29912000    0.6812247   -1.6798825   -1.6798825  -0.77019773  0.058309921   -1.6798825   0.90968481  1411091 
29913000   0.68088496   -1.6795444   -1.6795444   -0.7703049  0.059818802   -1.6795444   0.90923951  1411078 
29914000    0.6808405   -1.6791153   -1.6791153  -0.76992613  0.057273925   -1.6791153   0.90918916  1411064 
29915000    0.6809874   -1.6790578   -1.6790578  -0.76966412  0.056932635   -1.6790578    0.9093937  1411051 
29916000   0.68101869   -1.6795425   -1.6795425  -0.77009798  0.058709193   -1.6795425   0.90944452  1411037 
29917000   0.68139538   -1.6795396   -1.6795396  -0.76958365  0.058800401   -1.6795396   0.90995594  1411024 
29918000   0.68043968    -1.678684    -1.678684  -0.76999529  0.058071914    -1.678684   0.90868869  1411010 
29919000   0.68082441    -1.678853    -1.678853  -0.76964216  0.057188612    -1.678853   0.90921085  1410997 
29920000   0.68045864   -1.6788334   -1.6788334  -0.77010205  0.055683783   -1.6788334   0.90873139  1410983 
29921000    0.6801212   -1.6790366   -1.6790366  -0.77074754  0.054514227   -1.6790366   0.90828911  1410970 
29922000   0.67933623   -1.6783258   -1.6783258  -0.77107595  0.056922405   -1.6783258   0.90724981  1410956 
29923000   0.68021117   -1.6787583   -1.6787583  -0.77033164  0.053547488   -1.6787583   0.90842665  1410943 
29924000   0.68062208   -1.6788589   -1.6788589  -0.76987443   0.05460891   -1.6788589   0.90898444  1410929 
29925000   0.68020882   -1.6782431   -1.6782431  -0.76980218  0.056041162   -1.6782431    0.9084409  1410916 
29926000   0.68067926   -1.6790738   -1.6790738  -0.76999562  0.055728539   -1.6790738   0.90907821  1410902 
29927000   0.68059578   -1.6791044   -1.6791044  -0.77012932  0.058363647   -1.6791044   0.90897509  1410889 
29928000   0.68079992   -1.6794222   -1.6794222   -0.7701654  0.056784726   -1.6794222   0.90925675  1410875 
29929000   0.68007306   -1.6784193   -1.6784193   -0.7701249  0.056190735   -1.6784193   0.90829435  1410862 
29930000   0.68029204   -1.6783452   -1.6783452  -0.76974934  0.056825882   -1.6783452   0.90859583  1410848 
29931000   0.68031675   -1.6784336   -1.6784336  -0.76979642  0.056321451   -1.6784336   0.90863721  1410835 
29932000   0.68052155   -1.6784763   -1.6784763  -0.76955654  0.058700012   -1.6784763   0.90891976  1410821 
29933000   0.68029215   -1.6791941   -1.6791941  -0.77057174  0.058092193   -1.6791941   0.90862239  1410807 
29934000   0.68110767   -1.6797411   -1.6797411  -0.77002104  0.056479306   -1.6797411   0.90972001  1410794 
29935000   0.68007086   -1.6791998   -1.6791998   -0.7708556  0.056834681   -1.6791998   0.90834421  1410780 
29936000   0.68148187    -1.680874    -1.680874  -0.77063677  0.056153815    -1.680874   0.91023723  1410767 
29937000   0.68089344   -1.6800795   -1.6800795  -0.77061917  0.058455237   -1.6800795   0.90946031  1410753 
29938000   0.68124771   -1.6800661   -1.6800661  -0.77012426  0.060015138   -1.6800661   0.90994188  1410740 
29939000   0.68157134   -1.6803534   -1.6803534  -0.76997018  0.061024563   -1.6803534   0.91038318  1410726 
29940000   0.68115317   -1.6800253   -1.6800253   -0.7701923  0.059239028   -1.6800253   0.90983302  1410713 
29941000   0.68090633   -1.6795838   -1.6795838  -0.77007151  0.058043309   -1.6795838   0.90951234  1410699 
29942000   0.68115624    -1.681066    -1.681066  -0.77121143  0.052917833    -1.681066   0.90985454  1410686 
29943000   0.68097624   -1.6806917   -1.6806917  -0.77106861  0.055927115   -1.6806917   0.90962313  1410672 
29944000   0.68117735   -1.6811551   -1.6811551  -0.77125495  0.059496147   -1.6811551   0.90990015  1410659 
29945000   0.68008653   -1.6797948   -1.6797948  -0.77134275  0.056044456   -1.6797948   0.90845206  1410645 
29946000   0.68073899   -1.6801516   -1.6801516  -0.77081965  0.059012012   -1.6801516     0.909332  1410632 
29947000   0.68046436   -1.6806873   -1.6806873  -0.77171314  0.058367542   -1.6806873   0.90897417  1410618 
29948000   0.68052319   -1.6806148   -1.6806148   -0.7715537  0.060216529   -1.6806148   0.90906113  1410605 
29949000   0.68014541   -1.6808979   -1.6808979   -0.7723324  0.054038868   -1.6808979    0.9085655  1410591 
29950000   0.68018384   -1.6808589   -1.6808589  -0.77223371  0.056358573   -1.6808589   0.90862521  1410578 
29951000   0.67965863   -1.6797474   -1.6797474  -0.77181475  0.058587776   -1.6797474   0.90793262  1410564 
29952000   0.67936511    -1.680338    -1.680338  -0.77278908   0.05701231    -1.680338   0.90754888  1410551 
29953000   0.68043755   -1.6816737   -1.6816737  -0.77268314  0.058234456   -1.6816737   0.90899055  1410537 
29954000   0.68061053   -1.6814465   -1.6814465  -0.77221649  0.060818963   -1.6814465   0.90923001  1410524 
29955000    0.6805335   -1.6811291   -1.6811291  -0.77199299  0.057349166   -1.6811291   0.90913613  1410510 
29956000   0.68016916   -1.6805288   -1.6805288  -0.77187106  0.058246159   -1.6805288   0.90865778  1410497 
29957000   0.68062494   -1.6812844   -1.6812844  -0.77200875  0.056322076   -1.6812844   0.90927569  1410483 
29958000   0.68093058   -1.6816514   -1.6816514  -0.77195902  0.059311339   -1.6816514   0.90969239  1410470 
29959000   0.68080136   -1.6812642   -1.6812642  -0.77173545  0.059963253   -1.6812642    0.9095288  1410456 
29960000   0.68153753   -1.6824801   -1.6824801  -0.77195943  0.056879042   -1.6824801   0.91052068  1410443 
29961000   0.68022946   -1.6811506   -1.6811506  -0.77236843  0.058937512   -1.6811506   0.90878215  1410429 
29962000   0.68180936   -1.6830407   -1.6830407  -0.77213945  0.058301941   -1.6830407   0.91090129  1410416 
29963000   0.68106042   -1.6821492   -1.6821492  -0.77223944  0.057183224   -1.6821492   0.90990973  1410402 
29964000   0.68041561   -1.6816176   -1.6816176  -0.77256094  0.058610615   -1.6816176   0.90905663  1410389 
29965000   0.68026348   -1.6811541   -1.6811541  -0.77229175   0.05573433   -1.6811541    0.9088624  1410375 
29966000   0.67995163   -1.6813487   -1.6813487  -0.77289462  0.057594783   -1.6813487   0.90845412  1410362 
29967000   0.68041991   -1.6818785   -1.6818785  -0.77278968  0.055499869   -1.6818785    0.9090888  1410348 
29968000   0.68056418    -1.682212    -1.682212  -0.77292206  0.055681809    -1.682212   0.90928993  1410335 
29969000   0.68001784   -1.6810554   -1.6810554  -0.77248644  0.061398549   -1.6810554     0.908569  1410321 
29970000   0.68105737   -1.6815641   -1.6815641  -0.77159719    0.0572714   -1.6815641   0.90996694  1410307 
29971000   0.68085951   -1.6808945   -1.6808945  -0.77118358  0.059294235   -1.6808945   0.90971096  1410294 
29972000    0.6815178   -1.6821663   -1.6821663   -0.7715667  0.057008481   -1.6821663   0.91059956  1410280 
29973000   0.68058474   -1.6809243   -1.6809243  -0.77156303  0.062061296   -1.6809243   0.90936124  1410267 
29974000    0.6814315   -1.6818877   -1.6818877  -0.77138604   0.05356256   -1.6818877   0.91050169  1410253 
29975000   0.68016329    -1.680909    -1.680909  -0.77209347  0.054521789    -1.680909   0.90881553  1410240 
29976000   0.67997312   -1.6807661   -1.6807661  -0.77219567  0.057120207   -1.6807661   0.90857045  1410226 
29977000   0.67961624   -1.6800408   -1.6800408  -0.77193888  0.057966737   -1.6800408   0.90810196  1410213 
29978000   0.67902588   -1.6792264   -1.6792264  -0.77190427  0.056357555   -1.6792264   0.90732214  1410199 
29979000   0.67858496   -1.6783969   -1.6783969  -0.77165558  0.058345698   -1.6783969   0.90674133  1410186 
29980000   0.68046489   -1.6806068   -1.6806068  -0.77134446  0.058487919   -1.6806068   0.90926236  1410172 
29981000   0.68029601   -1.6801097   -1.6801097   -0.7710646   0.05459524   -1.6801097   0.90904508  1410159 
29982000   0.68007955   -1.6801121   -1.6801121  -0.77134721  0.055815354   -1.6801121   0.90876485  1410145 
29983000   0.68039784   -1.6801367   -1.6801367  -0.77093813  0.056338672   -1.6801367   0.90919856  1410132 
29984000     0.680249   -1.6788272   -1.6788272  -0.76981854  0.057055751   -1.6788272   0.90900869  1410118 
29985000   0.68035822   -1.6792166   -1.6792166  -0.77005358  0.057894382   -1.6792166   0.90916302  1410105 
29986000   0.68021816   -1.6792808   -1.6792808  -0.77029589  0.056862153   -1.6792808   0.90898488  1410091 
29987000    0.6799154   -1.6789134   -1.6789134  -0.77032472  0.057546131   -1.6789134   0.90858868  1410078 
29988000   0.67942501   -1.6786762   -1.6786762  -0.77073382  0.055249062   -1.6786762   0.90794237  1410064 
29989000    0.6798205   -1.6791066   -1.6791066  -0.77062735  0.059034026   -1.6791066   0.90847925  1410051 
29990000   0.67976602   -1.6793173   -1.6793173  -0.77090179  0.060220707   -1.6793173   0.90841548  1410037 
29991000   0.68025988   -1.6794921   -1.6794921  -0.77040826  0.056260661   -1.6794921   0.90908384  1410024 
29992000   0.68032549   -1.6798623   -1.6798623  -0.77068176  0.057199628   -1.6798623   0.90918054  1410010 
29993000   0.68017289   -1.6795975   -1.6795975  -0.77061255  0.057721917   -1.6795975   0.90898499  1409997 
29994000   0.68065391   -1.6799694   -1.6799694   -0.7703325  0.056715749   -1.6799694   0.90963685  1409983 
29995000   0.68034944   -1.6796723   -1.6796723  -0.77043394  0.055613354   -1.6796723   0.90923834  1409970 
29996000    0.6804718   -1.6802777   -1.6802777  -0.77086676  0.057613497   -1.6802777   0.90941089  1409956 
29997000   0.67936603   -1.6797928   -1.6797928  -0.77185137  0.055795735   -1.6797928   0.90794147  1409943 
29998000   0.67931886   -1.6794096   -1.6794096  -0.77152212  0.056635893   -1.6794096   0.90788744  1409929 
29999000   0.67964136   -1.6799086   -1.6799086  -0.77158181  0.057278683   -1.6799086   0.90832682  1409916 
30000000   0.68015082   -1.6801001   -1.6801001  -0.77108337  0.057561704   -1.6801001   0.90901674  1409902 
Loop time of 62403.8 on 768 procs for 30000000 steps with 1409902 atoms

Performance: 207679.655 tau/day, 480.740 timesteps/s
88.3% CPU use with 768 MPI tasks x 1 OpenMP threads

MPI task timing breakdown:
Section |  min time  |  avg time  |  max time  |%varavg|  %CPU | %total
-----------------------------------------------------------------------
Pair    | 3153.8     | 11053      | 19218      |3609.2 |  90.9 | 17.71
Bond    | 18.857     | 20.255     | 21.784     |  11.6 | 100.0 |  0.03
Neigh   | 3873.5     | 12305      | 17149      |2876.8 |  98.3 | 19.72
Comm    | 12358      | 22064      | 35565      |3113.1 |  85.4 | 35.36
Output  | 3057.8     | 3064.2     | 3072.2     |   7.0 |  77.2 |  4.91
Modify  | 9682.9     | 12966      | 29855      |2545.3 |  85.7 | 20.78
Other   |            | 932.5      |            |       |       |  1.49

Nlocal:        1835.81 ave        3219 max         325 min
Histogram: 8 3 5 14 229 423 61 10 11 4
Nghost:        5564.59 ave        9100 max        1428 min
Histogram: 86 66 26 38 69 76 118 167 87 35
Neighs:        27201.3 ave       56534 max        1807 min
Histogram: 35 102 37 118 149 132 77 38 28 52

Total # of neighbors = 20890611
Ave neighs/atom = 14.817066
Ave special neighs/atom = 0.0000000
Neighbor list builds = 3249729
Dangerous builds = 2815134

Total wall time: 17:20:16
