LAMMPS (24 Dec 2020)
OMP_NUM_THREADS environment is not set. Defaulting to 1 thread. (src/comm.cpp:94)
  using 1 OpenMP thread(s) per MPI task
#Read the equilibrated lj fluid and add nanocubes

units           lj
atom_style      full
#atom_modify     map array first cubes
dimension       3
boundary        p p f
pair_style      lj/cut/opt 2.5

variable        sigma           equal 1.0
variable        epsilon         equal 1.0
read_restart	restart.dat.4000000
Reading restart file ...
  restart file = 24 Dec 2020, LAMMPS = 24 Dec 2020
  restoring atom style full from restart
  orthogonal box = (0.0000000 0.0000000 0.0000000) to (80.000000 80.000000 160.00000)
  6 by 4 by 12 MPI processor grid
  restoring pair style lj/cut/opt from restart
  545227 atoms
Finding 1-2 1-3 1-4 neighbors ...
  special bond factors lj:    0        0        0       
  special bond factors coul:  0        0        0       
     0 = max # of 1-2 neighbors
     0 = max # of 1-3 neighbors
     0 = max # of 1-4 neighbors
     1 = max # of special neighbors
  special bonds CPU = 2.383 seconds
  read_restart CPU = 2.912 seconds

group		solvent type 1
472075 atoms in group solvent
group 		hull  type 2
28544 atoms in group hull
group 		dummy type 3
44608 atoms in group dummy

neighbor      0.4 bin
neigh_modify  exclude molecule/intra cubes


pair_modify   shift yes

pair_coeff    1 1 1.0 1.0 #solvent
pair_coeff    2 2 1.0 1.0 1.12 #np
pair_coeff    3 3 0.0 0.0 0.0 #dummy
pair_coeff    2 3 0.0 0.0 0.0 #np dummy
pair_coeff    1 2 1.0 1.0 #np solvent
pair_coeff    1 3 0.0 0.0 0.0 #dummy solvent


comm_modify   mode multi cutoff/multi 1 2.5 cutoff/multi 2 2.5 cutoff/multi 3 8.67



balance 	1.05 shift z 10 1.05
Balancing ...
Unused restart file global fix info:
  fix style: STORE, fix ID: msd_COMPUTE_STORE
Unused restart file peratom fix info:
  fix style: STORE, fix ID: bin1_COMPUTE_STORE
Neighbor list info ...
  update every 1 steps, delay 10 steps, check yes
  max neighbors/atom: 2000, page size: 100000
  master list distance cutoff = 2.9
  ghost atom cutoff = 8.67
  binsize = 1.45, bins = 56 56 111
  1 neighbor lists, perpetual/occasional/extra = 1 0 0
  (1) pair lj/cut/opt, perpetual
      attributes: half, newton on
      pair build: half/bin/newton
      stencil: half/bin/3d/newton
      bin: standard
 rebalancing time: 0.058 seconds
  iteration count = 4
  initial/final maximal load/proc = 2989.0000 2628.0000
  initial/final imbalance factor  = 1.5788506 1.3881631
  x cuts: 0.0000000 0.16666667 0.33333333 0.50000000 0.66666667 0.83333333 1.0000000
  y cuts: 0.0000000 0.25000000 0.50000000 0.75000000 1.0000000
  z cuts: 0.0000000 0.078125000 0.15104167 0.21354167 0.28645833 0.34895833 0.42187500 0.48958333 0.57291667 0.63541667 0.71875000 0.80208333 1.0000000

####################### WALLS ###########################

variable       epsilonWall equal 2*${epsilon}
variable       epsilonWall equal 2*1
variable       repulsive   equal   0.7147*${sigma}
variable       repulsive   equal   0.7147*1
variable       full	   equal   3*${sigma}
variable       full	   equal   3*1
region         lowWall block EDGE EDGE EDGE EDGE EDGE 2

fix            topWall all wall/lj93 zhi EDGE 	       ${epsilonWall} ${sigma} ${repulsive} units box
fix            topWall all wall/lj93 zhi EDGE 	       2 ${sigma} ${repulsive} units box
fix            topWall all wall/lj93 zhi EDGE 	       2 1 ${repulsive} units box
fix            topWall all wall/lj93 zhi EDGE 	       2 1 0.7147 units box
fix            lowSol solvent wall/lj93 zlo EDGE                ${epsilonWall} ${sigma} ${full} units box
fix            lowSol solvent wall/lj93 zlo EDGE                2 ${sigma} ${full} units box
fix            lowSol solvent wall/lj93 zlo EDGE                2 1 ${full} units box
fix            lowSol solvent wall/lj93 zlo EDGE                2 1 3 units box
fix 	       lowCub cubes wall/lj93 zlo EDGE                ${epsilonWall} ${sigma} ${repulsive} units box
fix 	       lowCub cubes wall/lj93 zlo EDGE                2 ${sigma} ${repulsive} units box
fix 	       lowCub cubes wall/lj93 zlo EDGE                2 1 ${repulsive} units box
fix 	       lowCub cubes wall/lj93 zlo EDGE                2 1 0.7147 units box


###################### COMPUTES ##########################

compute        bin1 solvent chunk/atom bin/1d z lower 1.0 units box


######################  FIXES ############################


fix             peclet solvent ave/chunk 10 10 10000 bin1 density/number norm                  none ave one file density.profile

fix              temp solvent ave/chunk 10 10 10000 bin1 temp norm                  none ave one file temp.profile

fix             1 cubes rigid/nve/small molecule
  create bodies CPU = 0.002 seconds
  64 rigid bodies with 73152 atoms
  6.9282032 = max distance from body owner to body atom

fix             2 solvent nve


## Thermostat
region          regthermo block EDGE EDGE EDGE EDGE 0 20
group           thermo dynamic solvent region regthermo every 1000
dynamic group thermo defined
fix             3 thermo langevin ${temp} ${temp} 10 156453
fix             3 thermo langevin 1.0 ${temp} 10 156453
fix             3 thermo langevin 1.0 1.0 10 156453

## Evaporation
region		regevap block EDGE EDGE EDGE EDGE 140 EDGE units box
fix		4 solvent evaporate ${evap} 1 regevap 156415
fix		4 solvent evaporate 60 1 regevap 156415


#### Load balancing

fix             bal all balance 1000 1.05 shift z 10 1.05

############### Diagnostics and computes ###################

compute        	com cubes          rigid/local   1 mol x y z
compute        	quat cubes         rigid/local   1 mol quatw quati quatj quatk

compute 	cc2 cubes 	   chunk/atom 	 molecule
compute 	msd cubes 	   msd/chunk 	 cc2

fix 		msd all ave/time  1 1 10000 c_msd[*] file dump.msd ave one mode vector

dump            1 all custom 500000 dump.lammpstrj id mol type x y z
dump		cubetrj hull custom 500000 cubes.lammpstrj id mol type x y z
dump            com cubes local 10000 dump.*.xyz c_com[*]
dump	        xyz hull xyz 100000 cubes.xyz
dump            quat cubes      local 10000 dump.*.quat c_quat[*]
#dump		mol cubes molfile 10000 mol.xyz xyz


dump            2 all image 10000 image.*.png type type zoom 1.6
dump_modify     2 pad 8
dump		image cubes image 10000 image_cubes.*.png type type zoom 1.6
dump_modify	image pad 8
dump            3 all movie 5000 movie.avi type type zoom 1.6
dump		4 cubes movie 5000 movie_cubes.avi type type zoom 1.6


thermo          1000
thermo_style    custom step temp epair evdwl etotal press pe ke atoms

restart         1000000 restart.dat
timestep        0.005
timer           full
New timer settings: style=full  mode=nosync  timeout=off

run 		20000000
Per MPI rank memory allocation (min/avg/max) = 14.65 | 18.54 | 23.98 Mbytes
Step Temp E_pair E_vdwl TotEng Press PotEng KinEng Atoms 
 4000000     1.000123   -2.9910719   -2.9910719   -1.6918147  0.074050593   -2.9910719    1.2992572   545227 
 4001000    1.0006201    -2.992474    -2.992474   -1.6925304  0.066541092    -2.992474    1.2999436   545210 
 4002000    1.0017832   -2.9941774   -2.9941774   -1.6926823  0.059629562   -2.9941774    1.3014952   545193 
 4003000    1.0023657   -2.9943082   -2.9943082   -1.6920181  0.070719407   -2.9943082    1.3022902   545177 
 4004000    1.0016524   -2.9933869   -2.9933869    -1.691983   0.06680861   -2.9933869    1.3014039   545160 
 4005000     1.001259   -2.9932819   -2.9932819   -1.6923485  0.068119433   -2.9932819    1.3009334   545143 
 4006000    1.0013237   -2.9934401   -2.9934401   -1.6923844   0.06427694   -2.9934401    1.3010557   545127 
 4007000    1.0008556   -2.9924436   -2.9924436   -1.6919556  0.064965056   -2.9924436     1.300488   545110 
 4008000    1.0021353   -2.9941139   -2.9941139   -1.6919226  0.057579631   -2.9941139    1.3021914   545093 
 4009000    1.0034968   -2.9959932   -2.9959932   -1.6919944  0.057536174   -2.9959932    1.3039988   545077 
 4010000    1.0022381   -2.9939737   -2.9939737   -1.6915698  0.076623551   -2.9939737    1.3024039   545060 
 4011000    1.0016547   -2.9923541   -2.9923541   -1.6906678  0.071260811   -2.9923541    1.3016863   545043 
 4012000    1.0037704   -2.9956877   -2.9956877   -1.6912137   0.06331651   -2.9956877     1.304474   545027 
 4013000    1.0028053   -2.9942313   -2.9942313   -1.6909709  0.070520949   -2.9942313    1.3032605   545010 
 4014000    1.0022166   -2.9933915   -2.9933915   -1.6908555  0.066068229   -2.9933915     1.302536   544993 
 4015000    1.0029773   -2.9950583   -2.9950583   -1.6914952  0.067848918   -2.9950583     1.303563   544977 
 4016000    1.0038439   -2.9954708   -2.9954708   -1.6907408   0.06647168   -2.9954708      1.30473   544960 
 4017000      1.00376   -2.9961192   -2.9961192   -1.6914576   0.06747571   -2.9961192    1.3046617   544943 
 4018000    1.0033501    -2.994738    -2.994738   -1.6905709  0.070737208    -2.994738    1.3041671   544927 
 4019000     1.001732   -2.9937688   -2.9937688   -1.6916643  0.070232701   -2.9937688    1.3021045   544910 
 4020000    1.0010261    -2.993834    -2.993834   -1.6926063  0.069964407    -2.993834    1.3012276   544893 
 4021000    1.0004866   -2.9928151   -2.9928151   -1.6922506  0.064805919   -2.9928151    1.3005645   544877 
 4022000   0.99921188   -2.9913995   -2.9913995   -1.6924515  0.062352756   -2.9913995    1.2989479   544860 
 4023000    1.0027749   -2.9961795   -2.9961795    -1.692559  0.059830297   -2.9961795    1.3036204   544843 
 4024000    1.0011678   -2.9941596   -2.9941596   -1.6925903  0.065531857   -2.9941596    1.3015694   544827 
 4025000   0.99988707   -2.9929526   -2.9929526   -1.6930077  0.069068283   -2.9929526     1.299945   544810 
 4026000    1.0023685   -2.9957403   -2.9957403   -1.6925287  0.058682887   -2.9957403    1.3032116   544793 
 4027000    1.0008103   -2.9931194   -2.9931194   -1.6918953  0.064657952   -2.9931194    1.3012241   544777 
 4028000    1.0004629   -2.9924054   -2.9924054   -1.6915924  0.063700663   -2.9924054     1.300813   544760 
 4029000    1.0012164   -2.9927016   -2.9927016   -1.6908683  0.056998684   -2.9927016    1.3018333   544743 
 4030000    1.0008459   -2.9933625   -2.9933625   -1.6919727  0.072266278   -2.9933625    1.3013898   544727 
 4031000   0.99895816   -2.9913726   -2.9913726   -1.6923969  0.068137295   -2.9913726    1.2989757   544710 
 4032000    1.0008035   -2.9928911   -2.9928911   -1.6914753   0.06144904   -2.9928911    1.3014159   544693 
 4033000     1.000174   -2.9926809   -2.9926809   -1.6920454  0.056777833   -2.9926809    1.3006355   544677 
 4034000    1.0006078   -2.9926251   -2.9926251   -1.6913849  0.063161535   -2.9926251    1.3012402   544660 
 4035000     1.000196    -2.992205    -2.992205   -1.6914596  0.060745064    -2.992205    1.3007454   544643 
 4036000    1.0002898   -2.9917688   -2.9917688   -1.6908633  0.064258869   -2.9917688    1.3009055   544627 
 4037000    1.0007893   -2.9930261   -2.9930261   -1.6914303  0.066217229   -2.9930261    1.3015958   544610 
 4038000   0.99979385    -2.992037    -2.992037   -1.6916954  0.058887188    -2.992037    1.3003417   544593 
 4039000    1.0013559   -2.9921533   -2.9921533   -1.6897417  0.061597962   -2.9921533    1.3024116   544577 
 4040000    1.0023973   -2.9943342   -2.9943342   -1.6905274  0.062890415   -2.9943342    1.3038068   544560 
 4041000    1.0007084   -2.9920252   -2.9920252   -1.6903746  0.058337449   -2.9920252    1.3016506   544543 
 4042000    1.0001006   -2.9917513   -2.9917513    -1.690853   0.05644764   -2.9917513    1.3008983   544527 
 4043000   0.99982001   -2.9924526   -2.9924526   -1.6918787  0.067360949   -2.9924526    1.3005739   544510 
 4044000    1.0006068   -2.9926615   -2.9926615   -1.6910234  0.064547563   -2.9926615    1.3016381   544493 
 4045000    1.0015626   -2.9932212   -2.9932212   -1.6903016  0.056428286   -2.9932212    1.3029197   544477 
 4046000    1.0014028   -2.9932193   -2.9932193   -1.6904668  0.065403142   -2.9932193    1.3027524   544460 
 4047000   0.99827755    -2.991469    -2.991469   -1.6927417  0.058312699    -2.991469    1.2987273   544443 
 4048000   0.99995121   -2.9942056   -2.9942056   -1.6932627  0.059100905   -2.9942056    1.3009429   544427 
 4049000    1.0005642   -2.9932586   -2.9932586   -1.6914776   0.06574721   -2.9932586     1.301781   544410 
 4050000    1.0001906   -2.9931592   -2.9931592   -1.6918236  0.059308628   -2.9931592    1.3013356   544393 
 4051000     1.000206   -2.9934126   -2.9934126   -1.6920186  0.073074894   -2.9934126     1.301394   544377 
 4052000   0.99986638   -2.9923773   -2.9923773   -1.6913847  0.065284718   -2.9923773    1.3009926   544360 
 4053000   0.99987028   -2.9922422   -2.9922422   -1.6912039  0.064316125   -2.9922422    1.3010384   544343 
 4054000   0.99993994   -2.9921265   -2.9921265   -1.6909593  0.073048658   -2.9921265    1.3011672   544327 
 4055000    1.0001061   -2.9932025   -2.9932025   -1.6917784     0.057387   -2.9932025    1.3014241   544310 
 4056000    1.0002904   -2.9939474   -2.9939474   -1.6922429  0.069201225   -2.9939474    1.3017045   544293 
 4057000    1.0004584   -2.9940838   -2.9940838   -1.6921224  0.064811979   -2.9940838    1.3019615   544277 
 4058000    0.9990291   -2.9927235   -2.9927235   -1.6925815  0.071688863   -2.9927235     1.300142   544260 
 4059000   0.99916323   -2.9941987   -2.9941987   -1.6938415  0.066051959   -2.9941987    1.3003572   544243 
 4060000   0.99849388   -2.9928333   -2.9928333    -1.693309  0.063966199   -2.9928333    1.2995243   544227 
 4061000   0.99865938   -2.9943166   -2.9943166   -1.6945363  0.069494713   -2.9943166    1.2997803   544210 
 4062000   0.99816556   -2.9930008   -2.9930008   -1.6938227  0.054891078   -2.9930008    1.2991782   544193 
 4063000   0.99848216   -2.9938418   -2.9938418   -1.6942134  0.057889634   -2.9938418    1.2996284   544177 
 4064000   0.99786056   -2.9937533   -2.9937533   -1.6948934    0.0585365   -2.9937533    1.2988599   544160 
 4065000   0.99771779   -2.9931282   -2.9931282   -1.6944136  0.066378632   -2.9931282    1.2987147   544143 
 4066000   0.99883571   -2.9937134   -2.9937134   -1.6935053  0.064945783   -2.9937134    1.3002081   544127 
 4067000   0.99778556   -2.9919694   -2.9919694   -1.6930877   0.06287106   -2.9919694    1.2988817   544110 
 4068000   0.99900301   -2.9930306   -2.9930306   -1.6925234  0.067683808   -2.9930306    1.3005071   544093 
 4069000    1.0003594   -2.9943568   -2.9943568   -1.6920456  0.070234818   -2.9943568    1.3023111   544077 
 4070000    1.0006592   -2.9955387   -2.9955387   -1.6927965  0.063911489   -2.9955387    1.3027422   544060 
 4071000    1.0006848   -2.9954859   -2.9954859   -1.6926697  0.065199407   -2.9954859    1.3028162   544043 
 4072000    1.0006621   -2.9953592   -2.9953592   -1.6925342  0.070595528   -2.9953592    1.3028249   544027 
 4073000    1.0001643   -2.9951978   -2.9951978   -1.6929802  0.065110236   -2.9951978    1.3022176   544010 
 4074000   0.99957957   -2.9941897   -2.9941897   -1.6926928   0.06158336   -2.9941897    1.3014969   543993 
 4075000    1.0008183   -2.9955212   -2.9955212    -1.692373  0.059283532   -2.9955212    1.3031482   543977 
 4076000   0.99937781   -2.9934448   -2.9934448   -1.6921317  0.069827283   -2.9934448    1.3013131   543960 
 4077000   0.99892385    -2.994154    -2.994154   -1.6933913   0.06749172    -2.994154    1.3007627   543943 
 4078000   0.99970361   -2.9951125   -2.9951125   -1.6932961  0.061058468   -2.9951125    1.3018164   543927 
 4079000   0.99920961     -2.99415     -2.99415   -1.6929363  0.071372604     -2.99415    1.3012137   543910 
 4080000   0.99890784    -2.994936    -2.994936   -1.6940745  0.053112142    -2.994936    1.3008614   543893 
 4081000   0.99849504   -2.9955552   -2.9955552   -1.6951931  0.064253554   -2.9955552    1.3003621   543877 
 4082000   0.99966589   -2.9957405   -2.9957405   -1.6938129  0.062419353   -2.9957405    1.3019276   543860 
 4083000     1.000257   -2.9962324   -2.9962324   -1.6934943  0.060354972   -2.9962324    1.3027382   543843 
 4084000   0.99710528   -2.9928866   -2.9928866    -1.694215  0.056006641   -2.9928866    1.2986716   543827 
 4085000   0.99831962    -2.994478    -2.994478   -1.6941842   0.05064255    -2.994478    1.3002938   543810 
 4086000   0.99975064    -2.996029    -2.996029   -1.6938305  0.063228429    -2.996029    1.3021984   543793 
 4087000   0.99715788   -2.9935757   -2.9935757   -1.6947162  0.065765426   -2.9935757    1.2988595   543777 
 4088000   0.99948975   -2.9958634   -2.9958634   -1.6939258  0.066025562   -2.9958634    1.3019376   543760 
 4089000   0.99961048   -2.9946219   -2.9946219   -1.6924863  0.066886295   -2.9946219    1.3021356   543743 
 4090000   0.99830655   -2.9933039   -2.9933039   -1.6928286  0.065482112   -2.9933039    1.3004753   543727 
 4091000   0.99944452   -2.9952135   -2.9952135   -1.6932151  0.064667145   -2.9952135    1.3019984   543710 
 4092000   0.99817016   -2.9951977   -2.9951977   -1.6948188  0.054167436   -2.9951977    1.3003789   543693 
 4093000   0.99894375   -2.9965308   -2.9965308   -1.6951058  0.052179494   -2.9965308     1.301425   543677 
 4094000   0.99711856   -2.9935492   -2.9935492   -1.6944614  0.059376221   -2.9935492    1.2990878   543660 
 4095000    0.9974953   -2.9949774   -2.9949774   -1.6953582  0.063743241   -2.9949774    1.2996193   543643 
 4096000   0.99825607   -2.9958519   -2.9958519   -1.6952031  0.068039042   -2.9958519    1.3006487   543627 
 4097000   0.99709771   -2.9940539   -2.9940539   -1.6948738  0.061086891   -2.9940539    1.2991801   543610 
 4098000   0.99720913   -2.9932487   -2.9932487   -1.6938828   0.06540192   -2.9932487    1.2993659   543593 
 4099000   0.99682248   -2.9933174   -2.9933174    -1.694417  0.061420043   -2.9933174    1.2989003   543577 
 4100000    0.9980206   -2.9955793   -2.9955793   -1.6950771  0.056198117   -2.9955793    1.3005022   543560 
 4101000   0.99836837    -2.996219    -2.996219   -1.6952229  0.056131138    -2.996219    1.3009961   543543 
 4102000   0.99835341   -2.9957465   -2.9957465   -1.6947316  0.066527172   -2.9957465    1.3010149   543527 
 4103000   0.99764395    -2.996277    -2.996277   -1.6961459  0.070589228    -2.996277     1.300131   543510 
 4104000   0.99714437    -2.995136    -2.995136   -1.6956154  0.064831889    -2.995136    1.2995206   543493 
 4105000    0.9969318   -2.9948829   -2.9948829   -1.6956011  0.057661787   -2.9948829    1.2992818   543477 
 4106000    0.9991712   -2.9969035   -2.9969035   -1.6946623   0.06652246   -2.9969035    1.3022411   543460 
 4107000   0.99730996   -2.9942241   -2.9942241   -1.6943682  0.056190518   -2.9942241     1.299856   543443 
 4108000   0.99772179   -2.9939466   -2.9939466   -1.6935156  0.071665316   -2.9939466     1.300431   543427 
 4109000   0.99918719   -2.9958503   -2.9958503   -1.6934686  0.063243413   -2.9958503    1.3023818   543410 
 4110000   0.99812486   -2.9948919   -2.9948919   -1.6938541  0.065553519   -2.9948919    1.3010378   543393 
 4111000   0.99793002   -2.9946305   -2.9946305   -1.6938084   0.06521315   -2.9946305    1.3008221   543377 
 4112000   0.99817081    -2.996586    -2.996586   -1.6954093   0.06143831    -2.996586    1.3011767   543360 
 4113000    0.9974239   -2.9957583   -2.9957583   -1.6955146  0.066548975   -2.9957583    1.3002438   543343 
 4114000   0.99915369   -2.9984894   -2.9984894   -1.6959523  0.060258525   -2.9984894    1.3025371   543327 
 4115000    0.9983052   -2.9978133   -2.9978133   -1.6963416   0.05870714   -2.9978133    1.3014717   543310 
 4116000   0.99812199   -2.9973636   -2.9973636   -1.6960901  0.063864049   -2.9973636    1.3012735   543293 
 4117000   0.99690438   -2.9951521   -2.9951521   -1.6954278  0.065504461   -2.9951521    1.2997244   543277 
 4118000   0.99607094   -2.9942104   -2.9942104   -1.6955319  0.063931229   -2.9942104    1.2986784   543260 
 4119000   0.99765436   -2.9974232   -2.9974232   -1.6966397   0.06216729   -2.9974232    1.3007836   543243 
 4120000    0.9973269   -2.9976956   -2.9976956   -1.6973006  0.063364409   -2.9976956    1.3003949   543227 
 4121000   0.99694715   -2.9965924   -2.9965924   -1.6966519  0.062513909   -2.9965924    1.2999405   543210 
 4122000   0.99747325   -2.9978146   -2.9978146   -1.6971475  0.065835998   -2.9978146    1.3006672   543193 
 4123000   0.99568478   -2.9955076   -2.9955076   -1.6971343  0.057739934   -2.9955076    1.2983733   543177 
 4124000   0.99617749   -2.9972144   -2.9972144    -1.698158  0.063939392   -2.9972144    1.2990565   543160 
 4125000   0.99678716   -2.9966656   -2.9966656   -1.6967734  0.069973027   -2.9966656    1.2998922   543143 
 4126000   0.99642457   -2.9971333   -2.9971333   -1.6976757  0.065639545   -2.9971333    1.2994576   543127 
 4127000   0.99685504   -2.9977249   -2.9977249   -1.6976652  0.056232885   -2.9977249    1.3000597   543110 
 4128000   0.99696637   -2.9977715   -2.9977715    -1.697526  0.062832839   -2.9977715    1.3002456   543093 
 4129000   0.99692314   -2.9964103   -2.9964103   -1.6961828  0.073315702   -2.9964103    1.3002275   543077 
 4130000   0.99668887     -2.99637     -2.99637   -1.6964073  0.070158752     -2.99637    1.2999627   543060 
 4131000   0.99589797   -2.9952906   -2.9952906   -1.6963188   0.07017422   -2.9952906    1.2989718   543043 
 4132000   0.99603759   -2.9955714   -2.9955714   -1.6963793  0.062258115   -2.9955714    1.2991921   543027 
 4133000   0.99605491   -2.9957501   -2.9957501   -1.6964947  0.072523604   -2.9957501    1.2992554   543010 
 4134000   0.99560924   -2.9968232   -2.9968232   -1.6981085   0.05770966   -2.9968232    1.2987147   542993 
 4135000   0.99466436   -2.9956808   -2.9956808   -1.6981604  0.064860409   -2.9956808    1.2975204   542977 
 4136000   0.99474245   -2.9950262   -2.9950262   -1.6973633  0.061613359   -2.9950262    1.2976629   542960 
 4137000   0.99403824   -2.9941214   -2.9941214   -1.6973365  0.064900027   -2.9941214    1.2967849   542943 
 4138000   0.99524085   -2.9949718   -2.9949718   -1.6965798    0.0575343   -2.9949718     1.298392   542927 
 4139000   0.99586861   -2.9968234   -2.9968234   -1.6975718  0.064454028   -2.9968234    1.2992517   542910 
 4140000   0.99516015   -2.9964539   -2.9964539   -1.6980859  0.060704296   -2.9964539     1.298368   542893 
 4141000   0.99535302   -2.9965483   -2.9965483   -1.6978904  0.061188564   -2.9965483    1.2986579   542877 
 4142000   0.99430459   -2.9946766   -2.9946766   -1.6973459   0.06212299   -2.9946766    1.2973307   542860 
 4143000   0.99555544   -2.9960131   -2.9960131   -1.6970097  0.052907237   -2.9960131    1.2990034   542843 
 4144000    0.9949909    -2.994282    -2.994282   -1.6959769  0.062451492    -2.994282    1.2983051   542827 
 4145000   0.99422779   -2.9936883   -2.9936883   -1.6963383  0.060574345   -2.9936883      1.29735   542810 
 4146000     0.995903   -2.9961373   -2.9961373   -1.6965607   0.06057732   -2.9961373    1.2995766   542793 
 4147000   0.99525273   -2.9946104   -2.9946104   -1.6958441  0.062904394   -2.9946104    1.2987663   542777 
 4148000   0.99423911   -2.9939508   -2.9939508   -1.6964666  0.058371378   -2.9939508    1.2974842   542760 
 4149000   0.99399706   -2.9924648   -2.9924648   -1.6952558  0.062490126   -2.9924648     1.297209   542743 
 4150000   0.99323894   -2.9921981   -2.9921981   -1.6959402  0.064543849   -2.9921981    1.2962578   542727 
 4151000   0.99676787   -2.9963593   -2.9963593   -1.6954552  0.062046738   -2.9963593    1.3009041   542710 
 4152000   0.99410704   -2.9933676   -2.9933676   -1.6958955  0.054956703   -2.9933676    1.2974721   542693 
 4153000    0.9948001   -2.9937948   -2.9937948   -1.6953799   0.05761024   -2.9937948    1.2984149   542677 
 4154000   0.99513021   -2.9938143   -2.9938143   -1.6949279  0.068969582   -2.9938143    1.2988864   542660 
 4155000   0.99454827   -2.9931185   -2.9931185    -1.694951  0.055199168   -2.9931185    1.2981675   542643 
 4156000   0.99653078   -2.9949296   -2.9949296    -1.694136   0.05864283   -2.9949296    1.3007936   542627 
 4157000   0.99583463   -2.9957267   -2.9957267   -1.6958011  0.064190526   -2.9957267    1.2999257   542610 
 4158000   0.99472648   -2.9945875   -2.9945875   -1.6960677  0.057359299   -2.9945875    1.2985198   542593 
 4159000   0.99465142   -2.9953281   -2.9953281    -1.696868  0.052738629   -2.9953281    1.2984601   542577 
 4160000   0.99516714   -2.9965076   -2.9965076   -1.6973335  0.061436264   -2.9965076     1.299174   542560 
 4161000   0.99352188   -2.9940436   -2.9940436   -1.6969768  0.060291822   -2.9940436    1.2970668   542543 
 4162000   0.99294778    -2.993782    -2.993782   -1.6974265  0.069504408    -2.993782    1.2963556   542527 
 4163000   0.99361322   -2.9931037   -2.9931037   -1.6958388  0.054992896   -2.9931037     1.297265   542510 
 4164000   0.99580798   -2.9961395   -2.9961395   -1.6959683  0.055717357   -2.9961395    1.3001712   542493 
 4165000   0.99387697   -2.9940373   -2.9940373    -1.696349   0.05505002   -2.9940373    1.2976883   542477 
 4166000   0.99366772   -2.9941895   -2.9941895   -1.6967338   0.05618295   -2.9941895    1.2974557   542460 
 4167000   0.99280952   -2.9932747   -2.9932747   -1.6968989  0.068677988   -2.9932747    1.2963758   542443 
 4168000   0.99384488   -2.9952655   -2.9952655   -1.6974995   0.06275313   -2.9952655     1.297766   542427 
 4169000   0.99375283   -2.9956978   -2.9956978   -1.6980113  0.066735087   -2.9956978    1.2976865   542410 
 4170000   0.99530622   -2.9979934   -2.9979934   -1.6982377  0.060055923   -2.9979934    1.2997557   542393 
 4171000   0.99393083   -2.9970837   -2.9970837   -1.6990859  0.062958028   -2.9970837    1.2979979   542377 
 4172000   0.99351827    -2.996418    -2.996418   -1.6989183  0.065926072    -2.996418    1.2974998   542360 
 4173000   0.99360286   -2.9966924   -2.9966924   -1.6990415  0.060438935   -2.9966924    1.2976509   542343 
 4174000   0.99274115   -2.9955001   -2.9955001   -1.6989363  0.070232336   -2.9955001    1.2965638   542327 
 4175000   0.99382301   -2.9970919   -2.9970919   -1.6990745  0.064903629   -2.9970919    1.2980174   542310 
 4176000   0.99402225   -2.9977075   -2.9977075   -1.6993892  0.069690943   -2.9977075    1.2983183   542293 
 4177000    0.9945792   -2.9987254   -2.9987254   -1.6996413  0.072100848   -2.9987254    1.2990841   542277 
 4178000   0.99384732   -2.9984633   -2.9984633   -1.7002945  0.063380941   -2.9984633    1.2981688   542260 
 4179000    0.9929498   -2.9968175   -2.9968175   -1.6997804  0.065420674   -2.9968175    1.2970372   542243 
 4180000   0.99329457   -2.9966279   -2.9966279   -1.6991021  0.070322517   -2.9966279    1.2975258   542227 
 4181000   0.99380961   -2.9979358   -2.9979358   -1.6996965  0.056023334   -2.9979358    1.2982393   542210 
 4182000   0.99328585   -2.9970934   -2.9970934   -1.6994976  0.065218638   -2.9970934    1.2975958   542193 
 4183000   0.99347507   -2.9981233   -2.9981233    -1.700242  0.064942043   -2.9981233    1.2978813   542177 
 4184000    0.9932675   -2.9975331   -2.9975331   -1.6998823  0.067433508   -2.9975331    1.2976508   542160 
 4185000    0.9941805   -2.9977191   -2.9977191   -1.6988348  0.069606221   -2.9977191    1.2988843   542143 
 4186000   0.99356197   -2.9973369   -2.9973369   -1.6992224  0.060404133   -2.9973369    1.2981145   542127 
 4187000   0.99301213   -2.9970162   -2.9970162   -1.6995794  0.056770824   -2.9970162    1.2974368   542110 
 4188000   0.99451071   -2.9996044   -2.9996044   -1.7001688     0.056703   -2.9996044    1.2994356   542093 
 4189000   0.99354231   -2.9983261   -2.9983261   -1.7001175  0.064082293   -2.9983261    1.2982086   542077 
 4190000   0.99326543   -2.9986987   -2.9986987   -1.7008112  0.054607801   -2.9986987    1.2978875   542060 
 4191000    0.9909248   -2.9958685   -2.9958685   -1.7009989  0.063710492   -2.9958685    1.2948696   542043 
 4192000      0.99072   -2.9953783   -2.9953783   -1.7007381  0.060213452   -2.9953783    1.2946402   542027 
 4193000   0.99157477   -2.9963048   -2.9963048   -1.7005069  0.060373634   -2.9963048    1.2957978   542010 
 4194000    0.9943716   -2.9995287   -2.9995287   -1.7000352  0.062399043   -2.9995287    1.2994935   541993 
 4195000   0.99215447   -2.9969758   -2.9969758   -1.7003414  0.066685486   -2.9969758    1.2966343   541977 
 4196000    0.9918902   -2.9965839   -2.9965839   -1.7002543  0.058829818   -2.9965839    1.2963296   541960 
 4197000   0.99242458   -2.9960735   -2.9960735   -1.6990047  0.060641031   -2.9960735    1.2970687   541943 
 4198000   0.99265715   -2.9964141   -2.9964141   -1.6990031  0.067460543   -2.9964141     1.297411   541927 
 4199000   0.99115031   -2.9937164   -2.9937164   -1.6982343  0.060211674   -2.9937164    1.2954822   541910 
 4200000   0.99250493   -2.9949121   -2.9949121   -1.6976187   0.06008912   -2.9949121    1.2972934   541893 
 4201000   0.99239668   -2.9939556   -2.9939556   -1.6967654  0.061981713   -2.9939556    1.2971902   541877 
 4202000   0.99205565   -2.9945508   -2.9945508   -1.6977657  0.066041931   -2.9945508    1.2967851   541860 
 4203000   0.99371162   -2.9955404   -2.9955404   -1.6965498   0.06082763   -2.9955404    1.2989905   541843 
 4204000   0.99339087   -2.9951559   -2.9951559   -1.6965464  0.063134178   -2.9951559    1.2986096   541827 
 4205000   0.99181992   -2.9935097   -2.9935097   -1.6969131  0.061819294   -2.9935097    1.2965966   541810 
 4206000    0.9920481   -2.9946033   -2.9946033   -1.6976677  0.054858407   -2.9946033    1.2969356   541793 
 4207000   0.99180143   -2.9959373   -2.9959373   -1.6992858  0.061460381   -2.9959373    1.2966514   541777 
 4208000   0.99209153   -2.9956337   -2.9956337   -1.6985623  0.066882341   -2.9956337    1.2970714   541760 
 4209000   0.99338179   -2.9975545   -2.9975545   -1.6987555  0.056285082   -2.9975545    1.2987991   541743 
 4210000   0.99209243   -2.9963001   -2.9963001   -1.6991485   0.06482791   -2.9963001    1.2971516   541727 
 4211000   0.99183729   -2.9956783   -2.9956783   -1.6988196  0.056557353   -2.9956783    1.2968587   541710 
 4212000   0.99324767   -2.9972203   -2.9972203   -1.6984767  0.057590423   -2.9972203    1.2987436   541693 
 4213000   0.99191843   -2.9959627   -2.9959627   -1.6989189  0.056872075   -2.9959627    1.2970438   541677 
 4214000   0.99199262   -2.9954971   -2.9954971   -1.6983156  0.057680434   -2.9954971    1.2971815   541660 
 4215000   0.99191582   -2.9955963   -2.9955963   -1.6984745  0.064948571   -2.9955963    1.2971218   541643 
 4216000   0.99112603   -2.9935502   -2.9935502   -1.6974229  0.066249607   -2.9935502    1.2961273   541627 
 4217000   0.99072529   -2.9938783   -2.9938783   -1.6982344  0.054187666   -2.9938783    1.2956439   541610 
 4218000   0.99142777   -2.9950302   -2.9950302   -1.6984269  0.064284673   -2.9950302    1.2966033   541593 
 4219000   0.99108808   -2.9953312   -2.9953312   -1.6991339  0.058385938   -2.9953312    1.2961973   541577 
 4220000   0.99192219   -2.9967842   -2.9967842   -1.6994553  0.064206023   -2.9967842    1.2973289   541560 
 4221000   0.99150611   -2.9968959   -2.9968959   -1.7000705  0.071561836   -2.9968959    1.2968255   541543 
 4222000   0.99252843   -2.9973375   -2.9973375   -1.6991365  0.058947926   -2.9973375    1.2982009   541527 
 4223000   0.99302199   -2.9976158   -2.9976158   -1.6987286  0.063848779   -2.9976158    1.2988873   541510 
 4224000    0.9926336   -2.9962681   -2.9962681    -1.697848  0.067353664   -2.9962681      1.29842   541493 
 4225000   0.99303959   -2.9967696   -2.9967696   -1.6977801  0.060006957   -2.9967696    1.2989895   541477 
 4226000   0.99316367    -2.996677    -2.996677   -1.6974844  0.060484678    -2.996677    1.2991926   541460 
 4227000   0.99188374   -2.9965197   -2.9965197   -1.6989607   0.05684952   -2.9965197     1.297559   541443 
 4228000   0.99185226   -2.9966034   -2.9966034   -1.6990472  0.060313543   -2.9966034    1.2975561   541427 
 4229000    0.9921272    -2.998443    -2.998443   -1.7004865  0.060102877    -2.998443    1.2979566   541410 
 4230000   0.99208113   -2.9995172   -2.9995172   -1.7015801  0.056963192   -2.9995172    1.2979371   541393 
 4231000   0.99128661   -2.9982479   -2.9982479    -1.701312  0.056594208   -2.9982479    1.2969359   541377 
 4232000    0.9909491   -2.9978283   -2.9978283   -1.7012932  0.062507059   -2.9978283    1.2965351   541360 
 4233000   0.99249015   -2.9990971   -2.9990971    -1.700505  0.062372016   -2.9990971    1.2985921   541343 
 4234000   0.99255212   -2.9982078   -2.9982078   -1.6994962  0.061333558   -2.9982078    1.2987116   541327 
 4235000   0.99181566   -2.9982028   -2.9982028   -1.7004141  0.067512111   -2.9982028    1.2977887   541310 
 4236000   0.99275868   -3.0001218   -3.0001218   -1.7010583  0.052715359   -3.0001218    1.2990634   541293 
 4237000   0.99080141    -2.996961    -2.996961   -1.7004204  0.060912193    -2.996961    1.2965406   541277 
 4238000   0.99132322   -2.9977606   -2.9977606   -1.7004964  0.065840603   -2.9977606    1.2972642   541260 
 4239000   0.99143977   -2.9977566   -2.9977566   -1.7002991  0.070878474   -2.9977566    1.2974575   541243 
 4240000   0.99448211   -3.0013021   -3.0013021   -1.6998248  0.055354616   -3.0013021    1.3014773   541227 
 4241000   0.99122066   -2.9968351   -2.9968351   -1.6995853  0.063978928   -2.9968351    1.2972498   541210 
 4242000   0.98990213   -2.9948464   -2.9948464   -1.6992815  0.060164373   -2.9948464    1.2955649   541193 
 4243000   0.99131121   -2.9975789   -2.9975789   -1.7001315  0.068941373   -2.9975789    1.2974474   541177 
 4244000   0.98985969   -2.9955852   -2.9955852   -1.6999969  0.065876044   -2.9955852    1.2955883   541160 
 4245000   0.99082621   -2.9962342   -2.9962342   -1.6993401  0.067302131   -2.9962342    1.2968941   541143 
 4246000    0.9912873   -2.9971445   -2.9971445   -1.6996085  0.057767947   -2.9971445     1.297536   541127 
 4247000   0.98999971   -2.9957031   -2.9957031   -1.6998118   0.05628261   -2.9957031    1.2958913   541110 
 4248000   0.99182517   -2.9976826   -2.9976826    -1.699361  0.061130656   -2.9976826    1.2983216   541093 
 4249000   0.99098071   -2.9969933   -2.9969933   -1.6997387  0.059493247   -2.9969933    1.2972546   541077 
 4250000   0.98954156   -2.9964673   -2.9964673   -1.7010559  0.052801995   -2.9964673    1.2954113   541060 
 4251000   0.98806002   -2.9958044   -2.9958044   -1.7022919  0.056865863   -2.9958044    1.2935125   541043 
 4252000   0.98900263   -2.9973214   -2.9973214   -1.7025366  0.047594678   -2.9973214    1.2947848   541027 
 4253000    0.9879772   -2.9961342   -2.9961342   -1.7026512  0.063221243   -2.9961342     1.293483   541010 
 4254000   0.98829783   -2.9956731   -2.9956731   -1.7017297  0.062562585   -2.9956731    1.2939434   540993 
 4255000   0.98819897    -2.996081    -2.996081   -1.7022288  0.066425174    -2.996081    1.2938522   540977 
 4256000   0.98866272   -2.9969867   -2.9969867   -1.7024866   0.06037993   -2.9969867    1.2945001   540960 
 4257000   0.98956998   -2.9981721   -2.9981721   -1.7024434  0.053016718   -2.9981721    1.2957287   540943 
 4258000   0.98865668   -2.9982374   -2.9982374   -1.7036662   0.05753071   -2.9982374    1.2945712   540927 
 4259000   0.99060389     -2.99932     -2.99932   -1.7021584  0.061147006     -2.99932    1.2971616   540910 
 4260000   0.98999555   -2.9979621   -2.9979621   -1.7015563  0.061016073   -2.9979621    1.2964058   540893 
 4261000   0.99092562   -2.9990382   -2.9990382   -1.7013761  0.060047584   -2.9990382    1.2976621   540877 
 4262000   0.98916716   -2.9982006   -2.9982006   -1.7028006  0.063428345   -2.9982006       1.2954   540860 
 4263000   0.98874288   -2.9975748   -2.9975748   -1.7026896  0.065181359   -2.9975748    1.2948851   540843 
 4264000   0.98992397   -2.9989734   -2.9989734   -1.7025032  0.062939209   -2.9989734    1.2964702   540827 
 4265000   0.98878384   -2.9979428   -2.9979428   -1.7029251  0.075394144   -2.9979428    1.2950178   540810 
 4266000   0.99019034     -2.99931     -2.99931   -1.7024093  0.062626901     -2.99931    1.2969006   540793 
 4267000   0.98968631    -2.999311    -2.999311   -1.7030322  0.065777692    -2.999311    1.2962788   540777 
 4268000   0.99061032   -3.0007115   -3.0007115   -1.7031816  0.064314157   -3.0007115    1.2975299   540760 
 4269000    0.9882832   -2.9979894   -2.9979894    -1.703467  0.067811441   -2.9979894    1.2945225   540743 
 4270000   0.98916299    -2.999237    -2.999237   -1.7035237  0.063475059    -2.999237    1.2957132   540727 
 4271000   0.98992352   -2.9992817   -2.9992817   -1.7025315  0.069757703   -2.9992817    1.2967502   540710 
 4272000   0.98951182   -2.9991292   -2.9991292   -1.7028776  0.068206433   -2.9991292    1.2962516   540693 
 4273000   0.98936629   -3.0017385   -3.0017385   -1.7056391   0.05889452   -3.0017385    1.2960994   540677 
 4274000   0.98872664   -2.9992955   -2.9992955   -1.7039934  0.061019742   -2.9992955    1.2953021   540660 
 4275000   0.98852374   -3.0005026   -3.0005026   -1.7054256  0.056255944   -3.0005026     1.295077   540643 
 4276000   0.98749665   -2.9992426   -2.9992426   -1.7054729   0.06240117   -2.9992426    1.2937697   540627 
 4277000   0.98738564   -2.9990985   -2.9990985   -1.7054335  0.057037415   -2.9990985     1.293665   540610 
 4278000   0.98948358   -3.0004799   -3.0004799   -1.7040255  0.064103648   -3.0004799    1.2964544   540593 
 4279000   0.98941185    -3.001251    -3.001251   -1.7048522   0.05200545    -3.001251    1.2963988   540577 
 4280000   0.98938936   -3.0001518   -3.0001518   -1.7037417  0.061031804   -3.0001518    1.2964101   540560 
 4281000   0.98849848   -2.9987672   -2.9987672   -1.7034837  0.060413473   -2.9987672    1.2952835   540543 
 4282000   0.98856578   -2.9996277   -2.9996277   -1.7042176  0.057964885   -2.9996277    1.2954101   540527 
 4283000   0.98849306   -2.9977773   -2.9977773   -1.7024218   0.05838312   -2.9977773    1.2953555   540510 
 4284000   0.98816962   -2.9976011   -2.9976011   -1.7026287  0.065604286   -2.9976011    1.2949724   540493 
 4285000   0.98797876   -2.9977124   -2.9977124   -1.7029518  0.062526156   -2.9977124    1.2947606   540477 
 4286000   0.98957201   -3.0002569   -3.0002569   -1.7033675  0.054722874   -3.0002569    1.2968894   540460 
 4287000   0.98923748   -2.9997654   -2.9997654   -1.7032737  0.063158513   -2.9997654    1.2964917   540443 
 4288000   0.98877671   -2.9989449   -2.9989449   -1.7030187   0.06016176   -2.9989449    1.2959262   540427 
 4289000   0.98976771   -2.9995698   -2.9995698   -1.7023039  0.066652962   -2.9995698    1.2972658   540410 
 4290000    0.9894786   -2.9996959   -2.9996959   -1.7027682  0.054023492   -2.9996959    1.2969277   540393 
 4291000   0.99005283    -3.000284    -3.000284   -1.7025652    0.0647612    -3.000284    1.2977188   540377 
 4292000   0.98774366   -2.9985336   -2.9985336   -1.7038008  0.062943607   -2.9985336    1.2947328   540360 
 4293000   0.98923444   -3.0004279   -3.0004279   -1.7037002  0.070003471   -3.0004279    1.2967277   540343 
 4294000   0.98864924   -3.0001728   -3.0001728   -1.7041739  0.063216819   -3.0001728    1.2959989   540327 
 4295000   0.98836105   -2.9990768   -2.9990768   -1.7034149  0.060473833   -2.9990768    1.2956619   540310 
 4296000   0.98919701   -3.0004929   -3.0004929   -1.7036943  0.059689643   -3.0004929    1.2967986   540293 
 4297000   0.98739621   -2.9984003   -2.9984003   -1.7039242  0.066171415   -2.9984003    1.2944762   540277 
 4298000   0.98741215   -2.9987476   -2.9987476   -1.7042098  0.059324977   -2.9987476    1.2945378   540260 
 4299000   0.98567896   -2.9985577   -2.9985577   -1.7062515  0.060975331   -2.9985577    1.2923062   540243 
 4300000   0.98503639   -2.9973138   -2.9973138   -1.7058118   0.06025346   -2.9973138     1.291502   540227 
 4301000    0.9866377   -2.9986101   -2.9986101   -1.7049679  0.050812004   -2.9986101    1.2936422   540210 
 4302000    0.9875821   -3.0001269   -3.0001269   -1.7052057  0.046340163   -3.0001269    1.2949212   540193 
 4303000   0.98616387   -2.9987864   -2.9987864   -1.7056865   0.05985687   -2.9987864    1.2930999   540177 
 4304000   0.98715505   -2.9995956   -2.9995956   -1.7051553  0.052200963   -2.9995956    1.2944403   540160 
 4305000   0.98758403   -3.0003325   -3.0003325   -1.7052889  0.059082617   -3.0003325    1.2950436   540143 
 4306000   0.98868519    -3.000994    -3.000994    -1.704468  0.062944747    -3.000994     1.296526   540127 
 4307000   0.98796252   -3.0012061   -3.0012061    -1.705587  0.060891512   -3.0012061    1.2956191   540110 
 4308000   0.98862774   -3.0029044   -3.0029044   -1.7063721   0.06247924   -3.0029044    1.2965322   540093 
 4309000   0.98704147    -3.000311    -3.000311   -1.7058207  0.058238822    -3.000311    1.2944903   540077 
 4310000   0.98794565   -3.0023164   -3.0023164   -1.7065995  0.060210006   -3.0023164    1.2957169   540060 
 4311000    0.9883415   -3.0033703   -3.0033703   -1.7070935  0.060786935   -3.0033703    1.2962769   540043 
 4312000   0.98831385   -3.0027802   -3.0027802   -1.7065012   0.06058997   -3.0027802     1.296279   540027 
 4313000   0.98860697   -3.0028285   -3.0028285   -1.7061242  0.058560942   -3.0028285    1.2967043   540010 
 4314000   0.98891095   -3.0029199   -3.0029199   -1.7057761  0.062771151   -3.0029199    1.2971438   539993 
 4315000   0.98785598    -3.000607    -3.000607   -1.7048086  0.068208459    -3.000607    1.2957984   539977 
 4316000   0.98975181   -3.0041953   -3.0041953   -1.7058692  0.072570989   -3.0041953    1.2983261   539960 
 4317000   0.98846334   -3.0034712   -3.0034712   -1.7067944  0.065689263   -3.0034712    1.2966768   539943 
 4318000    0.9886591   -3.0043108   -3.0043108   -1.7073388  0.059508881   -3.0043108     1.296972   539927 
 4319000   0.98732705   -3.0036899   -3.0036899   -1.7084245  0.059796802   -3.0036899    1.2952653   539910 
 4320000   0.98791976   -3.0058605   -3.0058605   -1.7097768  0.067692438   -3.0058605    1.2960837   539893 
 4321000   0.98928856   -3.0059798   -3.0059798   -1.7080618  0.065229707   -3.0059798     1.297918   539877 
 4322000     0.987169   -3.0043425   -3.0043425   -1.7091646  0.051378866   -3.0043425    1.2951779   539860 
 4323000   0.98764169    -3.004626    -3.004626   -1.7087871  0.065871685    -3.004626    1.2958389   539843 
 4324000   0.98752227   -3.0046627   -3.0046627   -1.7089421  0.059596153   -3.0046627    1.2957206   539827 
 4325000   0.98832044   -3.0054539   -3.0054539   -1.7086451  0.060580567   -3.0054539    1.2968088   539810 
 4326000   0.98759308   -3.0040277   -3.0040277   -1.7081325  0.064889449   -3.0040277    1.2958952   539793 
 4327000   0.98732186   -3.0032756   -3.0032756   -1.7076979   0.06697412   -3.0032756    1.2955777   539777 
 4328000   0.98811622   -3.0048402   -3.0048402   -1.7081793  0.071323697   -3.0048402    1.2966609   539760 
 4329000   0.98490912   -3.0011699   -3.0011699   -1.7086768  0.061456003   -3.0011699    1.2924931   539743 
 4330000   0.98614803   -3.0016141   -3.0016141   -1.7074569  0.061297739   -3.0016141    1.2941573   539727 
 4331000   0.98689282   -3.0030411   -3.0030411   -1.7078657  0.067216288   -3.0030411    1.2951755   539710 
 4332000     0.986452   -3.0023314   -3.0023314   -1.7076937  0.061229874   -3.0023314    1.2946377   539693 
 4333000   0.98585595   -3.0012899   -3.0012899   -1.7073961  0.059911723   -3.0012899    1.2938938   539677 
 4334000   0.98609573   -3.0010061   -3.0010061   -1.7067569  0.056766695   -3.0010061    1.2942493   539660 
 4335000   0.98577645    -3.000691    -3.000691     -1.70682   0.05451072    -3.000691     1.293871   539643 
 4336000   0.98435359   -3.0004533   -3.0004533   -1.7084115  0.062612322   -3.0004533    1.2920417   539627 
 4337000   0.98554668   -3.0005608   -3.0005608   -1.7069123   0.06399637   -3.0005608    1.2936485   539610 
 4338000   0.98529827   -2.9997133   -2.9997133   -1.7063501  0.061437157   -2.9997133    1.2933632   539593 
 4339000   0.98581323   -3.0006236   -3.0006236   -1.7065461  0.066183544   -3.0006236    1.2940775   539577 
 4340000   0.98455306   -2.9990408   -2.9990408   -1.7065768  0.057283315   -2.9990408     1.292464   539560 
 4341000   0.98400679   -2.9991178   -2.9991178   -1.7073302  0.051907572   -2.9991178    1.2917876   539543 
 4342000   0.98357719   -2.9993038   -2.9993038   -1.7080419  0.057857955   -2.9993038    1.2912619   539527 
 4343000   0.98518503    -3.000228    -3.000228   -1.7068145  0.057139585    -3.000228    1.2934135   539510 
 4344000   0.98575074   -2.9996522   -2.9996522   -1.7054552  0.058945129   -2.9996522     1.294197   539493 
 4345000   0.98613404   -3.0007638   -3.0007638   -1.7060252  0.058353636   -3.0007638    1.2947386   539477 
 4346000   0.98619675   -2.9996238   -2.9996238   -1.7047621  0.062598267   -2.9996238    1.2948617   539460 
 4347000   0.98641509   -2.9998145   -2.9998145   -1.7046253  0.061952233   -2.9998145    1.2951892   539443 
 4348000   0.98754033   -3.0006264   -3.0006264   -1.7039213  0.066296868   -3.0006264    1.2967052   539427 
 4349000   0.98632181    -2.999068    -2.999068   -1.7039221  0.064126914    -2.999068     1.295146   539410 
 4350000   0.98569995   -2.9976154   -2.9976154   -1.7032452  0.066485707   -2.9976154    1.2943702   539393 
 4351000   0.98768813   -3.0001055   -3.0001055   -1.7030861  0.060447509   -3.0001055    1.2970195   539377 
 4352000   0.98527953    -2.998337    -2.998337   -1.7044398  0.060694918    -2.998337    1.2938973   539360 
 4353000   0.98631334   -2.9998734   -2.9998734   -1.7045777  0.062957778   -2.9998734    1.2952958   539343 
 4354000   0.98541248   -2.9988695   -2.9988695   -1.7047185  0.063456804   -2.9988695    1.2941511   539327 
 4355000   0.98588731   -2.9994758   -2.9994758   -1.7046603   0.06734317   -2.9994758    1.2948155   539310 
 4356000   0.98644291   -2.9991569   -2.9991569   -1.7035709  0.061876936   -2.9991569     1.295586   539293 
 4357000    0.9873855   -3.0001198   -3.0001198   -1.7032573  0.063837691   -3.0001198    1.2968625   539277 
 4358000   0.98606203   -2.9989324   -2.9989324   -1.7037674  0.061433501   -2.9989324     1.295165   539260 
 4359000    0.9847525    -2.997964    -2.997964   -1.7044782  0.061480293    -2.997964    1.2934858   539243 
 4360000   0.98565863   -2.9980482   -2.9980482   -1.7033338  0.066265712   -2.9980482    1.2947144   539227 
 4361000   0.98425008   -2.9955441   -2.9955441   -1.7026391  0.061067971   -2.9955441     1.292905   539210 
 4362000    0.9835076   -2.9963061   -2.9963061   -1.7043357   0.06600597   -2.9963061    1.2919704   539193 
 4363000   0.98432304   -2.9968146   -2.9968146   -1.7037346  0.063092814   -2.9968146    1.2930799   539177 
 4364000   0.98313185   -2.9960221   -2.9960221   -1.7044662  0.057394911   -2.9960221    1.2915558   539160 
 4365000    0.9857309   -2.9987787   -2.9987787   -1.7037676  0.057684801   -2.9987787    1.2950111   539143 
 4366000   0.98454534   -2.9981199   -2.9981199   -1.7046279  0.058694298   -2.9981199    1.2934919   539127 
 4367000   0.98432587   -2.9981158   -2.9981158   -1.7048714  0.061771993   -2.9981158    1.2932444   539110 
 4368000   0.98434721   -2.9986198   -2.9986198   -1.7053067    0.0658956   -2.9986198    1.2933132   539093 
 4369000   0.98270036   -2.9961198   -2.9961198    -1.704932  0.063535844   -2.9961198    1.2911877   539077 
 4370000   0.98316898   -2.9959366   -2.9959366   -1.7040924  0.060216482   -2.9959366    1.2918442   539060 
 4371000   0.98449399   -2.9978171   -2.9978171   -1.7041911  0.053922575   -2.9978171     1.293626   539043 
 4372000    0.9835094   -2.9962643   -2.9962643   -1.7038937   0.06600713   -2.9962643    1.2923706   539027 
 4373000   0.98423279   -2.9993644   -2.9993644   -1.7060025  0.060984536   -2.9993644     1.293362   539010 
 4374000    0.9831052     -2.99826     -2.99826    -1.706339   0.06240253     -2.99826     1.291921   538993 
 4375000   0.98448309   -3.0004909   -3.0004909   -1.7067208  0.050072136   -3.0004909    1.2937701   538977 
 4376000   0.98346022   -2.9985304   -2.9985304   -1.7060638  0.058231016   -2.9985304    1.2924667   538960 
 4377000   0.98541439   -3.0004228   -3.0004228   -1.7053471  0.060065988   -3.0004228    1.2950757   538943 
 4378000   0.98462827   -2.9997146   -2.9997146   -1.7056336  0.060447827   -2.9997146    1.2940809   538927 
 4379000   0.98412139   -2.9999181   -2.9999181   -1.7064626  0.050720781   -2.9999181    1.2934556   538910 
 4380000   0.98476526    -3.000704    -3.000704   -1.7063613  0.063501076    -3.000704    1.2943426   538893 
 4381000   0.98519417   -3.0007751   -3.0007751   -1.7058302  0.065589674   -3.0007751    1.2949448   538877 
 4382000   0.98550243    -3.000528    -3.000528   -1.7051372  0.065009223    -3.000528    1.2953909   538860 
 4383000   0.98589905   -3.0023701   -3.0023701    -1.706417  0.057607928   -3.0023701    1.2959531   538843 
 4384000   0.98537128    -3.002393    -3.002393   -1.7070952  0.062027845    -3.002393    1.2952978   538827 
 4385000   0.98517326   -3.0028574   -3.0028574    -1.707779  0.052331222   -3.0028574    1.2950784   538810 
 4386000   0.98497502   -3.0026208   -3.0026208   -1.7077622  0.063435143   -3.0026208    1.2948586   538793 
 4387000   0.98533835   -3.0026196   -3.0026196   -1.7072449  0.064325422   -3.0026196    1.2953747   538777 
 4388000   0.98551609   -3.0021842   -3.0021842   -1.7065349  0.055360351   -3.0021842    1.2956493   538760 
 4389000   0.98398968   -3.0016165   -3.0016165   -1.7079331  0.063333044   -3.0016165    1.2936833   538743 
 4390000   0.98442156    -3.002907    -3.002907   -1.7086174  0.055560195    -3.002907    1.2942896   538727 
 4391000   0.98423452    -3.002725    -3.002725   -1.7086405  0.053579518    -3.002725    1.2940845   538710 
 4392000   0.98364276   -3.0014723   -3.0014723    -1.708125  0.057063228   -3.0014723    1.2933473   538693 
 4393000   0.98454014   -3.0019334   -3.0019334   -1.7073677  0.065886132   -3.0019334    1.2945656   538677 
 4394000   0.98461025   -3.0019606   -3.0019606   -1.7072619  0.062263939   -3.0019606    1.2946987   538660 
 4395000   0.98427098   -3.0038883   -3.0038883   -1.7095949  0.064597963   -3.0038883    1.2942934   538643 
 4396000   0.98342271   -3.0018718   -3.0018718   -1.7086555  0.057402603   -3.0018718    1.2932164   538627 
 4397000   0.98490038   -3.0035774   -3.0035774    -1.708377  0.062162059   -3.0035774    1.2952004   538610 
 4398000   0.98442971   -3.0033907   -3.0033907   -1.7087684  0.053842483   -3.0033907    1.2946223   538593 
 4399000   0.98469933   -3.0045777   -3.0045777   -1.7095624  0.061650034   -3.0045777    1.2950154   538577 
 4400000   0.98422693   -3.0045541   -3.0045541   -1.7101192  0.067510477   -3.0045541    1.2944349   538560 
 4401000   0.98321113   -3.0030815   -3.0030815   -1.7099417  0.064742398   -3.0030815    1.2931398   538543 
 4402000   0.98320344   -3.0032899   -3.0032899   -1.7101218  0.057385624   -3.0032899    1.2931681   538527 
 4403000     0.982719   -3.0029385   -3.0029385   -1.7103667  0.061449265   -3.0029385    1.2925718   538510 
 4404000    0.9826216   -3.0037821   -3.0037821   -1.7112976  0.058814072   -3.0037821    1.2924844   538493 
 4405000    0.9830798   -3.0034247   -3.0034247   -1.7102991  0.057696088   -3.0034247    1.2931256   538477 
 4406000   0.98345096   -3.0038207   -3.0038207   -1.7101661  0.056444156   -3.0038207    1.2936546   538460 
 4407000   0.98328775   -3.0047078   -3.0047078    -1.711227  0.052646323   -3.0047078    1.2934808   538443 
 4408000     0.981102   -3.0021936   -3.0021936   -1.7115497  0.059991798   -3.0021936    1.2906438   538427 
 4409000   0.98082282   -3.0011654   -3.0011654   -1.7108481  0.054900881   -3.0011654    1.2903173   538410 
 4410000    0.9823776   -3.0029716   -3.0029716   -1.7105681  0.062193125   -3.0029716    1.2924035   538393 
 4411000   0.98047372   -2.9998342   -2.9998342   -1.7098971  0.064291336   -2.9998342    1.2899371   538377 
 4412000   0.98215544   -3.0017652   -3.0017652   -1.7095747  0.058848747   -3.0017652    1.2921904   538360 
 4413000   0.98237473   -3.0024956   -3.0024956   -1.7099758  0.066017202   -3.0024956    1.2925198   538343 
 4414000   0.98328611   -3.0034891   -3.0034891   -1.7097318  0.066865326   -3.0034891    1.2937573   538327 
 4415000   0.98355504   -3.0037339   -3.0037339   -1.7095819  0.063047909   -3.0037339     1.294152   538310 
 4416000    0.9859122   -3.0050264   -3.0050264   -1.7077318  0.064171415   -3.0050264    1.2972945   538293 
 4417000    0.9863129   -3.0064534   -3.0064534   -1.7085931  0.055342122   -3.0064534    1.2978604   538277 
 4418000   0.98318508   -3.0022767   -3.0022767   -1.7084913  0.059776458   -3.0022767    1.2937854   538260 
 4419000   0.98210534   -3.0006422   -3.0006422   -1.7082368   0.06352538   -3.0006422    1.2924054   538243 
 4420000   0.98353622   -3.0019024   -3.0019024   -1.7075756  0.052408842   -3.0019024    1.2943268   538227 
 4421000   0.98278554   -3.0017312   -3.0017312   -1.7083514  0.074323416   -3.0017312    1.2933798   538210 
 4422000     0.983132   -3.0018072   -3.0018072   -1.7079306   0.05530136   -3.0018072    1.2938766   538193 
 4423000    0.9822087   -3.0017313   -3.0017313   -1.7090314  0.064124281   -3.0017313    1.2926999   538177 
 4424000   0.98275618   -3.0018892   -3.0018892   -1.7084279  0.060441784   -3.0018892    1.2934613   538160 
 4425000   0.98231572   -3.0008893   -3.0008893   -1.7079668   0.06093946   -3.0008893    1.2929225   538143 
 4426000   0.98112006   -3.0006176   -3.0006176   -1.7092305  0.066347172   -3.0006176    1.2913871   538127 
 4427000   0.98118318   -3.0006049   -3.0006049   -1.7090939  0.052436758   -3.0006049     1.291511   538110 
 4428000   0.98279634   -3.0009973   -3.0009973   -1.7073221  0.055692659   -3.0009973    1.2936752   538093 
 4429000    0.9819705   -2.9995835   -2.9995835   -1.7069569  0.065138102   -2.9995835    1.2926266   538077 
 4430000   0.98247125   -3.0002733   -3.0002733   -1.7069466   0.06700088   -3.0002733    1.2933266   538060 
 4431000   0.98222597   -3.0009253   -3.0009253   -1.7078807  0.055052306   -3.0009253    1.2930446   538043 
 4432000   0.98218623   -3.0014786   -3.0014786   -1.7084479  0.061506041   -3.0014786    1.2930308   538027 
 4433000   0.98356764   -3.0036705   -3.0036705   -1.7087803  0.056072904   -3.0036705    1.2948903   538010 
 4434000   0.98210642   -3.0012401   -3.0012401   -1.7082327   0.06428666   -3.0012401    1.2930074   537993 
 4435000   0.98255145   -3.0015154   -3.0015154   -1.7078836  0.052499821   -3.0015154    1.2936318   537977 
 4436000   0.98087147   -2.9985473   -2.9985473   -1.7070866  0.055924075   -2.9985473    1.2914607   537960 
 4437000   0.98040637   -2.9986761   -2.9986761    -1.707787  0.048883659   -2.9986761    1.2908891   537943 
 4438000   0.98057889   -2.9977832   -2.9977832   -1.7066285  0.049310702   -2.9977832    1.2911547   537927 
 4439000   0.98146715   -3.0000591   -3.0000591    -1.707694  0.058271348   -3.0000591    1.2923651   537910 
 4440000   0.97925925   -2.9968621   -2.9968621   -1.7073635  0.051231139   -2.9968621    1.2894986   537893 
 4441000   0.98077002   -2.9975794   -2.9975794   -1.7060529   0.05319934   -2.9975794    1.2915264   537877 
 4442000   0.98041863   -2.9989029   -2.9989029   -1.7077985  0.066342224   -2.9989029    1.2911045   537860 
 4443000   0.98169528   -3.0005363   -3.0005363   -1.7077097  0.055230682   -3.0005363    1.2928266   537843 
 4444000   0.98160698   -2.9993553   -2.9993553   -1.7066066    0.0593822   -2.9993553    1.2927487   537827 
 4445000   0.98095138   -2.9992165   -2.9992165   -1.7072904  0.061613155   -2.9992165    1.2919261   537810 
 4446000   0.98136536    -3.000193    -3.000193   -1.7076807   0.06636868    -3.000193    1.2925122   537793 
 4447000   0.98193685   -3.0008966   -3.0008966   -1.7075932    0.0517519   -3.0008966    1.2933034   537777 
 4448000   0.98076731   -2.9994541   -2.9994541   -1.7076503  0.058747604   -2.9994541    1.2918038   537760 
 4449000   0.98154915   -3.0000719   -3.0000719   -1.7071974  0.062893268   -3.0000719    1.2928745   537743 
 4450000   0.97948247   -2.9989387   -2.9989387    -1.708748  0.055367716   -2.9989387    1.2901907   537727 
 4451000   0.97979329   -2.9989291   -2.9989291   -1.7082882  0.060244399   -2.9989291    1.2906409   537710 
 4452000   0.98097032    -3.001049    -3.001049   -1.7088168  0.058723269    -3.001049    1.2922322   537693 
 4453000   0.97992404    -2.999433    -2.999433   -1.7085406  0.059308387    -2.999433    1.2908924   537677 
 4454000     0.980048   -2.9992763   -2.9992763   -1.7081798  0.058413863   -2.9992763    1.2910965   537660 
 4455000   0.98108635   -3.0005412   -3.0005412   -1.7080359  0.057812859   -3.0005412    1.2925053   537643 
 4456000   0.98178876   -3.0017553   -3.0017553   -1.7082862  0.057238459   -3.0017553    1.2934691   537627 
 4457000   0.98102884   -3.0018816   -3.0018816   -1.7093728  0.053579979   -3.0018816    1.2925088   537610 
 4458000   0.98150494   -3.0007693   -3.0007693   -1.7075923  0.062397743   -3.0007693     1.293177   537593 
 4459000   0.98358759   -3.0034997   -3.0034997   -1.7075402  0.072153973   -3.0034997    1.2959595   537577 
 4460000   0.98261086   -3.0011398   -3.0011398   -1.7064262  0.059515579   -3.0011398    1.2947136   537560 
 4461000   0.98254813   -3.0016492   -3.0016492   -1.7069774  0.072345774   -3.0016492    1.2946719   537543 
 4462000   0.98287273   -3.0020527   -3.0020527   -1.7069146  0.068510329   -3.0020527    1.2951381   537527 
 4463000   0.98405354    -3.003777    -3.003777    -1.707042  0.062430082    -3.003777    1.2967351   537510 
 4464000    0.9815313   -3.0021287   -3.0021287   -1.7086764   0.06208757   -3.0021287    1.2934523   537493 
 4465000    0.9836695   -3.0047363   -3.0047363   -1.7084277  0.060502292   -3.0047363    1.2963086   537477 
 4466000   0.98240309   -3.0042805   -3.0042805   -1.7095998   0.05818975   -3.0042805    1.2946806   537460 
 4467000     0.981104   -3.0016953   -3.0016953   -1.7086858  0.072374167   -3.0016953    1.2930095   537443 
 4468000   0.97988115   -3.0016336   -3.0016336   -1.7101972  0.058588441   -3.0016336    1.2914363   537427 
 4469000   0.98065297   -3.0025809   -3.0025809   -1.7100864  0.053766904   -3.0025809    1.2924945   537410 
 4470000   0.97845991   -2.9995811   -2.9995811   -1.7099363  0.055598054   -2.9995811    1.2896448   537393 
 4471000   0.98116767   -3.0038759   -3.0038759   -1.7106237  0.051472793   -3.0038759    1.2932522   537377 
 4472000   0.97784393   -2.9993852   -2.9993852   -1.7104731  0.053314626   -2.9993852    1.2889121   537360 
 4473000   0.97951961   -3.0009542   -3.0009542   -1.7097925  0.055481366   -3.0009542    1.2911617   537343 
 4474000   0.97901176   -3.0016078   -3.0016078   -1.7110771  0.054225007   -3.0016078    1.2905307   537327 
 4475000   0.97953808   -3.0019857   -3.0019857   -1.7107204  0.054940978   -3.0019857    1.2912653   537310 
 4476000   0.97889925    -3.001799    -3.001799    -1.711335  0.049355415    -3.001799     1.290464   537293 
 4477000    0.9800171   -3.0038482   -3.0038482   -1.7118721  0.053042408   -3.0038482    1.2919761   537277 
 4478000   0.97946606   -3.0022173   -3.0022173   -1.7109268   0.05225782   -3.0022173    1.2912905   537260 
 4479000   0.97976564   -3.0030891   -3.0030891   -1.7113628  0.053335602   -3.0030891    1.2917264   537243 
 4480000   0.97876683   -3.0016479   -3.0016479      -1.7112  0.052510621   -3.0016479    1.2904479   537227 
 4481000   0.97772092    -2.999921    -2.999921   -1.7108112  0.066781438    -2.999921    1.2891098   537210 
 4482000   0.97958989   -3.0022444   -3.0022444   -1.7106295  0.065722331   -3.0022444    1.2916149   537193 
 4483000   0.97882794   -3.0024397   -3.0024397   -1.7117911  0.049834634   -3.0024397    1.2906486   537177 
 4484000   0.97897687   -3.0030814   -3.0030814   -1.7121955  0.063001201   -3.0030814    1.2908859   537160 
 4485000    0.9802154   -3.0036663   -3.0036663   -1.7111064  0.061223231   -3.0036663    1.2925599   537143 
 4486000   0.97982611   -3.0035111   -3.0035111   -1.7114261  0.065930197   -3.0035111    1.2920851   537127 
 4487000   0.98018591   -3.0043251   -3.0043251   -1.7117246  0.057956881   -3.0043251    1.2926004   537110 
 4488000   0.97859909   -3.0024653   -3.0024653   -1.7119166  0.060995627   -3.0024653    1.2905487   537093 
 4489000   0.97898554   -3.0028357   -3.0028357   -1.7117389  0.054606665   -3.0028357    1.2910968   537077 
 4490000   0.97910488   -3.0033492   -3.0033492   -1.7120542  0.056502118   -3.0033492    1.2912951   537060 
 4491000   0.97855764   -3.0036052   -3.0036052   -1.7129911  0.059249331   -3.0036052    1.2906142   537043 
 4492000    0.9788907   -3.0043337   -3.0043337   -1.7132418  0.060364336   -3.0043337    1.2910919   537027 
 4493000   0.98037207   -3.0057846   -3.0057846   -1.7126979   0.06367418   -3.0057846    1.2930867   537010 
 4494000    0.9787255   -3.0037212   -3.0037212   -1.7127654  0.052684042   -3.0037212    1.2909558   536993 
 4495000   0.97912328   -3.0056944   -3.0056944   -1.7141755   0.06344947   -3.0056944    1.2915189   536977 
 4496000    0.9796218   -3.0058657   -3.0058657   -1.7136483  0.063622698   -3.0058657    1.2922174   536960 
 4497000    0.9785991    -3.005334    -3.005334   -1.7144247  0.052758903    -3.005334    1.2909092   536943 
 4498000   0.97879073    -3.005086    -3.005086   -1.7138855  0.062774755    -3.005086    1.2912005   536927 
 4499000   0.98046768   -3.0068061   -3.0068061   -1.7133524  0.049968601   -3.0068061    1.2934536   536910 
 4500000   0.98003486     -3.00623     -3.00623   -1.7133064  0.056045557     -3.00623    1.2929236   536893 
 4501000   0.97896623   -3.0061294   -3.0061294   -1.7145771  0.052676257   -3.0061294    1.2915523   536877 
 4502000   0.97920056   -3.0059065   -3.0059065   -1.7140042  0.063196622   -3.0059065    1.2919023   536860 
 4503000   0.97932478   -3.0066365   -3.0066365   -1.7145294  0.058901101   -3.0066365    1.2921071   536843 
 4504000   0.97923877   -3.0055984   -3.0055984   -1.7135662  0.061606606   -3.0055984    1.2920322   536827 
 4505000   0.97927985   -3.0061122   -3.0061122   -1.7139849  0.062673961   -3.0061122    1.2921273   536810 
 4506000   0.97792114   -3.0049534   -3.0049534    -1.714578  0.058893925   -3.0049534    1.2903754   536793 
 4507000   0.97728546   -3.0055503   -3.0055503   -1.7159752  0.061448688   -3.0055503     1.289575   536777 
 4508000   0.97795388   -3.0054325   -3.0054325   -1.7149346  0.050126892   -3.0054325    1.2904979   536760 
 4509000   0.97708455   -3.0045995   -3.0045995   -1.7152078  0.060244763   -3.0045995    1.2893916   536743 
 4510000   0.97777763   -3.0058587   -3.0058587    -1.715514  0.060626059   -3.0058587    1.2903447   536727 
 4511000   0.97762021   -3.0042195   -3.0042195   -1.7140417   0.05324567   -3.0042195    1.2901778   536710 
 4512000   0.97934489    -3.006705    -3.006705   -1.7142102  0.057651692    -3.006705    1.2924948   536693 
 4513000   0.97909725   -3.0066447   -3.0066447   -1.7144381  0.064782733   -3.0066447    1.2922065   536677 
 4514000    0.9783065   -3.0063555   -3.0063555   -1.7151517  0.058014729   -3.0063555    1.2912038   536660 
 4515000   0.97768746   -3.0059732   -3.0059732   -1.7155456  0.055195393   -3.0059732    1.2904276   536643 
 4516000   0.97882115   -3.0072734   -3.0072734   -1.7153109  0.057155186   -3.0072734    1.2919625   536627 
 4517000   0.97942965   -3.0075882   -3.0075882   -1.7147816  0.057618734   -3.0075882    1.2928066   536610 
 4518000   0.97879833   -3.0062286   -3.0062286   -1.7142144  0.059653873   -3.0062286    1.2920142   536593 
 4519000   0.97904987   -3.0059668   -3.0059668    -1.713582  0.057593802   -3.0059668    1.2923848   536577 
 4520000   0.97774867   -3.0042234   -3.0042234   -1.7135154  0.059817371   -3.0042234    1.2907081   536560 
 4521000    0.9789419   -3.0058817   -3.0058817   -1.7135575  0.065317603   -3.0058817    1.2923242   536543 
 4522000   0.97797876   -3.0047234   -3.0047234   -1.7136322  0.061455027   -3.0047234    1.2910912   536527 
 4523000   0.97691171   -3.0039826   -3.0039826   -1.7142592  0.052357531   -3.0039826    1.2897234   536510 
 4524000    0.9764005   -3.0044583   -3.0044583    -1.715369  0.064136997   -3.0044583    1.2890893   536493 
 4525000   0.97641479   -3.0042301   -3.0042301   -1.7150834  0.054632321   -3.0042301    1.2891466   536477 
 4526000   0.97621399   -3.0041084   -3.0041084    -1.715186  0.063862918   -3.0041084    1.2889224   536460 
 4527000   0.97587436   -3.0031818   -3.0031818    -1.714667   0.05810594   -3.0031818    1.2885148   536443 
 4528000    0.9771017   -3.0046244   -3.0046244   -1.7144506  0.046611094   -3.0046244    1.2901738   536427 
 4529000   0.97637576   -3.0031141   -3.0031141    -1.713858  0.060402963   -3.0031141    1.2892561   536410 
 4530000   0.97711275   -3.0034407   -3.0034407   -1.7131705  0.052071527   -3.0034407    1.2902702   536393 
 4531000   0.97672284    -3.003785    -3.003785   -1.7139913  0.052444701    -3.003785    1.2897938   536377 
 4532000   0.97588151   -3.0029549   -3.0029549   -1.7142313  0.057021414   -3.0029549    1.2887236   536360 
 4533000   0.97627949   -3.0034129   -3.0034129   -1.7141229  0.055746255   -3.0034129      1.28929   536343 
 4534000   0.97714874   -3.0031035   -3.0031035    -1.712627  0.062579076   -3.0031035    1.2904765   536327 
 4535000   0.97757835    -3.003939    -3.003939   -1.7128543  0.063169358    -3.003939    1.2910848   536310 
 4536000   0.97708523   -3.0021672   -3.0021672   -1.7116928  0.067190731   -3.0021672    1.2904744   536293 
 4537000     0.977889   -3.0035884   -3.0035884   -1.7120138  0.064905603   -3.0035884    1.2915745   536277 
 4538000   0.97786012   -3.0041552   -3.0041552   -1.7125779  0.056168922   -3.0041552    1.2915773   536260 
 4539000   0.97645448    -3.003206    -3.003206   -1.7134444  0.058730079    -3.003206    1.2897616   536243 
 4540000   0.97816192   -3.0059536   -3.0059536   -1.7138981  0.060218128   -3.0059536    1.2920555   536227 
 4541000   0.97720421   -3.0050262   -3.0050262   -1.7141949  0.059841558   -3.0050262    1.2908313   536210 
 4542000    0.9759803   -3.0023423   -3.0023423   -1.7130868  0.060807697   -3.0023423    1.2892555   536193 
 4543000   0.97781759   -3.0040288   -3.0040288   -1.7123077  0.058675022   -3.0040288    1.2917211   536177 
 4544000   0.97632803   -3.0037394   -3.0037394   -1.7139452  0.060731318   -3.0037394    1.2897942   536160 
 4545000   0.97794986   -3.0050085   -3.0050085   -1.7130308  0.061480302   -3.0050085    1.2919777   536143 
 4546000   0.97609904   -3.0034264   -3.0034264   -1.7138553  0.053928574   -3.0034264    1.2895711   536127 
 4547000   0.97520035   -3.0024643   -3.0024643   -1.7140397   0.06068791   -3.0024643    1.2884246   536110 
 4548000   0.97565726   -3.0012731   -3.0012731   -1.7122039  0.055574063   -3.0012731    1.2890692   536093 
 4549000   0.97681244   -3.0035035   -3.0035035   -1.7128695  0.054108021   -3.0035035     1.290634   536077 
 4550000    0.9761363   -3.0035291   -3.0035291   -1.7137476  0.052791531   -3.0035291    1.2897815   536060 
 4551000   0.97547497   -3.0038069   -3.0038069   -1.7148583  0.059533924   -3.0038069    1.2889485   536043 
 4552000   0.97496472   -3.0035368   -3.0035368    -1.715224  0.056295603   -3.0035368    1.2883128   536027 
 4553000   0.97609246   -3.0041158   -3.0041158   -1.7142719  0.060204657   -3.0041158    1.2898439   536010 
 4554000   0.97462278   -3.0021717   -3.0021717    -1.714229  0.056376813   -3.0021717    1.2879426   535993 
 4555000   0.97710614   -3.0043781   -3.0043781   -1.7131152  0.052003591   -3.0043781    1.2912629   535977 
 4556000   0.97731575   -3.0037534   -3.0037534   -1.7121725   0.06831997   -3.0037534    1.2915809   535960 
 4557000   0.97593791   -3.0025266   -3.0025266   -1.7127258  0.062996449   -3.0025266    1.2898009   535943 
 4558000   0.97586099   -3.0032578   -3.0032578     -1.71352  0.060390688   -3.0032578    1.2897377   535927 
 4559000   0.97745747   -3.0050881   -3.0050881   -1.7131995  0.054762434   -3.0050881    1.2918887   535910 
 4560000   0.97738133    -3.005083    -3.005083    -1.713254   0.06151174    -3.005083     1.291829   535893 
 4561000   0.97669802   -3.0043601   -3.0043601   -1.7133957  0.063792995   -3.0043601    1.2909644   535877 
 4562000   0.97740889   -3.0071257   -3.0071257   -1.7151807   0.05631778   -3.0071257     1.291945   535860 
 4563000   0.97512024   -3.0036344   -3.0036344   -1.7146736  0.055879935   -3.0036344    1.2889607   535843 
 4564000    0.9763632   -3.0048986   -3.0048986   -1.7142563  0.058908988   -3.0048986    1.2906423   535827 
 4565000   0.97512827   -3.0037488   -3.0037488   -1.7146981  0.052859105   -3.0037488    1.2890507   535810 
 4566000   0.97460083    -3.002459    -3.002459   -1.7140646  0.057541117    -3.002459    1.2883944   535793 
 4567000   0.97525455   -3.0032544   -3.0032544   -1.7139574  0.059649862   -3.0032544    1.2892971   535777 
 4568000   0.97523467   -3.0035782   -3.0035782   -1.7142665  0.057627106   -3.0035782    1.2893117   535760 
 4569000   0.97544193   -3.0049461   -3.0049461   -1.7153195  0.065993262   -3.0049461    1.2896266   535743 
 4570000   0.97483121     -3.00382     -3.00382   -1.7149623  0.057696529     -3.00382    1.2888577   535727 
 4571000   0.97627947    -3.005267    -3.005267   -1.7144536  0.055017592    -3.005267    1.2908135   535710 
 4572000    0.9756608   -3.0042934   -3.0042934    -1.714257  0.052549439   -3.0042934    1.2900364   535693 
 4573000   0.97487221   -3.0038994   -3.0038994   -1.7148672  0.056548277   -3.0038994    1.2890322   535677 
 4574000   0.97666218   -3.0057269   -3.0057269   -1.7142869  0.061815839   -3.0057269      1.29144   535660 
 4575000   0.97526188   -3.0038748   -3.0038748   -1.7142455  0.055762263   -3.0038748    1.2896293   535643 
 4576000    0.9759654    -3.005684    -3.005684   -1.7150858  0.053437117    -3.005684    1.2905982   535627 
 4577000    0.9745954   -3.0036417   -3.0036417   -1.7148143  0.061333711   -3.0036417    1.2888274   535610 
 4578000   0.97492935   -3.0040545   -3.0040545   -1.7147446  0.055079303   -3.0040545      1.28931   535593 
 4579000   0.97589365   -3.0050149   -3.0050149   -1.7143911   0.06621501   -3.0050149    1.2906238   535577 
 4580000   0.97390102    -3.001928    -3.001928   -1.7138986  0.063609804    -3.001928    1.2880294   535560 
 4581000   0.97528853    -3.004005    -3.004005   -1.7140997  0.056379652    -3.004005    1.2899054   535543 
 4582000   0.97533092   -3.0036548   -3.0036548   -1.7136548  0.060258243   -3.0036548         1.29   535527 
 4583000   0.97646895   -3.0052631   -3.0052631   -1.7137169  0.061386235   -3.0052631    1.2915462   535510 
 4584000   0.97583976   -3.0046503   -3.0046503   -1.7138954   0.05757516   -3.0046503    1.2907549   535493 
 4585000   0.97616451   -3.0053094   -3.0053094   -1.7140863  0.050663372   -3.0053094    1.2912231   535477 
 4586000   0.97588485   -3.0046313   -3.0046313   -1.7137372  0.070574797   -3.0046313    1.2908941   535460 
 4587000   0.97490698   -3.0035057   -3.0035057   -1.7138641  0.061528898   -3.0035057    1.2896415   535443 
 4588000   0.97645755   -3.0049177   -3.0049177   -1.7131864  0.060964867   -3.0049177    1.2917313   535427 
 4589000   0.97530898   -3.0027048   -3.0027048   -1.7124519  0.056724182   -3.0027048    1.2902528   535410 
 4590000   0.97430016   -3.0028224   -3.0028224   -1.7138632  0.061415234   -3.0028224    1.2889592   535393 
 4591000   0.97541198   -3.0045026   -3.0045026    -1.714034  0.045512195   -3.0045026    1.2904686   535377 
 4592000   0.97406471   -3.0029519   -3.0029519   -1.7142248  0.053072675   -3.0029519    1.2887271   535360 
 4593000   0.97480143   -3.0035442   -3.0035442   -1.7138014  0.055656094   -3.0035442    1.2897428   535343 
 4594000   0.97423848   -3.0029883   -3.0029883   -1.7139518  0.062594819   -3.0029883    1.2890365   535327 
 4595000   0.97308381   -3.0012885   -3.0012885   -1.7137389  0.058799122   -3.0012885    1.2875496   535310 
 4596000    0.9740713   -3.0019602   -3.0019602    -1.713063  0.063562965   -3.0019602    1.2888971   535293 
 4597000   0.97479361   -3.0024371   -3.0024371   -1.7125457  0.063599075   -3.0024371    1.2898915   535277 
 4598000   0.97562963   -3.0027049   -3.0027049   -1.7116661  0.049534484   -3.0027049    1.2910387   535260 
 4599000   0.97514409   -3.0020432   -3.0020432   -1.7116059  0.065861176   -3.0020432    1.2904372   535243 
 4600000    0.9748962   -3.0034536   -3.0034536   -1.7133058  0.054071022   -3.0034536    1.2901477   535227 
 4601000   0.97509675   -3.0033021   -3.0033021    -1.712848  0.063886485   -3.0033021    1.2904541   535210 
 4602000   0.97399904   -3.0024719   -3.0024719   -1.7134295  0.057253863   -3.0024719    1.2890423   535193 
 4603000   0.97463468   -3.0021881   -3.0021881   -1.7122659   0.05770807   -3.0021881    1.2899222   535177 
 4604000   0.97443189   -3.0021453   -3.0021453   -1.7124506  0.054652988   -3.0021453    1.2896947   535160 
 4605000   0.97475903   -3.0036534   -3.0036534   -1.7134847  0.057995257   -3.0036534    1.2901687   535143 
 4606000   0.97438677   -3.0037475   -3.0037475    -1.714033  0.053720363   -3.0037475    1.2897145   535127 
 4607000   0.97353888   -3.0023215   -3.0023215   -1.7136883  0.056386797   -3.0023215    1.2886332   535110 
 4608000   0.97487769   -3.0031045   -3.0031045   -1.7126582  0.050007864   -3.0031045    1.2904463   535093 
 4609000   0.97157373   -2.9998402   -2.9998402   -1.7137289  0.061963711   -2.9998402    1.2861113   535077 
 4610000   0.97260458   -3.0017888   -3.0017888    -1.714272  0.058536169   -3.0017888    1.2875168   535060 
 4611000   0.97381985   -3.0030355   -3.0030355   -1.7138689  0.052644284   -3.0030355    1.2891665   535043 
 4612000   0.97275524   -3.0017946   -3.0017946   -1.7139989  0.053286018   -3.0017946    1.2877957   535027 
 4613000   0.97204924   -3.0002362   -3.0002362   -1.7133343  0.055572697   -3.0002362    1.2869019   535010 
 4614000   0.97142715   -2.9993196   -2.9993196   -1.7132004  0.061866724   -2.9993196    1.2861192   534993 
 4615000   0.97165783   -3.0015735   -3.0015735   -1.7151105  0.066449792   -3.0015735    1.2864631   534977 
 4616000   0.97222093   -3.0025019   -3.0025019   -1.7152524  0.056121502   -3.0025019    1.2872495   534960 
 4617000   0.97310816    -3.002826    -3.002826   -1.7143608   0.06503643    -3.002826    1.2884652   534943 
 4618000   0.97434914   -3.0052023   -3.0052023   -1.7150554  0.056087363   -3.0052023    1.2901469   534927 
 4619000   0.97453351   -3.0053115   -3.0053115   -1.7148794  0.055504075   -3.0053115     1.290432   534910 
 4620000   0.97488424   -3.0056022   -3.0056022   -1.7146647  0.063749099   -3.0056022    1.2909375   534893 
 4621000   0.97502552   -3.0064738   -3.0064738   -1.7153106  0.065944737   -3.0064738    1.2911632   534877 
 4622000   0.97500031   -3.0057179   -3.0057179    -1.714547  0.061801468   -3.0057179    1.2911709   534860 
 4623000   0.97439402    -3.005862    -3.005862    -1.715453  0.050032059    -3.005862     1.290409   534843 
 4624000   0.97346785   -3.0047896   -3.0047896   -1.7155686  0.053916687   -3.0047896     1.289221   534827 
 4625000    0.9731923   -3.0052698   -3.0052698   -1.7163727  0.063139926   -3.0052698     1.288897   534810 
 4626000   0.97330549   -3.0065806   -3.0065806   -1.7174927  0.059041279   -3.0065806    1.2890879   534793 
 4627000   0.97483315   -3.0083844   -3.0083844   -1.7172346  0.058069742   -3.0083844    1.2911499   534777 
 4628000   0.97370812   -3.0084718   -3.0084718    -1.718771  0.067089216   -3.0084718    1.2897008   534760 
 4629000   0.97197553   -3.0064109   -3.0064109    -1.718964  0.054734411   -3.0064109    1.2874468   534743 
 4630000   0.97279092    -3.007695    -3.007695   -1.7191295  0.056563055    -3.007695    1.2885654   534727 
 4631000   0.97221212   -3.0072759   -3.0072759   -1.7194362  0.052604432   -3.0072759    1.2878397   534710 
 4632000    0.9731059   -3.0067686   -3.0067686    -1.717704  0.057556788   -3.0067686    1.2890646   534693 
 4633000    0.9725452   -3.0063277   -3.0063277   -1.7179673  0.060070581   -3.0063277    1.2883604   534677 
 4634000   0.97249136   -3.0062566   -3.0062566   -1.7179266  0.057148008   -3.0062566    1.2883301   534660 
 4635000   0.97318413   -3.0076764   -3.0076764   -1.7183876  0.060150211   -3.0076764    1.2892888   534643 
 4636000   0.97382457   -3.0097722   -3.0097722   -1.7195963  0.061098372   -3.0097722    1.2901759   534627 
 4637000   0.97494318   -3.0103724   -3.0103724   -1.7186735  0.050755415   -3.0103724     1.291699   534610 
 4638000   0.97245722   -3.0066185   -3.0066185   -1.7181722  0.066776461   -3.0066185    1.2884463   534593 
 4639000   0.97313844   -3.0075393   -3.0075393   -1.7181519  0.061719946   -3.0075393    1.2893875   534577 
 4640000    0.9737239   -3.0081247   -3.0081247   -1.7179205  0.063300403   -3.0081247    1.2902042   534560 
 4641000   0.97229317   -3.0043327   -3.0043327   -1.7159833  0.075901516   -3.0043327    1.2883494   534543 
 4642000   0.97221022    -3.005207    -3.005207   -1.7169289  0.068010355    -3.005207    1.2882781   534527 
 4643000   0.97341256   -3.0074867   -3.0074867   -1.7175744  0.065198184   -3.0074867    1.2899123   534510 
 4644000   0.97389108   -3.0077623   -3.0077623   -1.7171748  0.059836195   -3.0077623    1.2905875   534493 
 4645000   0.97337908   -3.0077245   -3.0077245   -1.7177769  0.057656552   -3.0077245    1.2899476   534477 
 4646000   0.97169073   -3.0047414   -3.0047414   -1.7169902  0.062412537   -3.0047414    1.2877511   534460 
 4647000   0.97264507   -3.0054996   -3.0054996   -1.7164427  0.055538217   -3.0054996    1.2890569   534443 
 4648000   0.97340459   -3.0065744   -3.0065744   -1.7164723  0.058897408   -3.0065744    1.2901021   534427 
 4649000   0.97191708   -3.0049977   -3.0049977   -1.7168261  0.055431333   -3.0049977    1.2881716   534410 
 4650000   0.97430454   -3.0082294   -3.0082294   -1.7168524  0.045020816   -3.0082294     1.291377   534393 
 4651000   0.97355507    -3.006943    -3.006943   -1.7165207  0.057638268    -3.006943    1.2904223   534377 
 4652000   0.97454034   -3.0064648   -3.0064648   -1.7146955  0.053040393   -3.0064648    1.2917693   534360 
 4653000    0.9736419   -3.0057793   -3.0057793   -1.7151598  0.058721795   -3.0057793    1.2906195   534343 
 4654000   0.97318398   -3.0050827   -3.0050827   -1.7150316  0.059890494   -3.0050827    1.2900511   534327 
 4655000   0.97328499   -3.0056418   -3.0056418   -1.7154157  0.051194223   -3.0056418     1.290226   534310 
 4656000   0.97175685   -3.0038787   -3.0038787   -1.7156374  0.050964487   -3.0038787    1.2882413   534293 
 4657000   0.97260028   -3.0052792   -3.0052792   -1.7158812  0.057699896   -3.0052792     1.289398   534277 
 4658000   0.97047506   -3.0040725   -3.0040725    -1.717451   0.05468245   -3.0040725    1.2866215   534260 
 4659000   0.97110962   -3.0038876   -3.0038876   -1.7163839  0.059038567   -3.0038876    1.2875037   534243 
 4660000   0.97135597   -3.0038386   -3.0038386   -1.7159697  0.059808273   -3.0038386    1.2878689   534227 
 4661000   0.97108052   -3.0037726   -3.0037726    -1.716228  0.044509155   -3.0037726    1.2875447   534210 
 4662000   0.97101767   -3.0043506   -3.0043506   -1.7168482  0.058409358   -3.0043506    1.2875023   534193 
 4663000   0.97045553   -3.0040046   -3.0040046   -1.7172091   0.05080023   -3.0040046    1.2867955   534177 
[...]
23832000   0.30260749   -1.8241125   -1.8241125  -0.82576703  0.050348433   -1.8241125    0.9983455   214693 
23833000   0.30420689   -1.8290064   -1.8290064  -0.82530942  0.049540547   -1.8290064     1.003697   214677 
23834000   0.30393526   -1.8284406   -1.8284406  -0.82556039  0.050611891   -1.8284406    1.0028802   214660 
23835000   0.30391386   -1.8267249   -1.8267249  -0.82383587  0.051930096   -1.8267249     1.002889   214643 
23836000   0.30340881   -1.8280707   -1.8280707  -0.82677373  0.050874276   -1.8280707     1.001297   214627 
23837000   0.30252971   -1.8240297   -1.8240297  -0.82555475  0.052031235   -1.8240297    0.9984749   214610 
23838000   0.30219199   -1.8219121   -1.8219121  -0.82447278  0.046442851   -1.8219121   0.99743931   214593 
23839000   0.30273336   -1.8244454   -1.8244454  -0.82514472  0.051130985   -1.8244454    0.9993007   214577 
23840000   0.30286016   -1.8247636   -1.8247636   -0.8249651  0.043085672   -1.8247636   0.99979848   214560 
23841000   0.30278463   -1.8235536   -1.8235536  -0.82392532   0.05335877   -1.8235536   0.99962833   214543 
23842000   0.30329851   -1.8237498   -1.8237498   -0.8223502  0.049167086   -1.8237498    1.0013996   214527 
23843000   0.30348696   -1.8243565   -1.8243565  -0.82225536  0.050655639   -1.8243565    1.0021012   214510 
23844000   0.30372524   -1.8236169   -1.8236169  -0.82064945  0.050874177   -1.8236169    1.0029675   214493 
23845000   0.30293042    -1.822603    -1.822603   -0.8221856  0.050936274    -1.822603    1.0004174   214477 
23846000   0.30259913   -1.8236765   -1.8236765  -0.82427396  0.046042746   -1.8236765   0.99940255   214460 
23847000   0.30172467   -1.8214861   -1.8214861  -0.82489264  0.047118944   -1.8214861   0.99659343   214443 
23848000   0.30241225   -1.8262027   -1.8262027  -0.82726359  0.054595226   -1.8262027   0.99893906   214427 
23849000    0.3026221   -1.8241553   -1.8241553  -0.82444378  0.052741789   -1.8241553    0.9997115   214410 
23850000   0.30248422   -1.8243229   -1.8243229  -0.82498769  0.054965801   -1.8243229   0.99933523   214393 
23851000   0.30192119   -1.8229114   -1.8229114  -0.82536178  0.044403594   -1.8229114   0.99754959   214377 
23852000   0.30192118   -1.8228495   -1.8228495  -0.82522083    0.0491855   -1.8228495   0.99762864   214360 
23853000   0.30278232   -1.8233986   -1.8233986  -0.82284521  0.048591878   -1.8233986    1.0005534   214343 
23854000   0.30201646   -1.8224103   -1.8224103  -0.82431319  0.054588829   -1.8224103   0.99809715   214327 
23855000    0.3021856   -1.8215806   -1.8215806  -0.82284522  0.050316144   -1.8215806   0.99873534   214310 
23856000   0.30173352   -1.8199581   -1.8199581  -0.82263785  0.054442252   -1.8199581   0.99732029   214293 
23857000   0.30277087   -1.8202462   -1.8202462  -0.81942243  0.054064595   -1.8202462    1.0008238   214277 
23858000   0.30262057   -1.8191865   -1.8191865  -0.81878023  0.055875421   -1.8191865    1.0004063   214260 
23859000   0.30264459   -1.8201619   -1.8201619  -0.81959682  0.054532293   -1.8201619    1.0005651   214243 
23860000   0.30160747   -1.8177748   -1.8177748  -0.82056396  0.054943263   -1.8177748    0.9972108   214227 
23861000   0.30314071   -1.8196406   -1.8196406  -0.81728094  0.048822504   -1.8196406    1.0023597   214210 
23862000   0.30319828   -1.8194255   -1.8194255  -0.81679586   0.05042252   -1.8194255    1.0026297   214193 
23863000    0.3016406   -1.8145277   -1.8145277  -0.81697458  0.049739868   -1.8145277   0.99755315   214177 
23864000   0.30168699   -1.8144577   -1.8144577  -0.81667189  0.051442794   -1.8144577   0.99778577   214160 
23865000   0.30167633    -1.815065    -1.815065  -0.81723526  0.053386069    -1.815065   0.99782971   214143 
23866000   0.30201603   -1.8168537   -1.8168537  -0.81782571  0.045875128   -1.8168537   0.99902796   214127 
23867000   0.30207708   -1.8161741   -1.8161741  -0.81686481  0.049364328   -1.8161741   0.99930925   214110 
23868000   0.30284956   -1.8184735   -1.8184735  -0.81652925   0.05675297   -1.8184735    1.0019443   214093 
23869000   0.30185385   -1.8178862   -1.8178862  -0.81916148  0.045646487   -1.8178862    0.9987247   214077 
23870000   0.30189211    -1.819007    -1.819007   -0.8200764  0.046179299    -1.819007   0.99893063   214060 
23871000   0.30148407   -1.8165881   -1.8165881   -0.8189284  0.052320012   -1.8165881   0.99765967   214043 
23872000   0.30177893   -1.8163195   -1.8163195  -0.81760947  0.056673887   -1.8163195   0.99871008   214027 
23873000   0.30171347   -1.8166664   -1.8166664  -0.81809367  0.050374735   -1.8166664   0.99857276   214010 
23874000    0.3019091   -1.8176759   -1.8176759  -0.81837628  0.048854535   -1.8176759   0.99929959   213993 
23875000   0.30213155   -1.8167918   -1.8167918  -0.81668112  0.052945322   -1.8167918    1.0001107   213977 
23876000   0.30173014   -1.8168937   -1.8168937   -0.8180324  0.050328857   -1.8168937   0.99886129   213960 
23877000   0.30182317   -1.8174833   -1.8174833  -0.81823459  0.049053709   -1.8174833   0.99924866   213943 
23878000   0.30181813   -1.8182421   -1.8182421  -0.81893538  0.053743008   -1.8182421   0.99930671   213927 
23879000   0.30091099   -1.8153598   -1.8153598  -0.81897744  0.051182602   -1.8153598   0.99638238   213910 
23880000   0.30186558    -1.816722    -1.816722   -0.8170993  0.053094523    -1.816722   0.99962268   213893 
23881000   0.30259279   -1.8183318   -1.8183318  -0.81622603  0.054924928   -1.8183318    1.0021058   213877 
23882000   0.30165841   -1.8167563   -1.8167563  -0.81766554  0.053332038   -1.8167563   0.99909081   213860 
23883000   0.30137301   -1.8180481   -1.8180481  -0.81982318  0.050001806   -1.8180481   0.99822489   213843 
23884000    0.3012796   -1.8166343   -1.8166343  -0.81864414  0.047272154   -1.8166343   0.99799016   213827 
23885000   0.30195127   -1.8171629   -1.8171629  -0.81686826  0.050214657   -1.8171629    1.0002946   213810 
23886000   0.30025571   -1.8135064   -1.8135064  -0.81874968  0.054487292   -1.8135064   0.99475671   213793 
23887000   0.30003892     -1.81318     -1.81318  -0.81906714  0.047450999     -1.81318   0.99411287   213777 
23888000   0.30076712   -1.8129866   -1.8129866  -0.81638179  0.046262784   -1.8129866   0.99660484   213760 
23889000   0.30103541   -1.8156351   -1.8156351  -0.81806198  0.043334982   -1.8156351   0.99757317   213743 
23890000   0.30010625   -1.8136373   -1.8136373  -0.81906877  0.046569417   -1.8136373   0.99456856   213727 
23891000    0.3009282   -1.8142106   -1.8142106  -0.81683874  0.046684572   -1.8142106   0.99737189   213710 
23892000   0.30151625   -1.8149201   -1.8149201  -0.81551967  0.056517378   -1.8149201   0.99940039   213693 
23893000   0.30132617   -1.8161175   -1.8161175  -0.81727236  0.054420108   -1.8161175   0.99884514   213677 
23894000   0.30067968   -1.8164057   -1.8164057  -0.81962426  0.040519005   -1.8164057   0.99678143   213660 
23895000   0.30153282    -1.817449    -1.817449   -0.8177598   0.04957194    -1.817449   0.99968922   213643 
23896000      0.30113   -1.8152839   -1.8152839  -0.81685537  0.048057614   -1.8152839   0.99842849   213627 
23897000   0.30122766   -1.8157243   -1.8157243  -0.81689259  0.055299553   -1.8157243   0.99883176   213610 
23898000   0.30175621   -1.8159795   -1.8159795  -0.81531548  0.043063926   -1.8159795     1.000664   213593 
23899000   0.30120003   -1.8156622   -1.8156622  -0.81676773  0.054484791   -1.8156622   0.99889449   213577 
23900000   0.29997983   -1.8133235   -1.8133235  -0.81839649  0.050073929   -1.8133235   0.99492702   213560 
23901000   0.29987198   -1.8116137   -1.8116137  -0.81696525  0.051546319   -1.8116137    0.9946485   213543 
23902000   0.30027572   -1.8129417   -1.8129417  -0.81687938   0.05173851   -1.8129417    0.9960623   213527 
23903000   0.30012837   -1.8101816   -1.8101816   -0.8145288  0.047245972   -1.8101816   0.99565279   213510 
23904000   0.29981416     -1.80839     -1.80839  -0.81370039  0.044729215     -1.80839    0.9946896   213493 
23905000   0.30057266   -1.8112467   -1.8112467  -0.81396587  0.045058363   -1.8112467   0.99728083   213477 
23906000   0.30012751   -1.8091831   -1.8091831  -0.81329991  0.045050266   -1.8091831   0.99588316   213460 
23907000   0.30103404   -1.8112195   -1.8112195   -0.8122487  0.047644532   -1.8112195   0.99897076   213443 
23908000   0.30088577    -1.812747    -1.812747  -0.81419345  0.045897216    -1.812747   0.99855357   213427 
23909000   0.29948602   -1.8096531   -1.8096531  -0.81566578  0.058224357   -1.8096531   0.99398737   213410 
23910000   0.30056634   -1.8137102   -1.8137102  -0.81605776  0.045876747   -1.8137102   0.99765241   213393 
23911000   0.30042459   -1.8146168   -1.8146168  -0.81736015   0.04628876   -1.8146168   0.99725668   213377 
23912000   0.29998796   -1.8150833   -1.8150833  -0.81919666  0.046524169   -1.8150833   0.99588663   213360 
23913000   0.29966751    -1.813728    -1.813728  -0.81882591  0.053686975    -1.813728   0.99490208   213343 
23914000   0.30108688   -1.8157757   -1.8157757  -0.81608636  0.056298536   -1.8157757   0.99968938   213327 
23915000   0.30064106   -1.8155034   -1.8155034  -0.81721474  0.053788767   -1.8155034   0.99828871   213310 
23916000   0.29923214   -1.8149704   -1.8149704  -0.82128083  0.054317563   -1.8149704   0.99368955   213293 
23917000   0.29961802   -1.8163287   -1.8163287  -0.82128311  0.045841029   -1.8163287    0.9950456   213277 
23918000   0.29977487   -1.8166988   -1.8166988  -0.82105289  0.052225421   -1.8166988   0.99564587   213260 
23919000   0.29966026   -1.8175245   -1.8175245  -0.82217994  0.055519302   -1.8175245   0.99534458   213243 
23920000   0.30004252   -1.8195177   -1.8195177  -0.82282863   0.04802486   -1.8195177   0.99668906   213227 
23921000   0.30014275    -1.818381    -1.818381  -0.82127945  0.051148906    -1.818381   0.99710151   213210 
23922000    0.3008046   -1.8193257   -1.8193257  -0.81994576  0.046258959   -1.8193257    0.9993799   213193 
23923000   0.29966538   -1.8177248   -1.8177248  -0.82205504  0.050039314   -1.8177248   0.99566972   213177 
23924000   0.29959641   -1.8147301   -1.8147301  -0.81921017  0.052173748   -1.8147301   0.99551997   213160 
23925000   0.29997786   -1.8128628   -1.8128628  -0.81599586  0.053526345   -1.8128628   0.99686697   213143 
23926000    0.2996812   -1.8127636   -1.8127636   -0.8168077  0.054732423   -1.8127636   0.99595589   213127 
23927000   0.29936756   -1.8108341   -1.8108341   -0.8158412  0.049857868   -1.8108341   0.99499293   213110 
23928000   0.29819302   -1.8087401   -1.8087401  -0.81757183  0.048933307   -1.8087401   0.99116823   213093 
23929000   0.29897221   -1.8072267   -1.8072267  -0.81339389    0.0505773   -1.8072267   0.99383282   213077 
23930000   0.29906526   -1.8067922   -1.8067922   -0.8125708  0.051390455   -1.8067922   0.99422145   213060 
23931000   0.30020484   -1.8102385   -1.8102385  -0.81214894  0.048140148   -1.8102385   0.99808952   213043 
23932000   0.29938879   -1.8067031   -1.8067031  -0.81125188  0.054405581   -1.8067031   0.99545117   213027 
23933000   0.30013583   -1.8087175   -1.8087175  -0.81070278  0.048626959   -1.8087175   0.99801469   213010 
23934000   0.29909636   -1.8049423   -1.8049423  -0.81030467  0.049000563   -1.8049423   0.99463762   212993 
23935000   0.29933834   -1.8056762   -1.8056762  -0.81015914  0.056576072   -1.8056762   0.99551709   212977 
23936000   0.29936417    -1.803645    -1.803645  -0.80796254  0.051856502    -1.803645   0.99568247   212960 
23937000   0.29991031   -1.8022978   -1.8022978  -0.80471922  0.051633615   -1.8022978   0.99757856   212943 
23938000   0.29959533   -1.8062694   -1.8062694  -0.80966369  0.052186009   -1.8062694   0.99660574   212927 
23939000   0.29988955   -1.8043553   -1.8043553   -0.8066912  0.046924037   -1.8043553    0.9976641   212910 
23940000   0.29938077   -1.8025125   -1.8025125  -0.80646139  0.051437798   -1.8025125   0.99605106   212893 
23941000   0.29993559   -1.8064931   -1.8064931  -0.80852114  0.050379412   -1.8064931   0.99797197   212877 
23942000   0.29995936   -1.8066046   -1.8066046  -0.80847385  0.045223483   -1.8066046   0.99813078   212860 
23943000   0.29936895    -1.805205    -1.805205  -0.80895931  0.054356133    -1.805205   0.99624571   212843 
23944000   0.29939407   -1.8074403   -1.8074403  -0.81103614  0.057753051   -1.8074403    0.9964042   212827 
23945000   0.29918019    -1.806368    -1.806368   -0.8105961  0.044610371    -1.806368   0.99577192   212810 
23946000   0.29905165   -1.8046801   -1.8046801  -0.80925644  0.047936022   -1.8046801   0.99542363   212793 
23947000   0.29936259   -1.8049117   -1.8049117  -0.80837808  0.053290485   -1.8049117   0.99653357   212777 
23948000   0.29873576   -1.8052642   -1.8052642  -0.81073783  0.047363213   -1.8052642   0.99452639   212760 
23949000   0.29886423   -1.8051704   -1.8051704  -0.81013685  0.048878278   -1.8051704   0.99503359   212743 
23950000   0.29874985   -1.8037114   -1.8037114  -0.80898379  0.053282093   -1.8037114   0.99472759   212727 
23951000   0.29899784   -1.8047657   -1.8047657  -0.80913287    0.0532062   -1.8047657   0.99563285   212710 
23952000   0.29893312   -1.8038222   -1.8038222   -0.8083253  0.051005909   -1.8038222   0.99549692   212693 
23953000   0.29864103   -1.8034987   -1.8034987  -0.80889964  0.048048131   -1.8034987   0.99459903   212677 
23954000   0.29872365   -1.8007657   -1.8007657  -0.80581203  0.053059933   -1.8007657    0.9949537   212660 
23955000   0.29826215   -1.7982746   -1.7982746  -0.80477857  0.056709636   -1.7982746   0.99349601   212643 
23956000   0.29909345   -1.8004949   -1.8004949  -0.80415487  0.051071718   -1.8004949   0.99634002   212627 
23957000   0.29949281   -1.8022465   -1.8022465  -0.80449632  0.047727387   -1.8022465   0.99775013   212610 
23958000   0.29812175   -1.7998744   -1.7998744  -0.80661245  0.049402292   -1.7998744    0.9932619   212593 
23959000   0.29784027   -1.7975819   -1.7975819  -0.80518308  0.047091497   -1.7975819   0.99239877   212577 
23960000   0.29910188   -1.8002416   -1.8002416  -0.80355945  0.046862319   -1.8002416   0.99668215   212560 
23961000   0.29844014   -1.8020356   -1.8020356  -0.80747898  0.050843851   -1.8020356   0.99455662   212543 
23962000   0.29839922   -1.8011965   -1.8011965   -0.8067014  0.050562346   -1.8011965   0.99449512   212527 
23963000   0.29897856   -1.8040449   -1.8040449  -0.80753922  0.056073873   -1.8040449   0.99650564   212510 
23964000    0.2986073   -1.8035442   -1.8035442  -0.80819634  0.054318783   -1.8035442   0.99534784   212493 
23965000   0.29799149   -1.8021101   -1.8021101  -0.80874018  0.052301448   -1.8021101   0.99336994   212477 
23966000   0.29777012   -1.8039116   -1.8039116  -0.81120021  0.046557113   -1.8039116   0.99271144   212460 
23967000   0.29812986   -1.8048467   -1.8048467  -0.81085638  0.036274741   -1.8048467   0.99399027   212443 
23968000   0.29751427   -1.8009733   -1.8009733  -0.80896073  0.052850803   -1.8009733   0.99201255   212427 
23969000    0.2981894   -1.8003544   -1.8003544  -0.80601119  0.047765866   -1.8003544   0.99434325   212410 
23970000   0.29787373   -1.7989974   -1.7989974  -0.80562731  0.053062182   -1.7989974   0.99337009   212393 
23971000   0.29828478   -1.8017251   -1.8017251  -0.80690927  0.055575354   -1.8017251   0.99481584   212377 
23972000   0.29711739   -1.7972571   -1.7972571  -0.80625527  0.049949353   -1.7972571   0.99100179   212360 
23973000   0.29720099    -1.799077    -1.799077  -0.80771698  0.045339038    -1.799077   0.99135999   212343 
23974000   0.29764726   -1.8004115   -1.8004115   -0.8074881  0.053477113   -1.8004115    0.9929234   212327 
23975000   0.29782358   -1.8022677   -1.8022677  -0.80867657  0.051095508   -1.8022677   0.99359113   212310 
23976000   0.29786554   -1.8054029   -1.8054029  -0.81159218  0.051529671   -1.8054029   0.99381071   212293 
23977000   0.29767972   -1.8041486   -1.8041486  -0.81088301  0.045243057   -1.8041486   0.99326558   212277 
23978000   0.29816392   -1.8046918   -1.8046918  -0.80973089  0.054817919   -1.8046918   0.99496088   212260 
23979000   0.29834678   -1.8045084   -1.8045084  -0.80885756  0.053398039   -1.8045084   0.99565083   212243 
23980000   0.29831268   -1.8040557   -1.8040557  -0.80844363  0.058401845   -1.8040557   0.99561209   212227 
23981000   0.29845102   -1.8030472   -1.8030472  -0.80689357  0.053126147   -1.8030472    0.9961536   212210 
23982000   0.29804444   -1.8014235   -1.8014235  -0.80654732  0.052712561   -1.8014235   0.99487622   212193 
23983000   0.29730152   -1.7996951   -1.7996951  -0.80722387  0.048575445   -1.7996951   0.99247118   212177 
23984000   0.29817929    -1.799384    -1.799384  -0.80390284  0.055027369    -1.799384   0.99548117   212160 
23985000   0.29695754   -1.7987034   -1.7987034  -0.80722158  0.048853519   -1.7987034   0.99148177   212143 
23986000   0.29604327   -1.7981588   -1.7981588  -0.80965505  0.053275132   -1.7981588   0.98850375   212127 
23987000   0.29675913   -1.7976278   -1.7976278  -0.80665432  0.053515161   -1.7976278   0.99097346   212110 
23988000   0.29759816   -1.7993936   -1.7993936   -0.8055387  0.053364186   -1.7993936    0.9938549   212093 
23989000   0.29754328   -1.8003917   -1.8003917  -0.80664512  0.051968998   -1.8003917   0.99374661   212077 
23990000   0.29711743   -1.7976566   -1.7976566  -0.80525268  0.050562504   -1.7976566   0.99240389   212060 
23991000   0.29799707    -1.801864    -1.801864   -0.8064422  0.052088543    -1.801864   0.99542176   212043 
23992000   0.29732613   -1.8006705   -1.8006705  -0.80741501  0.052015306   -1.8006705   0.99325552   212027 
23993000   0.29724096   -1.7993657   -1.7993657  -0.80631505  0.051574113   -1.7993657   0.99305064   212010 
23994000   0.29714807   -1.8028105   -1.8028105  -0.80999058   0.05425871   -1.8028105   0.99281989   211993 
23995000   0.29723318   -1.8005815   -1.8005815  -0.80740223  0.055673434   -1.8005815   0.99317923   211977 
23996000   0.29719697   -1.8002113   -1.8002113  -0.80707344  0.043977722   -1.8002113   0.99313788   211960 
23997000   0.29660009   -1.7980388   -1.7980388  -0.80681605  0.045840757   -1.7980388    0.9912228   211943 
23998000   0.29666865    -1.795633    -1.795633  -0.80410624   0.05135484    -1.795633   0.99152679   211927 
23999000   0.29643718   -1.7904422   -1.7904422  -0.79960953  0.050717141   -1.7904422   0.99083264   211910 
24000000   0.29652002   -1.7950519   -1.7950519  -0.80386282  0.049320353   -1.7950519   0.99118905   211893 
Loop time of 30184.6 on 288 procs for 20000000 steps with 211893 atoms

Performance: 286238.638 tau/day, 662.589 timesteps/s
96.2% CPU use with 288 MPI tasks x 1 OpenMP threads

MPI task timing breakdown:
Section |  min time  |  avg time  |  max time  |%varavg|  %CPU | %total
-----------------------------------------------------------------------
Pair    | 2469.3     | 6196.8     | 7878.5     |1592.6 |  97.0 | 20.53
Bond    | 12.958     | 13.764     | 14.692     |   8.0 | 100.0 |  0.05
Neigh   | 2091.9     | 4981.2     | 6504.7     |1364.1 |  99.0 | 16.50
Comm    | 7079.7     | 11265      | 15642      |1701.4 |  95.7 | 37.32
Output  | 1104.3     | 1106.2     | 1111.5     |   6.5 |  93.9 |  3.66
Modify  | 4803.7     | 6267.7     | 9948.1     |1589.3 |  95.8 | 20.76
Other   |            | 353.7      |            |       |       |  1.17

Nlocal:        735.740 ave        1701 max         163 min
Histogram: 3 8 44 138 78 9 3 2 1 2
Nghost:        4794.77 ave        9306 max         680 min
Histogram: 52 15 22 24 22 31 36 40 31 15
Neighs:        10718.1 ave       20904 max        1007 min
Histogram: 61 12 7 20 33 36 45 23 36 15

Total # of neighbors = 3086804
Ave neighs/atom = 14.567749
Ave special neighs/atom = 0.0000000
Neighbor list builds = 2000000
Dangerous builds = 1653333

Total wall time: 8:23:09
