LAMMPS (24 Dec 2020)
OMP_NUM_THREADS environment is not set. Defaulting to 1 thread. (src/comm.cpp:94)
  using 1 OpenMP thread(s) per MPI task
#Read the equilibrated lj fluid and add nanocubes

units           lj
atom_style      full
atom_modify     map array first cubes
dimension       3
boundary        p p f
pair_style      lj/cut/opt 2.5

variable        sigma           equal 1.0
variable        epsilon         equal 1.0
read_restart	restart.dat.10000000
Reading restart file ...
  restart file = 24 Dec 2020, LAMMPS = 24 Dec 2020
WARNING: Restart file used different # of processors: 192 vs. 288 (src/read_restart.cpp:697)
  restoring atom style full from restart
  orthogonal box = (0.0000000 0.0000000 0.0000000) to (80.000000 80.000000 160.00000)
  6 by 4 by 12 MPI processor grid
  restoring pair style lj/cut/opt from restart
  443961 atoms
Finding 1-2 1-3 1-4 neighbors ...
  special bond factors lj:    0        0        0       
  special bond factors coul:  0        0        0       
     0 = max # of 1-2 neighbors
     0 = max # of 1-3 neighbors
     0 = max # of 1-4 neighbors
     1 = max # of special neighbors
  special bonds CPU = 2.326 seconds
  read_restart CPU = 2.770 seconds

group		solvent type 1
443961 atoms in group solvent

read_data	data_96_seed2.cubes group cubes add append
Reading data file ...
  orthogonal box = (0.0000000 0.0000000 0.0000000) to (80.000000 80.000000 160.00000)
  6 by 4 by 12 MPI processor grid
  reading atoms ...
  109728 atoms
  reading velocities ...
  109728 velocities
Finding 1-2 1-3 1-4 neighbors ...
  special bond factors lj:    0        0        0       
  special bond factors coul:  0        0        0       
     0 = max # of 1-2 neighbors
     0 = max # of 1-3 neighbors
     0 = max # of 1-4 neighbors
     1 = max # of special neighbors
  special bonds CPU = 0.042 seconds
  read_data CPU = 0.356 seconds

group 		hull  type 2
42816 atoms in group hull
group 		dummy type 3
66912 atoms in group dummy

neighbor      0.4 bin
neigh_modify  exclude molecule/intra cubes


pair_modify   shift yes

pair_coeff    1 1 1.0 1.0 #solvent
pair_coeff    2 2 1.0 1.0 1.12 #np
pair_coeff    3 3 0.0 0.0 0.0 #dummy
pair_coeff    2 3 0.0 0.0 0.0 #np dummy
pair_coeff    1 2 ${sol} 1.0  #np solvent
pair_coeff    1 2 .60 1.0  
pair_coeff    1 3 0.0 0.0 2.5 #dummy solvent

# delete solvent where the cubes are
delete_atoms  overlap 1.0 solvent cubes
System init for delete_atoms ...
Unused restart file peratom fix info:
  fix style: STORE, fix ID: bin1_COMPUTE_STORE
Neighbor list info ...
  update every 1 steps, delay 10 steps, check yes
  max neighbors/atom: 2000, page size: 100000
  master list distance cutoff = 2.9
  ghost atom cutoff = 2.9
  binsize = 1.45, bins = 56 56 111
  2 neighbor lists, perpetual/occasional/extra = 1 1 0
  (1) command delete_atoms, occasional
      attributes: full, newton on
      pair build: full/bin
      stencil: full/bin/3d
      bin: standard
  (2) pair lj/cut/opt, perpetual
      attributes: half, newton on
      pair build: half/bin/newton
      stencil: half/bin/3d/newton
      bin: standard
WARNING: Delete_atoms cutoff > minimum neighbor cutoff (src/delete_atoms.cpp:307)
WARNING: Ignoring 'compress yes' for molecular system (src/delete_atoms.cpp:125)
Deleted 77829 atoms, new total = 475860

pair_coeff    1 1 1.0 1.0 #solvent
pair_coeff    2 2 1.0 1.0 1.12 #np
pair_coeff    3 3 0.0 0.0 0.0 #dummy
pair_coeff    2 3 0.0 0.0 0.0 #np dummy
pair_coeff    1 2 ${sol} 1.0  #np solvent
pair_coeff    1 2 .60 1.0  
pair_coeff    1 3 0.0 0.0 0.0 #dummy solvent


comm_modify   mode multi cutoff/multi 1 2.5 cutoff/multi 2 2.5 cutoff/multi 3 6.95

reset_timestep 	0

balance 	1.05 shift z 10 1.05
Balancing ...
Neighbor list info ...
  update every 1 steps, delay 10 steps, check yes
  max neighbors/atom: 2000, page size: 100000
  master list distance cutoff = 2.9
  ghost atom cutoff = 6.95
  binsize = 1.45, bins = 56 56 111
  1 neighbor lists, perpetual/occasional/extra = 1 0 0
  (1) pair lj/cut/opt, perpetual
      attributes: half, newton on
      pair build: half/bin/newton
      stencil: half/bin/3d/newton
      bin: standard
 rebalancing time: 0.005 seconds
  iteration count = 4
  initial/final maximal load/proc = 2532.0000 2577.0000
  initial/final imbalance factor  = 1.5324171 1.5596520
  x cuts: 0.0000000 0.16666667 0.33333333 0.50000000 0.66666667 0.83333333 1.0000000
  y cuts: 0.0000000 0.25000000 0.50000000 0.75000000 1.0000000
  z cuts: 0.0000000 0.067708333 0.13020833 0.19270833 0.25520833 0.32291667 0.38541667 0.44791667 0.51041667 0.57812500 0.63020833 0.68229167 1.0000000

####################### WALLS ###########################

variable       epsilonWall equal 2*${epsilon}
variable       epsilonWall equal 2*1
variable       repulsive   equal   0.7147*${sigma}
variable       repulsive   equal   0.7147*1
variable       full	   equal   3*${sigma}
variable       full	   equal   3*1
region         lowWall block EDGE EDGE EDGE EDGE EDGE 2

fix            topWall all wall/lj93 zhi EDGE 	       ${epsilonWall} ${sigma} ${repulsive} units box
fix            topWall all wall/lj93 zhi EDGE 	       2 ${sigma} ${repulsive} units box
fix            topWall all wall/lj93 zhi EDGE 	       2 1 ${repulsive} units box
fix            topWall all wall/lj93 zhi EDGE 	       2 1 0.7147 units box
fix            lowSol solvent wall/lj93 zlo EDGE                ${epsilonWall} ${sigma} ${full} units box
fix            lowSol solvent wall/lj93 zlo EDGE                2 ${sigma} ${full} units box
fix            lowSol solvent wall/lj93 zlo EDGE                2 1 ${full} units box
fix            lowSol solvent wall/lj93 zlo EDGE                2 1 3 units box
fix 	       lowCub cubes wall/lj93 zlo EDGE                ${epsilonWall} ${sigma} ${repulsive} units box
fix 	       lowCub cubes wall/lj93 zlo EDGE                2 ${sigma} ${repulsive} units box
fix 	       lowCub cubes wall/lj93 zlo EDGE                2 1 ${repulsive} units box
fix 	       lowCub cubes wall/lj93 zlo EDGE                2 1 0.7147 units box


###################### COMPUTES ##########################

compute        bin1 solvent chunk/atom bin/1d z lower 1.0 units box


######################  FIXES ############################


fix             peclet solvent ave/chunk 10 10 10000 bin1 density/number norm                  none ave one file density.profile

fix              temp solvent ave/chunk 10 10 10000 bin1 temp norm                  none ave one file temp.profile

fix             1 cubes rigid/nve/small molecule
  create bodies CPU = 0.018 seconds
  96 rigid bodies with 109728 atoms
  6.9282032 = max distance from body owner to body atom

fix             2 solvent nve# temp ${temp} ${temp} 10


## Thermostat
region          regthermo block EDGE EDGE EDGE EDGE 0 15
group           thermo dynamic solvent region regthermo every 1000
dynamic group thermo defined
fix             3 thermo langevin ${temp} ${temp} 10 156453
fix             3 thermo langevin 1.0 ${temp} 10 156453
fix             3 thermo langevin 1.0 1.0 10 156453


#### Load balancing

fix             bal all balance 1000 1.05 shift z 10 1.05

############### Diagnostics and computes ###################

compute        	com cubes          rigid/local   1 mol x y z
compute        	quat cubes         rigid/local   1 mol quatw quati quatj quatk

compute 	cc2 cubes 	   chunk/atom 	 molecule
compute 	msd cubes 	   msd/chunk 	 cc2

fix 		msd all ave/time  1 1 10000 c_msd[*] file dump.msd ave one mode vector

dump            1 all custom 500000 dump.lammpstrj id mol type x y z
dump		cubetrj hull custom 500000 cubes.lammpstrj id mol type x y z
dump            com cubes local 10000 dump.*.xyz c_com[*]
dump	        xyz hull xyz 100000 cubes.xyz
dump            quat cubes      local 10000 dump.*.quat c_quat[*]
#dump		mol cubes molfile 10000 mol.xyz xyz


dump            2 all image 10000 image.*.png type type zoom 1.5 size 1280 720
dump_modify     2 pad 8
dump		image cubes image 10000 image_cubes.*.png type type zoom 1.5 size 1280 720
dump_modify	image pad 8
dump            3 all movie 5000 movie.avi type type zoom 1.5 size 1280 720
dump		4 cubes movie 5000 movie_cubes.avi type type size 1280 720


thermo          1000
thermo_style    custom step temp epair evdwl etotal press pe ke atoms

restart         1000000 restart.dat
timestep        0.005
timer           full
New timer settings: style=full  mode=nosync  timeout=off

run 		10000000
Per MPI rank memory allocation (min/avg/max) = 13.99 | 19.71 | 22.53 Mbytes
Step Temp E_pair E_vdwl TotEng Press PotEng KinEng Atoms 
       0    1.0098975   -2.4200126   -2.4200126   -1.2538649 -0.038752668   -2.4200126    1.1661477   475860 
    1000    1.0082007   -2.4188131   -2.4188131   -1.2546248  0.060605785   -2.4188131    1.1641883   475860 
    2000      1.00567   -2.4167947   -2.4167947   -1.2555285  0.070805251   -2.4167947    1.1612661   475860 
    3000    1.0069418   -2.4174902   -2.4174902   -1.2547556    0.0714942   -2.4174902    1.1627346   475860 
    4000    1.0056709   -2.4166188   -2.4166188   -1.2553517  0.069871642   -2.4166188    1.1612672   475860 
    5000     1.004816   -2.4160682   -2.4160682   -1.2557883  0.074864651   -2.4160682    1.1602799   475860 
    6000     1.004383   -2.4149965   -2.4149965   -1.2552166  0.072558109   -2.4149965    1.1597799   475860 
    7000    1.0045297   -2.4157609   -2.4157609   -1.2558115  0.064354219   -2.4157609    1.1599494   475860 
    8000    1.0047545    -2.416114    -2.416114    -1.255905  0.064208364    -2.416114     1.160209   475860 
    9000    1.0038361   -2.4153519   -2.4153519   -1.2562035   0.06374143   -2.4153519    1.1591484   475860 
   10000    1.0056358   -2.4168615   -2.4168615    -1.255635  0.063576613   -2.4168615    1.1612266   475860 
   11000    1.0058328   -2.4167916   -2.4167916   -1.2553375  0.061831235   -2.4167916    1.1614541   475860 
   12000    1.0047679   -2.4159422   -2.4159422   -1.2557178  0.074491495   -2.4159422    1.1602244   475860 
   13000    1.0059672   -2.4180752   -2.4180752    -1.256466  0.066931892   -2.4180752    1.1616092   475860 
   14000    1.0048276   -2.4159544   -2.4159544   -1.2556611  0.066679993   -2.4159544    1.1602933   475860 
   15000    1.0053711   -2.4164022   -2.4164022   -1.2554812  0.063162635   -2.4164022    1.1609209   475860 
   16000    1.0054452   -2.4171273   -2.4171273   -1.2561208  0.062224291   -2.4171273    1.1610065   475860 
   17000    1.0036809   -2.4156148   -2.4156148   -1.2566455  0.071285984   -2.4156148    1.1589692   475860 
   18000    1.0050389   -2.4180093   -2.4180093    -1.257472  0.066402646   -2.4180093    1.1605373   475860 
   19000    1.0052324   -2.4175953   -2.4175953   -1.2568346  0.071117238   -2.4175953    1.1607607   475860 
   20000     1.005617   -2.4177198   -2.4177198   -1.2565149  0.072743223   -2.4177198    1.1612048   475860 
   21000    1.0047017   -2.4170813   -2.4170813   -1.2569333  0.064047845   -2.4170813     1.160148   475860 
   22000    1.0052008    -2.416972    -2.416972   -1.2562476  0.061632388    -2.416972    1.1607243   475860 
   23000    1.0047517   -2.4169903   -2.4169903   -1.2567846  0.075378188   -2.4169903    1.1602057   475860 
   24000    1.0062681   -2.4183025   -2.4183025   -1.2563458   0.06569651   -2.4183025    1.1619567   475860 
   25000    1.0064359   -2.4172709   -2.4172709   -1.2551204  0.067188487   -2.4172709    1.1621505   475860 
   26000    1.0057599   -2.4165752   -2.4165752   -1.2552053  0.066219306   -2.4165752    1.1613699   475860 
   27000    1.0074827   -2.4187987   -2.4187987   -1.2554394  0.072695527   -2.4187987    1.1633593   475860 
   28000    1.0062494   -2.4175599   -2.4175599   -1.2556248  0.068743413   -2.4175599    1.1619352   475860 
   29000    1.0064975   -2.4187266   -2.4187266    -1.256505  0.064464095   -2.4187266    1.1622216   475860 
   30000     1.007495   -2.4193179   -2.4193179   -1.2559444  0.061300705   -2.4193179    1.1633735   475860 
   31000    1.0065656    -2.418151    -2.418151   -1.2558507  0.073121378    -2.418151    1.1623002   475860 
   32000    1.0072552   -2.4187432   -2.4187432   -1.2556466    0.0680335   -2.4187432    1.1630966   475860 
   33000    1.0048231    -2.416518    -2.416518   -1.2562299  0.072489348    -2.416518    1.1602881   475860 
   34000    1.0036974   -2.4156474   -2.4156474   -1.2566591  0.062280606   -2.4156474    1.1589883   475860 
   35000    1.0058928    -2.417107    -2.417107   -1.2555837  0.064016027    -2.417107    1.1615233   475860 
   36000    1.0055923   -2.4180762   -2.4180762   -1.2568999  0.063033527   -2.4180762    1.1611763   475860 
   37000     1.005481   -2.4173388   -2.4173388    -1.256291  0.061507922   -2.4173388    1.1610478   475860 
   38000    1.0048015   -2.4168973   -2.4168973   -1.2566341  0.066177497   -2.4168973    1.1602632   475860 
   39000    1.0040613   -2.4160519   -2.4160519   -1.2566434  0.070838921   -2.4160519    1.1594085   475860 
   40000    1.0030191   -2.4161206   -2.4161206   -1.2579156  0.054880232   -2.4161206    1.1582051   475860 
   41000    1.0029195   -2.4160751   -2.4160751   -1.2579852  0.068945179   -2.4160751      1.15809   475860 
   42000    1.0028732   -2.4162491   -2.4162491   -1.2582125  0.067630922   -2.4162491    1.1580366   475860 
   43000    1.0042704   -2.4166177   -2.4166177   -1.2569677  0.070044334   -2.4166177      1.15965   475860 
   44000    1.0056925   -2.4177636   -2.4177636   -1.2564715  0.067693206   -2.4177636     1.161292   475860 
   45000    1.0052422   -2.4166634   -2.4166634   -1.2558913  0.071172645   -2.4166634    1.1607721   475860 
   46000    1.0039948    -2.416128    -2.416128   -1.2567964  0.066442886    -2.416128    1.1593317   475860 
   47000    1.0027362   -2.4148283   -2.4148283     -1.25695  0.066684975   -2.4148283    1.1578783   475860 
   48000    1.0037229   -2.4159895   -2.4159895   -1.2569717   0.06459909   -2.4159895    1.1590177   475860 
   49000    1.0030611   -2.4153019   -2.4153019   -1.2570484  0.067085916   -2.4153019    1.1582535   475860 
   50000    1.0038888   -2.4151101   -2.4151101   -1.2559008  0.059850937   -2.4151101    1.1592093   475860 
   51000    1.0052615   -2.4169803   -2.4169803   -1.2561859  0.062838245   -2.4169803    1.1607944   475860 
   52000    1.0049488   -2.4154799   -2.4154799   -1.2550466  0.068272081   -2.4154799    1.1604333   475860 
   53000    1.0056769   -2.4159744   -2.4159744   -1.2547004  0.069184071   -2.4159744     1.161274   475860 
   54000    1.0064304   -2.4176346   -2.4176346   -1.2554905   0.06632652   -2.4176346    1.1621441   475860 
   55000    1.0044561   -2.4155454   -2.4155454   -1.2556811  0.068052409   -2.4155454    1.1598644   475860 
   56000    1.0047082    -2.415912    -2.415912   -1.2557566  0.064837617    -2.415912    1.1601554   475860 
   57000    1.0032267   -2.4135453   -2.4135453   -1.2551005  0.067509263   -2.4135453    1.1584447   475860 
   58000    1.0051747   -2.4154019   -2.4154019   -1.2547077  0.064863806   -2.4154019    1.1606942   475860 
   59000    1.0072969   -2.4169753   -2.4169753   -1.2538305  0.071302085   -2.4169753    1.1631447   475860 
   60000    1.0074959   -2.4165559   -2.4165559   -1.2531815  0.070520686   -2.4165559    1.1633745   475860 
   61000    1.0054209    -2.414115    -2.414115   -1.2531365  0.072707887    -2.414115    1.1609785   475860 
   62000     1.006411   -2.4145272   -2.4145272   -1.2524055  0.074379603   -2.4145272    1.1621217   475860 
   63000    1.0072574   -2.4160692   -2.4160692   -1.2529701  0.061893975   -2.4160692     1.163099   475860 
   64000    1.0059543    -2.415673    -2.415673   -1.2540786  0.061270235    -2.415673    1.1615943   475860 
   65000    1.0052826   -2.4141508   -2.4141508   -1.2533321  0.070475966   -2.4141508    1.1608187   475860 
   66000    1.0045649   -2.4145709   -2.4145709   -1.2545809   0.06506169   -2.4145709      1.15999   475860 
   67000    1.0052103   -2.4141512   -2.4141512   -1.2534159  0.064732078   -2.4141512    1.1607353   475860 
   68000    1.0052466   -2.4135635   -2.4135635   -1.2527863  0.068128989   -2.4135635    1.1607772   475860 
   69000    1.0034139   -2.4128839   -2.4128839   -1.2542229  0.070940465   -2.4128839     1.158661   475860 
   70000    1.0041249   -2.4127435   -2.4127435   -1.2532615   0.06780996   -2.4127435     1.159482   475860 
   71000    1.0039686   -2.4129263   -2.4129263   -1.2536249   0.06295283   -2.4129263    1.1593014   475860 
   72000    1.0035737   -2.4127815   -2.4127815   -1.2539361  0.063681303   -2.4127815    1.1588454   475860 
   73000    1.0021577   -2.4116078   -2.4116078   -1.2543975  0.065309593   -2.4116078    1.1572103   475860 
   74000    1.0028079   -2.4120398   -2.4120398   -1.2540786  0.065303152   -2.4120398    1.1579612   475860 
   75000    1.0039445   -2.4126373   -2.4126373   -1.2533636  0.069514353   -2.4126373    1.1592737   475860 
   76000    1.0056786   -2.4149718   -2.4149718   -1.2536958  0.062436962   -2.4149718     1.161276   475860 
   77000    1.0058755   -2.4156743   -2.4156743   -1.2541709   0.06574414   -2.4156743    1.1615034   475860 
   78000    1.0044707   -2.4136736   -2.4136736   -1.2537925  0.066856021   -2.4136736    1.1598812   475860 
   79000    1.0025683   -2.4120546   -2.4120546   -1.2543701  0.060362692   -2.4120546    1.1576845   475860 
   80000    1.0041642   -2.4136338   -2.4136338   -1.2541065  0.061597032   -2.4136338    1.1595273   475860 
   81000    1.0042155   -2.4132911   -2.4132911   -1.2537046  0.064483653   -2.4132911    1.1595865   475860 
   82000      1.00327   -2.4123363   -2.4123363   -1.2538416  0.070816138   -2.4123363    1.1584947   475860 
   83000    1.0037382   -2.4136593   -2.4136593   -1.2546239  0.066094962   -2.4136593    1.1590354   475860 
   84000    1.0043508   -2.4147316   -2.4147316   -1.2549888  0.068643047   -2.4147316    1.1597428   475860 
   85000    1.0043108   -2.4148053   -2.4148053   -1.2551087  0.062834646   -2.4148053    1.1596966   475860 
   86000    1.0043013    -2.414959    -2.414959   -1.2552735  0.070527565    -2.414959    1.1596856   475860 
   87000    1.0053889   -2.4157093   -2.4157093   -1.2547679  0.064771704   -2.4157093    1.1609415   475860 
   88000    1.0070597   -2.4162741   -2.4162741   -1.2534032   0.07069988   -2.4162741    1.1628708   475860 
   89000    1.0075903    -2.417637    -2.417637   -1.2541535  0.069912732    -2.417637    1.1634835   475860 
   90000    1.0062927   -2.4172169   -2.4172169   -1.2552318  0.069490408   -2.4172169    1.1619851   475860 
   91000    1.0047527   -2.4158738   -2.4158738    -1.255667  0.067400994   -2.4158738    1.1602068   475860 
   92000    1.0058271    -2.417047    -2.417047   -1.2555995  0.065566905    -2.417047    1.1614475   475860 
   93000    1.0055933   -2.4166777   -2.4166777   -1.2555001  0.068196444   -2.4166777    1.1611776   475860 
   94000    1.0045678   -2.4167398   -2.4167398   -1.2567464  0.066810332   -2.4167398    1.1599934   475860 
   95000    1.0061023   -2.4174212   -2.4174212    -1.255656  0.065024934   -2.4174212    1.1617652   475860 
   96000     1.005662   -2.4158385   -2.4158385   -1.2545817  0.063307001   -2.4158385    1.1612568   475860 
   97000    1.0060985   -2.4165744   -2.4165744   -1.2548136  0.067617503   -2.4165744    1.1617609   475860 
   98000     1.007947    -2.418797    -2.418797   -1.2549015  0.070411307    -2.418797    1.1638954   475860 
   99000    1.0060143    -2.417346    -2.417346   -1.2556824  0.068451415    -2.417346    1.1616636   475860 
  100000    1.0053331   -2.4172259   -2.4172259   -1.2563489  0.067438116   -2.4172259     1.160877   475860 
  101000    1.0062291   -2.4185674   -2.4185674   -1.2566557   0.06207968   -2.4185674    1.1619117   475860 
  102000    1.0066155   -2.4191906   -2.4191906   -1.2568328  0.071133879   -2.4191906    1.1623578   475860 
  103000    1.0063548   -2.4177195   -2.4177195   -1.2556627  0.068674265   -2.4177195    1.1620568   475860 
  104000    1.0050154   -2.4164975   -2.4164975   -1.2559873  0.068899529   -2.4164975    1.1605102   475860 
  105000    1.0047435   -2.4160123   -2.4160123   -1.2558161  0.057606507   -2.4160123    1.1601962   475860 
  106000    1.0050995   -2.4166035   -2.4166035   -1.2559962  0.066290541   -2.4166035    1.1606073   475860 
  107000    1.0034805   -2.4154581   -2.4154581   -1.2567203   0.05761556   -2.4154581    1.1587378   475860 
  108000    1.0049051   -2.4162581   -2.4162581   -1.2558753  0.062469744   -2.4162581    1.1603828   475860 
  109000    1.0042213   -2.4147918   -2.4147918   -1.2551986  0.063339275   -2.4147918    1.1595932   475860 
  110000    1.0031646   -2.4139554   -2.4139554   -1.2555824  0.068716634   -2.4139554     1.158373   475860 
  111000    1.0048088   -2.4159887   -2.4159887    -1.255717  0.062910477   -2.4159887    1.1602716   475860 
  112000    1.0039761    -2.415012    -2.415012   -1.2557019  0.067436298    -2.415012    1.1593101   475860 
  113000    1.0044641   -2.4155192   -2.4155192   -1.2556455  0.062420713   -2.4155192    1.1598736   475860 
  114000    1.0041819   -2.4152362   -2.4152362   -1.2556884  0.059855872   -2.4152362    1.1595477   475860 
  115000    1.0039416    -2.416103    -2.416103   -1.2568327  0.068796664    -2.416103    1.1592703   475860 
  116000    1.0030434   -2.4138463   -2.4138463   -1.2556132  0.065966136   -2.4138463    1.1582331   475860 
  117000     1.004056   -2.4149192   -2.4149192   -1.2555169  0.064717017   -2.4149192    1.1594024   475860 
  118000    1.0034277   -2.4143569   -2.4143569     -1.25568  0.075446754   -2.4143569    1.1586769   475860 
  119000     1.001971   -2.4132661   -2.4132661   -1.2562713  0.069434115   -2.4132661    1.1569948   475860 
  120000    1.0029524   -2.4152335   -2.4152335   -1.2571054  0.068190745   -2.4152335    1.1581281   475860 
  121000    1.0031929   -2.4152689   -2.4152689   -1.2568632  0.062267904   -2.4152689    1.1584057   475860 
  122000    1.0034681   -2.4152789   -2.4152789   -1.2565554  0.065985864   -2.4152789    1.1587235   475860 
  123000    1.0054194   -2.4168535   -2.4168535   -1.2558768  0.064540961   -2.4168535    1.1609767   475860 
  124000    1.0050912   -2.4168009   -2.4168009   -1.2562031  0.067409674   -2.4168009    1.1605977   475860 
  125000    1.0037443   -2.4147084   -2.4147084    -1.255666  0.059863867   -2.4147084    1.1590424   475860 
  126000    1.0039408   -2.4147376   -2.4147376   -1.2554682  0.071720593   -2.4147376    1.1592694   475860 
  127000    1.0057939   -2.4172551   -2.4172551    -1.255846   0.06274506   -2.4172551    1.1614091   475860 
  128000    1.0075171   -2.4175104   -2.4175104   -1.2541115  0.073770581   -2.4175104     1.163399   475860 
  129000    1.0063319    -2.416432    -2.416432   -1.2544016   0.06871833    -2.416432    1.1620304   475860 
  130000    1.0054538   -2.4152701   -2.4152701   -1.2542536   0.07152892   -2.4152701    1.1610165   475860 
  131000    1.0046081   -2.4156909   -2.4156909   -1.2556509   0.06995639   -2.4156909    1.1600399   475860 
  132000    1.0044985   -2.4165538   -2.4165538   -1.2566405  0.063675866   -2.4165538    1.1599133   475860 
  133000    1.0047585   -2.4158244   -2.4158244   -1.2556109  0.071791587   -2.4158244    1.1602135   475860 
  134000    1.0061839   -2.4184942   -2.4184942   -1.2566346  0.067598197   -2.4184942    1.1618595   475860 
  135000    1.0059096   -2.4181696   -2.4181696   -1.2566268  0.063280033   -2.4181696    1.1615428   475860 
  136000    1.0039718   -2.4168552   -2.4168552   -1.2575501  0.066047862   -2.4168552    1.1593051   475860 
  137000    1.0042525   -2.4176267   -2.4176267   -1.2579974  0.061304183   -2.4176267    1.1596293   475860 
  138000    1.0051792   -2.4176519   -2.4176519   -1.2569525  0.071867883   -2.4176519    1.1606994   475860 
  139000    1.0062529   -2.4186073   -2.4186073   -1.2566682  0.062075795   -2.4186073    1.1619392   475860 
  140000    1.0058701   -2.4184072   -2.4184072   -1.2569101  0.066075241   -2.4184072    1.1614971   475860 
  141000    1.0041085   -2.4167438   -2.4167438   -1.2572808  0.065891526   -2.4167438     1.159463   475860 
  142000    1.0067656   -2.4186476   -2.4186476   -1.2561164  0.064663555   -2.4186476    1.1625312   475860 
  143000    1.0055043   -2.4170218   -2.4170218   -1.2559471  0.062362738   -2.4170218    1.1610748   475860 
  144000    1.0076352   -2.4193369   -2.4193369   -1.2558016  0.066641045   -2.4193369    1.1635353   475860 
  145000    1.0064826   -2.4190384   -2.4190384   -1.2568341  0.062844176   -2.4190384    1.1622044   475860 
  146000    1.0045396   -2.4164102   -2.4164102   -1.2564494   0.07049813   -2.4164102    1.1599608   475860 
  147000     1.006599   -2.4184543   -2.4184543   -1.2561154  0.071290756   -2.4184543    1.1623388   475860 
  148000    1.0061333   -2.4172671   -2.4172671   -1.2554661  0.072719548   -2.4172671     1.161801   475860 
  149000    1.0067004   -2.4180781   -2.4180781   -1.2556222  0.068935022   -2.4180781    1.1624559   475860 
  150000    1.0048054   -2.4180979   -2.4180979   -1.2578302  0.069516148   -2.4180979    1.1602677   475860 
  151000    1.0044322    -2.418373    -2.418373   -1.2585362  0.069276301    -2.418373    1.1598368   475860 
  152000    1.0045865   -2.4180729   -2.4180729   -1.2580579  0.067206958   -2.4180729     1.160015   475860 
  153000    1.0052124   -2.4178588   -2.4178588    -1.257121  0.071545752   -2.4178588    1.1607377   475860 
  154000    1.0040502   -2.4163516   -2.4163516   -1.2569559  0.074090055   -2.4163516    1.1593957   475860 
  155000      1.00406   -2.4157856   -2.4157856   -1.2563786   0.07633371   -2.4157856     1.159407   475860 
  156000    1.0052791   -2.4174077   -2.4174077    -1.256593  0.067927011   -2.4174077    1.1608147   475860 
  157000    1.0055853   -2.4179567   -2.4179567   -1.2567885  0.066623344   -2.4179567    1.1611682   475860 
  158000    1.0048118   -2.4174885   -2.4174885   -1.2572134  0.070560757   -2.4174885     1.160275   475860 
  159000    1.0052688   -2.4181434   -2.4181434   -1.2573405  0.069233167   -2.4181434    1.1608029   475860 
  160000     1.006321   -2.4192353   -2.4192353   -1.2572175  0.067147527   -2.4192353    1.1620178   475860 
  161000    1.0033669    -2.417293    -2.417293   -1.2586864  0.065732642    -2.417293    1.1586067   475860 
  162000    1.0053065   -2.4180343   -2.4180343   -1.2571879  0.056596686   -2.4180343    1.1608464   475860 
  163000    1.0046133   -2.4172538   -2.4172538   -1.2572079  0.058469836   -2.4172538    1.1600459   475860 
  164000    1.0026684   -2.4159815   -2.4159815   -1.2581815  0.063792347   -2.4159815       1.1578   475860 
  165000    1.0033017   -2.4161049   -2.4161049   -1.2575735  0.067237118   -2.4161049    1.1585314   475860 
  166000    1.0043959   -2.4176191   -2.4176191   -1.2578243  0.062483747   -2.4176191    1.1597948   475860 
  167000    1.0029745   -2.4162511   -2.4162511   -1.2580976  0.063193992   -2.4162511    1.1581535   475860 
  168000     1.003082   -2.4169875   -2.4169875   -1.2587098  0.065927214   -2.4169875    1.1582777   475860 
  169000    1.0034281   -2.4173509   -2.4173509   -1.2586736  0.058098598   -2.4173509    1.1586773   475860 
  170000    1.0035733   -2.4170545   -2.4170545   -1.2582095  0.064331451   -2.4170545     1.158845   475860 
  171000     1.004726   -2.4184305   -2.4184305   -1.2582545  0.066606113   -2.4184305     1.160176   475860 
  172000    1.0035772    -2.415621    -2.415621   -1.2567715  0.075024141    -2.415621    1.1588495   475860 
  173000    1.0049993   -2.4176172   -2.4176172   -1.2571255  0.064325403   -2.4176172    1.1604916   475860 
  174000    1.0035615   -2.4169999   -2.4169999   -1.2581686  0.068480537   -2.4169999    1.1588314   475860 
  175000    1.0043699   -2.4177237   -2.4177237   -1.2579588  0.063789603   -2.4177237    1.1597649   475860 
  176000    1.0038609   -2.4171249   -2.4171249   -1.2579478  0.063951707   -2.4171249    1.1591771   475860 
  177000     1.004491   -2.4182473   -2.4182473   -1.2583426  0.062162323   -2.4182473    1.1599047   475860 
  178000    1.0031892   -2.4171373   -2.4171373   -1.2587359  0.067967911   -2.4171373    1.1584014   475860 
  179000    1.0058842   -2.4200304   -2.4200304    -1.258517  0.066037506   -2.4200304    1.1615134   475860 
  180000    1.0041667   -2.4179043   -2.4179043   -1.2583742  0.065536005   -2.4179043    1.1595302   475860 
  181000    1.0069326   -2.4202944   -2.4202944   -1.2575704  0.069230158   -2.4202944     1.162724   475860 
  182000    1.0055049   -2.4194662   -2.4194662   -1.2583908  0.067854115   -2.4194662    1.1610755   475860 
  183000    1.0062643   -2.4207217   -2.4207217   -1.2587694  0.078691567   -2.4207217    1.1619523   475860 
  184000    1.0064785   -2.4210486   -2.4210486   -1.2588489  0.070630724   -2.4210486    1.1621997   475860 
  185000    1.0071442    -2.421425    -2.421425   -1.2584566   0.07278111    -2.421425    1.1629684   475860 
  186000    1.0055477   -2.4200857   -2.4200857   -1.2589608  0.072357257   -2.4200857    1.1611249   475860 
  187000     1.007186   -2.4207271   -2.4207271   -1.2577105  0.066427576   -2.4207271    1.1630166   475860 
  188000    1.0068033   -2.4212848   -2.4212848     -1.25871   0.07237916   -2.4212848    1.1625748   475860 
  189000    1.0046309   -2.4197288   -2.4197288   -1.2596626  0.063775428   -2.4197288    1.1600662   475860 
  190000    1.0045948   -2.4190231   -2.4190231   -1.2589986   0.07361816   -2.4190231    1.1600246   475860 
  191000    1.0043303   -2.4190079   -2.4190079   -1.2592889  0.071778383   -2.4190079    1.1597191   475860 
  192000     1.005419   -2.4199283   -2.4199283   -1.2589521  0.073999257   -2.4199283    1.1609762   475860 
  193000    1.0053667   -2.4201503   -2.4201503   -1.2592345  0.070967085   -2.4201503    1.1609158   475860 
  194000    1.0043633   -2.4191123   -2.4191123   -1.2593551  0.061709552   -2.4191123    1.1597572   475860 
  195000    1.0049182   -2.4192297   -2.4192297   -1.2588317  0.063904294   -2.4192297     1.160398   475860 
  196000    1.0036341   -2.4186354   -2.4186354   -1.2597202  0.066718834   -2.4186354    1.1589152   475860 
  197000    1.0013679   -2.4166233   -2.4166233   -1.2603249  0.065797077   -2.4166233    1.1562984   475860 
  198000    1.0043457   -2.4189103   -2.4189103   -1.2591735  0.064130459   -2.4189103    1.1597369   475860 
  199000    1.0021151   -2.4173513   -2.4173513   -1.2601901  0.075960332   -2.4173513    1.1571612   475860 
  200000    1.0019335    -2.416732    -2.416732   -1.2597805  0.066112753    -2.416732    1.1569515   475860 
  201000    1.0034606   -2.4190921   -2.4190921   -1.2603772  0.067785959   -2.4190921    1.1587149   475860 
  202000     1.002653   -2.4179417   -2.4179417   -1.2601593  0.067870786   -2.4179417    1.1577823   475860 
  203000    1.0041404   -2.4185283   -2.4185283   -1.2590285  0.069567346   -2.4185283    1.1594998   475860 
  204000    1.0032345   -2.4171901   -2.4171901   -1.2587363  0.065595219   -2.4171901    1.1584538   475860 
  205000    1.0040814   -2.4185291   -2.4185291   -1.2590974  0.062991498   -2.4185291    1.1594317   475860 
  206000    1.0035273   -2.4170102   -2.4170102   -1.2582183  0.061048723   -2.4170102    1.1587918   475860 
  207000    1.0033316   -2.4165727   -2.4165727   -1.2580068  0.069475868   -2.4165727    1.1585659   475860 
  208000    1.0060637   -2.4190925   -2.4190925   -1.2573718  0.062805297   -2.4190925    1.1617207   475860 
  209000    1.0048191    -2.418259    -2.418259   -1.2579755  0.069294542    -2.418259    1.1602835   475860 
  210000    1.0040188   -2.4182169   -2.4182169   -1.2588575  0.066155951   -2.4182169    1.1593595   475860 
  211000    1.0055309   -2.4193935   -2.4193935   -1.2582881  0.066871858   -2.4193935    1.1611054   475860 
  212000    1.0039814   -2.4182341   -2.4182341   -1.2589178  0.064627375   -2.4182341    1.1593163   475860 
  213000    1.0027452   -2.4178612   -2.4178612   -1.2599725   0.06295922   -2.4178612    1.1578888   475860 
  214000    1.0046358   -2.4190818   -2.4190818   -1.2590099  0.066785577   -2.4190818    1.1600719   475860 
  215000    1.0038231   -2.4177671   -2.4177671   -1.2586336  0.067474394   -2.4177671    1.1591334   475860 
  216000     1.005855   -2.4210337   -2.4210337    -1.259554  0.063327037   -2.4210337    1.1614797   475860 
  217000    1.0060302   -2.4199651   -2.4199651   -1.2582831  0.063986453   -2.4199651     1.161682   475860 
  218000    1.0042073   -2.4184545   -2.4184545   -1.2588774  0.068717279   -2.4184545     1.159577   475860 
  219000    1.0043407   -2.4178271   -2.4178271    -1.258096  0.067275027   -2.4178271    1.1597311   475860 
  220000    1.0045879   -2.4180544   -2.4180544   -1.2580378  0.068780679   -2.4180544    1.1600165   475860 
  221000    1.0054727    -2.420237    -2.420237   -1.2591988  0.069888535    -2.420237    1.1610382   475860 
  222000     1.004791   -2.4187193   -2.4187193   -1.2584683  0.074485774   -2.4187193     1.160251   475860 
  223000    1.0040734   -2.4185125   -2.4185125     -1.25909  0.069668907   -2.4185125    1.1594225   475860 
  224000    1.0055367   -2.4198517   -2.4198517   -1.2587395  0.064442566   -2.4198517    1.1611122   475860 
  225000    1.0042981    -2.418496    -2.418496   -1.2588141  0.064912804    -2.418496    1.1596819   475860 
  226000    1.0023656   -2.4156773   -2.4156773   -1.2582269  0.067940315   -2.4156773    1.1574505   475860 
  227000    1.0039607   -2.4183918   -2.4183918   -1.2590995  0.062503016   -2.4183918    1.1592923   475860 
  228000    1.0029147   -2.4175547   -2.4175547   -1.2594702  0.072727125   -2.4175547    1.1580844   475860 
  229000    1.0034339   -2.4180809   -2.4180809   -1.2593969  0.068869837   -2.4180809    1.1586841   475860 
  230000    1.0048263   -2.4189791   -2.4189791   -1.2586872  0.061971939   -2.4189791    1.1602918   475860 
  231000    1.0046593   -2.4174877   -2.4174877   -1.2573887  0.072206041   -2.4174877     1.160099   475860 
  232000    1.0057092   -2.4198526   -2.4198526   -1.2585413  0.070085912   -2.4198526    1.1613113   475860 
  233000    1.0058546   -2.4191521   -2.4191521   -1.2576729  0.068828932   -2.4191521    1.1614792   475860 
  234000    1.0041901   -2.4170856   -2.4170856   -1.2575284   0.07050354   -2.4170856    1.1595572   475860 
  235000    1.0042216   -2.4159631   -2.4159631   -1.2563695   0.06627485   -2.4159631    1.1595936   475860 
  236000    1.0052856   -2.4171422   -2.4171422     -1.25632  0.066301283   -2.4171422    1.1608222   475860 
  237000    1.0039199   -2.4160298   -2.4160298   -1.2567845  0.072432538   -2.4160298    1.1592452   475860 
  238000    1.0044088   -2.4166958   -2.4166958   -1.2568861  0.062729879   -2.4166958    1.1598097   475860 
  239000    1.0057204   -2.4175052   -2.4175052   -1.2561809  0.071358653   -2.4175052    1.1613243   475860 
  240000    1.0042313   -2.4167907   -2.4167907    -1.257186  0.067324176   -2.4167907    1.1596047   475860 
  241000    1.0043217   -2.4164026   -2.4164026   -1.2566935  0.065053096   -2.4164026    1.1597091   475860 
  242000    1.0030864   -2.4149346   -2.4149346   -1.2566518  0.063176175   -2.4149346    1.1582828   475860 
  243000    1.0029141   -2.4151139   -2.4151139   -1.2570302  0.069837476   -2.4151139    1.1580838   475860 
  244000    1.0045805    -2.415981    -2.415981    -1.255973  0.064893698    -2.415981     1.160008   475860 
  245000     1.005334   -2.4168321   -2.4168321   -1.2559541    0.0664157   -2.4168321    1.1608781   475860 
  246000    1.0058021   -2.4159859   -2.4159859   -1.2545673  0.068294649   -2.4159859    1.1614186   475860 
  247000    1.0043995   -2.4152422   -2.4152422   -1.2554432  0.067877914   -2.4152422     1.159799   475860 
  248000    1.0049803   -2.4167919   -2.4167919   -1.2563223   0.07231675   -2.4167919    1.1604697   475860 
  249000    1.0067279   -2.4180718   -2.4180718   -1.2555842  0.069469457   -2.4180718    1.1624877   475860 
  250000    1.0048085   -2.4161267   -2.4161267   -1.2558554  0.070611787   -2.4161267    1.1602713   475860 
  251000    1.0046925   -2.4160043   -2.4160043   -1.2558669  0.063622381   -2.4160043    1.1601374   475860 
  252000    1.0040374   -2.4153975   -2.4153975   -1.2560165  0.066764206   -2.4153975    1.1593809   475860 
  253000    1.0049538   -2.4172298   -2.4172298   -1.2567908  0.072629482   -2.4172298    1.1604391   475860 
  254000    1.0032926   -2.4150178   -2.4150178   -1.2564969  0.069305052   -2.4150178    1.1585208   475860 
  255000    1.0036553   -2.4159169   -2.4159169   -1.2569772  0.070690127   -2.4159169    1.1589397   475860 
  256000    1.0032675     -2.41452     -2.41452   -1.2560282  0.063917971     -2.41452    1.1584918   475860 
  257000    1.0034726   -2.4156864   -2.4156864   -1.2569577  0.062067978   -2.4156864    1.1587287   475860 
  258000      1.00465   -2.4175153   -2.4175153    -1.257427  0.069610587   -2.4175153    1.1600883   475860 
  259000    1.0030591   -2.4164367   -2.4164367   -1.2581856   0.06802224   -2.4164367    1.1582512   475860 
  260000    1.0018378   -2.4143882   -2.4143882   -1.2575472  0.063671371   -2.4143882     1.156841   475860 
  261000    1.0032902   -2.4151269   -2.4151269   -1.2566089  0.067497948   -2.4151269     1.158518   475860 
  262000    1.0056592   -2.4170297   -2.4170297   -1.2557762  0.060685753   -2.4170297    1.1612536   475860 
  263000    1.0057082   -2.4180062   -2.4180062    -1.256696  0.063534957   -2.4180062    1.1613102   475860 
  264000    1.0067384   -2.4186997   -2.4186997      -1.2562  0.073315079   -2.4186997    1.1624997   475860 
  265000    1.0054228    -2.416813    -2.416813   -1.2558323  0.074436202    -2.416813    1.1609807   475860 
  266000    1.0046846   -2.4168601   -2.4168601   -1.2567319  0.071433017   -2.4168601    1.1601282   475860 
  267000    1.0066954   -2.4186287   -2.4186287   -1.2561786  0.064694159   -2.4186287    1.1624501   475860 
  268000    1.0064252   -2.4187091   -2.4187091    -1.256571  0.069109017   -2.4187091    1.1621382   475860 
  269000    1.0044283   -2.4178144   -2.4178144   -1.2579821  0.069655109   -2.4178144    1.1598323   475860 
  270000    1.0054021   -2.4192311   -2.4192311   -1.2582744  0.064983478   -2.4192311    1.1609567   475860 
  271000    1.0039439   -2.4181855   -2.4181855   -1.2589126  0.073856458   -2.4181855    1.1592729   475860 
  272000    1.0053795   -2.4200109   -2.4200109   -1.2590802  0.058976799   -2.4200109    1.1609306   475860 
  273000     1.005379   -2.4208328   -2.4208328   -1.2599028  0.068393577   -2.4208328    1.1609301   475860 
  274000    1.0041627   -2.4192889   -2.4192889   -1.2597634  0.072236373   -2.4192889    1.1595255   475860 
  275000    1.0040552   -2.4188985   -2.4188985    -1.259497  0.068530302   -2.4188985    1.1594014   475860 
  276000    1.0035566   -2.4177168   -2.4177168    -1.258891  0.070434146   -2.4177168    1.1588257   475860 
  277000    1.0066005   -2.4213477   -2.4213477   -1.2590072  0.061664366   -2.4213477    1.1623405   475860 
  278000    1.0045269   -2.4188872   -2.4188872    -1.258941  0.069641526   -2.4188872    1.1599462   475860 
  279000    1.0050581   -2.4190641   -2.4190641   -1.2585046  0.070755702   -2.4190641    1.1605596   475860 
  280000    1.0061111   -2.4191461   -2.4191461   -1.2573706  0.069744076   -2.4191461    1.1617755   475860 
  281000    1.0065504   -2.4206407   -2.4206407    -1.258358  0.070823393   -2.4206407    1.1622827   475860 
  282000    1.0044452   -2.4177593   -2.4177593   -1.2579075  0.071494234   -2.4177593    1.1598518   475860 
  283000    1.0062164   -2.4188362   -2.4188362   -1.2569392  0.066804191   -2.4188362     1.161897   475860 
  284000    1.0084255   -2.4210281   -2.4210281   -1.2565802  0.071832542   -2.4210281    1.1644479   475860 
  285000    1.0059411   -2.4189658   -2.4189658   -1.2573867  0.072018936   -2.4189658    1.1615791   475860 
  286000    1.0063267   -2.4200038   -2.4200038   -1.2579794  0.061592713   -2.4200038    1.1620244   475860 
  287000    1.0040807    -2.416194    -2.416194   -1.2567631  0.075408726    -2.416194    1.1594309   475860 
  288000     1.005289   -2.4185655   -2.4185655   -1.2577393    0.0685799   -2.4185655    1.1608261   475860 
  289000    1.0040892   -2.4174263   -2.4174263   -1.2579856  0.067417375   -2.4174263    1.1594407   475860 
  290000    1.0042234   -2.4170119   -2.4170119   -1.2574162  0.065379197   -2.4170119    1.1595957   475860 
  291000     1.004758   -2.4172518   -2.4172518   -1.2570388  0.070590191   -2.4172518    1.1602129   475860 
  292000    1.0047229   -2.4182067   -2.4182067   -1.2580343  0.069015557   -2.4182067    1.1601724   475860 
  293000    1.0029971   -2.4165349   -2.4165349   -1.2583553  0.069897366   -2.4165349    1.1581796   475860 
  294000    1.0038809   -2.4172438   -2.4172438   -1.2580436  0.068675979   -2.4172438    1.1592002   475860 
  295000    1.0049151   -2.4191482   -2.4191482   -1.2587538  0.062127381   -2.4191482    1.1603944   475860 
  296000    1.0054096   -2.4180327   -2.4180327   -1.2570673  0.064212429   -2.4180327    1.1609654   475860 
  297000     1.003515   -2.4151879   -2.4151879   -1.2564103  0.069621608   -2.4151879    1.1587776   475860 
  298000    1.0058053    -2.417561    -2.417561   -1.2561386  0.071016306    -2.417561    1.1614223   475860 
  299000    1.0054796   -2.4185994   -2.4185994   -1.2575532  0.071090716   -2.4185994    1.1610463   475860 
  300000    1.0055195   -2.4171685   -2.4171685   -1.2560762  0.068308905   -2.4171685    1.1610923   475860 
  301000    1.0058872   -2.4174146   -2.4174146   -1.2558977  0.074577367   -2.4174146    1.1615169   475860 
  302000    1.0072925   -2.4182327   -2.4182327    -1.255093  0.064920196   -2.4182327    1.1631397   475860 
  303000    1.0072774   -2.4186773   -2.4186773   -1.2555551  0.071677355   -2.4186773    1.1631222   475860 
  304000    1.0066234    -2.417923    -2.417923    -1.255556  0.071716708    -2.417923     1.162367   475860 
  305000    1.0063969   -2.4177371   -2.4177371   -1.2556316  0.068137858   -2.4177371    1.1621054   475860 
  306000    1.0056279   -2.4184189   -2.4184189   -1.2572014  0.073411162   -2.4184189    1.1612174   475860 
  307000    1.0060503   -2.4195393   -2.4195393   -1.2578341  0.069324709   -2.4195393    1.1617053   475860 
  308000    1.0044598   -2.4186333   -2.4186333   -1.2587646  0.069349067   -2.4186333    1.1598687   475860 
  309000    1.0052207   -2.4182722   -2.4182722    -1.257525  0.062771942   -2.4182722    1.1607472   475860 
  310000     1.004456   -2.4177039   -2.4177039   -1.2578397  0.071490502   -2.4177039    1.1598642   475860 
  311000    1.0067883   -2.4200902   -2.4200902   -1.2575329  0.066137252   -2.4200902    1.1625573   475860 
  312000    1.0057123   -2.4188597   -2.4188597   -1.2575448  0.063173107   -2.4188597    1.1613149   475860 
  313000    1.0078795   -2.4205993   -2.4205993   -1.2567819  0.060187336   -2.4205993    1.1638174   475860 
  314000    1.0072906   -2.4210363   -2.4210363   -1.2578989  0.073030816   -2.4210363    1.1631374   475860 
  315000    1.0069205   -2.4198796   -2.4198796   -1.2571695  0.064493299   -2.4198796    1.1627101   475860 
  316000     1.006854   -2.4189207   -2.4189207   -1.2562874   0.07243381   -2.4189207    1.1626332   475860 
  317000    1.0063374   -2.4191535   -2.4191535   -1.2571168  0.070966853   -2.4191535    1.1620368   475860 
  318000    1.0046315   -2.4166628   -2.4166628   -1.2565959  0.071179253   -2.4166628    1.1600669   475860 
  319000    1.0076905   -2.4194071   -2.4194071    -1.255808  0.068872483   -2.4194071    1.1635992   475860 
  320000    1.0074728   -2.4194475   -2.4194475   -1.2560997  0.070094294   -2.4194475    1.1633478   475860 
  321000     1.007875   -2.4213759   -2.4213759   -1.2575637  0.066747802   -2.4213759    1.1638122   475860 
  322000    1.0078729   -2.4203403   -2.4203403   -1.2565306  0.059961145   -2.4203403    1.1638098   475860 
  323000    1.0076685   -2.4195278   -2.4195278    -1.255954  0.071370962   -2.4195278    1.1635738   475860 
  324000    1.0066472   -2.4183897   -2.4183897   -1.2559952   0.07066078   -2.4183897    1.1623945   475860 
  325000    1.0065758   -2.4181393   -2.4181393   -1.2558274  0.076802508   -2.4181393     1.162312   475860 
  326000    1.0072274   -2.4187696   -2.4187696   -1.2557052  0.068601622   -2.4187696    1.1630644   475860 
  327000    1.0070649   -2.4199711   -2.4199711   -1.2570943  0.067645356   -2.4199711    1.1628768   475860 
  328000    1.0062763   -2.4175205   -2.4175205   -1.2555543  0.071429556   -2.4175205    1.1619662   475860 
  329000    1.0070955    -2.417743    -2.417743   -1.2548309  0.066443471    -2.417743    1.1629121   475860 
  330000    1.0058733   -2.4176092   -2.4176092   -1.2561084  0.065904981   -2.4176092    1.1615008   475860 
  331000    1.0053618    -2.417938    -2.417938   -1.2570278  0.062044917    -2.417938    1.1609102   475860 
  332000    1.0046118   -2.4161717   -2.4161717   -1.2561276   0.06704946   -2.4161717    1.1600441   475860 
  333000    1.0060807   -2.4179781   -2.4179781   -1.2562378  0.069030543   -2.4179781    1.1617403   475860 
  334000    1.0049491   -2.4168668   -2.4168668   -1.2564332  0.060693051   -2.4168668    1.1604337   475860 
  335000    1.0071385   -2.4187504   -2.4187504   -1.2557886  0.063430583   -2.4187504    1.1629618   475860 
  336000    1.0074147   -2.4175998   -2.4175998   -1.2543191  0.068226923   -2.4175998    1.1632807   475860 
  337000    1.0078799   -2.4184244   -2.4184244   -1.2546065  0.059261283   -2.4184244    1.1638179   475860 
  338000    1.0049679   -2.4150513   -2.4150513    -1.254596  0.066401221   -2.4150513    1.1604553   475860 
  339000    1.0056837   -2.4154397   -2.4154397   -1.2541578    0.0665854   -2.4154397    1.1612819   475860 
  340000    1.0044978   -2.4152693   -2.4152693   -1.2553568   0.07019669   -2.4152693    1.1599125   475860 
  341000    1.0063038   -2.4161989   -2.4161989    -1.254201  0.074191017   -2.4161989    1.1619979   475860 
  342000    1.0067652   -2.4169909   -2.4169909   -1.2544602  0.062970238   -2.4169909    1.1625307   475860 
  343000    1.0053297   -2.4154734   -2.4154734   -1.2546002  0.066662623   -2.4154734    1.1608732   475860 
  344000    1.0052849   -2.4151861   -2.4151861   -1.2543647  0.059099893   -2.4151861    1.1608214   475860 
  345000    1.0051448   -2.4141491   -2.4141491   -1.2534894   0.06987307   -2.4141491    1.1606596   475860 
  346000    1.0040373   -2.4131676   -2.4131676   -1.2537868  0.067429843   -2.4131676    1.1593808   475860 
  347000    1.0050114   -2.4146477   -2.4146477   -1.2541421  0.066978584   -2.4146477    1.1605056   475860 
  348000    1.0058723    -2.415599    -2.415599   -1.2540993   0.06662412    -2.415599    1.1614997   475860 
  349000    1.0069157   -2.4174598   -2.4174598   -1.2547554  0.060872638   -2.4174598    1.1627045   475860 
  350000    1.0058053   -2.4165518   -2.4165518   -1.2551294  0.066679922   -2.4165518    1.1614223   475860 
  351000    1.0042413   -2.4155101   -2.4155101   -1.2558938  0.070171265   -2.4155101    1.1596163   475860 
  352000    1.0053995   -2.4154309   -2.4154309   -1.2544772   0.06731448   -2.4154309    1.1609537   475860 
  353000    1.0055213   -2.4150195   -2.4150195   -1.2539251  0.067989476   -2.4150195    1.1610944   475860 
  354000    1.0050082   -2.4151827   -2.4151827   -1.2546808   0.06441871   -2.4151827    1.1605019   475860 
  355000    1.0038205   -2.4148333   -2.4148333   -1.2557028  0.069255319   -2.4148333    1.1591305   475860 
  356000    1.0044584   -2.4159249   -2.4159249   -1.2560579  0.066844016   -2.4159249    1.1598671   475860 
  357000    1.0033142    -2.414983    -2.414983   -1.2564372  0.068059873    -2.414983    1.1585458   475860 
  358000     1.005404   -2.4167991   -2.4167991   -1.2558401  0.072131923   -2.4167991    1.1609589   475860 
  359000    1.0058573   -2.4163057   -2.4163057   -1.2548234  0.071892439   -2.4163057    1.1614824   475860 
  360000    1.0065241   -2.4177514   -2.4177514   -1.2554991  0.066357808   -2.4177514    1.1622523   475860 
  361000    1.0072885   -2.4184029   -2.4184029   -1.2552679   0.07219285   -2.4184029     1.163135   475860 
  362000    1.0040383   -2.4165858   -2.4165858   -1.2572039   0.06922071   -2.4165858    1.1593819   475860 
  363000    1.0053165   -2.4178141   -2.4178141   -1.2569562  0.070252802   -2.4178141    1.1608578   475860 
  364000    1.0043889   -2.4165195   -2.4165195   -1.2567327  0.071950699   -2.4165195    1.1597867   475860 
  365000    1.0064233   -2.4190497   -2.4190497   -1.2569138  0.072009239   -2.4190497     1.162136   475860 
  366000    1.0060533   -2.4189521   -2.4189521   -1.2572434  0.069938379   -2.4189521    1.1617087   475860 
  367000    1.0050554   -2.4169769   -2.4169769   -1.2564205   0.07385632   -2.4169769    1.1605564   475860 
  368000    1.0074319   -2.4206137   -2.4206137   -1.2573131  0.069799668   -2.4206137    1.1633005   475860 
  369000    1.0047449   -2.4174239   -2.4174239   -1.2572261  0.069872325   -2.4174239    1.1601978   475860 
  370000    1.0068858   -2.4201787   -2.4201787   -1.2575087  0.062229447   -2.4201787      1.16267   475860 
  371000    1.0052092   -2.4181655   -2.4181655   -1.2574315  0.067818451   -2.4181655     1.160734   475860 
  372000    1.0035792   -2.4182492   -2.4182492   -1.2593974  0.066247213   -2.4182492    1.1588518   475860 
  373000    1.0040292   -2.4191484   -2.4191484    -1.259777  0.066714279   -2.4191484    1.1593714   475860 
  374000    1.0056218   -2.4204889   -2.4204889   -1.2592785  0.066378005   -2.4204889    1.1612104   475860 
  375000    1.0067016   -2.4220369   -2.4220369   -1.2595796  0.066921685   -2.4220369    1.1624573   475860 
  376000    1.0069448   -2.4217798   -2.4217798   -1.2590416  0.066954699   -2.4217798    1.1627381   475860 
  377000    1.0068601   -2.4218711   -2.4218711   -1.2592308  0.065450404   -2.4218711    1.1626403   475860 
  378000    1.0039994   -2.4177613   -2.4177613   -1.2584243  0.070539461   -2.4177613     1.159337   475860 
  379000    1.0049067   -2.4175344   -2.4175344   -1.2571497  0.073193145   -2.4175344    1.1603847   475860 
  380000    1.0057819   -2.4186369   -2.4186369   -1.2572416  0.072993856   -2.4186369    1.1613953   475860 
  381000    1.0074749   -2.4199361   -2.4199361   -1.2565859   0.07281524   -2.4199361    1.1633502   475860 
  382000     1.005797   -2.4178826   -2.4178826   -1.2564698  0.067251711   -2.4178826    1.1614127   475860 
  383000    1.0047548   -2.4175691   -2.4175691   -1.2573598  0.072805019   -2.4175691    1.1602092   475860 
  384000    1.0045571   -2.4177712   -2.4177712   -1.2577901  0.065713115   -2.4177712     1.159981   475860 
  385000    1.0068215   -2.4203823   -2.4203823   -1.2577865  0.064860952   -2.4203823    1.1625958   475860 
  386000    1.0063328   -2.4189586   -2.4189586   -1.2569272  0.067670329   -2.4189586    1.1620314   475860 
  387000    1.0061896   -2.4178454   -2.4178454   -1.2559793  0.072104912   -2.4178454    1.1618661   475860 
  388000      1.00461   -2.4167749   -2.4167749   -1.2567328    0.0769135   -2.4167749    1.1600421   475860 
  389000    1.0045493   -2.4174734   -2.4174734   -1.2575014  0.072151995   -2.4174734     1.159972   475860 
  390000    1.0050374   -2.4175333   -2.4175333   -1.2569977  0.057578388   -2.4175333    1.1605356   475860 
  391000    1.0043086   -2.4171023   -2.4171023   -1.2574083  0.059976343   -2.4171023     1.159694   475860 
  392000    1.0036271    -2.415879    -2.415879   -1.2569718  0.058721272    -2.415879    1.1589072   475860 
  393000    1.0051126   -2.4170187   -2.4170187   -1.2563963  0.077508746   -2.4170187    1.1606224   475860 
  394000    1.0049368    -2.417323    -2.417323   -1.2569036  0.064683578    -2.417323    1.1604195   475860 
  395000    1.0042075   -2.4173874   -2.4173874   -1.2578101   0.06139223   -2.4173874    1.1595773   475860 
  396000    1.0040618    -2.416408    -2.416408   -1.2569989  0.064979138    -2.416408    1.1594091   475860 
  397000     1.003727   -2.4154692   -2.4154692   -1.2564467  0.065088175   -2.4154692    1.1590225   475860 
  398000    1.0053649   -2.4166198   -2.4166198    -1.255706  0.064200721   -2.4166198    1.1609138   475860 
  399000    1.0031717   -2.4137513   -2.4137513     -1.25537  0.061955897   -2.4137513    1.1583813   475860 
  400000    1.0039398   -2.4149198   -2.4149198   -1.2556515  0.069039967   -2.4149198    1.1592682   475860 
  401000    1.0039249    -2.413844    -2.413844   -1.2545931  0.059391711    -2.413844    1.1592509   475860 
  402000    1.0029634   -2.4129038   -2.4129038   -1.2547631  0.064964483   -2.4129038    1.1581407   475860 
  403000    1.0048716   -2.4143579   -2.4143579   -1.2540138  0.072529986   -2.4143579    1.1603441   475860 
  404000    1.0075449   -2.4166119   -2.4166119   -1.2531809  0.068296703   -2.4166119    1.1634311   475860 
  405000    1.0059119   -2.4143843   -2.4143843   -1.2528389   0.06930259   -2.4143843    1.1615454   475860 
  406000    1.0078459   -2.4164087   -2.4164087     -1.25263  0.066793451   -2.4164087    1.1637787   475860 
  407000    1.0038011     -2.41248     -2.41248    -1.253372  0.073543288     -2.41248     1.159108   475860 
  408000    1.0038403   -2.4131576   -2.4131576   -1.2540042  0.069738193   -2.4131576    1.1591533   475860 
  409000    1.0041184   -2.4135992   -2.4135992   -1.2541249   0.06370764   -2.4135992    1.1594744   475860 
  410000    1.0037618   -2.4139978   -2.4139978   -1.2549352  0.064974343   -2.4139978    1.1590626   475860 
  411000    1.0031663   -2.4132708   -2.4132708   -1.2548957  0.065330619   -2.4132708     1.158375   475860 
  412000    1.0050281   -2.4162703   -2.4162703   -1.2557454  0.061246966   -2.4162703    1.1605249   475860 
  413000    1.0029152    -2.414064    -2.414064   -1.2559789  0.055309608    -2.414064    1.1580851   475860 
  414000    1.0053803   -2.4162196   -2.4162196   -1.2552881  0.060913013   -2.4162196    1.1609316   475860 
  415000    1.0058537   -2.4178641   -2.4178641   -1.2563859   0.06351048   -2.4178641    1.1614783   475860 
  416000    1.0064543   -2.4188128   -2.4188128    -1.256641  0.067755078   -2.4188128    1.1621718   475860 
  417000    1.0055394   -2.4179713   -2.4179713   -1.2568561   0.06816764   -2.4179713    1.1611152   475860 
  418000    1.0063721    -2.418274    -2.418274   -1.2561972  0.068354534    -2.418274    1.1620768   475860 
  419000     1.003448   -2.4144577   -2.4144577   -1.2557574  0.065292967   -2.4144577    1.1587003   475860 
  420000    1.0067715   -2.4175459   -2.4175459   -1.2550079  0.068586983   -2.4175459     1.162538   475860 
  421000    1.0047262   -2.4156098   -2.4156098   -1.2554335  0.068946422   -2.4156098    1.1601762   475860 
  422000    1.0063064   -2.4185914   -2.4185914   -1.2565905  0.066630191   -2.4185914     1.162001   475860 
  423000    1.0058595    -2.417789    -2.417789    -1.256304  0.069485529    -2.417789    1.1614849   475860 
  424000    1.0085333   -2.4220612   -2.4220612   -1.2574889   0.06600143   -2.4220612    1.1645724   475860 
  425000    1.0059297   -2.4199816   -2.4199816   -1.2584156  0.067751188   -2.4199816     1.161566   475860 
  426000    1.0077265   -2.4213957   -2.4213957    -1.257755  0.065931358   -2.4213957    1.1636407   475860 
  427000    1.0054126   -2.4179057   -2.4179057   -1.2569368  0.076421662   -2.4179057    1.1609689   475860 
  428000    1.0068858   -2.4194758   -2.4194758   -1.2568058  0.072627975   -2.4194758      1.16267   475860 
  429000    1.0057257   -2.4190921   -2.4190921   -1.2577617  0.074237392   -2.4190921    1.1613304   475860 
  430000    1.0039386    -2.418329    -2.418329   -1.2590622  0.065972216    -2.418329    1.1592668   475860 
  431000     1.005934   -2.4204912   -2.4204912   -1.2589202  0.065418376   -2.4204912     1.161571   475860 
  432000    1.0045467   -2.4194237   -2.4194237   -1.2594547  0.067155324   -2.4194237     1.159969   475860 
  433000    1.0052964   -2.4198336   -2.4198336   -1.2589989  0.072552101   -2.4198336    1.1608347   475860 
  434000    1.0062181   -2.4214779   -2.4214779   -1.2595789  0.070141434   -2.4214779     1.161899   475860 
  435000    1.0058488   -2.4210305   -2.4210305    -1.259558  0.067624473   -2.4210305    1.1614725   475860 
  436000    1.0064472   -2.4225937   -2.4225937   -1.2604302  0.075726682   -2.4225937    1.1621635   475860 
  437000    1.0050241   -2.4200153   -2.4200153   -1.2594951  0.070554736   -2.4200153    1.1605202   475860 
  438000    1.0047709   -2.4193728   -2.4193728   -1.2591448  0.066834535   -2.4193728    1.1602279   475860 
  439000    1.0070288   -2.4214788   -2.4214788   -1.2586437  0.069224328   -2.4214788    1.1628351   475860 
  440000    1.0070598   -2.4211955   -2.4211955   -1.2583245  0.061811774   -2.4211955    1.1628709   475860 
  441000    1.0061872   -2.4198454   -2.4198454   -1.2579821  0.067889319   -2.4198454    1.1618633   475860 
  442000    1.0046879   -2.4186234   -2.4186234   -1.2584913  0.074003962   -2.4186234    1.1601321   475860 
  443000    1.0052179   -2.4195266   -2.4195266   -1.2587826  0.069921208   -2.4195266    1.1607441   475860 
  444000    1.0029195   -2.4170815   -2.4170815   -1.2589914  0.069932046   -2.4170815    1.1580901   475860 
  445000    1.0043051   -2.4175356   -2.4175356   -1.2578455  0.060504307   -2.4175356    1.1596901   475860 
  446000    1.0034222   -2.4178796   -2.4178796   -1.2592091  0.060685241   -2.4178796    1.1586705   475860 
  447000      1.00376   -2.4177338   -2.4177338   -1.2586732  0.067303076   -2.4177338    1.1590606   475860 
  448000    1.0022212   -2.4169458   -2.4169458   -1.2596621  0.072833474   -2.4169458    1.1572836   475860 
  449000    1.0043202   -2.4193128   -2.4193128   -1.2596054  0.066865675   -2.4193128    1.1597074   475860 
  450000    1.0043057   -2.4183831   -2.4183831   -1.2586925  0.069361539   -2.4183831    1.1596907   475860 
  451000    1.0044757   -2.4185773   -2.4185773   -1.2586903  0.066043934   -2.4185773     1.159887   475860 
  452000    1.0042966    -2.417856    -2.417856   -1.2581758  0.067383045    -2.417856    1.1596802   475860 
  453000    1.0047268   -2.4176435   -2.4176435   -1.2574665  0.073986106   -2.4176435     1.160177   475860 
  454000    1.0044362   -2.4178881   -2.4178881   -1.2580466  0.066398397   -2.4178881    1.1598414   475860 
  455000    1.0055517    -2.419146    -2.419146   -1.2580165  0.058188153    -2.419146    1.1611295   475860 
  456000     1.005646   -2.4179078   -2.4179078   -1.2566695  0.058528233   -2.4179078    1.1612383   475860 
  457000    1.0046357   -2.4169604   -2.4169604   -1.2568886  0.063342761   -2.4169604    1.1600718   475860 
  458000    1.0048815   -2.4163548   -2.4163548   -1.2559992  0.065137322   -2.4163548    1.1603556   475860 
  459000    1.0064377   -2.4189834   -2.4189834   -1.2568309  0.061783008   -2.4189834    1.1621525   475860 
  460000    1.0054098   -2.4168395   -2.4168395   -1.2558738  0.066880929   -2.4168395    1.1609656   475860 
  461000    1.0062893   -2.4182192   -2.4182192   -1.2562379  0.067221029   -2.4182192    1.1619812   475860 
  462000    1.0068653    -2.418385    -2.418385   -1.2557386  0.063811233    -2.418385    1.1626463   475860 
  463000     1.008407   -2.4199677   -2.4199677   -1.2555411  0.064822834   -2.4199677    1.1644266   475860 
  464000    1.0052847   -2.4165071   -2.4165071   -1.2556859   0.07111704   -2.4165071    1.1608212   475860 
  465000    1.0060303   -2.4166645   -2.4166645   -1.2549824  0.072132015   -2.4166645    1.1616821   475860 
  466000    1.0058434   -2.4169517   -2.4169517   -1.2554854   0.06905778   -2.4169517    1.1614663   475860 
  467000    1.0077902   -2.4186885   -2.4186885   -1.2549742  0.069842894   -2.4186885    1.1637143   475860 
  468000    1.0089511    -2.419764    -2.419764   -1.2547092  0.069693532    -2.419764    1.1650548   475860 
  469000    1.0064033   -2.4176186   -2.4176186   -1.2555057  0.067498583   -2.4176186    1.1621129   475860 
  470000    1.0073953   -2.4187043   -2.4187043    -1.255446  0.061495415   -2.4187043    1.1632583   475860 
  471000    1.0047555   -2.4159441   -2.4159441    -1.255734  0.074314106   -2.4159441    1.1602101   475860 
  472000     1.004159    -2.416568    -2.416568   -1.2570467  0.064063256    -2.416568    1.1595213   475860 
  473000    1.0063892   -2.4186654   -2.4186654   -1.2565688   0.06954395   -2.4186654    1.1620966   475860 
  474000    1.0048492   -2.4170727   -2.4170727   -1.2567544  0.070962846   -2.4170727    1.1603183   475860 
  475000    1.0054531   -2.4175657   -2.4175657   -1.2565501   0.06534061   -2.4175657    1.1610156   475860 
  476000    1.0056895    -2.418428    -2.418428   -1.2571395  0.065934478    -2.418428    1.1612886   475860 
  477000    1.0051047   -2.4173162   -2.4173162   -1.2567029  0.066777148   -2.4173162    1.1606133   475860 
  478000    1.0038493   -2.4160895   -2.4160895   -1.2569258  0.067776209   -2.4160895    1.1591637   475860 
  479000    1.0043907   -2.4181597   -2.4181597   -1.2583709  0.064639669   -2.4181597    1.1597888   475860 
  480000    1.0044645   -2.4165173   -2.4165173   -1.2566433  0.067178575   -2.4165173     1.159874   475860 
  481000    1.0048339    -2.417688    -2.417688   -1.2573874  0.065127939    -2.417688    1.1603006   475860 
  482000    1.0055711   -2.4176404   -2.4176404   -1.2564885  0.068747617   -2.4176404    1.1611519   475860 
  483000    1.0064939   -2.4187714   -2.4187714    -1.256554  0.066365467   -2.4187714    1.1622174   475860 
  484000     1.004401   -2.4167782   -2.4167782   -1.2569774  0.068759538   -2.4167782    1.1598008   475860 
  485000    1.0058553   -2.4190682   -2.4190682   -1.2575882  0.061550108   -2.4190682      1.16148   475860 
  486000    1.0053394   -2.4180175   -2.4180175   -1.2571332  0.066537538   -2.4180175    1.1608843   475860 
  487000    1.0057878   -2.4190779   -2.4190779   -1.2576758  0.066111751   -2.4190779    1.1614021   475860 
  488000    1.0039389   -2.4175116   -2.4175116   -1.2582444  0.066358666   -2.4175116    1.1592672   475860 
  489000    1.0037833   -2.4180782   -2.4180782   -1.2589907  0.064626052   -2.4180782    1.1590875   475860 
  490000    1.0050729   -2.4175132   -2.4175132   -1.2569366   0.07235276   -2.4175132    1.1605766   475860 
  491000    1.0046926   -2.4169114   -2.4169114   -1.2567739  0.066601466   -2.4169114    1.1601375   475860 
  492000    1.0065989   -2.4192879   -2.4192879   -1.2569491  0.071877698   -2.4192879    1.1623387   475860 
  493000    1.0068311   -2.4189239   -2.4189239    -1.256317  0.067672488   -2.4189239    1.1626069   475860 
  494000    1.0067272   -2.4189091   -2.4189091   -1.2564223  0.071272028   -2.4189091    1.1624868   475860 
  495000    1.0060067   -2.4177327   -2.4177327   -1.2560779  0.066686094   -2.4177327    1.1616548   475860 
  496000    1.0068788   -2.4186642   -2.4186642   -1.2560023  0.072987748   -2.4186642    1.1626619   475860 
  497000    1.0069816   -2.4182295   -2.4182295   -1.2554488   0.07416764   -2.4182295    1.1627806   475860 
  498000    1.0087163    -2.419942    -2.419942   -1.2551584  0.068393549    -2.419942    1.1647837   475860 
  499000    1.0074361   -2.4186573   -2.4186573   -1.2553519   0.06775841   -2.4186573    1.1633055   475860 
  500000    1.0065136   -2.4181842   -2.4181842   -1.2559441  0.063888098   -2.4181842    1.1622401   475860 
  501000    1.0063521    -2.419774    -2.419774   -1.2577203  0.064735835    -2.419774    1.1620537   475860 
  502000    1.0059814   -2.4195099   -2.4195099   -1.2578843  0.058227694   -2.4195099    1.1616256   475860 
  503000    1.0064184   -2.4194843   -2.4194843    -1.257354  0.065266224   -2.4194843    1.1621303   475860 
  504000    1.0057534   -2.4178154   -2.4178154   -1.2564531  0.062931757   -2.4178154    1.1613624   475860 
  505000    1.0057061   -2.4177012   -2.4177012   -1.2563934  0.065329441   -2.4177012    1.1613078   475860 
  506000    1.0045941   -2.4171306   -2.4171306   -1.2571069  0.066562209   -2.4171306    1.1600237   475860 
  507000    1.0060737   -2.4175914   -2.4175914   -1.2558592  0.064572885   -2.4175914    1.1617322   475860 
  508000    1.0057284   -2.4183349   -2.4183349   -1.2570013  0.065274151   -2.4183349    1.1613336   475860 
  509000    1.0057357   -2.4175981   -2.4175981   -1.2562562  0.068057161   -2.4175981    1.1613419   475860 
  510000    1.0056581   -2.4178286   -2.4178286   -1.2565763  0.069524077   -2.4178286    1.1612523   475860 
  511000    1.0057697   -2.4178927   -2.4178927   -1.2565115  0.072041006   -2.4178927    1.1613812   475860 
  512000    1.0043735   -2.4164649   -2.4164649   -1.2566959  0.068238281   -2.4164649     1.159769   475860 
  513000    1.0048815   -2.4167182   -2.4167182   -1.2563626  0.067004066   -2.4167182    1.1603556   475860 
  514000    1.0056683    -2.418559    -2.418559   -1.2572949  0.063011402    -2.418559    1.1612641   475860 
  515000    1.0057381   -2.4178986   -2.4178986   -1.2565539   0.06176642   -2.4178986    1.1613447   475860 
  516000    1.0064138   -2.4181353   -2.4181353   -1.2560103  0.072904632   -2.4181353    1.1621249   475860 
  517000    1.0055311   -2.4174182   -2.4174182   -1.2563125  0.067274644   -2.4174182    1.1611057   475860 
  518000    1.0041587   -2.4159447   -2.4159447   -1.2564238  0.071776225   -2.4159447    1.1595209   475860 
  519000    1.0047214   -2.4157894   -2.4157894   -1.2556187   0.07240512   -2.4157894    1.1601707   475860 
  520000    1.0063004   -2.4178396   -2.4178396   -1.2558456  0.066202508   -2.4178396     1.161994   475860 
  521000    1.0034754   -2.4149194   -2.4149194   -1.2561875  0.061764404   -2.4149194    1.1587319   475860 
  522000    1.0042711   -2.4151684   -2.4151684   -1.2555176  0.070849541   -2.4151684    1.1596508   475860 
  523000      1.00597   -2.4166669   -2.4166669   -1.2550543  0.071822554   -2.4166669    1.1616125   475860 
  524000    1.0051155   -2.4156767   -2.4156767   -1.2550509  0.063325252   -2.4156767    1.1606258   475860 
  525000    1.0064239   -2.4158489   -2.4158489   -1.2537123  0.066250118   -2.4158489    1.1621366   475860 
  526000    1.0057046   -2.4163983   -2.4163983   -1.2550922  0.066730003   -2.4163983    1.1613061   475860 
  527000    1.0060345   -2.4168413   -2.4168413   -1.2551543  0.063470517   -2.4168413     1.161687   475860 
  528000    1.0049797   -2.4165752   -2.4165752   -1.2561062  0.065454853   -2.4165752     1.160469   475860 
  529000    1.0041222   -2.4155297   -2.4155297   -1.2560509  0.071322435   -2.4155297    1.1594788   475860 
  530000    1.0015943   -2.4134009   -2.4134009   -1.2568411     0.067642   -2.4134009    1.1565598   475860 
  531000    1.0039488   -2.4147737   -2.4147737    -1.255495  0.066646572   -2.4147737    1.1592786   475860 
  532000    1.0035916    -2.415452    -2.415452   -1.2565858  0.062185862    -2.415452    1.1588662   475860 
  533000    1.0040398    -2.415502    -2.415502   -1.2561184  0.072990186    -2.415502    1.1593836   475860 
  534000    1.0029715   -2.4147295   -2.4147295   -1.2565795  0.066107233   -2.4147295      1.15815   475860 
  535000    1.0038169   -2.4163122   -2.4163122    -1.257186  0.063467788   -2.4163122    1.1591262   475860 
  536000    1.0029908   -2.4142044   -2.4142044   -1.2560321  0.064553272   -2.4142044    1.1581723   475860 
  537000    1.0030265   -2.4157477   -2.4157477   -1.2575342  0.062641567   -2.4157477    1.1582135   475860 
  538000    1.0046652   -2.4163356   -2.4163356   -1.2562298  0.066501408   -2.4163356    1.1601058   475860 
  539000     1.003557   -2.4167059   -2.4167059   -1.2578797  0.063329657   -2.4167059    1.1588262   475860 
  540000    1.0012845   -2.4144172   -2.4144172   -1.2582151  0.071326166   -2.4144172     1.156202   475860 
  541000    1.0050793   -2.4176365   -2.4176365   -1.2570525  0.065114469   -2.4176365    1.1605839   475860 
  542000    1.0037529   -2.4167847   -2.4167847   -1.2577323  0.064660794   -2.4167847    1.1590524   475860 
  543000    1.0049957   -2.4181484   -2.4181484    -1.257661  0.065784934   -2.4181484    1.1604874   475860 
  544000    1.0033869   -2.4182101   -2.4182101   -1.2595804   0.06527972   -2.4182101    1.1586297   475860 
  545000    1.0050896   -2.4189854   -2.4189854   -1.2583895  0.065606676   -2.4189854    1.1605958   475860 
  546000    1.0059219   -2.4197192   -2.4197192   -1.2581622  0.066661873   -2.4197192    1.1615569   475860 
  547000     1.004666   -2.4188088   -2.4188088   -1.2587021  0.067768096   -2.4188088    1.1601067   475860 
  548000    1.0055762   -2.4193404   -2.4193404   -1.2581826  0.067114349   -2.4193404    1.1611578   475860 
  549000    1.0051043   -2.4188088   -2.4188088    -1.258196  0.063219031   -2.4188088    1.1606129   475860 
  550000    1.0045825   -2.4188061   -2.4188061   -1.2587958  0.065861768   -2.4188061    1.1600103   475860 
  551000      1.00505   -2.4195386   -2.4195386   -1.2589885  0.069610096   -2.4195386    1.1605502   475860 
  552000    1.0048664   -2.4203147   -2.4203147   -1.2599766  0.063540524   -2.4203147    1.1603382   475860 
  553000    1.0051716   -2.4194389   -2.4194389   -1.2587483  0.069010333   -2.4194389    1.1606906   475860 
  554000    1.0063284   -2.4201848   -2.4201848   -1.2581585  0.067219069   -2.4201848    1.1620264   475860 
  555000    1.0051247   -2.4196762   -2.4196762   -1.2590398  0.068427632   -2.4196762    1.1606364   475860 
  556000    1.0050207   -2.4193763   -2.4193763   -1.2588599  0.062954622   -2.4193763    1.1605164   475860 
  557000    1.0041299   -2.4191372   -2.4191372   -1.2596494  0.070922268   -2.4191372    1.1594877   475860 
  558000    1.0044596    -2.419707    -2.419707   -1.2598385  0.059725026    -2.419707    1.1598684   475860 
  559000    1.0058638   -2.4207009   -2.4207009    -1.259211  0.062540292   -2.4207009    1.1614899   475860 
  560000    1.0055865   -2.4196531   -2.4196531   -1.2584834  0.062601614   -2.4196531    1.1611697   475860 
  561000    1.0054738   -2.4203786   -2.4203786   -1.2593391  0.064887874   -2.4203786    1.1610395   475860 
  562000    1.0056174   -2.4201028   -2.4201028   -1.2588974  0.068070875   -2.4201028    1.1612054   475860 
  563000    1.0052269   -2.4194627   -2.4194627   -1.2587083  0.073688408   -2.4194627    1.1607544   475860 
  564000    1.0050618   -2.4193888   -2.4193888    -1.258825  0.065663744   -2.4193888    1.1605638   475860 
  565000    1.0052787   -2.4188432   -2.4188432    -1.258029  0.071447347   -2.4188432    1.1608142   475860 
  566000    1.0064577   -2.4183361   -2.4183361   -1.2561605  0.071465716   -2.4183361    1.1621757   475860 
  567000    1.0057524   -2.4182568   -2.4182568   -1.2568956  0.066122402   -2.4182568    1.1613613   475860 
  568000    1.0080596   -2.4198523   -2.4198523   -1.2558269  0.070229149   -2.4198523    1.1640254   475860 
  569000    1.0057338   -2.4184207   -2.4184207    -1.257081   0.06600537   -2.4184207    1.1613398   475860 
  570000    1.0041539    -2.416836    -2.416836   -1.2573206   0.07883666    -2.416836    1.1595154   475860 
  571000    1.0041762   -2.4170765   -2.4170765   -1.2575353  0.065117806   -2.4170765    1.1595412   475860 
  572000    1.0040508   -2.4176957   -2.4176957   -1.2582993  0.068319114   -2.4176957    1.1593964   475860 
  573000      1.00328   -2.4179597   -2.4179597   -1.2594534  0.072738505   -2.4179597    1.1585063   475860 
  574000    1.0024552   -2.4173793   -2.4173793   -1.2598254  0.070213871   -2.4173793    1.1575539   475860 
  575000    1.0022868   -2.4165428   -2.4165428   -1.2591833  0.065307074   -2.4165428    1.1573594   475860 
  576000     1.003863   -2.4173222   -2.4173222   -1.2581427   0.06500092   -2.4173222    1.1591795   475860 
  577000    1.0051455   -2.4190422   -2.4190422   -1.2583818  0.068412614   -2.4190422    1.1606604   475860 
  578000    1.0040827   -2.4173972   -2.4173972    -1.257964  0.066075062   -2.4173972    1.1594332   475860 
  579000    1.0056797   -2.4184491   -2.4184491   -1.2571718   0.06920982   -2.4184491    1.1612773   475860 
  580000    1.0044551   -2.4175105   -2.4175105   -1.2576474  0.068107179   -2.4175105    1.1598632   475860 
  581000    1.0060334   -2.4193818   -2.4193818   -1.2576961  0.059885636   -2.4193818    1.1616857   475860 
  582000    1.0050195   -2.4174218   -2.4174218   -1.2569068  0.067880521   -2.4174218     1.160515   475860 
  583000    1.0036018   -2.4161974   -2.4161974   -1.2573195   0.06297847   -2.4161974    1.1588779   475860 
  584000    1.0027004   -2.4151152   -2.4151152   -1.2572781  0.066452771   -2.4151152    1.1578371   475860 
  585000    1.0037474    -2.416449    -2.416449    -1.257403  0.059863401    -2.416449     1.159046   475860 
  586000    1.0043994   -2.4168833   -2.4168833   -1.2570844  0.071667835   -2.4168833    1.1597989   475860 
  587000    1.0046206   -2.4173968   -2.4173968   -1.2573425  0.071782454   -2.4173968    1.1600543   475860 
  588000    1.0046831   -2.4184493   -2.4184493   -1.2583229  0.074409517   -2.4184493    1.1601265   475860 
  589000    1.0053795   -2.4193865   -2.4193865   -1.2584559  0.065207701   -2.4193865    1.1609306   475860 
  590000      1.00378   -2.4181413   -2.4181413   -1.2590577   0.06420042   -2.4181413    1.1590836   475860 
  591000    1.0046407   -2.4195573   -2.4195573   -1.2594797  0.066682535   -2.4195573    1.1600776   475860 
  592000    1.0022174   -2.4168653   -2.4168653    -1.259586  0.066530555   -2.4168653    1.1572793   475860 
  593000    1.0043078   -2.4182644   -2.4182644   -1.2585713  0.071031603   -2.4182644    1.1596931   475860 
  594000    1.0055117   -2.4205145   -2.4205145   -1.2594312  0.064838022   -2.4205145    1.1610833   475860 
  595000    1.0046642   -2.4194951   -2.4194951   -1.2593905  0.066073758   -2.4194951    1.1601047   475860 
  596000    1.0062961   -2.4211831   -2.4211831   -1.2591941  0.066667085   -2.4211831    1.1619891   475860 
  597000    1.0056996   -2.4188473   -2.4188473   -1.2575471  0.071827286   -2.4188473    1.1613003   475860 
  598000    1.0060537     -2.41946     -2.41946   -1.2577508  0.072106693     -2.41946    1.1617092   475860 
  599000    1.0063988   -2.4200039   -2.4200039   -1.2578963  0.059416136   -2.4200039    1.1621076   475860 
  600000    1.0045288   -2.4175218   -2.4175218   -1.2575735  0.074872271   -2.4175218    1.1599483   475860 
  601000    1.0073677   -2.4203886   -2.4203886   -1.2571622  0.074324838   -2.4203886    1.1632264   475860 
  602000    1.0066229   -2.4208143   -2.4208143   -1.2584479  0.067126152   -2.4208143    1.1623664   475860 
  603000    1.0068574   -2.4207074   -2.4207074   -1.2580701  0.072064509   -2.4207074    1.1626372   475860 
  604000    1.0063962   -2.4209464   -2.4209464   -1.2588418  0.064320239   -2.4209464    1.1621046   475860 
  605000    1.0060671   -2.4193994   -2.4193994   -1.2576747  0.065655394   -2.4193994    1.1617247   475860 
  606000    1.0065678   -2.4198172   -2.4198172   -1.2575145  0.066477559   -2.4198172    1.1623028   475860 
  607000    1.0061233   -2.4201305   -2.4201305    -1.258341  0.066248326   -2.4201305    1.1617896   475860 
  608000    1.0044128   -2.4188322   -2.4188322   -1.2590178  0.066344693   -2.4188322    1.1598144   475860 
  609000    1.0056269   -2.4191268   -2.4191268   -1.2579105  0.075077649   -2.4191268    1.1612163   475860 
  610000    1.0051151    -2.419021    -2.419021   -1.2583957   0.06297326    -2.419021    1.1606253   475860 
  611000    1.0059399   -2.4196962   -2.4196962   -1.2581184  0.061042316   -2.4196962    1.1615778   475860 
  612000    1.0053892    -2.418445    -2.418445   -1.2575031  0.071071793    -2.418445    1.1609418   475860 
  613000    1.0053098   -2.4199289   -2.4199289   -1.2590787  0.063417783   -2.4199289    1.1608502   475860 
  614000    1.0048126   -2.4172424   -2.4172424   -1.2569663  0.071663346   -2.4172424    1.1602761   475860 
  615000    1.0056232   -2.4188032   -2.4188032   -1.2575911  0.067587013   -2.4188032     1.161212   475860 
  616000    1.0070354   -2.4206828   -2.4206828   -1.2578401  0.072311573   -2.4206828    1.1628427   475860 
  617000    1.0063387   -2.4193227   -2.4193227   -1.2572845  0.063523657   -2.4193227    1.1620382   475860 
  618000    1.0047575   -2.4179317   -2.4179317   -1.2577193  0.065557743   -2.4179317    1.1602124   475860 
  619000    1.0063282   -2.4183571   -2.4183571    -1.256331  0.070302404   -2.4183571    1.1620261   475860 
  620000    1.0061005   -2.4184873   -2.4184873   -1.2567241   0.07190949   -2.4184873    1.1617632   475860 
  621000    1.0051777   -2.4164679   -2.4164679   -1.2557703  0.062520057   -2.4164679    1.1606976   475860 
  622000    1.0068686   -2.4176199   -2.4176199   -1.2549697  0.070597933   -2.4176199    1.1626502   475860 
  623000    1.0059984   -2.4170881   -2.4170881   -1.2554429  0.068899381   -2.4170881    1.1616452   475860 
  624000    1.0062076   -2.4174052   -2.4174052   -1.2555184  0.067540354   -2.4174052    1.1618868   475860 
  625000    1.0053653   -2.4162891   -2.4162891   -1.2553749  0.070672024   -2.4162891    1.1609142   475860 
  626000    1.0057632   -2.4170505   -2.4170505   -1.2556769  0.073560209   -2.4170505    1.1613737   475860 
  627000    1.0060374   -2.4168404   -2.4168404   -1.2551501  0.061010698   -2.4168404    1.1616903   475860 
  628000    1.0051419   -2.4153531   -2.4153531   -1.2546968  0.070064181   -2.4153531    1.1606563   475860 
  629000    1.0057406   -2.4155565   -2.4155565   -1.2542088  0.070441664   -2.4155565    1.1613476   475860 
  630000    1.0043598   -2.4140858   -2.4140858   -1.2543326  0.066494017   -2.4140858    1.1597531   475860 
  631000    1.0051114   -2.4142457   -2.4142457   -1.2536246  0.065084922   -2.4142457     1.160621   475860 
  632000    1.0063286   -2.4150961   -2.4150961   -1.2530696  0.063404933   -2.4150961    1.1620265   475860 
  633000    1.0050163   -2.4151126   -2.4151126   -1.2546013   0.06997266   -2.4151126    1.1605113   475860 
  634000    1.0052841   -2.4148707   -2.4148707   -1.2540503  0.066291446   -2.4148707    1.1608204   475860 
  635000    1.0051627   -2.4136719   -2.4136719   -1.2529916  0.066617165   -2.4136719    1.1606803   475860 
  636000    1.0067215   -2.4153833   -2.4153833    -1.252903  0.064425189   -2.4153833    1.1624803   475860 
  637000    1.0073001   -2.4151402   -2.4151402   -1.2519918  0.065825578   -2.4151402    1.1631484   475860 
  638000    1.0060997   -2.4140549   -2.4140549   -1.2522926   0.07290119   -2.4140549    1.1617623   475860 
  639000    1.0057005   -2.4136733   -2.4136733    -1.252372  0.065455091   -2.4136733    1.1613014   475860 
  640000    1.0054981   -2.4146445   -2.4146445    -1.253577  0.065935626   -2.4146445    1.1610675   475860 
  641000    1.0057926   -2.4153654   -2.4153654   -1.2539578  0.072006768   -2.4153654    1.1614077   475860 
  642000    1.0055046   -2.4154916   -2.4154916   -1.2544165  0.062601163   -2.4154916    1.1610751   475860 
  643000    1.0065874   -2.4165532   -2.4165532   -1.2542278  0.065772661   -2.4165532    1.1623254   475860 
  644000    1.0069315    -2.416317    -2.416317   -1.2535942  0.068722953    -2.416317    1.1627228   475860 
  645000    1.0050268   -2.4142984   -2.4142984    -1.253775  0.064103358   -2.4142984    1.1605234   475860 
  646000    1.0049683   -2.4146826   -2.4146826   -1.2542268  0.069635429   -2.4146826    1.1604558   475860 
  647000      1.00508   -2.4150956   -2.4150956   -1.2545108  0.061659757   -2.4150956    1.1605848   475860 
  648000    1.0062995   -2.4162969   -2.4162969   -1.2543039  0.065200034   -2.4162969     1.161993   475860 
[...]
 2719000    1.0053187   -2.4223759   -2.4223759   -1.2615154  0.070973264   -2.4223759    1.1608605   475860 
 2720000    1.0067911   -2.4237368   -2.4237368   -1.2611761  0.066673238   -2.4237368    1.1625606   475860 
 2721000     1.006361   -2.4231472   -2.4231472   -1.2610832  0.066903457   -2.4231472     1.162064   475860 
 2722000    1.0064969    -2.423882    -2.423882   -1.2616611   0.06600477    -2.423882     1.162221   475860 
 2723000    1.0056698   -2.4227294   -2.4227294   -1.2614636  0.066939637   -2.4227294    1.1612658   475860 
 2724000    1.0056551   -2.4234847   -2.4234847   -1.2622359  0.068727584   -2.4234847    1.1612488   475860 
 2725000    1.0062307   -2.4232385   -2.4232385    -1.261325  0.068262933   -2.4232385    1.1619135   475860 
 2726000    1.0045669   -2.4225475   -2.4225475   -1.2625552  0.063956855   -2.4225475    1.1599923   475860 
 2727000    1.0055657   -2.4227174   -2.4227174   -1.2615718  0.068111583   -2.4227174    1.1611457   475860 
 2728000     1.003339   -2.4214934   -2.4214934    -1.262919  0.073042966   -2.4214934    1.1585744   475860 
 2729000    1.0041934    -2.421906    -2.421906    -1.262345    0.0760862    -2.421906     1.159561   475860 
 2730000    1.0057885   -2.4236552   -2.4236552   -1.2622523  0.067896231   -2.4236552    1.1614029   475860 
 2731000    1.0049473    -2.422222    -2.422222   -1.2617905  0.067088939    -2.422222    1.1604316   475860 
 2732000    1.0062484   -2.4229018   -2.4229018   -1.2609679  0.065823819   -2.4229018    1.1619339   475860 
 2733000    1.0040783   -2.4223896   -2.4223896   -1.2629615  0.075912699   -2.4223896    1.1594281   475860 
 2734000    1.0057469   -2.4238581   -2.4238581   -1.2625032  0.062874441   -2.4238581    1.1613548   475860 
 2735000    1.0030553   -2.4212343   -2.4212343   -1.2629874  0.069064505   -2.4212343    1.1582469   475860 
 2736000    1.0030476   -2.4215861   -2.4215861   -1.2633482  0.064027633   -2.4215861     1.158238   475860 
 2737000    1.0040439   -2.4227081   -2.4227081   -1.2633197   0.06459344   -2.4227081    1.1593883   475860 
 2738000    1.0043666   -2.4232985   -2.4232985   -1.2635375  0.060771992   -2.4232985    1.1597611   475860 
 2739000    1.0056362   -2.4245041   -2.4245041    -1.263277  0.057712816   -2.4245041    1.1612271   475860 
 2740000    1.0052238   -2.4248204   -2.4248204   -1.2640695   0.06501678   -2.4248204    1.1607509   475860 
 2741000    1.0068236   -2.4260118   -2.4260118   -1.2634137  0.070492015   -2.4260118    1.1625981   475860 
 2742000    1.0061827   -2.4260581   -2.4260581      -1.2642  0.064285952   -2.4260581    1.1618581   475860 
 2743000    1.0067331   -2.4266153   -2.4266153   -1.2641217  0.060171309   -2.4266153    1.1624936   475860 
 2744000    1.0044499   -2.4246156   -2.4246156   -1.2647584  0.071021755   -2.4246156    1.1598572   475860 
 2745000    1.0048803   -2.4245954   -2.4245954   -1.2642412  0.070787801   -2.4245954    1.1603542   475860 
 2746000    1.0054969   -2.4255712   -2.4255712    -1.264505  0.062573066   -2.4255712    1.1610662   475860 
 2747000    1.0051699   -2.4254042   -2.4254042   -1.2647155  0.065693874   -2.4254042    1.1606887   475860 
 2748000    1.0067964   -2.4277031   -2.4277031   -1.2651363  0.070755942   -2.4277031    1.1625668   475860 
 2749000    1.0065128   -2.4269327   -2.4269327   -1.2646934  0.073668523   -2.4269327    1.1622392   475860 
 2750000    1.0066939   -2.4271378   -2.4271378   -1.2646895  0.067313723   -2.4271378    1.1624484   475860 
 2751000     1.006826   -2.4290128   -2.4290128   -1.2664118  0.069752445   -2.4290128    1.1626009   475860 
 2752000    1.0062096   -2.4276669   -2.4276669   -1.2657777  0.070878627   -2.4276669    1.1618892   475860 
 2753000    1.0078736   -2.4289891   -2.4289891   -1.2651785   0.07175505   -2.4289891    1.1638106   475860 
 2754000    1.0050871   -2.4266826   -2.4266826   -1.2660896  0.064515504   -2.4266826     1.160593   475860 
 2755000    1.0058806   -2.4258706   -2.4258706   -1.2643614  0.069643366   -2.4258706    1.1615093   475860 
 2756000    1.0060972   -2.4260577   -2.4260577   -1.2642983  0.069094744   -2.4260577    1.1617594   475860 
 2757000    1.0056142   -2.4267069   -2.4267069   -1.2655052  0.070054599   -2.4267069    1.1612017   475860 
 2758000    1.0056764   -2.4259155   -2.4259155    -1.264642  0.065937208   -2.4259155    1.1612735   475860 
 2759000    1.0053048   -2.4273752   -2.4273752   -1.2665308  0.067698835   -2.4273752    1.1608444   475860 
 2760000    1.0059147   -2.4281388   -2.4281388   -1.2665902  0.066822741   -2.4281388    1.1615486   475860 
 2761000    1.0041993   -2.4267831   -2.4267831   -1.2672152  0.069916204   -2.4267831    1.1595679   475860 
 2762000    1.0048501   -2.4265665   -2.4265665   -1.2662471  0.066644931   -2.4265665    1.1603193   475860 
 2763000    1.0032856   -2.4241098   -2.4241098    -1.265597  0.068879562   -2.4241098    1.1585128   475860 
 2764000    1.0045192   -2.4255823   -2.4255823   -1.2656451  0.067222738   -2.4255823    1.1599372   475860 
 2765000    1.0051579   -2.4265428   -2.4265428   -1.2658681  0.060344344   -2.4265428    1.1606748   475860 
 2766000    1.0025176   -2.4238742   -2.4238742   -1.2662483  0.066511183   -2.4238742     1.157626   475860 
 2767000    1.0031652   -2.4243135   -2.4243135   -1.2659398  0.068428961   -2.4243135    1.1583737   475860 
 2768000    1.0042928   -2.4256131   -2.4256131   -1.2659373  0.061634437   -2.4256131    1.1596758   475860 
 2769000    1.0046266    -2.424797    -2.424797   -1.2647357  0.065124182    -2.424797    1.1600613   475860 
 2770000    1.0044084   -2.4240023   -2.4240023   -1.2641931  0.068745011   -2.4240023    1.1598093   475860 
 2771000    1.0046069   -2.4245063   -2.4245063   -1.2644678  0.060214376   -2.4245063    1.1600385   475860 
 2772000    1.0055129   -2.4253287   -2.4253287    -1.264244  0.065969663   -2.4253287    1.1610847   475860 
 2773000    1.0041799   -2.4233927   -2.4233927   -1.2638473  0.070487002   -2.4233927    1.1595454   475860 
 2774000    1.0042709   -2.4230573   -2.4230573   -1.2634068    0.0648387   -2.4230573    1.1596505   475860 
 2775000    1.0046964   -2.4242452   -2.4242452   -1.2641033  0.070171736   -2.4242452    1.1601419   475860 
 2776000    1.0058654   -2.4248635   -2.4248635   -1.2633718  0.066041276   -2.4248635    1.1614917   475860 
 2777000    1.0037645   -2.4229577   -2.4229577   -1.2638919  0.065998019   -2.4229577    1.1590658   475860 
 2778000    1.0044908    -2.423674    -2.423674   -1.2637696  0.062791764    -2.423674    1.1599045   475860 
 2779000     1.003878   -2.4224918   -2.4224918   -1.2632949  0.072037904   -2.4224918    1.1591969   475860 
 2780000    1.0066575   -2.4260245   -2.4260245   -1.2636181   0.06790645   -2.4260245    1.1624064   475860 
 2781000    1.0051123   -2.4251746   -2.4251746   -1.2645525  0.067425447   -2.4251746    1.1606221   475860 
 2782000    1.0052914   -2.4248113   -2.4248113   -1.2639824  0.079363697   -2.4248113    1.1608289   475860 
 2783000    1.0060739   -2.4254942   -2.4254942   -1.2637617  0.067618524   -2.4254942    1.1617325   475860 
 2784000    1.0045123   -2.4236801   -2.4236801   -1.2637508  0.074795298   -2.4236801    1.1599293   475860 
 2785000    1.0060472   -2.4260642   -2.4260642   -1.2643626  0.062406542   -2.4260642    1.1617016   475860 
 2786000    1.0054086   -2.4247633   -2.4247633    -1.263799  0.064950706   -2.4247633    1.1609643   475860 
 2787000    1.0066681   -2.4244634   -2.4244634   -1.2620448  0.072335386   -2.4244634    1.1624185   475860 
 2788000    1.0047263    -2.422278    -2.422278   -1.2621016  0.071078444    -2.422278    1.1601764   475860 
 2789000    1.0061546    -2.424056    -2.424056   -1.2622303  0.059743083    -2.424056    1.1618257   475860 
 2790000      1.00578   -2.4240225   -2.4240225   -1.2626294  0.066742901   -2.4240225    1.1613931   475860 
 2791000    1.0055962    -2.423952    -2.423952   -1.2627711  0.073020032    -2.423952    1.1611809   475860 
 2792000    1.0069986   -2.4249794   -2.4249794   -1.2621792  0.073018877   -2.4249794    1.1628002   475860 
 2793000    1.0063118   -2.4235333   -2.4235333   -1.2615261  0.072286504   -2.4235333    1.1620072   475860 
 2794000    1.0051641   -2.4222239   -2.4222239    -1.261542  0.072618281   -2.4222239     1.160682   475860 
 2795000    1.0057708   -2.4239486   -2.4239486   -1.2625661  0.067552818   -2.4239486    1.1613825   475860 
 2796000    1.0073517   -2.4266662   -2.4266662   -1.2634582  0.064158095   -2.4266662     1.163208   475860 
 2797000     1.005261   -2.4232827   -2.4232827   -1.2624888  0.071208351   -2.4232827    1.1607938   475860 
 2798000    1.0056165   -2.4250104   -2.4250104   -1.2638061  0.067210573   -2.4250104    1.1612043   475860 
 2799000    1.0066015   -2.4259135   -2.4259135   -1.2635719  0.070095767   -2.4259135    1.1623417   475860 
 2800000    1.0044282   -2.4241866   -2.4241866   -1.2643544  0.063531092   -2.4241866    1.1598321   475860 
 2801000    1.0046242   -2.4242913   -2.4242913   -1.2642329  0.062391117   -2.4242913    1.1600585   475860 
 2802000    1.0027581    -2.423409    -2.423409   -1.2655053  0.068936167    -2.423409    1.1579037   475860 
 2803000    1.0047032   -2.4253222   -2.4253222   -1.2651726  0.067809635   -2.4253222    1.1601497   475860 
 2804000    1.0022169   -2.4223287   -2.4223287     -1.26505  0.066416053   -2.4223287    1.1572787   475860 
 2805000    1.0033991    -2.422098    -2.422098   -1.2634542  0.066750943    -2.422098    1.1586438   475860 
 2806000    1.0039947   -2.4231501   -2.4231501   -1.2638185  0.064674112   -2.4231501    1.1593316   475860 
 2807000     1.004691   -2.4234011   -2.4234011   -1.2632655  0.073713389   -2.4234011    1.1601356   475860 
 2808000    1.0061532   -2.4248933   -2.4248933   -1.2630692  0.062478021   -2.4248933    1.1618241   475860 
 2809000    1.0067647   -2.4247276   -2.4247276   -1.2621974  0.059615941   -2.4247276    1.1625301   475860 
 2810000    1.0063611   -2.4243869   -2.4243869   -1.2623228  0.066990252   -2.4243869    1.1620641   475860 
 2811000    1.0047903   -2.4225733   -2.4225733    -1.262323  0.070514139   -2.4225733    1.1602503   475860 
 2812000    1.0062392   -2.4227069   -2.4227069   -1.2607836  0.074187099   -2.4227069    1.1619233   475860 
 2813000    1.0064816   -2.4229033   -2.4229033   -1.2607001  0.065423936   -2.4229033    1.1622032   475860 
 2814000     1.007734   -2.4244126   -2.4244126   -1.2607632  0.068692535   -2.4244126    1.1636494   475860 
 2815000    1.0059367   -2.4220257   -2.4220257   -1.2604517  0.067723527   -2.4220257     1.161574   475860 
 2816000    1.0071215   -2.4239602   -2.4239602    -1.261018  0.066588776   -2.4239602    1.1629422   475860 
 2817000    1.0039111   -2.4201763   -2.4201763   -1.2609413  0.067167931   -2.4201763     1.159235   475860 
 2818000     1.005199    -2.421557    -2.421557   -1.2608349  0.070754395    -2.421557    1.1607222   475860 
 2819000    1.0059946    -2.422099    -2.422099   -1.2604582  0.065935462    -2.422099    1.1616409   475860 
 2820000    1.0051886   -2.4204989   -2.4204989   -1.2597887   0.06369607   -2.4204989    1.1607102   475860 
 2821000    1.0046766    -2.420156    -2.420156   -1.2600371  0.066522967    -2.420156    1.1601189   475860 
 2822000    1.0048934    -2.421476    -2.421476   -1.2611066  0.059058153    -2.421476    1.1603693   475860 
 2823000    1.0042126   -2.4201883   -2.4201883   -1.2606051  0.070771641   -2.4201883    1.1595832   475860 
 2824000    1.0048813    -2.420827    -2.420827   -1.2604716  0.062091743    -2.420827    1.1603553   475860 
 2825000    1.0053044   -2.4217141   -2.4217141   -1.2608702  0.066121939   -2.4217141    1.1608439   475860 
 2826000    1.0077586   -2.4248888   -2.4248888    -1.261211  0.060940371   -2.4248888    1.1636778   475860 
 2827000    1.0073774   -2.4235399   -2.4235399   -1.2603023  0.063981278   -2.4235399    1.1632376   475860 
 2828000    1.0066116   -2.4219841   -2.4219841   -1.2596307  0.066867053   -2.4219841    1.1623534   475860 
 2829000    1.0054308   -2.4204547   -2.4204547   -1.2594648  0.069432517   -2.4204547    1.1609898   475860 
 2830000    1.0050953   -2.4194553   -2.4194553   -1.2588528  0.069929948   -2.4194553    1.1606025   475860 
 2831000    1.0052933   -2.4197966   -2.4197966   -1.2589655  0.073577276   -2.4197966    1.1608311   475860 
 2832000    1.0072451   -2.4225168   -2.4225168    -1.259432  0.072060293   -2.4225168    1.1630848   475860 
 2833000    1.0058849   -2.4217826   -2.4217826   -1.2602683  0.071081243   -2.4217826    1.1615143   475860 
 2834000    1.0061878   -2.4225838   -2.4225838   -1.2607197  0.068812184   -2.4225838     1.161864   475860 
 2835000    1.0056635   -2.4214748   -2.4214748   -1.2602163  0.068670318   -2.4214748    1.1612586   475860 
 2836000    1.0064085   -2.4231674   -2.4231674   -1.2610485  0.068124583   -2.4231674    1.1621189   475860 
 2837000     1.005509   -2.4205935   -2.4205935   -1.2595134  0.069050021   -2.4205935    1.1610801   475860 
 2838000    1.0064624   -2.4221157   -2.4221157   -1.2599346  0.066292048   -2.4221157     1.162181   475860 
 2839000    1.0060963   -2.4214768   -2.4214768   -1.2597184  0.065356649   -2.4214768    1.1617584   475860 
 2840000    1.0060929   -2.4221707   -2.4221707   -1.2604163  0.067772821   -2.4221707    1.1617544   475860 
 2841000    1.0072073   -2.4247611   -2.4247611   -1.2617199  0.073148037   -2.4247611    1.1630413   475860 
 2842000    1.0048625   -2.4224375   -2.4224375   -1.2621038  0.068270531   -2.4224375    1.1603337   475860 
 2843000    1.0055872   -2.4231386   -2.4231386   -1.2619681  0.066247325   -2.4231386    1.1611705   475860 
 2844000    1.0048856   -2.4222081   -2.4222081   -1.2618477  0.067985125   -2.4222081    1.1603604   475860 
 2845000    1.0052069   -2.4218116   -2.4218116   -1.2610802  0.066606895   -2.4218116    1.1607313   475860 
 2846000    1.0056701   -2.4215595   -2.4215595   -1.2602932  0.068258933   -2.4215595    1.1612662   475860 
 2847000    1.0056893   -2.4216553   -2.4216553   -1.2603669  0.064295907   -2.4216553    1.1612883   475860 
 2848000    1.0069817   -2.4230577   -2.4230577   -1.2602771  0.066852916   -2.4230577    1.1627807   475860 
 2849000     1.007198   -2.4238895   -2.4238895    -1.260859  0.066173758   -2.4238895    1.1630305   475860 
 2850000    1.0054602    -2.421594    -2.421594   -1.2605702  0.071759139    -2.421594    1.1610238   475860 
 2851000    1.0063894   -2.4223072   -2.4223072   -1.2602104  0.066266844   -2.4223072    1.1620968   475860 
 2852000    1.0064786   -2.4231401   -2.4231401   -1.2609403  0.074816635   -2.4231401    1.1621998   475860 
 2853000    1.0084891   -2.4244561   -2.4244561   -1.2599347  0.067507355   -2.4244561    1.1645213   475860 
 2854000    1.0062394   -2.4219165   -2.4219165    -1.259993  0.067650143   -2.4219165    1.1619235   475860 
 2855000      1.00695   -2.4230641   -2.4230641     -1.26032  0.064974405   -2.4230641    1.1627441   475860 
 2856000    1.0060759   -2.4231529   -2.4231529   -1.2614181  0.066429223   -2.4231529    1.1617348   475860 
 2857000    1.0059798   -2.4238763   -2.4238763   -1.2622525  0.072808883   -2.4238763    1.1616238   475860 
 2858000    1.0041391    -2.422503    -2.422503   -1.2630047  0.062840109    -2.422503    1.1594983   475860 
 2859000    1.0032894   -2.4224024   -2.4224024   -1.2638853  0.066407685   -2.4224024    1.1585172   475860 
 2860000    1.0032066   -2.4212051   -2.4212051   -1.2627835  0.068762034   -2.4212051    1.1584216   475860 
 2861000    1.0048888   -2.4231942   -2.4231942   -1.2628302  0.065004855   -2.4231942    1.1603641   475860 
 2862000    1.0033913   -2.4211893   -2.4211893   -1.2625545  0.065382225   -2.4211893    1.1586349   475860 
 2863000    1.0027099   -2.4210757   -2.4210757   -1.2632277  0.068334891   -2.4210757     1.157848   475860 
 2864000    1.0047116   -2.4231263   -2.4231263   -1.2629669  0.067027419   -2.4231263    1.1601594   475860 
 2865000    1.0043673   -2.4228238   -2.4228238    -1.263062  0.067225456   -2.4228238    1.1597618   475860 
 2866000    1.0048853   -2.4233224   -2.4233224   -1.2629624  0.064059101   -2.4233224    1.1603599   475860 
 2867000    1.0045152   -2.4236753   -2.4236753   -1.2637427  0.065926387   -2.4236753    1.1599326   475860 
 2868000    1.0047465   -2.4238225   -2.4238225   -1.2636228  0.065198545   -2.4238225    1.1601997   475860 
 2869000    1.0049673   -2.4245112   -2.4245112   -1.2640566   0.06501154   -2.4245112    1.1604546   475860 
 2870000    1.0037607   -2.4232105   -2.4232105   -1.2641491  0.076038309   -2.4232105    1.1590614   475860 
 2871000    1.0055242   -2.4249787   -2.4249787    -1.263881  0.067628129   -2.4249787    1.1610977   475860 
 2872000     1.006148   -2.4250233   -2.4250233   -1.2632052  0.073082861   -2.4250233    1.1618181   475860 
 2873000    1.0055546   -2.4245003   -2.4245003   -1.2633675  0.064853946   -2.4245003    1.1611328   475860 
 2874000    1.0071567   -2.4263766   -2.4263766   -1.2633938  0.061922708   -2.4263766    1.1629827   475860 
 2875000    1.0049469   -2.4242546   -2.4242546   -1.2638236  0.071700151   -2.4242546    1.1604311   475860 
 2876000    1.0048185   -2.4237198   -2.4237198   -1.2634369  0.070336752   -2.4237198    1.1602828   475860 
 2877000    1.0055856   -2.4251503   -2.4251503   -1.2639817  0.069787129   -2.4251503    1.1611686   475860 
 2878000    1.0053356   -2.4252432   -2.4252432   -1.2643633  0.071990587   -2.4252432    1.1608799   475860 
 2879000    1.0060197   -2.4254902   -2.4254902   -1.2638203  0.065892486   -2.4254902    1.1616699   475860 
 2880000    1.0053658   -2.4243969   -2.4243969   -1.2634821  0.072978084   -2.4243969    1.1609148   475860 
 2881000    1.0051125   -2.4242131   -2.4242131   -1.2635908  0.064285955   -2.4242131    1.1606224   475860 
 2882000    1.0079821    -2.427171    -2.427171   -1.2632351   0.06836492    -2.427171    1.1639359   475860 
 2883000    1.0068912   -2.4266253   -2.4266253    -1.263949  0.077905295   -2.4266253    1.1626763   475860 
 2884000    1.0055595   -2.4254509   -2.4254509   -1.2643124  0.072579403   -2.4254509    1.1611385   475860 
 2885000    1.0076345   -2.4279886   -2.4279886    -1.264454  0.063343234   -2.4279886    1.1635346   475860 
 2886000    1.0039745   -2.4251101   -2.4251101   -1.2658018  0.068046909   -2.4251101    1.1593083   475860 
 2887000    1.0055222   -2.4257817   -2.4257817   -1.2646863  0.066736412   -2.4257817    1.1610954   475860 
 2888000    1.0070675   -2.4283459   -2.4283459   -1.2654661  0.064556499   -2.4283459    1.1628798   475860 
 2889000    1.0066437   -2.4274878   -2.4274878   -1.2650973   0.06979517   -2.4274878    1.1623905   475860 
 2890000    1.0065391   -2.4274333   -2.4274333   -1.2651636  0.067882129   -2.4274333    1.1622697   475860 
 2891000    1.0043831   -2.4259148   -2.4259148   -1.2661347  0.069533932   -2.4259148    1.1597801   475860 
 2892000    1.0050711   -2.4271879   -2.4271879   -1.2666133  0.062368298   -2.4271879    1.1605746   475860 
 2893000    1.0045826   -2.4269711   -2.4269711   -1.2669607  0.067742327   -2.4269711    1.1600104   475860 
 2894000    1.0043917   -2.4258172   -2.4258172   -1.2660271  0.070102528   -2.4258172      1.15979   475860 
 2895000    1.0046413   -2.4257338   -2.4257338   -1.2656557  0.070583626   -2.4257338    1.1600782   475860 
 2896000    1.0060736   -2.4269714   -2.4269714   -1.2652392  0.064576611   -2.4269714    1.1617321   475860 
 2897000    1.0055368   -2.4262128   -2.4262128   -1.2651005  0.066188854   -2.4262128    1.1611123   475860 
 2898000    1.0054164   -2.4259257   -2.4259257   -1.2649524  0.071077935   -2.4259257    1.1609733   475860 
 2899000    1.0065484    -2.426324    -2.426324   -1.2640437  0.061069126    -2.426324    1.1622803   475860 
 2900000     1.003762   -2.4238014   -2.4238014   -1.2647385  0.071876143   -2.4238014  