LAMMPS (3 Mar 2020)
  using 1 OpenMP thread(s) per MPI task
Created orthogonal box = (0 0 0) to (40 40 40)
  1 by 1 by 1 MPI processor grid
Created 15000 atoms
  create_atoms CPU = 0.00430979 secs
WARNING: Ignoring 'compress yes' for molecular system (src/delete_atoms.cpp:125)
Deleted 1941 atoms, new total = 13059
  orthogonal box = (0 0 0) to (40 40 40)
  1 by 1 by 1 MPI processor grid
  reading atoms ...
  1143 atoms
  0 = max # of 1-2 neighbors
  0 = max # of 1-3 neighbors
  0 = max # of 1-4 neighbors
  1 = max # of special neighbors
  special bonds CPU = 0.00307051 secs
  read_data CPU = 0.00565531 secs
1143 atoms in group cube
13059 atoms in group solvent
WARNING: Replicating in a non-periodic dimension (src/replicate.cpp:72)
  orthogonal box = (0 0 0) to (80 80 80)
  1 by 1 by 1 MPI processor grid
  113616 atoms
  0 = max # of 1-2 neighbors
  0 = max # of 1-3 neighbors
  0 = max # of 1-4 neighbors
  1 = max # of special neighbors
  special bonds CPU = 0.0217234 secs
  replicate CPU = 0.0487516 secs
  orthogonal box = (0 0 0) to (80 80 160)
  1 by 1 by 1 MPI processor grid
  0 = max # of 1-2 neighbors
  0 = max # of 1-3 neighbors
  0 = max # of 1-4 neighbors
  1 = max # of special neighbors
  special bonds CPU = 0.0206149 secs
  read_data CPU = 0.0229533 secs
Resetting atom IDs ...
Neighbor list info ...
  update every 1 steps, delay 10 steps, check yes
  max neighbors/atom: 2000, page size: 100000
  master list distance cutoff = 4.8
  ghost atom cutoff = 4.8
  binsize = 2.4, bins = 34 34 67
  1 neighbor lists, perpetual/occasional/extra = 1 0 0
  (1) pair lj/cut, perpetual
      attributes: half, newton on
      pair build: half/bin/newton
      stencil: half/bin/3d/newton
      bin: standard
  0 = max # of 1-2 neighbors
  0 = max # of 1-3 neighbors
  0 = max # of 1-4 neighbors
  1 = max # of special neighbors
  special bonds CPU = 0.0214112 secs
Neighbor list info ...
  update every 1 steps, delay 10 steps, check yes
  max neighbors/atom: 2000, page size: 100000
  master list distance cutoff = 4.8
  ghost atom cutoff = 8.7
  binsize = 2.4, bins = 34 34 67
  2 neighbor lists, perpetual/occasional/extra = 1 1 0
  (1) command delete_atoms, occasional
      attributes: full, newton on
      pair build: full/bin
      stencil: full/bin/3d
      bin: standard
  (2) pair lj/cut, perpetual
      attributes: half, newton on
      pair build: half/bin/newton
      stencil: half/bin/3d/newton
      bin: standard
WARNING: Delete_atoms cutoff > minimum neighbor cutoff (src/delete_atoms.cpp:338)
WARNING: Ignoring 'compress yes' for molecular system (src/delete_atoms.cpp:125)
Deleted 37766 atoms, new total = 75850
Neighbor list info ...
  update every 1 steps, delay 10 steps, check yes
  max neighbors/atom: 2000, page size: 100000
  master list distance cutoff = 4.8
  ghost atom cutoff = 8.7
  binsize = 2.4, bins = 34 34 67
  1 neighbor lists, perpetual/occasional/extra = 1 0 0
  (1) pair lj/cut, perpetual
      attributes: half, newton on
      pair build: half/bin/newton
      stencil: half/bin/3d/newton
      bin: standard
WARNING: Ignoring 'compress yes' for molecular system (src/delete_atoms.cpp:125)
Deleted 1042 atoms, new total = 74808
  create bodies CPU = 0.0021821 secs
8 rigid bodies with 9144 atoms
  6.9282 = max distance from body owner to body atom
New timer settings: style=full  mode=nosync  timeout=off
Per MPI rank memory allocation (min/avg/max) = 117.6 | 117.6 | 117.6 Mbytes
Step Temp E_pair E_vdwl TotEng Press PotEng KinEng Volume 
       0   0.99999163  -0.70413602  -0.70413602   0.61280436  0.015508381  -0.70413602    1.3169404      1024000 
     100    1.0265406   -0.7444637   -0.7444637   0.60744032  0.031559637   -0.7444637     1.351904      1024000 
     200    1.0580472   -0.8136118   -0.8136118   0.57978496  0.036279158   -0.8136118    1.3933968      1024000 
     300    1.0524657  -0.85164515  -0.85164515   0.53440107  0.035634157  -0.85164515    1.3860462      1024000 
     400    1.0344328  -0.87673827  -0.87673827   0.48555943  0.032402428  -0.87673827    1.3622977      1024000 
     500    1.0164175  -0.89588514  -0.89588514    0.4426873    0.0305103  -0.89588514    1.3385724      1024000 
     600    1.0039108  -0.91273421  -0.91273421   0.40936754  0.028663806  -0.91273421    1.3221017      1024000 
     700   0.99808735  -0.92780179  -0.92780179   0.38663073  0.028041247  -0.92780179    1.3144325      1024000 
     800   0.99700905  -0.93948785  -0.93948785    0.3735246  0.028583127  -0.93948785    1.3130125      1024000 
     900   0.99943832   -0.9502405   -0.9502405    0.3659712  0.028021149   -0.9502405    1.3162117      1024000 
    1000    1.0008823  -0.95889586  -0.95889586   0.35921752  0.026835786  -0.95889586    1.3181134      1024000 
    1100   0.99899395  -0.96441434  -0.96441434   0.35121213  0.026225259  -0.96441434    1.3156265      1024000 
    1200   0.99826152  -0.97022219  -0.97022219   0.34443971  0.025405333  -0.97022219    1.3146619      1024000 
    1300     1.000537  -0.97937011  -0.97937011    0.3382885  0.024792906  -0.97937011    1.3176586      1024000 
    1400    1.0000395  -0.98637353  -0.98637353   0.33062987  0.022980747  -0.98637353    1.3170034      1024000 
    1500   0.99853417  -0.99212915  -0.99212915   0.32289182  0.023397745  -0.99212915     1.315021      1024000 
    1600   0.99864151  -0.99654405  -0.99654405   0.31861828  0.026150813  -0.99654405    1.3151623      1024000 
    1700   0.99868894  -0.99785069  -0.99785069   0.31737411  0.032022858  -0.99785069    1.3152248      1024000 
    1800   0.99998438   -1.0018094   -1.0018094   0.31512147  0.035727042   -1.0018094    1.3169308      1024000 
    1900   0.99752987   -1.0031255   -1.0031255    0.3105729  0.027613204   -1.0031255    1.3136984      1024000 
    2000   0.99860002   -1.0078196   -1.0078196   0.30728804  0.022968038   -1.0078196    1.3151077      1024000 
    2100    1.0009789   -1.0127452   -1.0127452    0.3054954  0.023546066   -1.0127452    1.3182406      1024000 
    2200    1.0009317   -1.0153805   -1.0153805    0.3027978  0.026847686   -1.0153805    1.3181783      1024000 
    2300   0.99959634   -1.0183213   -1.0183213   0.29809846  0.027356378   -1.0183213    1.3164198      1024000 
    2400   0.99830333   -1.0201172   -1.0201172   0.29459981  0.029233384   -1.0201172     1.314717      1024000 
    2500    1.0018977   -1.0255223   -1.0255223   0.29392822  0.026527329   -1.0255223    1.3194505      1024000 
    2600    1.0026857   -1.0302428   -1.0302428   0.29024555  0.025638636   -1.0302428    1.3204884      1024000 
    2700   0.99875977   -1.0328678   -1.0328678   0.28245027  0.025762503   -1.0328678    1.3153181      1024000 
    2800   0.99772184   -1.0335491   -1.0335491   0.28040203   0.03174293   -1.0335491    1.3139512      1024000 
    2900    1.0041589   -1.0369672   -1.0369672   0.28546131  0.027371202   -1.0369672    1.3224285      1024000 
    3000    1.0037395    -1.039012    -1.039012   0.28286421   0.02517133    -1.039012    1.3218762      1024000 
    3100   0.99770947   -1.0402236   -1.0402236   0.27371125  0.026318056   -1.0402236    1.3139349      1024000 
    3200   0.99791747   -1.0442956   -1.0442956   0.26991318  0.028429079   -1.0442956    1.3142088      1024000 
    3300    1.0020862   -1.0468266   -1.0468266   0.27287221  0.029447769   -1.0468266    1.3196988      1024000 
    3400     1.003408   -1.0489902   -1.0489902   0.27244933   0.02794418   -1.0489902    1.3214395      1024000 
    3500    0.9992391   -1.0514551   -1.0514551   0.26449423  0.026390737   -1.0514551    1.3159493      1024000 
    3600   0.99701611   -1.0533651   -1.0533651   0.25965665  0.025670253   -1.0533651    1.3130218      1024000 
    3700    1.0012193   -1.0577396   -1.0577396   0.26081753  0.027226911   -1.0577396    1.3185571      1024000 
    3800     1.003375   -1.0566213   -1.0566213   0.26477489  0.027813165   -1.0566213    1.3213962      1024000 
    3900    1.0016928   -1.0567348   -1.0567348   0.26244588  0.027808415   -1.0567348    1.3191807      1024000 
    4000   0.99648344   -1.0570076   -1.0570076   0.25531267  0.025899761   -1.0570076    1.3123203      1024000 
    4100   0.99882912   -1.0575687   -1.0575687   0.25784071  0.022883569   -1.0575687    1.3154094      1024000 
    4200     1.004213   -1.0565409   -1.0565409   0.26595872  0.028554753   -1.0565409    1.3224997      1024000 
    4300    1.0034579   -1.0572399   -1.0572399   0.26426544  0.028437718   -1.0572399    1.3215053      1024000 
    4400   0.99689581   -1.0588633   -1.0588633   0.25399999  0.026469372   -1.0588633    1.3128633      1024000 
    4500   0.99926975   -1.0604496   -1.0604496   0.25554009  0.028252349   -1.0604496    1.3159897      1024000 
    4600     1.001937   -1.0625016   -1.0625016   0.25700077  0.027448604   -1.0625016    1.3195024      1024000 
    4700   0.99971002   -1.0648891   -1.0648891   0.25168045  0.028839769   -1.0648891    1.3165695      1024000 
    4800   0.99385544   -1.0632424   -1.0632424   0.24561692  0.028314188   -1.0632424    1.3088593      1024000 
    4900   0.99951689   -1.0625742   -1.0625742     0.253741  0.026599922   -1.0625742    1.3163152      1024000 
    5000    1.0054892   -1.0644206   -1.0644206   0.25975987  0.023724389   -1.0644206    1.3241804      1024000 
    5100     1.003452   -1.0666836   -1.0666836    0.2548139  0.027855047   -1.0666836    1.3214975      1024000 
    5200   0.99832143   -1.0670607   -1.0670607   0.24768007  0.030068091   -1.0670607    1.3147408      1024000 
    5300   0.99895904   -1.0692157   -1.0692157   0.24636483  0.026264557   -1.0692157    1.3155805      1024000 
    5400    1.0032905   -1.0711199   -1.0711199   0.25016497  0.025871752   -1.0711199    1.3212848      1024000 
    5500    1.0058902   -1.0734662   -1.0734662   0.25124228  0.027418719   -1.0734662    1.3247085      1024000 
    5600   0.99895926   -1.0764102   -1.0764102   0.23917062  0.030034801   -1.0764102    1.3155808      1024000 
    5700   0.99685619   -1.0766391   -1.0766391   0.23617205  0.028055402   -1.0766391    1.3128111      1024000 
    5800     1.001728   -1.0792466   -1.0792466   0.23998041  0.026643052   -1.0792466     1.319227      1024000 
    5900    1.0045838   -1.0821468   -1.0821468   0.24084119  0.027641482   -1.0821468     1.322988      1024000 
    6000   0.99630479   -1.0820566   -1.0820566   0.23002836  0.026704405   -1.0820566     1.312085      1024000 
    6100   0.99621442   -1.0817175   -1.0817175   0.23024851   0.02592268   -1.0817175     1.311966      1024000 
    6200    1.0019811   -1.0838479   -1.0838479   0.23571249  0.028050082   -1.0838479    1.3195604      1024000 
    6300    1.0018442   -1.0840274   -1.0840274   0.23535276   0.02742682   -1.0840274    1.3193802      1024000 
    6400    1.0021094   -1.0886677   -1.0886677   0.23106175  0.029349431   -1.0886677    1.3197294      1024000 
    6500   0.99943727   -1.0877488   -1.0877488   0.22846151  0.028176478   -1.0877488    1.3162103      1024000 
    6600   0.99910565   -1.0880107   -1.0880107   0.22776284  0.027450108   -1.0880107    1.3157736      1024000 
    6700   0.99919113    -1.087914    -1.087914   0.22797212  0.028391612    -1.087914    1.3158861      1024000 
    6800    0.9994838    -1.089686    -1.089686   0.22658554  0.025707816    -1.089686    1.3162716      1024000 
    6900   0.99798647   -1.0915538   -1.0915538   0.22274583  0.027041659   -1.0915538    1.3142997      1024000 
    7000   0.99869133   -1.0913678   -1.0913678   0.22386012  0.025988092   -1.0913678    1.3152279      1024000 
    7100    1.0049504   -1.0925399   -1.0925399   0.23093094  0.028282818   -1.0925399    1.3234708      1024000 
    7200    1.0015252   -1.0912438   -1.0912438   0.22771624   0.02939872   -1.0912438      1.31896      1024000 
    7300    0.9962427   -1.0927419   -1.0927419   0.21926135  0.027001256   -1.0927419    1.3120032      1024000 
    7400   0.99895658   -1.0934209   -1.0934209   0.22215633  0.024347831   -1.0934209    1.3155773      1024000 
    7500     1.000511   -1.0903494   -1.0903494   0.22727493  0.027887307   -1.0903494    1.3176243      1024000 
    7600    1.0011358   -1.0891111   -1.0891111   0.22933601  0.028293027   -1.0891111    1.3184471      1024000 
    7700    1.0003825   -1.0904504   -1.0904504   0.22700478  0.026617607   -1.0904504    1.3174551      1024000 
    7800   0.99364974   -1.0934231   -1.0934231   0.21516531  0.026438235   -1.0934231    1.3085884      1024000 
    7900   0.99588545   -1.0964626   -1.0964626   0.21507014  0.028066265   -1.0964626    1.3115327      1024000 
    8000   0.99955118    -1.095991    -1.095991   0.22036933  0.029087471    -1.095991    1.3163603      1024000 
    8100     1.001606   -1.0975214   -1.0975214   0.22154503  0.028263704   -1.0975214    1.3190664      1024000 
    8200    1.0015937   -1.1016873   -1.1016873   0.21736289  0.029205325   -1.1016873    1.3190502      1024000 
    8300    0.9945578   -1.0994291   -1.0994291   0.21035515  0.028977909   -1.0994291    1.3097843      1024000 
    8400   0.99712302   -1.1003656   -1.1003656   0.21279696  0.026897133   -1.1003656    1.3131626      1024000 
    8500   0.99982545   -1.1014575   -1.1014575   0.21526407  0.026593103   -1.1014575    1.3167215      1024000 
    8600    1.0019654   -1.1046969   -1.1046969   0.21484281  0.027768847   -1.1046969    1.3195397      1024000 
    8700   0.99680517   -1.1029342   -1.1029342   0.20980973  0.027682669   -1.1029342     1.312744      1024000 
    8800   0.99692793   -1.1036725   -1.1036725   0.20923315  0.027650516   -1.1036725    1.3129056      1024000 
    8900     1.004954   -1.1049646   -1.1049646   0.21851098  0.027512986   -1.1049646    1.3234756      1024000 
    9000    1.0056895   -1.1054943   -1.1054943   0.21894987  0.026717978   -1.1054943    1.3244442      1024000 
    9100   0.99920744   -1.1061092   -1.1061092   0.20979844  0.025200982   -1.1061092    1.3159076      1024000 
    9200   0.99929714   -1.1074029   -1.1074029   0.20862289  0.026198913   -1.1074029    1.3160258      1024000 
    9300    1.0015157   -1.1092771   -1.1092771   0.20967041  0.028012134   -1.1092771    1.3189475      1024000 
    9400    1.0012105   -1.1111718   -1.1111718    0.2073738  0.029332968   -1.1111718    1.3185456      1024000 
    9500   0.99440639   -1.1117216   -1.1117216   0.19786324  0.028024784   -1.1117216    1.3095849      1024000 
    9600   0.99666536   -1.1125624   -1.1125624   0.19999744  0.025012155   -1.1125624    1.3125598      1024000 
    9700    1.0020443   -1.1126646   -1.1126646   0.20697908  0.028443931   -1.1126646    1.3196437      1024000 
    9800    1.0024299   -1.1153199   -1.1153199   0.20483157  0.031283708   -1.1153199    1.3201515      1024000 
    9900   0.99752052   -1.1136904   -1.1136904   0.19999563  0.025818938   -1.1136904     1.313686      1024000 
   10000   0.99622868   -1.1130831   -1.1130831   0.19890168  0.027565094   -1.1130831    1.3119847      1024000 
   10100    1.0037809   -1.1134872   -1.1134872   0.20844342   0.02812159   -1.1134872    1.3219306      1024000 
   10200     1.003374   -1.1097159   -1.1097159   0.21167886  0.027780184   -1.1097159    1.3213947      1024000 
   10300   0.99840063   -1.1081041   -1.1081041   0.20674103  0.026819733   -1.1081041    1.3148451      1024000 
   10400   0.99736514   -1.1071868   -1.1071868   0.20629461  0.025293988   -1.1071868    1.3134814      1024000 
   10500    1.0018432    -1.109792    -1.109792   0.20958683  0.026031858    -1.109792    1.3193788      1024000 
   10600    1.0020833   -1.1111061   -1.1111061   0.20858893  0.030834197   -1.1111061     1.319695      1024000 
   10700   0.99322574   -1.1116515   -1.1116515   0.19637856  0.026267742   -1.1116515      1.30803      1024000 
   10800   0.99307631    -1.113256    -1.113256   0.19457721   0.02478435    -1.113256    1.3078332      1024000 
   10900   0.99748891   -1.1111031   -1.1111031   0.20254132   0.02966457   -1.1111031    1.3136444      1024000 
   11000    1.0041493   -1.1145749   -1.1145749   0.20784094  0.028929297   -1.1145749    1.3224159      1024000 
   11100    1.0015892     -1.11481     -1.11481   0.20423434   0.02640856     -1.11481    1.3190443      1024000 
   11200   0.99426437   -1.1132148   -1.1132148   0.19618308  0.025982474   -1.1132148    1.3093978      1024000 
   11300    0.9996314   -1.1180346   -1.1180346   0.19843136   0.02520505   -1.1180346     1.316466      1024000 
   11400    1.0014231   -1.1179958   -1.1179958   0.20082973  0.027643696   -1.1179958    1.3188256      1024000 
   11500    1.0012917   -1.1188264   -1.1188264   0.19982605  0.025219072   -1.1188264    1.3186525      1024000 
   11600   0.99910843   -1.1172325   -1.1172325   0.19854471    0.0269457   -1.1172325    1.3157772      1024000 
   11700   0.99908943   -1.1172331   -1.1172331   0.19851916  0.033226708   -1.1172331    1.3157522      1024000 
   11800    1.0001307   -1.1181299   -1.1181299   0.19899358  0.028486011   -1.1181299    1.3171235      1024000 
   11900    1.0010671     -1.11684     -1.11684   0.20151672  0.029125794     -1.11684    1.3183567      1024000 
   12000    1.0027785   -1.1198518   -1.1198518   0.20075879  0.027057393   -1.1198518    1.3206106      1024000 
   12100   0.99850199    -1.122342    -1.122342   0.19263663  0.023312114    -1.122342    1.3149786      1024000 
   12200   0.99720346   -1.1241348   -1.1241348   0.18913367  0.025871867   -1.1241348    1.3132685      1024000 
   12300    1.0016444   -1.1254659   -1.1254659   0.19365109  0.034430961   -1.1254659     1.319117      1024000 
   12400    1.0050208   -1.1261813   -1.1261813   0.19738232  0.031492907   -1.1261813    1.3235636      1024000 
   12500   0.99948109   -1.1259745   -1.1259745   0.19029348  0.023732721   -1.1259745     1.316268      1024000 
   12600   0.99668398   -1.1288693   -1.1288693   0.18371508  0.023570045   -1.1288693    1.3125844      1024000 
   12700   0.99900538   -1.1310081   -1.1310081   0.18463345  0.028617522   -1.1310081    1.3156415      1024000 
   12800    1.0035345   -1.1335589   -1.1335589   0.18804724  0.032443489   -1.1335589    1.3216062      1024000 
   12900   0.99938626   -1.1316603   -1.1316603   0.18448286  0.031091031   -1.1316603    1.3161431      1024000 
   13000   0.99509322   -1.1322597   -1.1322597   0.17822968   0.01707686   -1.1322597    1.3104894      1024000 
   13100   0.99844449   -1.1320667   -1.1320667   0.18283613  0.026050206   -1.1320667    1.3149029      1024000 
   13200    1.0053765   -1.1334666   -1.1334666   0.19056541   0.03313543   -1.1334666     1.324032      1024000 
   13300    1.0017865    -1.131566    -1.131566   0.18773812  0.030828368    -1.131566    1.3193041      1024000 
   13400   0.99931364   -1.1323966   -1.1323966   0.18365087  0.023847557   -1.1323966    1.3160475      1024000 
   13500   0.99858116   -1.1324075   -1.1324075   0.18267536  0.025144236   -1.1324075    1.3150829      1024000 
   13600    1.0009659    -1.135452    -1.135452   0.18277151  0.030986666    -1.135452    1.3182235      1024000 
   13700   0.99948663    -1.137882    -1.137882   0.17839335  0.030077683    -1.137882    1.3162753      1024000 
   13800   0.99270026   -1.1377383   -1.1377383   0.16959971   0.02799854   -1.1377383     1.307338      1024000 
   13900   0.99862952   -1.1388475   -1.1388475   0.17629907  0.023763932   -1.1388475    1.3151465      1024000 
   14000    1.0014604   -1.1386798   -1.1386798   0.18019485  0.025819298   -1.1386798    1.3188747      1024000 
   14100    1.0005493   -1.1414023   -1.1414023   0.17627249  0.028236383   -1.1414023    1.3176748      1024000 
   14200   0.99677068   -1.1413506   -1.1413506    0.1713479  0.038413178   -1.1413506    1.3126985      1024000 
   14300   0.99785777   -1.1422222   -1.1422222   0.17190795   0.02558175   -1.1422222    1.3141302      1024000 
   14400    1.0061831   -1.1401161   -1.1401161    0.1849782  0.023219131   -1.1401161    1.3250943      1024000 
   14500    1.0038818    -1.138632    -1.138632   0.18343146  0.029621934    -1.138632    1.3220635      1024000 
   14600   0.99742031   -1.1379571   -1.1379571   0.17559695  0.031286735   -1.1379571    1.3135541      1024000 
   14700   0.99818486   -1.1392221   -1.1392221   0.17533882  0.031305911   -1.1392221    1.3145609      1024000 
   14800     1.002741   -1.1404944   -1.1404944   0.18006675  0.024400037   -1.1404944    1.3205612      1024000 
   14900    1.0036464   -1.1388751   -1.1388751   0.18287843  0.018785082   -1.1388751    1.3217535      1024000 
   15000    1.0002039   -1.1411067   -1.1411067   0.17611326  0.028372012   -1.1411067    1.3172199      1024000 
   15100    0.9966402   -1.1421984   -1.1421984   0.17032832  0.029971206   -1.1421984    1.3125267      1024000 
   15200   0.99688337   -1.1382345   -1.1382345   0.17461248  0.037231847   -1.1382345    1.3128469      1024000 
   15300    1.0038815    -1.138866    -1.138866   0.18319713  0.027169075    -1.138866    1.3220632      1024000 
   15400    1.0015375   -1.1379281   -1.1379281    0.1810481  0.022013833   -1.1379281    1.3189762      1024000 
   15500    1.0000658   -1.1410616   -1.1410616   0.17597643  0.029336433   -1.1410616    1.3170381      1024000 
   15600   0.99990676   -1.1416562   -1.1416562   0.17517244   0.02909571   -1.1416562    1.3168286      1024000 
   15700   0.99830194   -1.1379856   -1.1379856   0.17672953  0.029408523   -1.1379856    1.3147151      1024000 
   15800    1.0006805   -1.1381064   -1.1381064   0.17974119   0.02185676   -1.1381064    1.3178476      1024000 
   15900    1.0009705   -1.1374605   -1.1374605   0.18076891  0.026998797   -1.1374605    1.3182294      1024000 
   16000    1.0028925   -1.1412682   -1.1412682   0.17949242  0.031558623   -1.1412682    1.3207607      1024000 
   16100   0.99759974   -1.1381322   -1.1381322   0.17565814  0.030546357   -1.1381322    1.3137904      1024000 
   16200   0.99796018   -1.1402802   -1.1402802   0.17398482  0.026458799   -1.1402802     1.314265      1024000 
   16300   0.99615642     -1.14448     -1.14448   0.16740958  0.027843408     -1.14448    1.3118896      1024000 
   16400   0.99876748   -1.1447734   -1.1447734    0.1705548  0.028580542   -1.1447734    1.3153282      1024000 
   16500    1.0041806   -1.1456692   -1.1456692   0.17678775  0.021982347   -1.1456692     1.322457      1024000 
   16600    1.0010829   -1.1435613   -1.1435613   0.17481623   0.02886775   -1.1435613    1.3183776      1024000 
   16700   0.99613048   -1.1448015   -1.1448015   0.16705388  0.028837151   -1.1448015    1.3118554      1024000 
   16800   0.99702625    -1.143882    -1.143882   0.16915315  0.028427769    -1.143882    1.3130351      1024000 
   16900    1.0058979   -1.1450621   -1.1450621   0.17965664  0.026570245   -1.1450621    1.3247187      1024000 
   17000     1.001061   -1.1420982   -1.1420982   0.17625051  0.028740146   -1.1420982    1.3183487      1024000 
   17100   0.99769705    -1.141853    -1.141853    0.1720655  0.030932155    -1.141853    1.3139185      1024000 
   17200   0.99716969   -1.1404899   -1.1404899   0.17273412  0.033425026   -1.1404899     1.313224      1024000 
   17300     1.004095   -1.1402867   -1.1402867   0.18205764  0.020784123   -1.1402867    1.3223443      1024000 
   17400    1.0037587   -1.1407761   -1.1407761   0.18112528  0.026380247   -1.1407761    1.3219014      1024000 
   17500    1.0009692   -1.1426053   -1.1426053    0.1756225  0.029793386   -1.1426053    1.3182278      1024000 
   17600   0.99889767   -1.1416286   -1.1416286   0.17387108  0.029388177   -1.1416286    1.3154997      1024000 
   17700    1.0002368   -1.1412146   -1.1412146   0.17604868  0.028276073   -1.1412146    1.3172632      1024000 
   17800    1.0017315   -1.1405877   -1.1405877   0.17864409  0.026636029   -1.1405877    1.3192318      1024000 
   17900   0.99644133    -1.141548    -1.141548    0.1707168  0.030595532    -1.141548    1.3122648      1024000 
   18000   0.99721565    -1.147294    -1.147294   0.16599053  0.030553692    -1.147294    1.3132845      1024000 
   18100    1.0005128   -1.1461253   -1.1461253   0.17150146  0.027319097   -1.1461253    1.3176268      1024000 
   18200     1.005008   -1.1471946   -1.1471946   0.17635207  0.026620579   -1.1471946    1.3235466      1024000 
   18300   0.99736573   -1.1483414   -1.1483414   0.16514079  0.030422876   -1.1483414    1.3134822      1024000 
   18400   0.99697467   -1.1517642   -1.1517642   0.16120298  0.039810268   -1.1517642    1.3129672      1024000 
   18500     1.002915   -1.1556684   -1.1556684   0.16512194  0.029090981   -1.1556684    1.3207904      1024000 
   18600     1.001838   -1.1545332   -1.1545332   0.16483872   0.01855378   -1.1545332    1.3193719      1024000 
   18700   0.99722762   -1.1561223   -1.1561223   0.15717803  0.027895649   -1.1561223    1.3133003      1024000 
   18800    0.9952408   -1.1560602   -1.1560602   0.15462358  0.026319803   -1.1560602    1.3106838      1024000 
   18900    1.0027593   -1.1545987   -1.1545987   0.16598665  0.031098777   -1.1545987    1.3205853      1024000 
   19000     1.002686   -1.1530204   -1.1530204   0.16746833  0.030866459   -1.1530204    1.3204887      1024000 
   19100   0.99806094   -1.1518542   -1.1518542   0.16254353  0.024374226   -1.1518542    1.3143977      1024000 
   19200   0.99718612   -1.1529043   -1.1529043   0.16034139  0.028445863   -1.1529043    1.3132457      1024000 
   19300    1.0013268   -1.1530246   -1.1530246   0.16567414  0.031316852   -1.1530246    1.3186988      1024000 
   19400    1.0078982   -1.1550715   -1.1550715   0.17228146  0.029575683   -1.1550715    1.3273529      1024000 
   19500   0.99798196   -1.1504967   -1.1504967   0.16379708  0.024431069   -1.1504967    1.3142937      1024000 
   19600   0.99794401   -1.1533406   -1.1533406   0.16090316  0.026886877   -1.1533406    1.3142438      1024000 
   19700    1.0020248    -1.155975    -1.155975   0.16364294  0.028365722    -1.155975    1.3196179      1024000 
   19800    1.0012998   -1.1558664   -1.1558664   0.16279675   0.02932554   -1.1558664    1.3186632      1024000 
   19900   0.99742451   -1.1584622   -1.1584622   0.15509744  0.027243413   -1.1584622    1.3135596      1024000 
   20000   0.99358499   -1.1572493   -1.1572493   0.15125383  0.034772204   -1.1572493    1.3085031      1024000 
   20100    1.0008117    -1.155947    -1.155947   0.16207337  0.026862202    -1.155947    1.3180203      1024000 
   20200   0.99967369   -1.1518525   -1.1518525   0.16466913  0.025222803   -1.1518525    1.3165217      1024000 
   20300    1.0010149   -1.1529865   -1.1529865   0.16530147  0.028349549   -1.1529865     1.318288      1024000 
   20400   0.99975245   -1.1550063   -1.1550063    0.1616191  0.030326149   -1.1550063    1.3166254      1024000 
   20500    0.9969226   -1.1577704   -1.1577704   0.15512818  0.027932574   -1.1577704    1.3128986      1024000 
   20600    0.9958187   -1.1572722   -1.1572722   0.15417263  0.024160543   -1.1572722    1.3114448      1024000 
   20700    1.0009923   -1.1519098   -1.1519098   0.16634851  0.027643197   -1.1519098    1.3182583      1024000 
   20800    1.0029093   -1.1543364   -1.1543364    0.1664464  0.033822012   -1.1543364    1.3207828      1024000 
   20900   0.99848303   -1.1546305   -1.1546305   0.16032314  0.028051962   -1.1546305    1.3149536      1024000 
   21000    0.9974062    -1.156421    -1.156421   0.15711451  0.021706474    -1.156421    1.3135355      1024000 
   21100    1.0005849   -1.1555369   -1.1555369    0.1621848  0.031275661   -1.1555369    1.3177217      1024000 
   21200    1.0066072   -1.1539232   -1.1539232    0.1717296    0.0360582   -1.1539232    1.3256528      1024000 
   21300    1.0021504   -1.1520121   -1.1520121   0.16777127  0.020451218   -1.1520121    1.3197834      1024000 
   21400   0.99797803   -1.1500705   -1.1500705   0.16421807  0.025112121   -1.1500705    1.3142886      1024000 
   21500   0.99877925   -1.1492669   -1.1492669   0.16607679  0.030642392   -1.1492669    1.3153437      1024000 
   21600    1.0017219   -1.1504809   -1.1504809   0.16873816  0.034801541   -1.1504809     1.319219      1024000 
   21700    1.0016316   -1.1533915   -1.1533915   0.16570864  0.037527032   -1.1533915    1.3191001      1024000 
   21800   0.99415351    -1.152231    -1.152231   0.15702085  0.022845112    -1.152231    1.3092518      1024000 
   21900   0.99709116   -1.1520516   -1.1520516   0.16106902  0.023024475   -1.1520516    1.3131206      1024000 
   22000    1.0023622   -1.1528569   -1.1528569    0.1672054  0.028545779   -1.1528569    1.3200623      1024000 
   22100    1.0007367   -1.1512997   -1.1512997   0.16662191  0.031042751   -1.1512997    1.3179216      1024000 
   22200    1.0006016    -1.153533    -1.153533   0.16421072  0.025106735    -1.153533    1.3177437      1024000 
   22300   0.99929978   -1.1554409   -1.1554409   0.16058835  0.023550857   -1.1554409    1.3160292      1024000 
   22400   0.99870204   -1.1570982   -1.1570982   0.15814383  0.032022896   -1.1570982     1.315242      1024000 
   22500    1.0012408   -1.1589061   -1.1589061   0.15967944  0.039255572   -1.1589061    1.3185855      1024000 
   22600    1.0029299   -1.1593781   -1.1593781   0.16143191  0.039446759   -1.1593781      1.32081      1024000 
   22700   0.99869532   -1.1607721   -1.1607721   0.15446105  0.010727806   -1.1607721    1.3152332      1024000 
   22800   0.99506914   -1.1595279   -1.1595279    0.1509298  0.030037163   -1.1595279    1.3104577      1024000 
   22900    1.0022388   -1.1604187   -1.1604187   0.15948106  0.035377789   -1.1604187    1.3198998      1024000 
   23000    1.0028044   -1.1585857   -1.1585857   0.16205894  0.035572218   -1.1585857    1.3206446      1024000 
   23100    1.0003228   -1.1586282   -1.1586282   0.15874831  0.022919241   -1.1586282    1.3173765      1024000 
   23200   0.99907515   -1.1589862   -1.1589862   0.15674725  0.021590763   -1.1589862    1.3157334      1024000 
   23300   0.99908764   -1.1589049   -1.1589049   0.15684495  0.031911765   -1.1589049    1.3157499      1024000 
   23400    1.0040732   -1.1575821   -1.1575821   0.16473355  0.031409816   -1.1575821    1.3223156      1024000 
   23500    1.0060538    -1.156867    -1.156867   0.16805693  0.024149781    -1.156867     1.324924      1024000 
   23600    1.0004969   -1.1594573   -1.1594573   0.15814853  0.024869658   -1.1594573    1.3176058      1024000 
   23700    1.0000318   -1.1619515   -1.1619515   0.15504182  0.034303354   -1.1619515    1.3169933      1024000 
   23800   0.99902052   -1.1594212   -1.1594212   0.15624024  0.033992517   -1.1594212    1.3156615      1024000 
   23900     1.002376   -1.1593772   -1.1593772   0.16070325  0.030567731   -1.1593772    1.3200804      1024000 
   24000    1.0030189   -1.1582763   -1.1582763   0.16265083  0.026707727   -1.1582763    1.3209271      1024000 
   24100   0.99757061    -1.161336    -1.161336     0.152416  0.025298031    -1.161336     1.313752      1024000 
   24200   0.99539678   -1.1614446   -1.1614446   0.14944457  0.025540681   -1.1614446    1.3108892      1024000 
   24300   0.99965469   -1.1601263   -1.1601263   0.15637031  0.024932032   -1.1601263    1.3164966      1024000 
   24400    1.0026688   -1.1595427   -1.1595427   0.16092328  0.027928868   -1.1595427     1.320466      1024000 
   24500    1.0005698   -1.1576594   -1.1576594   0.16004233   0.02637145   -1.1576594    1.3177017      1024000 
   24600   0.99919655   -1.1569645   -1.1569645   0.15892881   0.02703506   -1.1569645    1.3158933      1024000 
   24700    1.0023311   -1.1610811   -1.1610811   0.15894018  0.026634925   -1.1610811    1.3200213      1024000 
   24800   0.99973049   -1.1597078   -1.1597078   0.15688867  0.022308401   -1.1597078    1.3165965      1024000 
   24900   0.99789479   -1.1596498   -1.1596498   0.15452919  0.033963977   -1.1596498    1.3141789      1024000 
   25000   0.99845009   -1.1604117   -1.1604117   0.15449854  0.036521476   -1.1604117    1.3149102      1024000 
   25100     1.001784   -1.1615044   -1.1615044   0.15779645  0.024283127   -1.1615044    1.3193008      1024000 
   25200    1.0031085   -1.1636269   -1.1636269    0.1574183  0.020249671   -1.1636269    1.3210452      1024000 
   25300   0.99726819   -1.1643296   -1.1643296   0.14902416  0.032272704   -1.1643296    1.3133537      1024000 
   25400   0.99439906    -1.161159    -1.161159   0.14841623  0.035028926    -1.161159    1.3095752      1024000 
   25500    0.9994632   -1.1589361   -1.1589361   0.15730835  0.027088539   -1.1589361    1.3162444      1024000 
   25600     1.001314   -1.1598315   -1.1598315   0.15885034  0.027424907   -1.1598315    1.3186819      1024000 
   25700   0.99979577    -1.161759    -1.161759   0.15492344  0.028267477    -1.161759    1.3166824      1024000 
   25800   0.99781412   -1.1632622   -1.1632622   0.15081051  0.033951701   -1.1632622    1.3140727      1024000 
   25900    1.0000925    -1.166101    -1.166101   0.15097222  0.031294632    -1.166101    1.3170732      1024000 
   26000    1.0022572    -1.165842    -1.165842   0.15408194  0.021562949    -1.165842     1.319924      1024000 
   26100     1.002999   -1.1663567   -1.1663567   0.15454422  0.032397211   -1.1663567    1.3209009      1024000 
   26200   0.99732825   -1.1668831   -1.1668831   0.14654977  0.036896148   -1.1668831    1.3134328      1024000 
   26300   0.99704919   -1.1674739   -1.1674739   0.14559137  0.029910033   -1.1674739    1.3130653      1024000 
   26400    1.0021527   -1.1666436   -1.1666436   0.15314273  0.022312907   -1.1666436    1.3197864      1024000 
   26500    1.0034586   -1.1656379   -1.1656379   0.15586824  0.026609293   -1.1656379    1.3215062      1024000 
   26600    1.0021001   -1.1667267   -1.1667267   0.15299046  0.035643605   -1.1667267    1.3197172      1024000 
   26700    1.0021111   -1.1693269   -1.1693269   0.15040476  0.025903466   -1.1693269    1.3197317      1024000 
   26800    0.9983589   -1.1675551   -1.1675551     0.147235  0.028483581   -1.1675551    1.3147901      1024000 
   26900   0.99863904   -1.1674708   -1.1674708   0.14768824   0.03013368   -1.1674708    1.3151591      1024000 
   27000    1.0065962   -1.1702249   -1.1702249   0.15541334  0.030705337   -1.1702249    1.3256382      1024000 
   27100    1.0052469   -1.1704138   -1.1704138   0.15344747  0.029163565   -1.1704138    1.3238613      1024000 
   27200   0.99712616   -1.1686077   -1.1686077   0.14455903  0.023193687   -1.1686077    1.3131667      1024000 
   27300   0.99835173   -1.1677678   -1.1677678   0.14701294  0.029952699   -1.1677678    1.3147807      1024000 
   27400    1.0014542   -1.1665117   -1.1665117   0.15235479   0.03463196   -1.1665117    1.3188665      1024000 
   27500    1.0032364   -1.1679068   -1.1679068   0.15330684   0.02726337   -1.1679068    1.3212136      1024000 
   27600    0.9970573   -1.1684801   -1.1684801   0.14459591  0.025875396   -1.1684801     1.313076      1024000 
   27700   0.99423517   -1.1704248   -1.1704248   0.13893456  0.031920752   -1.1704248    1.3093594      1024000 
   27800    1.0008504   -1.1729363   -1.1729363   0.14513508  0.030869297   -1.1729363    1.3180713      1024000 
   27900    1.0022319   -1.1721149   -1.1721149   0.14777579  0.029298019   -1.1721149    1.3198907      1024000 
   28000    1.0007936   -1.1713354   -1.1713354   0.14666121  0.030160522   -1.1713354    1.3179966      1024000 
   28100   0.99967735   -1.1724168   -1.1724168    0.1441097  0.030030248   -1.1724168    1.3165265      1024000 
   28200   0.99497472   -1.1722703   -1.1722703   0.13806307  0.028790706   -1.1722703    1.3103333      1024000 
   28300   0.99145245   -1.1722627   -1.1722627   0.13343203  0.032840316   -1.1722627    1.3056947      1024000 
   28400    1.0012571   -1.1743731   -1.1743731   0.14423388  0.031257557   -1.1743731     1.318607      1024000 
   28500    1.0020856   -1.1718592   -1.1718592   0.14783879  0.026703047   -1.1718592     1.319698      1024000 
   28600     1.000447   -1.1694321   -1.1694321   0.14810797   0.02513148   -1.1694321    1.3175401      1024000 
   28700    1.0011618    -1.168345    -1.168345   0.15013637  0.030682712    -1.168345    1.3184814      1024000 
   28800      1.00329   -1.1671789   -1.1671789   0.15410518  0.034224318   -1.1671789    1.3212841      1024000 
   28900    1.0005531   -1.1686643   -1.1686643   0.14901553  0.027399468   -1.1686643    1.3176799      1024000 
   29000   0.99548109   -1.1692727   -1.1692727   0.14172754   0.02596852   -1.1692727    1.3110002      1024000 
   29100   0.99808504   -1.1695742   -1.1695742   0.14485531  0.032416315   -1.1695742    1.3144295      1024000 
   29200    1.0028649   -1.1695531   -1.1695531   0.15117121  0.035128066   -1.1695531    1.3207243      1024000 
   29300     1.003139   -1.1712066   -1.1712066   0.14987872  0.023499869   -1.1712066    1.3210853      1024000 
   29400     1.000031   -1.1704961   -1.1704961    0.1464961  0.029694557   -1.1704961    1.3169922      1024000 
   29500   0.99971245   -1.1714886   -1.1714886   0.14508413  0.034010456   -1.1714886    1.3165727      1024000 
   29600    0.9959114   -1.1667019   -1.1667019   0.14486506  0.033616034   -1.1667019    1.3115669      1024000 
   29700    1.0032472   -1.1648403   -1.1648403    0.1563875  0.023060324   -1.1648403    1.3212278      1024000 
   29800    1.0044131   -1.1651121   -1.1651121    0.1576511  0.030343497   -1.1651121    1.3227632      1024000 
   29900   0.99889272   -1.1661689   -1.1661689   0.14932431  0.031955036   -1.1661689    1.3154932      1024000 
   30000   0.99785136   -1.1670057   -1.1670057   0.14711603  0.032198832   -1.1670057    1.3141217      1024000 
   30100   0.99935124   -1.1673973   -1.1673973   0.14869973  0.027495293   -1.1673973     1.316097      1024000 
   30200    1.0055501   -1.1691866   -1.1691866   0.15507403  0.029289283   -1.1691866    1.3242606      1024000 
   30300    1.0077595   -1.1634978   -1.1634978   0.16367249  0.035309791   -1.1634978    1.3271703      1024000 
   30400    1.0039948   -1.1654649   -1.1654649    0.1567474  0.029671828   -1.1654649    1.3222123      1024000 
   30500   0.99977985   -1.1686405   -1.1686405   0.14802101  0.030016494   -1.1686405    1.3166615      1024000 
   30600   0.99905911   -1.1687337   -1.1687337   0.14697863  0.029681776   -1.1687337    1.3157123      1024000 
   30700   0.99828471   -1.1676538   -1.1676538   0.14703867  0.027994545   -1.1676538    1.3146924      1024000 
   30800    1.0015497   -1.1669016   -1.1669016    0.1520907  0.032386301   -1.1669016    1.3189923      1024000 
   30900    1.0054937   -1.1665305   -1.1665305   0.15765588  0.034833397   -1.1665305    1.3241864      1024000 
   31000    1.0003094   -1.1665856   -1.1665856   0.15077326  0.032601248   -1.1665856    1.3173588      1024000 
   31100   0.99518444   -1.1661264   -1.1661264   0.14448317  0.027960588   -1.1661264    1.3106095      1024000 
   31200    1.0002952   -1.1681842   -1.1681842   0.14915592  0.030334385   -1.1681842    1.3173401      1024000 
   31300    1.0015965   -1.1664776   -1.1664776   0.15257632  0.036530932   -1.1664776    1.3190539      1024000 
   31400    1.0015736   -1.1683478   -1.1683478     0.150676   0.03692166   -1.1683478    1.3190238      1024000 
   31500    0.9939256   -1.1693097   -1.1693097   0.13964197  0.027046559   -1.1693097    1.3089517      1024000 
   31600   0.99644694    -1.171251    -1.171251   0.14102123  0.027443872    -1.171251    1.3122722      1024000 
   31700   0.99907349   -1.1695648   -1.1695648   0.14616647  0.034868006   -1.1695648    1.3157312      1024000 
   31800   0.99882073   -1.1672362   -1.1672362   0.14816211  0.033831816   -1.1672362    1.3153984      1024000 
   31900   0.99990478   -1.1683459   -1.1683459   0.14848009  0.025934063   -1.1683459     1.316826      1024000 
   32000    1.0023275   -1.1652797   -1.1652797   0.15473688  0.028708647   -1.1652797    1.3200166      1024000 
   32100    1.0075125   -1.1634178   -1.1634178   0.16342716  0.029454576   -1.1634178     1.326845      1024000 
   32200    1.0017507   -1.1630426   -1.1630426   0.15621433  0.025915669   -1.1630426     1.319257      1024000 
   32300    1.0009033   -1.1667723   -1.1667723   0.15136872  0.029744457   -1.1667723     1.318141      1024000 
   32400   0.99847852   -1.1650036   -1.1650036   0.14994405  0.038773244   -1.1650036    1.3149477      1024000 
   32500    1.0013271   -1.1666296   -1.1666296   0.15206955  0.031140196   -1.1666296    1.3186991      1024000 
   32600    1.0045971    -1.165751    -1.165751   0.15725459   0.03266666    -1.165751    1.3230056      1024000 
   32700    1.0050163    -1.167131    -1.167131   0.15642655  0.023341324    -1.167131    1.3235576      1024000 
   32800   0.99606404   -1.1656739   -1.1656739   0.14609403  0.028362757   -1.1656739    1.3117679      1024000 
   32900   0.99843446   -1.1663167   -1.1663167   0.14857298  0.030996573   -1.1663167    1.3148897      1024000 
   33000     1.003848   -1.1672785   -1.1672785   0.15474049   0.03505036   -1.1672785     1.322019      1024000 
   33100    1.0052123   -1.1710617   -1.1710617   0.15275406  0.029690988   -1.1710617    1.3238157      1024000 
   33200    1.0015512   -1.1723117   -1.1723117   0.14668259  0.033081011   -1.1723117    1.3189943      1024000 
   33300    1.0003293   -1.1724161   -1.1724161   0.14496895  0.030707528   -1.1724161     1.317385      1024000 
   33400   0.99814824   -1.1703224   -1.1703224    0.1441903  0.026069469   -1.1703224    1.3145127      1024000 
   33500    1.0008291   -1.1709713   -1.1709713   0.14707192  0.029394197   -1.1709713    1.3180433      1024000 
   33600    1.0032721   -1.1699236   -1.1699236   0.15133699  0.037891892   -1.1699236    1.3212606      1024000 
   33700     1.000869   -1.1686013   -1.1686013   0.14949453  0.033099908   -1.1686013    1.3180958      1024000 
   33800   0.99706956   -1.1713466   -1.1713466   0.14174552  0.022379294   -1.1713466    1.3130922      1024000 
   33900   0.99663708   -1.1711218   -1.1711218   0.14140084  0.028050507   -1.1711218    1.3125226      1024000 
   34000    1.0028487   -1.1692143   -1.1692143   0.15148872  0.031663585   -1.1692143     1.320703      1024000 
   34100    1.0039982   -1.1699586   -1.1699586   0.15225812   0.03491858   -1.1699586    1.3222168      1024000 
   34200   0.99962182   -1.1691959   -1.1691959   0.14725745  0.044725425   -1.1691959    1.3164533      1024000 
   34300   0.99744793   -1.1680724   -1.1680724   0.14551804  0.019152255   -1.1680724    1.3135904      1024000 
   34400    1.0032899   -1.1701207   -1.1701207   0.15116337  0.027928392   -1.1701207    1.3212841      1024000 
   34500     1.006916    -1.168519    -1.168519   0.15754038  0.029502419    -1.168519    1.3260594      1024000 
   34600    1.0023398   -1.1708852   -1.1708852   0.14914767  0.028612592   -1.1708852    1.3200328      1024000 
   34700   0.99940692   -1.1700366   -1.1700366   0.14613374  0.028518257   -1.1700366    1.3161703      1024000 
   34800   0.99879479   -1.1686557   -1.1686557   0.14670847  0.028627465   -1.1686557    1.3153642      1024000 
   34900    1.0022556    -1.171174    -1.171174   0.14874788   0.03568789    -1.171174    1.3199218      1024000 
   35000   0.99855776   -1.1703486   -1.1703486   0.14470347  0.040540338   -1.1703486     1.315052      1024000 
   35100   0.99723986   -1.1767307   -1.1767307   0.13658568  0.025364701   -1.1767307    1.3133164      1024000 
   35200   0.99668174   -1.1752681   -1.1752681   0.13731327  0.031829505   -1.1752681    1.3125814      1024000 
   35300    1.0037299   -1.1729376   -1.1729376    0.1489259  0.034099038   -1.1729376    1.3218635      1024000 
   35400     1.003654   -1.1744854   -1.1744854   0.14727823  0.029415799   -1.1744854    1.3217636      1024000 
   35500   0.99876431   -1.1745638   -1.1745638   0.14076026  0.025501023   -1.1745638    1.3153241      1024000 
   35600   0.99654433   -1.1743761   -1.1743761   0.13802439  0.032003355   -1.1743761    1.3124004      1024000 
   35700    1.0001911   -1.1727838   -1.1727838   0.14441924  0.039844723   -1.1727838     1.317203      1024000 
   35800    1.0031731    -1.169599    -1.169599   0.15153125  0.032165114    -1.169599    1.3211302      1024000 
   35900   0.99992663   -1.1677555   -1.1677555    0.1490993  0.030573402   -1.1677555    1.3168548      1024000 
   36000   0.99850676   -1.1676037   -1.1676037   0.14738118  0.028867689   -1.1676037    1.3149849      1024000 
   36100    1.0000727   -1.1677189   -1.1677189   0.14932831  0.031313021   -1.1677189    1.3170472      1024000 
   36200    1.0037273   -1.1689766   -1.1689766   0.15288357  0.032531576   -1.1689766    1.3218601      1024000 
   36300    1.0027142   -1.1679204   -1.1679204   0.15260552  0.036703514   -1.1679204    1.3205259      1024000 
   36400   0.99917309   -1.1727239   -1.1727239   0.14313854  0.018503323   -1.1727239    1.3158624      1024000 
   36500   0.99727686   -1.1733848   -1.1733848   0.13998039  0.030908923   -1.1733848    1.3133652      1024000 
   36600   0.99985176   -1.1740534   -1.1740534   0.14270277   0.03328855   -1.1740534    1.3167562      1024000 
   36700    1.0031679   -1.1698341   -1.1698341   0.15128935  0.034632575   -1.1698341    1.3211234      1024000 
   36800    1.0081734   -1.1714639   -1.1714639   0.15625148  0.025828493   -1.1714639    1.3277154      1024000 
   36900   0.99914578   -1.1723052   -1.1723052   0.14352121  0.029442066   -1.1723052    1.3158264      1024000 
   37000   0.99880497    -1.173493    -1.173493   0.14188461  0.034748963    -1.173493    1.3153776      1024000 
   37100    1.0001227   -1.1715622   -1.1715622   0.14555081  0.033961727   -1.1715622     1.317113      1024000 
   37200    1.0035795   -1.1714799   -1.1714799   0.15018546  0.035880922   -1.1714799    1.3216654      1024000 
   37300    1.0024764   -1.1725281   -1.1725281   0.14768455  0.023469497   -1.1725281    1.3202127      1024000 
   37400    0.9971674    -1.175535    -1.175535   0.13768596  0.028826617    -1.175535     1.313221      1024000 
   37500   0.99675104   -1.1722613   -1.1722613   0.14041138  0.029968305   -1.1722613    1.3126727      1024000 
   37600    1.0019831   -1.1748284   -1.1748284   0.14473457  0.030368956   -1.1748284     1.319563      1024000 
   37700    1.0009206   -1.1758463   -1.1758463   0.14231753  0.030285073   -1.1758463    1.3181638      1024000 
   37800   0.99842471   -1.1762005   -1.1762005   0.13867634  0.039250683   -1.1762005    1.3148768      1024000 
   37900   0.99834989   -1.1767641   -1.1767641   0.13801413  0.034853102   -1.1767641    1.3147783      1024000 
   38000   0.99980196   -1.1740493   -1.1740493   0.14264129  0.024948909   -1.1740493    1.3166906      1024000 
   38100    1.0032659   -1.1728849   -1.1728849   0.14836749  0.032064468   -1.1728849    1.3212524      1024000 
   38200    1.0023949   -1.1743171   -1.1743171    0.1457883  0.038243713   -1.1743171    1.3201054      1024000 
   38300   0.99737526   -1.1750204   -1.1750204   0.13847432  0.035795559   -1.1750204    1.3134947      1024000 
   38400   0.99651383   -1.1730886   -1.1730886   0.13927169  0.021718444   -1.1730886    1.3123603      1024000 
   38500     1.000918   -1.1710843   -1.1710843   0.14707596  0.031143833   -1.1710843    1.3181603      1024000 
   38600    1.0019174   -1.1719087   -1.1719087   0.14756776  0.031219508   -1.1719087    1.3194765      1024000 
   38700   0.99883462   -1.1699236   -1.1699236   0.14549307  0.028966372   -1.1699236    1.3154166      1024000 
   38800   0.99774097   -1.1664216   -1.1664216   0.14755477   0.02798461   -1.1664216    1.3139764      1024000 
   38900    1.0042926   -1.1665091   -1.1665091   0.15609539  0.029627368   -1.1665091    1.3226045      1024000 
   39000    1.0032133   -1.1652349   -1.1652349   0.15594831  0.036043252   -1.1652349    1.3211832      1024000 
   39100   0.99561818   -1.1668298   -1.1668298   0.14435098  0.034043893   -1.1668298    1.3111807      1024000 
   39200   0.99631857    -1.166578    -1.166578   0.14552515  0.036562255    -1.166578    1.3121031      1024000 
   39300     1.000148   -1.1657993   -1.1657993     0.151347  0.033226679   -1.1657993    1.3171463      1024000 
   39400    1.0013297   -1.1651453   -1.1651453   0.15355722  0.024505116   -1.1651453    1.3187025      1024000 
   39500   0.99921512   -1.1654202   -1.1654202   0.15049752  0.032798714   -1.1654202    1.3159178      1024000 
   39600   0.99492912    -1.169503    -1.169503   0.14077033  0.035332017    -1.169503    1.3102733      1024000 
   39700   0.99693887   -1.1692033   -1.1692033   0.14371671  0.031454927   -1.1692033      1.31292      1024000 
   39800    1.0035356   -1.1681525   -1.1681525   0.15345516  0.024520052   -1.1681525    1.3216076      1024000 
   39900    1.0018325   -1.1682566   -1.1682566   0.15110801  0.034579118   -1.1682566    1.3193646      1024000 
   40000    1.0012554   -1.1730064   -1.1730064   0.14559831  0.030789396   -1.1730064    1.3186047      1024000 
   40100   0.99834456   -1.1736758   -1.1736758   0.14109551  0.029636157   -1.1736758    1.3147713      1024000 
   40200   0.99950488   -1.1737397   -1.1737397   0.14255966  0.032218226   -1.1737397    1.3162994      1024000 
   40300     1.006501   -1.1720968   -1.1720968   0.15341605  0.037740831   -1.1720968    1.3255128      1024000 
   40400    1.0043616   -1.1722582   -1.1722582   0.15043711  0.039529447   -1.1722582    1.3226953      1024000 
   40500    1.0004293   -1.1746527   -1.1746527   0.14286408  0.022863834   -1.1746527    1.3175167      1024000 
   40600   0.99768955   -1.1722734   -1.1722734   0.14163522  0.028896144   -1.1722734    1.3139086      1024000 
   40700    1.0000388   -1.1730942   -1.1730942   0.14390822  0.040337811   -1.1730942    1.3170024      1024000 
   40800    1.0036349   -1.1719008   -1.1719008   0.14983749  0.039335691   -1.1719008    1.3217383      1024000 
   40900    1.0060496   -1.1686766   -1.1686766   0.15624186  0.031191822   -1.1686766    1.3249184      1024000 
   41000   0.99756017   -1.1657519   -1.1657519   0.14798638   0.02938798   -1.1657519    1.3137383      1024000 
   41100   0.99472973   -1.1664567   -1.1664567   0.14355396  0.027636378   -1.1664567    1.3100107      1024000 
   41200   0.99877202   -1.1663085   -1.1663085   0.14902575  0.033404349   -1.1663085    1.3153342      1024000 
   41300    1.0011349   -1.1647054   -1.1647054   0.15374058  0.049892289   -1.1647054     1.318446      1024000 
   41400    1.0003554   -1.1638427   -1.1638427   0.15357665  0.026828527   -1.1638427    1.3174194      1024000 
   41500   0.99912113   -1.1672227   -1.1672227   0.14857124  0.027864413   -1.1672227     1.315794      1024000 
   41600   0.99249851   -1.1683011   -1.1683011   0.13877117  0.032517711   -1.1683011    1.3070723      1024000 
   41700   0.99810286   -1.1692279   -1.1692279   0.14522508   0.03308688   -1.1692279     1.314453      1024000 
   41800    1.0006642   -1.1669479   -1.1669479   0.15087824  0.026241754   -1.1669479    1.3178261      1024000 
   41900   0.99939765   -1.1633747   -1.1633747   0.15278344  0.027165245   -1.1633747    1.3161581      1024000 
   42000    1.0011147   -1.1624985   -1.1624985   0.15592086  0.036181215   -1.1624985    1.3184194      1024000 
   42100    1.0046227   -1.1621279   -1.1621279   0.16091141   0.03994769   -1.1621279    1.3230393      1024000 
   42200    1.0036806    -1.165109    -1.165109   0.15668961  0.029839289    -1.165109    1.3217986      1024000 
   42300    0.9980273   -1.1664251   -1.1664251   0.14792837  0.027060576   -1.1664251    1.3143534      1024000 
   42400   0.99850488   -1.1656845   -1.1656845   0.14929788  0.034980522   -1.1656845    1.3149824      1024000 
   42500    1.0033913     -1.16756     -1.16756   0.15385759  0.039145891     -1.16756    1.3214176      1024000 
   42600    0.9992229   -1.1657184   -1.1657184   0.15020962  0.032940378   -1.1657184     1.315928      1024000 
   42700   0.99472712   -1.1684458   -1.1684458   0.14156143  0.031272562   -1.1684458    1.3100073      1024000 
   42800   0.99593529   -1.1662078   -1.1662078   0.14539054  0.029017478   -1.1662078    1.3115984      1024000 
   42900    1.0016178   -1.1654548   -1.1654548   0.15362717  0.025546503   -1.1654548     1.319082      1024000 
   43000     1.000764   -1.1647937   -1.1647937   0.15316394  0.033488345   -1.1647937    1.3179576      1024000 
   43100    0.9999383   -1.1669299   -1.1669299   0.14994022   0.03715531   -1.1669299    1.3168701      1024000 
   43200   0.99824205   -1.1671132   -1.1671132   0.14752305  0.037297678   -1.1671132    1.3146363      1024000 
   43300    1.0003072   -1.1632647   -1.1632647   0.15409128  0.025632322   -1.1632647     1.317356      1024000 
   43400    1.0052022   -1.1633505   -1.1633505   0.16045194  0.030598673   -1.1633505    1.3238024      1024000 
   43500     1.001934   -1.1653878   -1.1653878   0.15411054  0.036566917   -1.1653878    1.3194984      1024000 
   43600   0.99773601   -1.1648178   -1.1648178   0.14915207  0.034522803   -1.1648178    1.3139698      1024000 
   43700   0.99859026   -1.1642868   -1.1642868   0.15080807  0.035530935   -1.1642868    1.3150948      1024000 
   43800    1.0021288   -1.1650401   -1.1650401   0.15471487  0.025622098   -1.1650401    1.3197549      1024000 
   43900    1.0039911   -1.1659409   -1.1659409   0.15626661  0.028526917   -1.1659409    1.3222075      1024000 
   44000   0.99739486   -1.1674343   -1.1674343   0.14608628  0.031305729   -1.1674343    1.3135206      1024000 
   44100   0.99430477    -1.165395    -1.165395   0.14405602  0.032094062    -1.165395    1.3094511      1024000 
   44200    1.0007674   -1.1649764   -1.1649764   0.15298557   0.03729866   -1.1649764     1.317962      1024000 
   44300    1.0049624   -1.1687866   -1.1687866   0.15470006  0.037207527   -1.1687866    1.3234867      1024000 
   44400    1.0010765    -1.171182    -1.171182   0.14718718  0.025236153    -1.171182    1.3183691      1024000 
   44500   0.99753635   -1.1693713   -1.1693713   0.14433562  0.034442682   -1.1693713    1.3137069      1024000 
   44600   0.99677798   -1.1657615   -1.1657615   0.14694661  0.038939499   -1.1657615    1.3127081      1024000 
   44700    1.0003525    -1.164935    -1.164935   0.15248066  0.036859506    -1.164935    1.3174156      1024000 
   44800    1.0009563   -1.1635796   -1.1635796   0.15463116  0.033342676   -1.1635796    1.3182107      1024000 
   44900    1.0001235   -1.1638772   -1.1638772   0.15323676  0.021911498   -1.1638772     1.317114      1024000 
   45000    1.0020886   -1.1679336   -1.1679336   0.15176839  0.031413868   -1.1679336     1.319702      1024000 
   45100     1.000169   -1.1668276   -1.1668276   0.15034635  0.035117644   -1.1668276    1.3171739      1024000 
   45200    1.0036414   -1.1726386   -1.1726386   0.14910837  0.035511659   -1.1726386     1.321747      1024000 
   45300   0.99996053   -1.1721671   -1.1721671   0.14473232  0.026289231   -1.1721671    1.3168994      1024000 
   45400   0.99631188   -1.1695112   -1.1695112   0.14258308    0.0315216   -1.1695112    1.3120943      1024000 
   45500    1.0029376   -1.1700057   -1.1700057   0.15081435  0.036497055   -1.1700057      1.32082      1024000 
   45600    1.0080369   -1.1701161   -1.1701161   0.15741943  0.037685963   -1.1701161    1.3275356      1024000 
   45700    1.0019184   -1.1695528   -1.1695528   0.14992494  0.031991582   -1.1695528    1.3194778      1024000 
   45800   0.99855385   -1.1686604   -1.1686604   0.14638648  0.027596962   -1.1686604    1.3150469      1024000 
   45900   0.99826858   -1.1679358   -1.1679358   0.14673537  0.033020255   -1.1679358    1.3146712      1024000 
   46000    1.0010055    -1.165873    -1.165873   0.15240258  0.043222342    -1.165873    1.3182756      1024000 
   46100    1.0052013   -1.1646071   -1.1646071    0.1591942  0.028259318   -1.1646071    1.3238013      1024000 
   46200     1.000533   -1.1652134   -1.1652134   0.15243996  0.027258505   -1.1652134    1.3176533      1024000 
   46300   0.99530553   -1.1652295   -1.1652295    0.1455395   0.03251851   -1.1652295     1.310769      1024000 
   46400   0.99944712   -1.1656016   -1.1656016   0.15062172  0.036238937   -1.1656016    1.3162233      1024000 
   46500    1.0005708   -1.1625544   -1.1625544    0.1551487  0.035012522   -1.1625544    1.3177031      1024000 
   46600    1.0012416   -1.1647342   -1.1647342   0.15385227  0.034339092   -1.1647342    1.3185865      1024000 
   46700   0.99620683     -1.16274     -1.16274   0.14921602  0.032526585     -1.16274     1.311956      1024000 
   46800   0.99218805   -1.1649062   -1.1649062   0.14175723  0.030702707   -1.1649062    1.3066634      1024000 
   46900   0.99859818   -1.1700659   -1.1700659   0.14503937  0.027127125   -1.1700659    1.3151053      1024000 
   47000    1.0042247   -1.1705229   -1.1705229   0.15199226  0.033772603   -1.1705229    1.3225151      1024000 
   47100    1.0003823   -1.1693118   -1.1693118   0.14814305  0.041196327   -1.1693118    1.3174548      1024000 
   47200    0.9955485   -1.1714023   -1.1714023    0.1396867  0.029605017   -1.1714023     1.311089      1024000 
   47300    0.9975528    -1.169686    -1.169686   0.14404254  0.023497292    -1.169686    1.3137286      1024000 
   47400    1.0053913   -1.1685403   -1.1685403    0.1555111  0.029961011   -1.1685403    1.3240514      1024000 
   47500    1.0026663    -1.170481    -1.170481   0.14998182  0.032125861    -1.170481    1.3204628      1024000 
   47600   0.99537396   -1.1668637   -1.1668637   0.14399546  0.044106893   -1.1668637    1.3108591      1024000 
   47700   0.99843338   -1.1693877   -1.1693877   0.14550053  0.034348576   -1.1693877    1.3148882      1024000 
   47800    1.0036283   -1.1705481   -1.1705481   0.15118161  0.027621302   -1.1705481    1.3217297      1024000 
   47900    1.0052485   -1.1708742   -1.1708742   0.15298928  0.028785102   -1.1708742    1.3238634      1024000 
   48000   0.99501429   -1.1680278   -1.1680278   0.14235769  0.030663252   -1.1680278    1.3103855      1024000 
   48100   0.99669866   -1.1680676   -1.1680676   0.14453609   0.03264098   -1.1680676    1.3126037      1024000 
   48200   0.99981629   -1.1651933   -1.1651933   0.15151613  0.045875186   -1.1651933    1.3167095      1024000 
   48300    1.0009102   -1.1647009   -1.1647009   0.15344913  0.032490392   -1.1647009    1.3181501      1024000 
   48400    1.0011057   -1.1653235   -1.1653235   0.15308401  0.025337883   -1.1653235    1.3184075      1024000 
   48500   0.99779917   -1.1668839   -1.1668839    0.1471691  0.032038602   -1.1668839     1.314053      1024000 
   48600   0.99235401   -1.1673434   -1.1673434   0.13953859  0.034634337   -1.1673434     1.306882      1024000 
   48700     1.001321   -1.1705569   -1.1705569   0.14813421  0.038590943   -1.1705569    1.3186911      1024000 
   48800    1.0037193   -1.1706575   -1.1706575   0.15119195  0.033216302   -1.1706575    1.3218495      1024000 
   48900    1.0017179   -1.1725435   -1.1725435   0.14667033  0.022459077   -1.1725435    1.3192138      1024000 
   49000   0.99887504   -1.1734978   -1.1734978   0.14197205  0.032679621   -1.1734978    1.3154699      1024000 
   49100   0.99948236   -1.1745801   -1.1745801   0.14168963   0.03676726   -1.1745801    1.3162697      1024000 
   49200    1.0013482    -1.176219    -1.176219   0.14250795  0.019985113    -1.176219    1.3187269      1024000 
   49300    1.0011934   -1.1743725   -1.1743725    0.1441505  0.034858525   -1.1743725     1.318523      1024000 
   49400   0.99970448   -1.1707266   -1.1707266   0.14583563  0.041949891   -1.1707266    1.3165622      1024000 
   49500   0.99914783    -1.168574    -1.168574   0.14725516  0.035816564    -1.168574    1.3158291      1024000 
   49600    1.0017676   -1.1694668   -1.1694668   0.14981251   0.03158478   -1.1694668    1.3192793      1024000 
   49700    1.0022653   -1.1677088   -1.1677088   0.15222584  0.028716627   -1.1677088    1.3199346      1024000 
   49800     1.001818   -1.1661536   -1.1661536   0.15319204  0.036528307   -1.1661536    1.3193456      1024000 
   49900   0.99946251   -1.1684949   -1.1684949   0.14774862  0.039883493   -1.1684949    1.3162436      1024000 
   50000   0.99406292   -1.1653327   -1.1653327   0.14379982  0.021481084   -1.1653327    1.3091325      1024000 
   50100    1.0011846    -1.164178    -1.164178   0.15433343  0.028382667    -1.164178    1.3185114      1024000 
   50200    1.0028068   -1.1641177   -1.1641177   0.15653019  0.038360379   -1.1641177    1.3206479      1024000 
   50300   0.99895002   -1.1637871   -1.1637871   0.15178157  0.034723361   -1.1637871    1.3155686      1024000 
   50400   0.99784865   -1.1650293   -1.1650293   0.14908883  0.017715502   -1.1650293    1.3141182      1024000 
   50500    1.0018601   -1.1649262   -1.1649262   0.15447491  0.034524856   -1.1649262    1.3194011      1024000 
   50600    1.0085598    -1.166045    -1.166045   0.16217919  0.037161676    -1.166045    1.3282242      1024000 
   50700    1.0027183   -1.1665819   -1.1665819   0.15394939  0.026597925   -1.1665819    1.3205313      1024000 
   50800   0.99733389   -1.1639762   -1.1639762   0.14946407  0.034866911   -1.1639762    1.3134403      1024000 
   50900   0.99722912   -1.1606004   -1.1606004   0.15270185  0.037256978   -1.1606004    1.3133023      1024000 
   51000    1.0014188   -1.1580176   -1.1580176   0.16080223  0.037263247   -1.1580176    1.3188199      1024000 
   51100    1.0026587   -1.1586347   -1.1586347   0.16181816  0.033297794   -1.1586347    1.3204528      1024000 
   51200   0.99834147   -1.1580768   -1.1580768   0.15669037  0.027157811   -1.1580768    1.3147672      1024000 
   51300   0.99239291   -1.1623618   -1.1623618   0.14457146  0.028800029   -1.1623618    1.3069332      1024000 
   51400    0.9941232   -1.1620196   -1.1620196   0.14719229  0.034017103   -1.1620196    1.3092119      1024000 
   51500    1.0012416   -1.1655896   -1.1655896   0.15299695  0.037495596   -1.1655896    1.3185866      1024000 
   51600    1.0009152   -1.1635771   -1.1635771   0.15457954  0.040427987   -1.1635771    1.3181567      1024000 
   51700     1.000058   -1.1635544   -1.1635544   0.15347337   0.02450652   -1.1635544    1.3170278      1024000 
   51800   0.99998153   -1.1634152   -1.1634152   0.15351184   0.03318797   -1.1634152    1.3169271      1024000 
   51900    1.0007613    -1.161783    -1.161783   0.15617101  0.037809841    -1.161783     1.317954      1024000 
   52000     1.001507   -1.1591476   -1.1591476   0.15978847  0.032763374   -1.1591476    1.3189361      1024000 
   52100    1.0002139    -1.158936    -1.158936    0.1582971  0.024373367    -1.158936    1.3172331      1024000 
   52200   0.99884286   -1.1654966   -1.1654966   0.14993093  0.030636851   -1.1654966    1.3154275      1024000 
   52300    0.9961432   -1.1625333   -1.1625333   0.14933889   0.03958759   -1.1625333    1.3118722      1024000 
   52400    1.0047523   -1.1646168   -1.1646168   0.15859307  0.037659352   -1.1646168    1.3232099      1024000 
   52500    1.0043567   -1.1620571   -1.1620571   0.16063177  0.031635267   -1.1620571    1.3226889      1024000 
   52600    1.0007816    -1.161206    -1.161206   0.15677472  0.030659557    -1.161206    1.3179807      1024000 
   52700   0.99788291   -1.1585525   -1.1585525   0.15561074  0.034777002   -1.1585525    1.3141633      1024000 
   52800    1.0011532   -1.1574095   -1.1574095    0.1610606  0.036099036   -1.1574095    1.3184701      1024000 
   52900    1.0021807   -1.1530604   -1.1530604   0.16676286  0.035346331   -1.1530604    1.3198233      1024000 
   53000    1.0025636   -1.1544818   -1.1544818   0.16584578  0.030089194   -1.1544818    1.3203276      1024000 
   53100   0.99423666     -1.15508     -1.15508   0.15428136  0.022403056     -1.15508    1.3093614      1024000 
   53200   0.99546901   -1.1547913   -1.1547913   0.15619296  0.034143714   -1.1547913    1.3109843      1024000 
   53300    1.0035344   -1.1595814   -1.1595814   0.16202464  0.038501451   -1.1595814    1.3216061      1024000 
   53400    1.0015158   -1.1603391   -1.1603391   0.15860846  0.040364379   -1.1603391    1.3189476      1024000 
   53500   0.99931326   -1.1631993   -1.1631993   0.15284768  0.028074377   -1.1631993     1.316047      1024000 
   53600   0.99792977   -1.1623103   -1.1623103   0.15191468  0.033284481   -1.1623103     1.314225      1024000 
   53700   0.99955231    -1.162427    -1.162427   0.15393479  0.036680846    -1.162427    1.3163618      1024000 
   53800    1.0014366   -1.1643423   -1.1643423   0.15450104  0.033354411   -1.1643423    1.3188433      1024000 
   53900    0.9952306   -1.1643299   -1.1643299   0.14634041  0.026938845   -1.1643299    1.3106703      1024000 
   54000   0.99342575   -1.1665713   -1.1665713   0.14172213  0.032565789   -1.1665713    1.3082934      1024000 
   54100   0.99880898   -1.1642653   -1.1642653    0.1511176  0.036076675   -1.1642653    1.3153829      1024000 
   54200    1.0013382   -1.1634239   -1.1634239   0.15528992  0.034782681   -1.1634239    1.3187138      1024000 
   54300    1.0003525   -1.1622477   -1.1622477   0.15516793  0.033640078   -1.1622477    1.3174156      1024000 
   54400   0.99716688   -1.1593602   -1.1593602   0.15386013  0.035486681   -1.1593602    1.3132203      1024000 
   54500    1.0003785   -1.1607806   -1.1607806   0.15666934  0.034919731   -1.1607806    1.3174499      1024000 
   54600    1.0037159   -1.1572072   -1.1572072   0.16463791  0.031054405   -1.1572072    1.3218451      1024000 
   54700    1.0015953   -1.1547741   -1.1547741   0.16427829  0.030149511   -1.1547741    1.3190524      1024000 
   54800    0.9964562   -1.1546813   -1.1546813   0.15760309   0.03264809   -1.1546813    1.3122844      1024000 
   54900   0.99594718   -1.1559395   -1.1559395   0.15567457  0.036166153   -1.1559395     1.311614      1024000 
   55000    1.0024259   -1.1519312   -1.1519312   0.16821501  0.034508609   -1.1519312    1.3201462      1024000 
   55100    1.0019597   -1.1516977   -1.1516977   0.16783451   0.03151202   -1.1516977    1.3195322      1024000 
   55200   0.99759029   -1.1515798   -1.1515798   0.16219816  0.032661235   -1.1515798    1.3137779      1024000 
   55300   0.99765908   -1.1519418   -1.1519418   0.16192669   0.03295569   -1.1519418    1.3138685      1024000 
   55400    1.0054993    -1.153557    -1.153557   0.17063671  0.034918687    -1.153557    1.3241937      1024000 
   55500    1.0067133   -1.1543846   -1.1543846   0.17140798   0.03242095   -1.1543846    1.3257925      1024000 
   55600   0.99836431   -1.1546567   -1.1546567   0.16014053  0.035075698   -1.1546567    1.3147973      1024000 
   55700   0.99892597   -1.1549238   -1.1549238   0.16061316  0.038756945   -1.1549238    1.3155369      1024000 
   55800    1.0016096   -1.1530662   -1.1530662   0.16600505  0.026788007   -1.1530662    1.3190712      1024000 
   55900    1.0020263   -1.1505095   -1.1505095   0.16911043  0.034255085   -1.1505095    1.3196199      1024000 
   56000    1.0006775   -1.1536595   -1.1536595   0.16418412  0.035517793   -1.1536595    1.3178436      1024000 
   56100   0.99421045   -1.1523085   -1.1523085   0.15701834  0.033088792   -1.1523085    1.3093268      1024000 
   56200   0.99718444   -1.1518946   -1.1518946   0.16134886  0.032666381   -1.1518946    1.3132434      1024000 
   56300   0.99962184   -1.1499461   -1.1499461   0.16650726  0.034510402   -1.1499461    1.3164534      1024000 
   56400   0.99946031   -1.1480942   -1.1480942    0.1681465  0.036006326   -1.1480942    1.3162407      1024000 
   56500    1.0004442   -1.1502918   -1.1502918   0.16724463  0.035693697   -1.1502918    1.3175364      1024000 
   56600   0.99728689   -1.1512651   -1.1512651    0.1621133  0.033194026   -1.1512651    1.3133784      1024000 
   56700   0.99506312   -1.1530457   -1.1530457   0.15740407     0.032261   -1.1530457    1.3104498      1024000 
   56800   0.99977442   -1.1541177   -1.1541177   0.16253663  0.035070405   -1.1541177    1.3166543      1024000 
   56900    1.0051976    -1.154109    -1.154109   0.16968737  0.037023709    -1.154109    1.3237964      1024000 
   57000    1.0000882   -1.1515264   -1.1515264   0.16554125  0.036315217   -1.1515264    1.3170676      1024000 
   57100   0.99715221   -1.1520182   -1.1520182   0.16118283  0.033731002   -1.1520182     1.313201      1024000 
   57200    0.9977441   -1.1501954   -1.1501954   0.16378508  0.032669025   -1.1501954    1.3139805      1024000 
   57300    1.0016026   -1.1524856   -1.1524856   0.16657645  0.032679955   -1.1524856     1.319062      1024000 
   57400    1.0005354     -1.15163     -1.15163   0.16602641  0.035022226     -1.15163    1.3176564      1024000 
   57500   0.99898323    -1.151021    -1.151021   0.16459134  0.040526051    -1.151021    1.3156124      1024000 
   57600    1.0001539   -1.1527516   -1.1527516   0.16440256  0.034231588   -1.1527516    1.3171541      1024000 
   57700    1.0005908   -1.1516984   -1.1516984   0.16603097  0.030881352   -1.1516984    1.3177294      1024000 
   57800    1.0025958   -1.1532106   -1.1532106   0.16715936  0.031517212   -1.1532106      1.32037      1024000 
   57900   0.99899491   -1.1503232   -1.1503232   0.16530454  0.035690103   -1.1503232    1.3156277      1024000 
   58000   0.99890716   -1.1510274   -1.1510274    0.1644848  0.037825082   -1.1510274    1.3155122      1024000 
   58100    1.0033956   -1.1542959   -1.1542959   0.16712738  0.031447301   -1.1542959    1.3214232      1024000 
   58200    1.0008308   -1.1518212   -1.1518212   0.16622438  0.027940812   -1.1518212    1.3180456      1024000 
   58300   0.99712034   -1.1506819   -1.1506819   0.16247716  0.033877263   -1.1506819     1.313159      1024000 
   58400   0.99966054   -1.1517735   -1.1517735   0.16473086  0.034663632   -1.1517735    1.3165043      1024000 
   58500    1.0037838   -1.1495625   -1.1495625   0.17237195  0.043205204   -1.1495625    1.3219344      1024000 
   58600     1.003391   -1.1524311   -1.1524311   0.16898602  0.031932712   -1.1524311    1.3214171      1024000 
   58700   0.99923261   -1.1550487   -1.1550487   0.16089209  0.031633843   -1.1550487    1.3159408      1024000 
   58800    0.9976864   -1.1535253   -1.1535253   0.16037917  0.033807989   -1.1535253    1.3139045      1024000 
   58900     0.999615   -1.1512294   -1.1512294   0.16521499  0.033803614   -1.1512294    1.3164444      1024000 
   59000      1.00364   -1.1516198   -1.1516198   0.17012525  0.028642668   -1.1516198    1.3217451      1024000 
   59100    1.0009188    -1.150244    -1.150244   0.16791741  0.035534563    -1.150244    1.3181614      1024000 
   59200   0.99240775   -1.1497509   -1.1497509   0.15720183  0.037050677   -1.1497509    1.3069528      1024000 
   59300   0.99800048   -1.1496806   -1.1496806   0.16463753  0.037542608   -1.1496806    1.3143181      1024000 
   59400    1.0014697   -1.1501158   -1.1501158   0.16877115  0.026541603   -1.1501158    1.3188869      1024000 
   59500    1.0018282   -1.1514918   -1.1514918   0.16786723  0.032626425   -1.1514918    1.3193591      1024000 
   59600   0.99964774   -1.1551059   -1.1551059    0.1613816  0.035708166   -1.1551059    1.3164875      1024000 
   59700   0.99449958   -1.1549922   -1.1549922    0.1547154  0.036453689   -1.1549922    1.3097076      1024000 
   59800    1.0004194   -1.1554055   -1.1554055   0.16209828  0.034088422   -1.1554055    1.3175038      1024000 
   59900    1.0057831   -1.1545598   -1.1545598   0.17000758  0.036795688   -1.1545598    1.3245674      1024000 
   60000    1.0001329   -1.1528213   -1.1528213    0.1643051  0.036115558   -1.1528213    1.3171264      1024000 
   60100   0.99690522   -1.1530213   -1.1530213   0.15985445  0.029185705   -1.1530213    1.3128757      1024000 
   60200   0.99724665   -1.1490865   -1.1490865   0.16423886  0.034717166   -1.1490865    1.3133254      1024000 
   60300    1.0057961   -1.1526523   -1.1526523   0.17193224  0.034613325   -1.1526523    1.3245845      1024000 
   60400    1.0021362   -1.1512414   -1.1512414   0.16852326  0.033143931   -1.1512414    1.3197647      1024000 
   60500     1.001274    -1.155465    -1.155465   0.16316425  0.034287783    -1.155465    1.3186292      1024000 
   60600   0.99817031   -1.1538809   -1.1538809   0.16066088  0.037811364   -1.1538809    1.3145418      1024000 
   60700   0.99747304   -1.1512113   -1.1512113   0.16241217  0.043830732   -1.1512113    1.3136235      1024000 
   60800    1.0046858   -1.1532484   -1.1532484   0.16987388  0.036710358   -1.1532484    1.3231223      1024000 
   60900    1.0065098    -1.153524    -1.153524   0.17200042  0.034904226    -1.153524    1.3255245      1024000 
   61000   0.99502093   -1.1505606   -1.1505606   0.15983364  0.041930357   -1.1505606    1.3103942      1024000 
   61100   0.99477702   -1.1475539   -1.1475539   0.16251909  0.030675975   -1.1475539     1.310073      1024000 
   61200    1.0004682   -1.1476727   -1.1476727   0.16989534  0.029106521   -1.1476727     1.317568      1024000 
   61300    1.0019399   -1.1480899   -1.1480899   0.17141617  0.031287096   -1.1480899    1.3195061      1024000 
   61400   0.99943583   -1.1486131   -1.1486131   0.16759531  0.033099309   -1.1486131    1.3162084      1024000 
   61500   0.99435284   -1.1490359   -1.1490359   0.16047851  0.035428127   -1.1490359    1.3095144      1024000 
   61600   0.99340064   -1.1492097   -1.1492097   0.15905063  0.037786288   -1.1492097    1.3082604      1024000 
   61700    1.0019002   -1.1472935   -1.1472935   0.17216036  0.026405439   -1.1472935    1.3194538      1024000 
   61800    1.0031678   -1.1479437   -1.1479437   0.17317947  0.031650891   -1.1479437    1.3211232      1024000 
   61900   0.99970142   -1.1481834   -1.1481834   0.16837475  0.035327502   -1.1481834    1.3165582      1024000 
   62000    0.9956641     -1.14598     -1.14598   0.16526126  0.040109591     -1.14598    1.3112412      1024000 
   62100    1.0018909   -1.1478435   -1.1478435   0.17159808  0.041883996   -1.1478435    1.3194416      1024000 
   62200    1.0058863   -1.1472867   -1.1472867   0.17741666  0.024532995   -1.1472867    1.3247034      1024000 
   62300    0.9991939   -1.1451905   -1.1451905   0.17069925  0.033193687   -1.1451905    1.3158898      1024000 
   62400   0.99615465   -1.1421585   -1.1421585   0.16972871  0.035232491   -1.1421585    1.3118872      1024000 
   62500   0.99811132   -1.1404365   -1.1404365   0.17402755   0.03490227   -1.1404365    1.3144641      1024000 
   62600    1.0029517   -1.1443432   -1.1443432    0.1764955  0.029716785   -1.1443432    1.3208387      1024000 
   62700   0.99827174   -1.1417581   -1.1417581   0.17291722  0.030498285   -1.1417581    1.3146754      1024000 
   62800   0.99170409   -1.1412109   -1.1412109   0.16481521  0.032984298   -1.1412109    1.3060261      1024000 
   62900   0.99995235   -1.1439087   -1.1439087   0.17297991  0.037376145   -1.1439087    1.3168886      1024000 
   63000    1.0025364   -1.1424081   -1.1424081   0.17788362  0.035027669   -1.1424081    1.3202917      1024000 
   63100     1.001064   -1.1452466   -1.1452466   0.17310603  0.033853501   -1.1452466    1.3183526      1024000 
   63200   0.99750289   -1.1443425   -1.1443425   0.16932036  0.041115279   -1.1443425    1.3136628      1024000 
   63300    1.0001253   -1.1433995   -1.1433995   0.17371695  0.039634365   -1.1433995    1.3171165      1024000 
   63400    1.0073788   -1.1443304   -1.1443304   0.18233848  0.023160556   -1.1443304    1.3266689      1024000 
   63500    1.0007452   -1.1406965   -1.1406965   0.17723636  0.033342714   -1.1406965    1.3179328      1024000 
   63600   0.99791613   -1.1405048   -1.1405048   0.17370226  0.042464519   -1.1405048     1.314207      1024000 
   63700   0.99953517   -1.1418803   -1.1418803   0.17445896  0.034671368   -1.1418803    1.3163392      1024000 
   63800    1.0012033    -1.141005    -1.141005   0.17753102  0.031866848    -1.141005    1.3185361      1024000 
   63900    1.0034936   -1.1397822   -1.1397822   0.18177012  0.035278531   -1.1397822    1.3215523      1024000 
   64000    1.0035623   -1.1398054   -1.1398054   0.18183732  0.032448761   -1.1398054    1.3216428      1024000 
   64100   0.99583558   -1.1392596   -1.1392596   0.17220748  0.031267039   -1.1392596    1.3114671      1024000 
   64200   0.99625568   -1.1402386   -1.1402386   0.17178172  0.033510526   -1.1402386    1.3120203      1024000 
   64300    1.0026208   -1.1420726   -1.1420726   0.17833033  0.040335825   -1.1420726    1.3204029      1024000 
   64400    1.0032265   -1.1435599   -1.1435599   0.17764062  0.043421697   -1.1435599    1.3212006      1024000 
   64500   0.99693901   -1.1454149   -1.1454149    0.1675053  0.031627434   -1.1454149    1.3129202      1024000 
   64600   0.99679741    -1.144078    -1.144078   0.16865569  0.029035588    -1.144078    1.3127337      1024000 
   64700    1.0023057   -1.1455589   -1.1455589   0.17442906  0.028293192   -1.1455589     1.319988      1024000 
   64800    1.0026758   -1.1440425   -1.1440425   0.17643274  0.031058967   -1.1440425    1.3204753      1024000 
   64900   0.99815339   -1.1430996   -1.1430996   0.17141993   0.03395353   -1.1430996    1.3145195      1024000 
   65000   0.99590533   -1.1463575   -1.1463575   0.16520142  0.038627381   -1.1463575    1.3115589      1024000 
   65100   0.99900161   -1.1467402   -1.1467402   0.16889633  0.038707475   -1.1467402    1.3156366      1024000 
   65200    1.0033536   -1.1431651   -1.1431651   0.17820283   0.03944269   -1.1431651    1.3213679      1024000 
   65300    1.0012278   -1.1444033   -1.1444033   0.17416509  0.032223918   -1.1444033    1.3185683      1024000 
   65400   0.99550493   -1.1410791   -1.1410791   0.16995252  0.026809973   -1.1410791    1.3110316      1024000 
   65500   0.99845502   -1.1405599   -1.1405599   0.17435679  0.036556053   -1.1405599    1.3149167      1024000 
   65600    1.0027548   -1.1413735   -1.1413735    0.1792058  0.038230543   -1.1413735    1.3205793      1024000 
   65700    1.0009569    -1.140351    -1.140351   0.17786062  0.033583336    -1.140351    1.3182116      1024000 
   65800   0.99865778   -1.1395978   -1.1395978   0.17558597  0.025862802   -1.1395978    1.3151838      1024000 
   65900   0.99889467   -1.1416928   -1.1416928    0.1738029   0.03278208   -1.1416928    1.3154957      1024000 
   66000    0.9998137   -1.1432642   -1.1432642   0.17344184  0.040545338   -1.1432642     1.316706      1024000 
   66100    1.0017101   -1.1431299   -1.1431299   0.17607359  0.037823732   -1.1431299    1.3192035      1024000 
   66200    1.0010669   -1.1423877   -1.1423877    0.1759688  0.035777339   -1.1423877    1.3183565      1024000 
   66300   0.99557083   -1.1434323   -1.1434323   0.16768612  0.031847661   -1.1434323    1.3111184      1024000 
   66400   0.99579108   -1.1438949   -1.1438949   0.16751352  0.037942647   -1.1438949    1.3114085      1024000 
   66500   0.99943919   -1.1393139   -1.1393139   0.17689899  0.038157236   -1.1393139    1.3162128      1024000 
   66600    1.0022141   -1.1408645   -1.1408645    0.1790028  0.039255417   -1.1408645    1.3198673      1024000 
   66700    1.0014203   -1.1427158   -1.1427158   0.17610611  0.026332799   -1.1427158    1.3188219      1024000 
   66800   0.99604003   -1.1422668   -1.1422668   0.16946955  0.032462589   -1.1422668    1.3117363      1024000 
   66900   0.99613241   -1.1421703   -1.1421703   0.16968762  0.031811101   -1.1421703     1.311858      1024000 
   67000    1.0067683   -1.1434271   -1.1434271   0.18243785  0.036773358   -1.1434271    1.3258649      1024000 
[...]
  983700    1.0015608   -1.1623169   -1.1623169   0.15668999  0.035742842   -1.1623169    1.3190069      1024000 
  983800    1.0011445   -1.1628546   -1.1628546   0.15560403  0.041036229   -1.1628546    1.3184587      1024000 
  983900   0.99995349   -1.1651576   -1.1651576   0.15173252  0.035551084   -1.1651576    1.3168901      1024000 
  984000   0.99807259   -1.1623693   -1.1623693   0.15204382   0.03555831   -1.1623693    1.3144131      1024000 
  984100    1.0045445   -1.1617645   -1.1617645   0.16117182  0.032425677   -1.1617645    1.3229363      1024000 
  984200    1.0032221   -1.1607795   -1.1607795   0.16041525  0.035235719   -1.1607795    1.3211947      1024000 
  984300    1.0015581   -1.1661679   -1.1661679    0.1528355  0.032896519   -1.1661679    1.3190034      1024000 
  984400   0.99875226     -1.16301     -1.16301   0.15229817  0.035040774     -1.16301    1.3153082      1024000 
  984500    1.0004272   -1.1632847   -1.1632847   0.15422931  0.040180696   -1.1632847     1.317514      1024000 
  984600    1.0006018   -1.1636927   -1.1636927   0.15405129  0.039715424   -1.1636927    1.3177439      1024000 
  984700   0.99553257   -1.1636724   -1.1636724   0.14739557  0.039065043   -1.1636724     1.311068      1024000 
  984800   0.99588703   -1.1666221   -1.1666221   0.14491268  0.035722556   -1.1666221    1.3115348      1024000 
  984900   0.99983884   -1.1615752   -1.1615752   0.15516395  0.038527898   -1.1615752    1.3167392      1024000 
  985000     1.001744   -1.1594147   -1.1594147   0.15983343  0.034925783   -1.1594147    1.3192481      1024000 
  985100   0.99982199    -1.159293    -1.159293   0.15742395   0.03695236    -1.159293     1.316717      1024000 
  985200   0.99835904    -1.161066    -1.161066   0.15372435  0.037138238    -1.161066    1.3147903      1024000 
  985300   0.99697948   -1.1637477   -1.1637477   0.14922584  0.031219172   -1.1637477    1.3129735      1024000 
  985400   0.99571896   -1.1653429   -1.1653429   0.14597053  0.035738083   -1.1653429    1.3113135      1024000 
  985500    1.0005542   -1.1639296   -1.1639296   0.15375164  0.040582443   -1.1639296    1.3176813      1024000 
  985600    1.0032455   -1.1629432   -1.1629432   0.15828245  0.038371569   -1.1629432    1.3212256      1024000 
  985700    1.0001691   -1.1640597   -1.1640597   0.15311439  0.036595701   -1.1640597     1.317174      1024000 
  985800   0.99353233   -1.1623704   -1.1623704   0.14606342  0.039148533   -1.1623704    1.3084338      1024000 
  985900   0.99965241   -1.1645217   -1.1645217   0.15197198  0.040738383   -1.1645217    1.3164936      1024000 
  986000    1.0055827   -1.1618593   -1.1618593    0.1624442  0.038474727   -1.1618593    1.3243035      1024000 
  986100    1.0029883   -1.1627208   -1.1627208   0.15816596  0.036043758   -1.1627208    1.3208868      1024000 
  986200   0.99597235   -1.1605399   -1.1605399   0.15110729  0.036948164   -1.1605399    1.3116472      1024000 
  986300    1.0011982   -1.1652739   -1.1652739    0.1532555  0.033069124   -1.1652739    1.3185294      1024000 
  986400    1.0012943   -1.1588317   -1.1588317   0.15982426   0.03726569   -1.1588317     1.318656      1024000 
  986500    1.0054459   -1.1583181   -1.1583181   0.16580519  0.036531155   -1.1583181    1.3241233      1024000 
  986600   0.99948117   -1.1583783   -1.1583783   0.15788978  0.038620869   -1.1583783    1.3162681      1024000 
  986700   0.99587987   -1.1604073   -1.1604073   0.15111804  0.039477099   -1.1604073    1.3115254      1024000 
  986800    0.9988425   -1.1599109   -1.1599109    0.1555161  0.037091197   -1.1599109     1.315427      1024000 
  986900    1.0035346   -1.1606525   -1.1606525   0.16095377  0.034714792   -1.1606525    1.3216063      1024000 
  987000     1.004246   -1.1630183   -1.1630183   0.15952486  0.037764413   -1.1630183    1.3225432      1024000 
  987100   0.99591358   -1.1641447   -1.1641447   0.14742509  0.037316159   -1.1641447    1.3115698      1024000 
  987200   0.99906889   -1.1666223   -1.1666223   0.14910286  0.032400609   -1.1666223    1.3157252      1024000 
  987300    1.0027508   -1.1671287   -1.1671287   0.15344539  0.037802235   -1.1671287    1.3205741      1024000 
  987400    1.0021219   -1.1671645   -1.1671645   0.15258128  0.038234514   -1.1671645    1.3197458      1024000 
  987500   0.99486649   -1.1666435   -1.1666435   0.14354727  0.035814777   -1.1666435    1.3101908      1024000 
  987600   0.99568834   -1.1664973   -1.1664973    0.1447758  0.037179354   -1.1664973    1.3112731      1024000 
  987700    1.0017232   -1.1643375   -1.1643375   0.15488327  0.037358053   -1.1643375    1.3192208      1024000 
  987800    1.0009388   -1.1644199   -1.1644199   0.15376775  0.037156152   -1.1644199    1.3181877      1024000 
  987900   0.99673952   -1.1625206   -1.1625206   0.15013693  0.036363004   -1.1625206    1.3126575      1024000 
  988000   0.99795669   -1.1624529   -1.1624529   0.15180756  0.036240957   -1.1624529    1.3142605      1024000 
  988100    1.0067875   -1.1657276   -1.1657276   0.16016258  0.036862202   -1.1657276    1.3258902      1024000 
  988200     1.000321   -1.1616674   -1.1616674   0.15570671  0.036488454   -1.1616674    1.3173741      1024000 
  988300   0.99489958   -1.1611028   -1.1611028   0.14913164  0.037341777   -1.1611028    1.3102344      1024000 
  988400   0.99888805   -1.1628071   -1.1628071   0.15267994  0.039990811   -1.1628071     1.315487      1024000 
  988500    1.0023891   -1.1649885   -1.1649885   0.15510919  0.035712548   -1.1649885    1.3200977      1024000 
  988600   0.99827135   -1.1613601   -1.1613601   0.15331476  0.037893285   -1.1613601    1.3146749      1024000 
  988700   0.99845289   -1.1622178   -1.1622178   0.15269608  0.036308791   -1.1622178    1.3149139      1024000 
  988800    1.0006111   -1.1620759   -1.1620759    0.1556802  0.036874286   -1.1620759    1.3177561      1024000 
  988900    1.0029915   -1.1650531   -1.1650531   0.15583796  0.036756438   -1.1650531    1.3208911      1024000 
  989000   0.99767403    -1.162443    -1.162443   0.15144518  0.037597253    -1.162443    1.3138882      1024000 
  989100   0.99500385   -1.1600675   -1.1600675   0.15030421  0.037485595   -1.1600675    1.3103717      1024000 
  989200    1.0044726   -1.1629063   -1.1629063   0.15993538  0.038837363   -1.1629063    1.3228416      1024000 
  989300    1.0046017   -1.1618141   -1.1618141   0.16119752  0.035519928   -1.1618141    1.3230116      1024000 
  989400   0.99860204   -1.1590418   -1.1590418   0.15606853  0.037832979   -1.1590418    1.3151103      1024000 
  989500    0.9991626   -1.1597009   -1.1597009   0.15614771  0.034232396   -1.1597009    1.3158486      1024000 
  989600   0.99912127   -1.1590312   -1.1590312   0.15676295  0.036784325   -1.1590312    1.3157942      1024000 
  989700    1.0027929    -1.163362    -1.163362   0.15726755  0.036037681    -1.163362    1.3206295      1024000 
  989800   0.99572074   -1.1636656   -1.1636656    0.1476502  0.035736885   -1.1636656    1.3113158      1024000 
  989900   0.99252061    -1.164753    -1.164753    0.1423484  0.034002415    -1.164753    1.3071014      1024000 
  990000   0.99986945   -1.1671809   -1.1671809   0.14959856  0.037655769   -1.1671809    1.3167795      1024000 
  990100    1.0025782   -1.1667867   -1.1667867    0.1535601  0.036295654   -1.1667867    1.3203468      1024000 
  990200    0.9991993   -1.1645363   -1.1645363   0.15136062  0.038371047   -1.1645363    1.3158969      1024000 
  990300   0.99936952   -1.1706701   -1.1706701   0.14545096   0.03395185   -1.1706701    1.3161211      1024000 
  990400   0.99288088   -1.1688513   -1.1688513   0.13872454  0.035565198   -1.1688513    1.3075759      1024000 
  990500     1.000101   -1.1680641   -1.1680641   0.14902025  0.036502353   -1.1680641    1.3170844      1024000 
  990600    1.0045127   -1.1697602   -1.1697602   0.15313411  0.033459658   -1.1697602    1.3228943      1024000 
  990700   0.99968865   -1.1689073   -1.1689073   0.14763407  0.038237445   -1.1689073    1.3165414      1024000 
  990800    0.9973271   -1.1703113   -1.1703113   0.14311999  0.037951088   -1.1703113    1.3134313      1024000 
  990900    1.0001141   -1.1702309   -1.1702309   0.14687075  0.035205113   -1.1702309    1.3171017      1024000 
  991000    1.0067529   -1.1703962   -1.1703962   0.15544842  0.038020785   -1.1703962    1.3258446      1024000 
  991100    1.0018666   -1.1690108   -1.1690108   0.15039878  0.040943103   -1.1690108    1.3194096      1024000 
  991200   0.99477933   -1.1688523   -1.1688523   0.14122375    0.0318172   -1.1688523     1.310076      1024000 
  991300   0.99828056   -1.1683575   -1.1683575   0.14632949   0.03888963   -1.1683575     1.314687      1024000 
  991400    1.0029263   -1.1674457   -1.1674457   0.15335946   0.03650483   -1.1674457    1.3208052      1024000 
  991500     1.003102   -1.1687085   -1.1687085   0.15232808  0.037686798   -1.1687085    1.3210365      1024000 
  991600   0.99641516   -1.1681157   -1.1681157   0.14411468  0.035388749   -1.1681157    1.3122303      1024000 
  991700   0.99638682   -1.1688022   -1.1688022    0.1433908  0.033723824   -1.1688022     1.312193      1024000 
  991800    1.0073434   -1.1703055   -1.1703055   0.15631681  0.035431197   -1.1703055    1.3266223      1024000 
  991900    1.0040596   -1.1697988   -1.1697988   0.15249889  0.034861738   -1.1697988    1.3222977      1024000 
  992000   0.99819826   -1.1686074   -1.1686074    0.1459712  0.037750898   -1.1686074    1.3145786      1024000 
  992100   0.99830135   -1.1699162   -1.1699162    0.1447982  0.040713276   -1.1699162    1.3147144      1024000 
  992200    1.0018414   -1.1739503   -1.1739503   0.14542609  0.040722399   -1.1739503    1.3193764      1024000 
  992300   0.99995978   -1.1744091   -1.1744091   0.14248932  0.037212973   -1.1744091    1.3168984      1024000 
  992400   0.99546036   -1.1735818   -1.1735818   0.13739107  0.037892133   -1.1735818    1.3109729      1024000 
  992500   0.99922592   -1.1728019   -1.1728019   0.14313003  0.038034232   -1.1728019     1.315932      1024000 
  992600    1.0043498   -1.1735381   -1.1735381   0.14914171  0.037883964   -1.1735381    1.3226798      1024000 
  992700    1.0004347   -1.1720517   -1.1720517   0.14547214  0.037260872   -1.1720517    1.3175239      1024000 
  992800   0.99621232   -1.1691617   -1.1691617   0.14280146   0.03760129   -1.1691617    1.3119632      1024000 
  992900    1.0006497   -1.1730276   -1.1730276   0.14477945  0.036358661   -1.1730276     1.317807      1024000 
  993000    1.0001959   -1.1714245   -1.1714245   0.14578486    0.0359932   -1.1714245    1.3172094      1024000 
  993100    1.0018542   -1.1739359   -1.1739359   0.14545743  0.035179021   -1.1739359    1.3193933      1024000 
  993200   0.99860783   -1.1735916   -1.1735916   0.14152634  0.036236535   -1.1735916     1.315118      1024000 
  993300   0.99664704   -1.1758022   -1.1758022   0.13673351  0.037011072   -1.1758022    1.3125357      1024000 
  993400   0.99642051   -1.1740347   -1.1740347   0.13820265  0.036103998   -1.1740347    1.3122374      1024000 
  993500     1.002344   -1.1723166   -1.1723166   0.14772172  0.037507474   -1.1723166    1.3200383      1024000 
  993600    1.0010369   -1.1706914   -1.1706914   0.14762545  0.038674443   -1.1706914    1.3183169      1024000 
  993700   0.99768435   -1.1731696   -1.1731696   0.14073223  0.034082883   -1.1731696    1.3139018      1024000 
  993800   0.99754045   -1.1738493   -1.1738493   0.13986304  0.034122638   -1.1738493    1.3137123      1024000 
  993900    1.0031084   -1.1730489   -1.1730489   0.14799615  0.036886916   -1.1730489     1.321045      1024000 
  994000     1.004795   -1.1750415   -1.1750415   0.14822465  0.038333409   -1.1750415    1.3232661      1024000 
  994100    1.0025336    -1.175945    -1.175945   0.14434302  0.037084441    -1.175945     1.320288      1024000 
  994200   0.99864972   -1.1752796   -1.1752796    0.1398935  0.033905128   -1.1752796    1.3151731      1024000 
  994300   0.99669514   -1.1726175   -1.1726175   0.13998157  0.035155948   -1.1726175    1.3125991      1024000 
  994400    1.0037028   -1.1733248   -1.1733248   0.14850293  0.037198504   -1.1733248    1.3218278      1024000 
  994500     1.003772   -1.1721885   -1.1721885   0.14973035  0.037494539   -1.1721885    1.3219189      1024000 
  994600   0.99777756   -1.1713876   -1.1713876    0.1426369  0.035240378   -1.1713876    1.3140246      1024000 
  994700   0.99300701   -1.1701761   -1.1701761   0.13756583  0.036059877   -1.1701761     1.307742      1024000 
  994800   0.99651393   -1.1731905   -1.1731905    0.1391699  0.036389503   -1.1731905    1.3123604      1024000 
  994900    1.0044592   -1.1752793   -1.1752793   0.14754467  0.035986022   -1.1752793    1.3228239      1024000 
  995000    1.0016071   -1.1729523   -1.1729523   0.14611561  0.041431391   -1.1729523    1.3190679      1024000 
  995100   0.99922489   -1.1771682   -1.1771682   0.13876246  0.036283806   -1.1771682    1.3159306      1024000 
  995200   0.99589449   -1.1741957   -1.1741957   0.13734894  0.031352697   -1.1741957    1.3115446      1024000 
  995300     1.002855   -1.1757762   -1.1757762    0.1449351  0.036532442   -1.1757762    1.3207113      1024000 
  995400    1.0022582   -1.1737748   -1.1737748   0.14615053   0.03689897   -1.1737748    1.3199254      1024000 
  995500   0.99944175   -1.1728535   -1.1728535    0.1433627   0.03748537   -1.1728535    1.3162162      1024000 
  995600   0.99934822   -1.1729819   -1.1729819   0.14311113  0.033868774   -1.1729819     1.316093      1024000 
  995700   0.99962187   -1.1701764   -1.1701764   0.14627698  0.034523854   -1.1701764    1.3164534      1024000 
  995800     1.004518   -1.1686052   -1.1686052   0.15429625  0.036295314   -1.1686052    1.3229014      1024000 
  995900    1.0038029   -1.1698836   -1.1698836   0.15207606  0.035545217   -1.1698836    1.3219597      1024000 
  996000   0.99570388   -1.1697579   -1.1697579   0.14153568  0.034436487   -1.1697579    1.3112936      1024000 
  996100   0.99722964   -1.1681702   -1.1681702    0.1451328  0.037367728   -1.1681702     1.313303      1024000 
  996200    1.0019078   -1.1682297   -1.1682297   0.15123418  0.037169601   -1.1682297    1.3194639      1024000 
  996300    1.0020085   -1.1683336   -1.1683336   0.15126292    0.0369406   -1.1683336    1.3195965      1024000 
  996400   0.99671027   -1.1691322   -1.1691322    0.1434868  0.037404716   -1.1691322     1.312619      1024000 
  996500   0.99630878   -1.1721218   -1.1721218    0.1399684  0.035504116   -1.1721218    1.3120902      1024000 
  996600    1.0017397   -1.1678641   -1.1678641   0.15137832  0.040173244   -1.1678641    1.3192425      1024000 
  996700    1.0057798   -1.1725872   -1.1725872   0.15197598  0.039903889   -1.1725872    1.3245632      1024000 
  996800   0.99909375   -1.1712077   -1.1712077   0.14455022   0.03605661   -1.1712077    1.3157579      1024000 
  996900   0.99643164   -1.1707327   -1.1707327   0.14151933  0.034075639   -1.1707327     1.312252      1024000 
  997000    1.0014095   -1.1726706   -1.1726706   0.14613704  0.036580225   -1.1726706    1.3188076      1024000 
  997100    1.0057272    -1.172106    -1.172106   0.15238787  0.043737671    -1.172106    1.3244939      1024000 
  997200    1.0023159   -1.1733893   -1.1733893   0.14661195  0.037800121   -1.1733893    1.3200013      1024000 
  997300   0.99476043   -1.1728036   -1.1728036   0.13724758  0.034050154   -1.1728036    1.3100511      1024000 
  997400   0.99853383   -1.1719276   -1.1719276   0.14309296  0.035463048   -1.1719276    1.3150205      1024000 
  997500    1.0018581   -1.1690974   -1.1690974   0.15030103  0.037884584   -1.1690974    1.3193984      1024000 
  997600    1.0022451   -1.1700966   -1.1700966   0.14981146  0.034276688   -1.1700966     1.319908      1024000 
  997700    0.9966802   -1.1687113   -1.1687113    0.1438681  0.038485491   -1.1687113    1.3125794      1024000 
  997800   0.99435916   -1.1703817   -1.1703817   0.13914098  0.038798145   -1.1703817    1.3095227      1024000 
  997900   0.99904613    -1.171049    -1.171049   0.14464615  0.036227198    -1.171049    1.3156952      1024000 
  998000     1.002875   -1.1675294   -1.1675294   0.15320826  0.034754812   -1.1675294    1.3207377      1024000 
  998100     1.000768   -1.1652518   -1.1652518   0.15271102  0.034932841   -1.1652518    1.3179628      1024000 
  998200   0.99882125    -1.166505    -1.166505   0.14889404  0.034490163    -1.166505     1.315399      1024000 
  998300   0.99843142   -1.1653687   -1.1653687   0.14951692  0.034481045   -1.1653687    1.3148857      1024000 
  998400    1.0038346   -1.1639155   -1.1639155   0.15808586  0.036229443   -1.1639155    1.3220014      1024000 
  998500     1.004437   -1.1652382   -1.1652382   0.15755653  0.040207184   -1.1652382    1.3227947      1024000 
  998600   0.99829961   -1.1658298   -1.1658298   0.14888224  0.039474079   -1.1658298    1.3147121      1024000 
  998700   0.99747397   -1.1668588   -1.1668588   0.14676593  0.036771766   -1.1668588    1.3136247      1024000 
  998800    1.0008464   -1.1701884   -1.1701884   0.14787763  0.034314428   -1.1701884     1.318066      1024000 
  998900    1.0013935    -1.170184    -1.170184   0.14860261  0.034652339    -1.170184    1.3187866      1024000 
  999000   0.99713132   -1.1722011   -1.1722011   0.14097243   0.03584864   -1.1722011    1.3131735      1024000 
  999100   0.99511642   -1.1717896   -1.1717896    0.1387304  0.035736163   -1.1717896      1.31052      1024000 
  999200     1.001153   -1.1711937   -1.1711937    0.1472761  0.037656494   -1.1711937    1.3184698      1024000 
  999300    1.0028697   -1.1723155   -1.1723155   0.14841515  0.035838503   -1.1723155    1.3207306      1024000 
  999400   0.99988137   -1.1722366   -1.1722366   0.14455855   0.03626024   -1.1722366    1.3167952      1024000 
  999500   0.99890719   -1.1725526   -1.1725526   0.14295958  0.032750953   -1.1725526    1.3155122      1024000 
  999600    1.0000555   -1.1738997   -1.1738997    0.1431248  0.034976877   -1.1738997    1.3170245      1024000 
  999700     1.001759   -1.1720295   -1.1720295   0.14723837  0.043196714   -1.1720295    1.3192679      1024000 
  999800    1.0053205   -1.1724194   -1.1724194   0.15153888  0.037475918   -1.1724194    1.3239583      1024000 
  999900   0.99987215   -1.1737005   -1.1737005   0.14308253  0.035913514   -1.1737005     1.316783      1024000 
 1000000   0.99794723   -1.1762442   -1.1762442    0.1380038  0.034144272   -1.1762442     1.314248      1024000 
Loop time of 75593.7 on 1 procs for 1000000 steps with 74808 atoms

Performance: 2857.381 tau/day, 13.229 timesteps/s
100.0% CPU use with 1 MPI tasks x 1 OpenMP threads

MPI task timing breakdown:
Section |  min time  |  avg time  |  max time  |%varavg|  %CPU | %total
-----------------------------------------------------------------------
Pair    | 51847      | 51847      | 51847      |   0.0 | 100.0 | 68.59
Bond    | 0.94774    | 0.94774    | 0.94774    |   0.0 | 100.0 |  0.00
Neigh   | 17930      | 17930      | 17930      |   0.0 | 100.0 | 23.72
Comm    | 948.27     | 948.27     | 948.27     |   0.0 |  99.5 |  1.25
Output  | 12.818     | 12.818     | 12.818     |   0.0 | 100.0 |  0.02
Modify  | 4349.4     | 4349.4     | 4349.4     |   0.0 |  99.7 |  5.75
Other   |            | 504.4      |            |       |       |  0.67

Nlocal:    74808 ave 74808 max 74808 min
Histogram: 1 0 0 0 0 0 0 0 0 0
Nghost:    34555 ave 34555 max 34555 min
Histogram: 1 0 0 0 0 0 0 0 0 0
Neighs:    2.52624e+06 ave 2.52624e+06 max 2.52624e+06 min
Histogram: 1 0 0 0 0 0 0 0 0 0

Total # of neighbors = 2526240
Ave neighs/atom = 33.7697
Ave special neighs/atom = 0
Neighbor list builds = 62336
Dangerous builds = 0
Total wall time: 20:59:58
