LAMMPS (29 Oct 2020)
  using 1 OpenMP thread(s) per MPI task
#Read the equilibrated lj fluid and add nanocubes

units           lj
atom_style      full
atom_modify     map array first cubes
dimension       3
boundary        p p f
pair_style      lj/cut/opt 2.5

variable        sigma           equal 1.0
variable        epsilon         equal 1.0
read_restart	restart.dat.10000000
Reading restart file ...
  restart file = 24 Dec 2020, LAMMPS = 29 Oct 2020
WARNING: Restart file used different # of processors: 192 vs. 64 (src/read_restart.cpp:697)
  restoring atom style full from restart
  orthogonal box = (0.0000000 0.0000000 0.0000000) to (80.000000 80.000000 160.00000)
  2 by 4 by 8 MPI processor grid
  restoring pair style lj/cut/opt from restart
  443961 atoms
Finding 1-2 1-3 1-4 neighbors ...
  special bond factors lj:    0.0      0.0      0.0     
  special bond factors coul:  0.0      0.0      0.0     
     0 = max # of 1-2 neighbors
     0 = max # of 1-3 neighbors
     0 = max # of 1-4 neighbors
     1 = max # of special neighbors
  special bonds CPU = 2.178 seconds
  read_restart CPU = 2.689 seconds

group		solvent type 1
443961 atoms in group solvent

read_data	data_sharp_96.cubes group cubes add append
Reading data file ...
  orthogonal box = (0.0000000 0.0000000 0.0000000) to (80.000000 80.000000 160.00000)
  2 by 4 by 8 MPI processor grid
  reading atoms ...
  127776 atoms
  reading velocities ...
  127776 velocities
Finding 1-2 1-3 1-4 neighbors ...
  special bond factors lj:    0.0      0.0      0.0     
  special bond factors coul:  0.0      0.0      0.0     
     0 = max # of 1-2 neighbors
     0 = max # of 1-3 neighbors
     0 = max # of 1-4 neighbors
     1 = max # of special neighbors
  special bonds CPU = 0.014 seconds
  read_data CPU = 0.398 seconds

group 		hull  type 2
57792 atoms in group hull
group 		dummy type 3
69984 atoms in group dummy

neighbor      0.4 bin
neigh_modify  exclude molecule/intra cubes


pair_modify   shift yes

pair_coeff    1 1 1.0 1.0 #solvent
pair_coeff    2 2 1.0 1.0 1.12 #np
pair_coeff    3 3 0.0 0.0 0.0 #dummy
pair_coeff    2 3 0.0 0.0 0.0 #np dummy
pair_coeff    1 2 ${sol} 1.0  #np solvent
pair_coeff    1 2 .60 1.0  
pair_coeff    1 3 0.0 0.0 2.5 #dummy solvent

# delete solvent where the cubes are
delete_atoms  overlap 1.0 solvent cubes
System init for delete_atoms ...
Unused restart file peratom fix info:
  fix style: STORE, fix ID: bin1_COMPUTE_STORE
Neighbor list info ...
  update every 1 steps, delay 10 steps, check yes
  max neighbors/atom: 2000, page size: 100000
  master list distance cutoff = 2.9
  ghost atom cutoff = 2.9
  binsize = 1.45, bins = 56 56 111
  2 neighbor lists, perpetual/occasional/extra = 1 1 0
  (1) command delete_atoms, occasional
      attributes: full, newton on
      pair build: full/bin
      stencil: full/bin/3d
      bin: standard
  (2) pair lj/cut/opt, perpetual
      attributes: half, newton on
      pair build: half/bin/newton
      stencil: half/bin/3d/newton
      bin: standard
WARNING: Delete_atoms cutoff > minimum neighbor cutoff (src/delete_atoms.cpp:307)
WARNING: Ignoring 'compress yes' for molecular system (src/delete_atoms.cpp:125)
Deleted 89621 atoms, new total = 482116

pair_coeff    1 1 1.0 1.0 #solvent
pair_coeff    2 2 1.0 1.0 1.12 #np
pair_coeff    3 3 0.0 0.0 0.0 #dummy
pair_coeff    2 3 0.0 0.0 0.0 #np dummy
pair_coeff    1 2 ${sol} 1.0  #np solvent
pair_coeff    1 2 .60 1.0  
pair_coeff    1 3 0.0 0.0 0.0 #dummy solvent


comm_modify   mode multi cutoff/multi 1 2.5 cutoff/multi 2 2.5 cutoff/multi 3 8.67

reset_timestep 	0

balance 	1.05 shift z 10 1.05
Balancing ...
Neighbor list info ...
  update every 1 steps, delay 10 steps, check yes
  max neighbors/atom: 2000, page size: 100000
  master list distance cutoff = 2.9
  ghost atom cutoff = 8.67
  binsize = 1.45, bins = 56 56 111
  1 neighbor lists, perpetual/occasional/extra = 1 0 0
  (1) pair lj/cut/opt, perpetual
      attributes: half, newton on
      pair build: half/bin/newton
      stencil: half/bin/3d/newton
      bin: standard
 rebalancing time: 0.014 seconds
  iteration count = 4
  initial/final maximal load/proc = 10471.000 8358.0000
  initial/final imbalance factor  = 1.3900057 1.1095089
  x cuts: 0.0000000 0.5 1.0000000
  y cuts: 0.0000000 0.25 0.5 0.75 1.0000000
  z cuts: 0.0000000 0.1015625 0.1953125 0.2890625 0.3828125 0.484375 0.578125 0.671875 1.0000000

####################### WALLS ###########################

variable       epsilonWall equal 2*${epsilon}
variable       epsilonWall equal 2*1
variable       repulsive   equal   0.7147*${sigma}
variable       repulsive   equal   0.7147*1
variable       full	   equal   3*${sigma}
variable       full	   equal   3*1
region         lowWall block EDGE EDGE EDGE EDGE EDGE 2

fix            topWall all wall/lj93 zhi EDGE 	       ${epsilonWall} ${sigma} ${repulsive} units box
fix            topWall all wall/lj93 zhi EDGE 	       2 ${sigma} ${repulsive} units box
fix            topWall all wall/lj93 zhi EDGE 	       2 1 ${repulsive} units box
fix            topWall all wall/lj93 zhi EDGE 	       2 1 0.7147 units box
fix            lowSol solvent wall/lj93 zlo EDGE                ${epsilonWall} ${sigma} ${full} units box
fix            lowSol solvent wall/lj93 zlo EDGE                2 ${sigma} ${full} units box
fix            lowSol solvent wall/lj93 zlo EDGE                2 1 ${full} units box
fix            lowSol solvent wall/lj93 zlo EDGE                2 1 3 units box
fix 	       lowCub cubes wall/lj93 zlo EDGE                ${epsilonWall} ${sigma} ${repulsive} units box
fix 	       lowCub cubes wall/lj93 zlo EDGE                2 ${sigma} ${repulsive} units box
fix 	       lowCub cubes wall/lj93 zlo EDGE                2 1 ${repulsive} units box
fix 	       lowCub cubes wall/lj93 zlo EDGE                2 1 0.7147 units box


###################### COMPUTES ##########################

compute        bin1 solvent chunk/atom bin/1d z lower 1.0 units box
compute        bin3 solvent chunk/atom bin/3d x lower 1.0 y lower 1.0 z lower 1.0 units box

compute 	pe solvent 	   pe/atom
compute 	pe2 all 	   pe/atom

######################  FIXES ############################


fix             peclet solvent ave/chunk 10 10 10000 bin1 density/number norm                  none ave one file density.profile

fix              temp solvent ave/chunk 10 10 10000 bin1 temp norm                  none ave one file temp.profile

fix 		 dens solvent ave/chunk 10 10 500000 bin3 density/number norm 		 none ave one file dens3.profile

fix		 temp2 solvent ave/chunk 10 10 500000 bin3 temp norm none ave one file temp3.profile

fix 		pe solvent ave/chunk 1 1 500000 bin3 c_pe norm none ave one file pe3.profile

fix             1 cubes rigid/nve/small molecule
  create bodies CPU = 0.009 seconds
  96 rigid bodies with 127776 atoms
  8.6602540 = max distance from body owner to body atom

fix             2 solvent nve# temp ${temp} ${temp} 10


## Thermostat
region          regthermo block EDGE EDGE EDGE EDGE 0 15
group           thermo dynamic solvent region regthermo every 1000
dynamic group thermo defined
fix             3 thermo langevin ${temp} ${temp} 10 156453
fix             3 thermo langevin 1.0 ${temp} 10 156453
fix             3 thermo langevin 1.0 1.0 10 156453


#### Load balancing

fix             bal all balance 1000 1.05 shift z 10 1.05

############### Diagnostics and computes ###################

compute        	com cubes          rigid/local   1 mol x y z
compute        	quat cubes         rigid/local   1 mol quatw quati quatj quatk

compute 	cc2 cubes 	   chunk/atom 	 molecule
compute 	msd cubes 	   msd/chunk 	 cc2

fix 		msd all ave/time  1 1 10000 c_msd[*] file dump.msd ave one mode vector

dump            1 all custom 500000 dump.lammpstrj id mol type x y z vx vy vz c_pe2
dump		sol  solvent custom 500000 dump.soltrj id x y z vx vy vz c_pe
dump		cubetrj cubes custom 500000 cubes.lammpstrj id mol type x y z vx vy vz
dump            com cubes local 100000 dump.*.xyz c_com[*]
dump	        xyz hull xyz 100000 cubes.xyz
dump            quat cubes      local 100000 dump.*.quat c_quat[*]
dump		order cubes 	local 100000 dump.*.order c_com[*] c_quat[*]
#dump		mol cubes molfile 10000 mol.xyz xyz


dump            2 all image 100000 image.*.png type type zoom 1.5 size 1280 720
dump_modify     2 pad 8
dump		image cubes image 100000 image_cubes.*.png type type zoom 1.5 size 1280 720
dump_modify	image pad 8
dump            3 all movie 5000 movie.avi type type zoom 1.5 size 1280 720
dump		4 cubes movie 5000 movie_cubes.avi type type size 1280 720


thermo          1000
thermo_style    custom step temp epair evdwl etotal press pe ke atoms

restart         1000000 restart.dat
timestep        0.005
timer           full
New timer settings: style=full  mode=nosync  timeout=off

run 		10000000
Per MPI rank memory allocation (min/avg/max) = 82.71 | 99.55 | 102.7 Mbytes
Step Temp E_pair E_vdwl TotEng Press PotEng KinEng Atoms 
       0    1.0056373   -2.3057726   -2.3057726   -1.1965076 -0.069059593   -2.3057726     1.109265   482116 
    1000    1.0035023   -2.3033667   -2.3033667   -1.1964567  0.059868394   -2.3033667      1.10691   482116 
    2000    1.0060069   -2.3055629   -2.3055629   -1.1958903  0.062709611   -2.3055629    1.1096727   482116 
    3000    1.0049385   -2.3044937   -2.3044937   -1.1959995  0.058903978   -2.3044937    1.1084942   482116 
    4000    1.0065857   -2.3060535   -2.3060535   -1.1957425   0.06355748   -2.3060535    1.1103111   482116 
    5000    1.0072867   -2.3072389   -2.3072389   -1.1961546  0.069469251   -2.3072389    1.1110843   482116 
    6000    1.0083561   -2.3077593   -2.3077593   -1.1954953  0.068770992   -2.3077593     1.112264   482116 
    7000    1.0067265   -2.3072948   -2.3072948   -1.1968285  0.067422362   -2.3072948    1.1104664   482116 
    8000    1.0107561   -2.3111834   -2.3111834   -1.1962722  0.065001815   -2.3111834    1.1149112   482116 
    9000     1.009638   -2.3103149   -2.3103149    -1.196637   0.06929327   -2.3103149     1.113678   482116 
   10000    1.0099794   -2.3113684   -2.3113684   -1.1973139   0.06593844   -2.3113684    1.1140545   482116 
   11000    1.0083381   -2.3103668   -2.3103668   -1.1981227  0.067574909   -2.3103668    1.1122441   482116 
   12000    1.0076428    -2.310325    -2.310325   -1.1988479  0.069715601    -2.310325    1.1114771   482116 
   13000    1.0080903   -2.3110235   -2.3110235   -1.1990528  0.071736009   -2.3110235    1.1119707   482116 
   14000    1.0082528   -2.3130606   -2.3130606   -1.2009106  0.067079056   -2.3130606      1.11215   482116 
   15000    1.0078501   -2.3123977   -2.3123977   -1.2006919  0.068784185   -2.3123977    1.1117058   482116 
   16000     1.009703   -2.3152293   -2.3152293   -1.2014797  0.061672574   -2.3152293    1.1137496   482116 
   17000    1.0068938   -2.3125718   -2.3125718   -1.2019208   0.07093025   -2.3125718     1.110651   482116 
   18000     1.008769   -2.3143942   -2.3143942   -1.2016748  0.067676945   -2.3143942    1.1127194   482116 
   19000    1.0081536   -2.3139475   -2.3139475   -1.2019069  0.067537329   -2.3139475    1.1120406   482116 
   20000    1.0076634   -2.3136505   -2.3136505   -1.2021506  0.066955455   -2.3136505    1.1114999   482116 
   21000    1.0076095   -2.3137325   -2.3137325   -1.2022921  0.073342881   -2.3137325    1.1114404   482116 
   22000    1.0094239    -2.315151    -2.315151   -1.2017092   0.06526812    -2.315151    1.1134418   482116 
   23000    1.0107959   -2.3155092   -2.3155092    -1.200554  0.070006844   -2.3155092    1.1149552   482116 
   24000    1.0119675   -2.3174794   -2.3174794    -1.201232  0.068976419   -2.3174794    1.1162474   482116 
   25000    1.0077915    -2.314455    -2.314455   -1.2028138  0.072277949    -2.314455    1.1116412   482116 
   26000    1.0084195   -2.3148565   -2.3148565   -1.2025227  0.070755178   -2.3148565    1.1123338   482116 
   27000     1.007862   -2.3142665   -2.3142665   -1.2025476  0.065567493   -2.3142665    1.1117189   482116 
   28000    1.0074915   -2.3144113   -2.3144113    -1.203101  0.072284811   -2.3144113    1.1113103   482116 
   29000    1.0082315   -2.3151824   -2.3151824   -1.2030559  0.063524299   -2.3151824    1.1121266   482116 
   30000    1.0069116   -2.3141766   -2.3141766   -1.2035061  0.065067282   -2.3141766    1.1106706   482116 
   31000    1.0039122   -2.3111087   -2.3111087   -1.2037466  0.068265433   -2.3111087    1.1073621   482116 
   32000    1.0060048   -2.3126833   -2.3126833   -1.2030129  0.063542589   -2.3126833    1.1096704   482116 
   33000    1.0052096   -2.3110667   -2.3110667   -1.2022736  0.063095324   -2.3110667    1.1087932   482116 
   34000    1.0061347    -2.313168    -2.313168   -1.2033543   0.05763984    -2.313168    1.1098137   482116 
   35000     1.004093    -2.309829    -2.309829   -1.2022675  0.066458956    -2.309829    1.1075615   482116 
   36000    1.0071226   -2.3124879   -2.3124879   -1.2015846  0.071817564   -2.3124879    1.1109033   482116 
   37000    1.0057384   -2.3104367   -2.3104367   -1.2010602  0.063578353   -2.3104367    1.1093765   482116 
   38000    1.0075485   -2.3121983   -2.3121983   -1.2008252   0.06724277   -2.3121983    1.1113731   482116 
   39000    1.0068666   -2.3108315   -2.3108315   -1.2002106  0.066205247   -2.3108315    1.1106209   482116 
   40000    1.0089434   -2.3130124   -2.3130124   -1.2001006  0.065687494   -2.3130124    1.1129118   482116 
   41000    1.0061646   -2.3105469   -2.3105469   -1.2007003  0.074784441   -2.3105469    1.1098466   482116 
   42000    1.0086728   -2.3137476   -2.3137476   -1.2011344  0.062575578   -2.3137476    1.1126132   482116 
   43000    1.0074197   -2.3119369   -2.3119369   -1.2007058  0.064830921   -2.3119369    1.1112311   482116 
   44000    1.0061273   -2.3113621   -2.3113621   -1.2015566  0.062592002   -2.3113621    1.1098055   482116 
   45000    1.0063405   -2.3114666   -2.3114666    -1.201426  0.059478693   -2.3114666    1.1100407   482116 
   46000    1.0075083   -2.3125881   -2.3125881   -1.2012593  0.060053768   -2.3125881    1.1113288   482116 
   47000    1.0059905   -2.3102664   -2.3102664   -1.2006118  0.069334984   -2.3102664    1.1096546   482116 
   48000    1.0053445   -2.3104488   -2.3104488   -1.2015068  0.066265771   -2.3104488     1.108942   482116 
   49000     1.006992   -2.3116232   -2.3116232    -1.200864  0.070247649   -2.3116232    1.1107593   482116 
   50000    1.0071044   -2.3120275   -2.3120275   -1.2011442  0.065388723   -2.3120275    1.1108833   482116 
   51000    1.0067572   -2.3124211   -2.3124211   -1.2019208  0.060936426   -2.3124211    1.1105003   482116 
   52000    1.0065643   -2.3123804   -2.3123804   -1.2020928  0.064079309   -2.3123804    1.1102876   482116 
   53000    1.0061163   -2.3114444   -2.3114444   -1.2016511  0.068257606   -2.3114444    1.1097933   482116 
   54000    1.0067781   -2.3125877   -2.3125877   -1.2020644  0.063308413   -2.3125877    1.1105233   482116 
   55000    1.0064825   -2.3127075   -2.3127075   -1.2025103  0.063264448   -2.3127075    1.1101973   482116 
   56000    1.0060676    -2.312665    -2.312665   -1.2029254  0.060239236    -2.312665    1.1097396   482116 
   57000    1.0064936   -2.3127658   -2.3127658   -1.2025563  0.064494558   -2.3127658    1.1102095   482116 
   58000     1.004907     -2.31062     -2.31062   -1.2021605  0.070702514     -2.31062    1.1084594   482116 
   59000    1.0062248   -2.3127348   -2.3127348   -1.2028218  0.063181394   -2.3127348     1.109913   482116 
   60000     1.006233     -2.31295     -2.31295    -1.203028  0.059933591     -2.31295     1.109922   482116 
   61000    1.0066871   -2.3132394   -2.3132394   -1.2028164  0.075411925   -2.3132394     1.110423   482116 
   62000    1.0063709   -2.3128508   -2.3128508   -1.2027766  0.068664278   -2.3128508    1.1100742   482116 
   63000    1.0080264   -2.3148455   -2.3148455   -1.2029452  0.071710066   -2.3148455    1.1119003   482116 
   64000    1.0055012   -2.3129926   -2.3129926   -1.2038778  0.069373543   -2.3129926    1.1091148   482116 
   65000    1.0074708    -2.316141    -2.316141   -1.2048536  0.064241752    -2.316141    1.1112874   482116 
   66000    1.0073946   -2.3158821   -2.3158821   -1.2046787  0.065272316   -2.3158821    1.1112034   482116 
   67000    1.0070681   -2.3152286   -2.3152286   -1.2043853  0.062644501   -2.3152286    1.1108433   482116 
   68000    1.0064283   -2.3152496   -2.3152496   -1.2051121  0.074711792   -2.3152496    1.1101375   482116 
   69000    1.0068119   -2.3153878   -2.3153878   -1.2048272  0.071579214   -2.3153878    1.1105606   482116 
   70000    1.0076215    -2.315952    -2.315952   -1.2044983  0.070221515    -2.315952    1.1114536   482116 
   71000    1.0058927   -2.3139174   -2.3139174   -1.2043707  0.071215225   -2.3139174    1.1095467   482116 
   72000    1.0086833   -2.3157484   -2.3157484   -1.2031236  0.076343271   -2.3157484    1.1126249   482116 
   73000    1.0099063   -2.3173855   -2.3173855   -1.2034116  0.063509011   -2.3173855    1.1139739   482116 
   74000    1.0100404   -2.3175098   -2.3175098    -1.203388  0.073836153   -2.3175098    1.1141218   482116 
   75000    1.0096353   -2.3174053   -2.3174053   -1.2037304  0.072850057   -2.3174053    1.1136749   482116 
   76000    1.0086321     -2.31723     -2.31723   -1.2046616  0.069565952     -2.31723    1.1125684   482116 
   77000    1.0082224   -2.3172016   -2.3172016   -1.2050851  0.070926087   -2.3172016    1.1121165   482116 
   78000    1.0093454   -2.3168468   -2.3168468   -1.2034916  0.071163881   -2.3168468    1.1133552   482116 
   79000     1.007033   -2.3158299   -2.3158299   -1.2050255  0.061978503   -2.3158299    1.1108045   482116 
   80000    1.0078311    -2.316335    -2.316335   -1.2046502  0.064710055    -2.316335    1.1116848   482116 
   81000    1.0051589   -2.3133129   -2.3133129   -1.2045757  0.066619331   -2.3133129    1.1087373   482116 
   82000    1.0048934   -2.3140697   -2.3140697   -1.2056252  0.068671452   -2.3140697    1.1084445   482116 
   83000    1.0052832   -2.3141777   -2.3141777   -1.2053033  0.065010384   -2.3141777    1.1088744   482116 
   84000    1.0054991    -2.315089    -2.315089   -1.2059764  0.064879907    -2.315089    1.1091126   482116 
   85000     1.005181   -2.3146305   -2.3146305   -1.2058688   0.05823983   -2.3146305    1.1087617   482116 
   86000    1.0065364   -2.3168794   -2.3168794   -1.2066226  0.064870288   -2.3168794    1.1102567   482116 
   87000    1.0073093    -2.315921    -2.315921   -1.2048118  0.063470399    -2.315921    1.1111092   482116 
   88000    1.0072487   -2.3147723   -2.3147723   -1.2037299  0.064599181   -2.3147723    1.1110424   482116 
   89000    1.0068619    -2.314005    -2.314005   -1.2033892  0.065473029    -2.314005    1.1106158   482116 
   90000    1.0083071   -2.3147407   -2.3147407   -1.2025309  0.074484164   -2.3147407    1.1122099   482116 
   91000    1.0090196   -2.3147556   -2.3147556   -1.2017598  0.070831286   -2.3147556    1.1129959   482116 
   92000    1.0070708   -2.3126409   -2.3126409   -1.2017946  0.078996075   -2.3126409    1.1108462   482116 
   93000    1.0083462   -2.3133556   -2.3133556   -1.2011026  0.065480204   -2.3133556    1.1122531   482116 
   94000    1.0073084   -2.3132072   -2.3132072   -1.2020988  0.069765455   -2.3132072    1.1111083   482116 
   95000    1.0070964   -2.3128172   -2.3128172   -1.2019427  0.064517031   -2.3128172    1.1108744   482116 
   96000    1.0083811   -2.3147895   -2.3147895   -1.2024979  0.060522216   -2.3147895    1.1122916   482116 
   97000    1.0095987   -2.3157618   -2.3157618   -1.2021271  0.064283538   -2.3157618    1.1136346   482116 
   98000    1.0076098   -2.3136184   -2.3136184   -1.2021776  0.060505175   -2.3136184    1.1114408   482116 
   99000    1.0052891   -2.3115513   -2.3115513   -1.2026704  0.063688668   -2.3115513    1.1088809   482116 
  100000    1.0054396   -2.3121629   -2.3121629    -1.203116  0.066671736   -2.3121629    1.1090469   482116 
  101000    1.0039857   -2.3108839   -2.3108839   -1.2034407   0.06236291   -2.3108839    1.1074432   482116 
  102000    1.0065284   -2.3126774   -2.3126774   -1.2024295  0.066522922   -2.3126774    1.1102479   482116 
  103000    1.0070858   -2.3131375   -2.3131375   -1.2022748  0.063156335   -2.3131375    1.1108627   482116 
  104000    1.0071655    -2.312722    -2.312722   -1.2017714   0.07312271    -2.312722    1.1109506   482116 
  105000    1.0071457   -2.3133762   -2.3133762   -1.2024474   0.06735302   -2.3133762    1.1109288   482116 
  106000    1.0065304   -2.3131917   -2.3131917   -1.2029416  0.065878915   -2.3131917    1.1102501   482116 
  107000    1.0064389   -2.3124834   -2.3124834   -1.2023342     0.067864   -2.3124834    1.1101492   482116 
  108000    1.0068706   -2.3133912   -2.3133912   -1.2027657  0.070053669   -2.3133912    1.1106254   482116 
  109000    1.0070597   -2.3141509   -2.3141509    -1.203317  0.063267169   -2.3141509     1.110834   482116 
  110000    1.0074465   -2.3143627   -2.3143627    -1.203102  0.069519842   -2.3143627    1.1112606   482116 
  111000     1.006191   -2.3133043   -2.3133043   -1.2034286  0.062482639   -2.3133043    1.1098757   482116 
  112000    1.0078798     -2.31474     -2.31474   -1.2030014  0.070032372     -2.31474    1.1117386   482116 
  113000     1.007137   -2.3138427   -2.3138427   -1.2029236  0.067037358   -2.3138427    1.1109192   482116 
  114000     1.005842   -2.3136076   -2.3136076   -1.2041168  0.068088448   -2.3136076    1.1094908   482116 
  115000    1.0071025   -2.3149571   -2.3149571   -1.2040759  0.062858478   -2.3149571    1.1108812   482116 
  116000    1.0080508   -2.3158519   -2.3158519   -1.2039248  0.068124783   -2.3158519    1.1119272   482116 
  117000    1.0075548    -2.315619    -2.315619    -1.204239  0.072871572    -2.315619      1.11138   482116 
  118000    1.0068853   -2.3146286   -2.3146286    -1.203987  0.072568976   -2.3146286    1.1106416   482116 
  119000    1.0078319   -2.3163901   -2.3163901   -1.2047043  0.062184188   -2.3163901    1.1116858   482116 
  120000    1.0069515    -2.315104    -2.315104   -1.2043894  0.069610114    -2.315104    1.1107146   482116 
  121000    1.0085602   -2.3168597   -2.3168597   -1.2043706  0.067426639   -2.3168597    1.1124891   482116 
  122000    1.0084617   -2.3159945   -2.3159945   -1.2036141  0.073940788   -2.3159945    1.1123804   482116 
  123000    1.0093804   -2.3163859   -2.3163859   -1.2029921    0.0640333   -2.3163859    1.1133938   482116 
  124000     1.009422   -2.3158522   -2.3158522   -1.2024125  0.067772688   -2.3158522    1.1134397   482116 
  125000    1.0100909   -2.3165908   -2.3165908   -1.2024133  0.067190673   -2.3165908    1.1141775   482116 
  126000    1.0092534    -2.315099    -2.315099   -1.2018453  0.066398434    -2.315099    1.1132537   482116 
  127000    1.0067308   -2.3127251   -2.3127251   -1.2022539  0.072893503   -2.3127251    1.1104712   482116 
  128000    1.0083522   -2.3150298   -2.3150298   -1.2027701  0.075573743   -2.3150298    1.1122597   482116 
  129000    1.0078015   -2.3138457   -2.3138457   -1.2021935  0.065128465   -2.3138457    1.1116522   482116 
  130000    1.0069806   -2.3137958   -2.3137958   -1.2030491  0.068489159   -2.3137958    1.1107467   482116 
  131000    1.0075469   -2.3147776   -2.3147776   -1.2034063  0.064842039   -2.3147776    1.1113714   482116 
  132000    1.0069654   -2.3140465   -2.3140465   -1.2033165  0.070028163   -2.3140465      1.11073   482116 
  133000    1.0069516   -2.3140949   -2.3140949   -1.2033802   0.06322289   -2.3140949    1.1107147   482116 
  134000    1.0064989   -2.3137662   -2.3137662   -1.2035508  0.072815416   -2.3137662    1.1102154   482116 
  135000    1.0087239   -2.3145029   -2.3145029   -1.2018332  0.069844464   -2.3145029    1.1126697   482116 
  136000    1.0079248   -2.3144676   -2.3144676   -1.2026793   0.07253335   -2.3144676    1.1117882   482116 
  137000    1.0072428   -2.3143705   -2.3143705   -1.2033346  0.065680954   -2.3143705    1.1110359   482116 
  138000    1.0071511   -2.3131265   -2.3131265   -1.2021917  0.063383819   -2.3131265    1.1109348   482116 
  139000    1.0078234   -2.3138749   -2.3138749   -1.2021985  0.057903266   -2.3138749    1.1116764   482116 
  140000    1.0074894   -2.3127026   -2.3127026   -1.2013947  0.063881193   -2.3127026    1.1113079   482116 
  141000      1.00627   -2.3114531   -2.3114531   -1.2014902  0.062197254   -2.3114531    1.1099629   482116 
  142000    1.0056514   -2.3115532   -2.3115532   -1.2022727  0.066436324   -2.3115532    1.1092805   482116 
  143000    1.0057266   -2.3110123   -2.3110123   -1.2016488  0.069092614   -2.3110123    1.1093634   482116 
  144000    1.0074847   -2.3131991   -2.3131991   -1.2018963  0.064798633   -2.3131991    1.1113028   482116 
  145000    1.0074801   -2.3146437   -2.3146437   -1.2033461  0.062486474   -2.3146437    1.1112976   482116 
  146000    1.0078146   -2.3140596   -2.3140596    -1.202393  0.062309202   -2.3140596    1.1116666   482116 
  147000    1.0077788   -2.3134193   -2.3134193   -1.2017921  0.068917286   -2.3134193    1.1116271   482116 
  148000    1.0056397   -2.3113403   -2.3113403   -1.2020726  0.067041656   -2.3113403    1.1092677   482116 
  149000    1.0048866    -2.311151    -2.311151   -1.2027141  0.063701558    -2.311151    1.1084369   482116 
  150000    1.0061949   -2.3113414   -2.3113414   -1.2014614  0.062263264   -2.3113414      1.10988   482116 
  151000    1.0061591   -2.3114753   -2.3114753   -1.2016347  0.066946072   -2.3114753    1.1098406   482116 
  152000    1.0084622   -2.3140227   -2.3140227   -1.2016418  0.063198856   -2.3140227    1.1123809   482116 
  153000    1.0068864   -2.3122365   -2.3122365   -1.2015937  0.073784074   -2.3122365    1.1106428   482116 
  154000    1.0070411   -2.3125644   -2.3125644   -1.2017509  0.071329306   -2.3125644    1.1108135   482116 
  155000    1.0078972   -2.3128763   -2.3128763   -1.2011186  0.065692569   -2.3128763    1.1117578   482116 
  156000    1.0095435    -2.315146    -2.315146   -1.2015723   0.06927927    -2.315146    1.1135737   482116 
  157000    1.0084575   -2.3133156   -2.3133156   -1.2009398  0.070884727   -2.3133156    1.1123758   482116 
  158000    1.0101947   -2.3160588   -2.3160588   -1.2017667   0.06999745   -2.3160588     1.114292   482116 
  159000    1.0092956   -2.3144786   -2.3144786   -1.2011784  0.072016639   -2.3144786    1.1133002   482116 
  160000    1.0099196    -2.315041    -2.315041   -1.2010525  0.079263591    -2.315041    1.1139885   482116 
  161000    1.0091678   -2.3151301   -2.3151301   -1.2019709  0.078851872   -2.3151301    1.1131593   482116 
  162000    1.0084163   -2.3158369   -2.3158369   -1.2035065  0.063605835   -2.3158369    1.1123304   482116 
  163000    1.0071928   -2.3141218   -2.3141218    -1.203141  0.070340121   -2.3141218    1.1109808   482116 
  164000    1.0076376   -2.3140675   -2.3140675   -1.2025961  0.074002445   -2.3140675    1.1114714   482116 
  165000     1.006487   -2.3131063   -2.3131063    -1.202904  0.064309647   -2.3131063    1.1102023   482116 
  166000    1.0076638   -2.3150463   -2.3150463   -1.2035459  0.069851628   -2.3150463    1.1115003   482116 
  167000    1.0057794   -2.3134691   -2.3134691   -1.2040473  0.059526803   -2.3134691    1.1094218   482116 
  168000    1.0072704   -2.3154685   -2.3154685   -1.2044021  0.060169782   -2.3154685    1.1110664   482116 
  169000    1.0072103   -2.3139865   -2.3139865   -1.2029864  0.068190332   -2.3139865    1.1110001   482116 
  170000    1.0081663   -2.3152797   -2.3152797    -1.203225  0.064929382   -2.3152797    1.1120546   482116 
  171000    1.0076802   -2.3144023   -2.3144023   -1.2028839  0.070525109   -2.3144023    1.1115184   482116 
  172000     1.006626   -2.3138098   -2.3138098   -1.2034543  0.070713094   -2.3138098    1.1103555   482116 
  173000    1.0084681   -2.3142801   -2.3142801   -1.2018926  0.062611476   -2.3142801    1.1123875   482116 
  174000    1.0104966   -2.3170874   -2.3170874   -1.2024623  0.063203746   -2.3170874    1.1146251   482116 
  175000    1.0083881   -2.3149416   -2.3149416   -1.2026423  0.072026078   -2.3149416    1.1122993   482116 
  176000    1.0088266   -2.3145962   -2.3145962   -1.2018133  0.068274075   -2.3145962     1.112783   482116 
  177000    1.0084891   -2.3140311   -2.3140311   -1.2016205  0.072855085   -2.3140311    1.1124106   482116 
  178000    1.0093634   -2.3148622   -2.3148622   -1.2014872  0.068531453   -2.3148622     1.113375   482116 
  179000      1.00897   -2.3137833   -2.3137833   -1.2008422  0.059806178   -2.3137833    1.1129411   482116 
  180000    1.0077415   -2.3126503   -2.3126503   -1.2010643  0.065821938   -2.3126503     1.111586   482116 
  181000    1.0095232   -2.3139364   -2.3139364   -1.2003851  0.060135743   -2.3139364    1.1135514   482116 
  182000    1.0084471   -2.3126865   -2.3126865   -1.2003222  0.067707937   -2.3126865    1.1123643   482116 
  183000    1.0075797   -2.3133134   -2.3133134   -1.2019059  0.060768976   -2.3133134    1.1114075   482116 
  184000    1.0061243   -2.3120579   -2.3120579   -1.2022557  0.069576721   -2.3120579    1.1098022   482116 
  185000    1.0071532   -2.3138427   -2.3138427   -1.2029056  0.066512046   -2.3138427    1.1109371   482116 
  186000    1.0076058   -2.3129508   -2.3129508   -1.2015144  0.065648363   -2.3129508    1.1114364   482116 
  187000    1.0090742   -2.3147896   -2.3147896   -1.2017336  0.068752248   -2.3147896     1.113056   482116 
  188000    1.0079759   -2.3130447   -2.3130447   -1.2012001  0.066271495   -2.3130447    1.1118445   482116 
  189000    1.0055454   -2.3122867   -2.3122867   -1.2031231  0.058152309   -2.3122867    1.1091636   482116 
  190000    1.0066581   -2.3132173   -2.3132173   -1.2028263  0.064399383   -2.3132173     1.110391   482116 
  191000    1.0057156   -2.3124831   -2.3124831   -1.2031318  0.057368518   -2.3124831    1.1093513   482116 
  192000    1.0059295   -2.3132479   -2.3132479   -1.2036606  0.055020022   -2.3132479    1.1095873   482116 
  193000    1.0057513   -2.3126512   -2.3126512   -1.2032605  0.067716738   -2.3126512    1.1093907   482116 
  194000    1.0062972   -2.3117532   -2.3117532   -1.2017603  0.069020752   -2.3117532    1.1099929   482116 
  195000    1.0077206   -2.3141909   -2.3141909   -1.2026279   0.06522258   -2.3141909     1.111563   482116 
  196000    1.0076051   -2.3137769   -2.3137769   -1.2023414  0.064862866   -2.3137769    1.1114355   482116 
  197000    1.0064099    -2.312268    -2.312268   -1.2021508  0.062632353    -2.312268    1.1101172   482116 
  198000    1.0085028   -2.3151325   -2.3151325   -1.2027068  0.058500307   -2.3151325    1.1124258   482116 
  199000    1.0092274   -2.3153595   -2.3153595   -1.2021345  0.066755264   -2.3153595     1.113225   482116 
  200000    1.0087233   -2.3146237   -2.3146237   -1.2019548  0.068460032   -2.3146237    1.1126689   482116 
  201000    1.0099834   -2.3158048   -2.3158048   -1.2017458  0.072992649   -2.3158048    1.1140589   482116 
  202000    1.0093575   -2.3156155   -2.3156155   -1.2022469  0.070698285   -2.3156155    1.1133686   482116 
  203000     1.009087   -2.3154217   -2.3154217   -1.2023515  0.071869719   -2.3154217    1.1130702   482116 
  204000    1.0100315   -2.3169889   -2.3169889    -1.202877  0.073734094   -2.3169889    1.1141119   482116 
  205000     1.008661   -2.3162926   -2.3162926   -1.2036924  0.076926496   -2.3162926    1.1126002   482116 
  206000    1.0082774   -2.3162803   -2.3162803   -1.2041031  0.067727396   -2.3162803    1.1121771   482116 
  207000    1.0064903   -2.3147044   -2.3147044   -1.2044986  0.074143741   -2.3147044    1.1102058   482116 
  208000    1.0088776   -2.3166995   -2.3166995   -1.2038602  0.071090377   -2.3166995    1.1128392   482116 
  209000     1.005212   -2.3130198   -2.3130198   -1.2042239  0.069537431   -2.3130198    1.1087959   482116 
  210000    1.0071987   -2.3143317   -2.3143317   -1.2033443  0.061580185   -2.3143317    1.1109873   482116 
  211000    1.0089407   -2.3178081   -2.3178081   -1.2048993  0.068362343   -2.3178081    1.1129088   482116 
  212000    1.0065871   -2.3144284   -2.3144284   -1.2041157  0.065340884   -2.3144284    1.1103127   482116 
  213000    1.0066753   -2.3137027   -2.3137027   -1.2032927  0.072808887   -2.3137027      1.11041   482116 
  214000     1.007958   -2.3146988   -2.3146988    -1.202874  0.068023755   -2.3146988    1.1118248   482116 
  215000    1.0073093   -2.3148118   -2.3148118   -1.2037026  0.061444901   -2.3148118    1.1111092   482116 
  216000    1.0078702   -2.3153301   -2.3153301   -1.2036021  0.063628291   -2.3153301     1.111728   482116 
  217000    1.0052493   -2.3125728   -2.3125728   -1.2037358  0.068095917   -2.3125728     1.108837   482116 
  218000    1.0070674   -2.3144267   -2.3144267   -1.2035843  0.060622683   -2.3144267    1.1108425   482116 
  219000    1.0096877   -2.3157109   -2.3157109   -1.2019782  0.062886186   -2.3157109    1.1137328   482116 
  220000    1.0078685   -2.3131959   -2.3131959   -1.2014697   0.07236322   -2.3131959    1.1117261   482116 
  221000    1.0083739   -2.3143748   -2.3143748   -1.2020912  0.061189895   -2.3143748    1.1122836   482116 
  222000    1.0095827   -2.3157688   -2.3157688   -1.2021519  0.063057089   -2.3157688    1.1136169   482116 
  223000    1.0073584   -2.3145987   -2.3145987   -1.2034353  0.061638067   -2.3145987    1.1111634   482116 
  224000    1.0056601   -2.3131694   -2.3131694   -1.2038793  0.068687839   -2.3131694    1.1092901   482116 
  225000    1.0059858   -2.3142003   -2.3142003   -1.2045509   0.06286808   -2.3142003    1.1096494   482116 
  226000    1.0052604   -2.3132144   -2.3132144   -1.2043652  0.062906481   -2.3132144    1.1088492   482116 
  227000    1.0057072     -2.31299     -2.31299    -1.203648  0.058114088     -2.31299     1.109342   482116 
  228000    1.0055569   -2.3135655   -2.3135655   -1.2043892  0.066957534   -2.3135655    1.1091763   482116 
  229000     1.005561   -2.3135044   -2.3135044   -1.2043236  0.063076605   -2.3135044    1.1091808   482116 
  230000    1.0077949   -2.3165799   -2.3165799    -1.204935  0.063267864   -2.3165799    1.1116449   482116 
  231000    1.0072921   -2.3153071   -2.3153071   -1.2042168  0.071779374   -2.3153071    1.1110903   482116 
  232000    1.0054175   -2.3136195   -2.3136195    -1.204597  0.066267293   -2.3136195    1.1090225   482116 
  233000    1.0068566   -2.3146745   -2.3146745   -1.2040646  0.064769548   -2.3146745    1.1106099   482116 
  234000    1.0066368   -2.3148946   -2.3148946    -1.204527  0.066924602   -2.3148946    1.1103675   482116 
  235000    1.0069466   -2.3149712   -2.3149712    -1.204262  0.071153603   -2.3149712    1.1107092   482116 
  236000    1.0072193   -2.3162071   -2.3162071    -1.205197  0.072947103   -2.3162071      1.11101   482116 
  237000     1.007118   -2.3153947   -2.3153947   -1.2044964  0.065840613   -2.3153947    1.1108983   482116 
  238000    1.0078875   -2.3168669   -2.3168669   -1.2051199   0.06659157   -2.3168669     1.111747   482116 
  239000    1.0073326    -2.315833    -2.315833    -1.204698  0.067283312    -2.315833     1.111135   482116 
  240000     1.008802   -2.3174191   -2.3174191   -1.2046632  0.066717125   -2.3174191    1.1127558   482116 
  241000    1.0075523   -2.3162523   -2.3162523   -1.2048751  0.070713927   -2.3162523    1.1113773   482116 
  242000    1.0078547   -2.3172062   -2.3172062   -1.2054953  0.066427968   -2.3172062    1.1117109   482116 
  243000    1.0093073   -2.3183022   -2.3183022    -1.204989  0.073674315   -2.3183022    1.1133131   482116 
  244000    1.0080933   -2.3178689   -2.3178689   -1.2058948  0.069193958   -2.3178689    1.1119741   482116 
  245000    1.0081067    -2.317883    -2.317883   -1.2058942  0.072304067    -2.317883    1.1119888   482116 
  246000      1.00786   -2.3196381   -2.3196381   -1.2079213  0.070280795   -2.3196381    1.1117167   482116 
  247000    1.0086876   -2.3206468   -2.3206468   -1.2080171  0.071760305   -2.3206468    1.1126296   482116 
  248000    1.0085414    -2.319643    -2.319643   -1.2071747  0.068601676    -2.319643    1.1124683   482116 
  249000    1.0075035    -2.318964    -2.318964   -1.2076405  0.067840173    -2.318964    1.1113234   482116 
  250000    1.0070619   -2.3178751   -2.3178751   -1.2070388  0.076617128   -2.3178751    1.1108363   482116 
  251000    1.0068249   -2.3178972   -2.3178972   -1.2073222  0.073477171   -2.3178972     1.110575   482116 
  252000    1.0083118   -2.3204439   -2.3204439   -1.2082288  0.059340876   -2.3204439    1.1122151   482116 
  253000    1.0057813   -2.3169364   -2.3169364   -1.2075125  0.063514204   -2.3169364    1.1094238   482116 
  254000    1.0072645   -2.3174406   -2.3174406   -1.2063808   0.07165711   -2.3174406    1.1110598   482116 
  255000    1.0081531   -2.3189889   -2.3189889   -1.2069489  0.068915642   -2.3189889      1.11204   482116 
  256000    1.0058519   -2.3166313   -2.3166313   -1.2071296  0.073364341   -2.3166313    1.1095017   482116 
  257000    1.0051777   -2.3155444   -2.3155444   -1.2067864  0.076365882   -2.3155444     1.108758   482116 
  258000     1.006375   -2.3168695   -2.3168695   -1.2067908  0.064520535   -2.3168695    1.1100787   482116 
  259000    1.0042778   -2.3151767   -2.3151767   -1.2074114  0.063495882   -2.3151767    1.1077653   482116 
  260000    1.0045761   -2.3153316   -2.3153316   -1.2072372   0.06527626   -2.3153316    1.1080944   482116 
  261000    1.0055236    -2.316419    -2.316419   -1.2072794  0.065604783    -2.316419    1.1091396   482116 
  262000    1.0046493   -2.3144367   -2.3144367   -1.2062615  0.070770952   -2.3144367    1.1081752   482116 
  263000    1.0053201   -2.3150612   -2.3150612   -1.2061461  0.066055256   -2.3150612    1.1089151   482116 
  264000    1.0064345    -2.315783    -2.315783   -1.2056387  0.062792708    -2.315783    1.1101443   482116 
  265000    1.0060086   -2.3155531   -2.3155531   -1.2058786  0.075189801   -2.3155531    1.1096745   482116 
  266000     1.006584   -2.3169913   -2.3169913   -1.2066821  0.062148233   -2.3169913    1.1103093   482116 
  267000    1.0056216   -2.3166119   -2.3166119   -1.2073642  0.065078262   -2.3166119    1.1092477   482116 
  268000    1.0047849   -2.3154557   -2.3154557   -1.2071309  0.067828536   -2.3154557    1.1083248   482116 
  269000    1.0054632   -2.3150024   -2.3150024   -1.2059295  0.065597775   -2.3150024    1.1090729   482116 
  270000    1.0083625   -2.3184871   -2.3184871   -1.2062161   0.06321488   -2.3184871     1.112271   482116 
  271000    1.0088815   -2.3192108   -2.3192108   -1.2063673  0.066650974   -2.3192108    1.1128435   482116 
  272000    1.0072241   -2.3175669   -2.3175669   -1.2065516   0.06392157   -2.3175669    1.1110153   482116 
  273000    1.0062407   -2.3169463   -2.3169463   -1.2070157  0.064816492   -2.3169463    1.1099306   482116 
  274000    1.0072376   -2.3170374   -2.3170374   -1.2060072  0.061944169   -2.3170374    1.1110302   482116 
  275000    1.0045875   -2.3142446   -2.3142446   -1.2061376  0.068260439   -2.3142446     1.108107   482116 
  276000    1.0059163   -2.3159318   -2.3159318    -1.206359    0.0701733   -2.3159318    1.1095727   482116 
  277000    1.0063895   -2.3165948   -2.3165948   -1.2065001  0.058514071   -2.3165948    1.1100947   482116 
  278000    1.0076448   -2.3167949   -2.3167949   -1.2053156  0.069118229   -2.3167949    1.1114793   482116 
  279000     1.006438   -2.3163187   -2.3163187   -1.2061706  0.067927906   -2.3163187    1.1101481   482116 
  280000    1.0084472   -2.3187208   -2.3187208   -1.2063563  0.065406676   -2.3187208    1.1123645   482116 
  281000    1.0070939   -2.3165583   -2.3165583   -1.2056866  0.071573479   -2.3165583    1.1108717   482116 
  282000    1.0081911   -2.3177955   -2.3177955   -1.2057136  0.066372219   -2.3177955    1.1120819   482116 
  283000     1.006571   -2.3171394   -2.3171394   -1.2068444  0.070206817   -2.3171394    1.1102949   482116 
  284000    1.0074006   -2.3179211   -2.3179211   -1.2067111  0.065277155   -2.3179211      1.11121   482116 
  285000    1.0077286   -2.3180092   -2.3180092   -1.2064374  0.068921206   -2.3180092    1.1115717   482116 
  286000    1.0066544   -2.3167056   -2.3167056   -1.2063187  0.071019546   -2.3167056    1.1103869   482116 
  287000    1.0071638   -2.3162646   -2.3162646   -1.2053158  0.070040328   -2.3162646    1.1109488   482116 
  288000    1.0066256   -2.3162074   -2.3162074   -1.2058522  0.069658915   -2.3162074    1.1103551   482116 
  289000    1.0061109    -2.315801    -2.315801   -1.2060136  0.065547041    -2.315801    1.1097874   482116 
  290000    1.0066067   -2.3163234   -2.3163234   -1.2059892  0.071519809   -2.3163234    1.1103342   482116 
  291000      1.00835   -2.3179128   -2.3179128   -1.2056555  0.074680994   -2.3179128    1.1122572   482116 
  292000    1.0062578   -2.3159348   -2.3159348   -1.2059854  0.065524734   -2.3159348    1.1099495   482116 
  293000    1.0059977   -2.3165451   -2.3165451   -1.2068827  0.075734865   -2.3165451    1.1096625   482116 
  294000    1.0059826   -2.3152919   -2.3152919    -1.205646  0.068374908   -2.3152919    1.1096459   482116 
  295000    1.0065226   -2.3152249   -2.3152249   -1.2049834  0.066797957   -2.3152249    1.1102415   482116 
  296000    1.0056902   -2.3151018   -2.3151018   -1.2057785  0.074846289   -2.3151018    1.1093233   482116 
  297000    1.0066522    -2.315336    -2.315336   -1.2049516  0.065649221    -2.315336    1.1103845   482116 
  298000    1.0064343   -2.3150115   -2.3150115   -1.2048673  0.069256993   -2.3150115    1.1101441   482116 
  299000    1.0065527   -2.3145026   -2.3145026   -1.2042279  0.064772371   -2.3145026    1.1102747   482116 
  300000    1.0058952   -2.3130517   -2.3130517   -1.2035022  0.059973027   -2.3130517    1.1095494   482116 
  301000    1.0068258   -2.3138959   -2.3138959   -1.2033199  0.063814058   -2.3138959     1.110576   482116 
  302000    1.0052125   -2.3142349   -2.3142349   -1.2054385  0.065851829   -2.3142349    1.1087964   482116 
  303000    1.0036056   -2.3127104   -2.3127104   -1.2056864  0.063864326   -2.3127104    1.1070239   482116 
  304000    1.0045686   -2.3126354   -2.3126354   -1.2045493  0.068742394   -2.3126354    1.1080861   482116 
  305000    1.0062799    -2.314424    -2.314424   -1.2044502   0.06788781    -2.314424    1.1099738   482116 
  306000    1.0055767   -2.3144929   -2.3144929   -1.2052948  0.062124333   -2.3144929    1.1091981   482116 
  307000    1.0053711   -2.3131724   -2.3131724    -1.204201  0.066143091   -2.3131724    1.1089714   482116 
  308000    1.0054727   -2.3142417   -2.3142417   -1.2051582  0.064972124   -2.3142417    1.1090835   482116 
  309000    1.0047611   -2.3126465   -2.3126465    -1.204348  0.063395247   -2.3126465    1.1082985   482116 
  310000    1.0053877   -2.3130258   -2.3130258    -1.204036  0.054573277   -2.3130258    1.1089897   482116 
  311000    1.0046068   -2.3125838   -2.3125838   -1.2044555  0.064826692   -2.3125838    1.1081283   482116 
  312000    1.0064348   -2.3133265   -2.3133265   -1.2031818   0.06693664   -2.3133265    1.1101446   482116 
  313000    1.0060493   -2.3137361   -2.3137361   -1.2040167  0.057744355   -2.3137361    1.1097195   482116 
  314000    1.0050639   -2.3124627   -2.3124627   -1.2038302  0.068752989   -2.3124627    1.1086325   482116 
  315000    1.0048428   -2.3121562   -2.3121562   -1.2037676  0.064159007   -2.3121562    1.1083886   482116 
  316000    1.0049791   -2.3131678   -2.3131678   -1.2046289   0.06836427   -2.3131678     1.108539   482116 
  317000    1.0063246   -2.3147301   -2.3147301    -1.204707  0.064653423   -2.3147301    1.1100231   482116 
  318000    1.0043205   -2.3116074   -2.3116074   -1.2037949  0.069670139   -2.3116074    1.1078125   482116 
  319000    1.0078457   -2.3161679   -2.3161679    -1.204467  0.062613345   -2.3161679    1.1117009   482116 
  320000    1.0059781   -2.3158907   -2.3158907   -1.2062497  0.063769192   -2.3158907    1.1096409   482116 
  321000    1.0052939   -2.3146401   -2.3146401   -1.2057538  0.067136703   -2.3146401    1.1088862   482116 
  322000    1.0068513   -2.3153676   -2.3153676   -1.2047635  0.068059355   -2.3153676    1.1106041   482116 
  323000    1.0060649   -2.3146605   -2.3146605   -1.2049239  0.060432716   -2.3146605    1.1097366   482116 
  324000     1.007032    -2.316204    -2.316204   -1.2054006  0.062533275    -2.316204    1.1108034   482116 
  325000    1.0061156   -2.3151634   -2.3151634   -1.2053708  0.072015756   -2.3151634    1.1097925   482116 
  326000    1.0075159   -2.3180163   -2.3180163   -1.2066792  0.066511083   -2.3180163    1.1113371   482116 
  327000     1.007369   -2.3180393   -2.3180393   -1.2068642  0.070552225   -2.3180393    1.1111751   482116 
  328000     1.005665   -2.3163387   -2.3163387   -1.2070431  0.071675215   -2.3163387    1.1092956   482116 
  329000    1.0058912   -2.3175845   -2.3175845   -1.2080394  0.071396531   -2.3175845    1.1095451   482116 
  330000    1.0073652   -2.3185783   -2.3185783   -1.2074073  0.072723344   -2.3185783     1.111171   482116 
  331000    1.0057059   -2.3173954   -2.3173954   -1.2080548  0.057172418   -2.3173954    1.1093406   482116 
  332000    1.0059616   -2.3175116   -2.3175116   -1.2078889   0.07105719   -2.3175116    1.1096227   482116 
  333000    1.0060535   -2.3177314   -2.3177314   -1.2080074  0.068684757   -2.3177314     1.109724   482116 
  334000    1.0064872   -2.3193615   -2.3193615    -1.209159  0.065438708   -2.3193615    1.1102025   482116 
  335000     1.005718   -2.3192202   -2.3192202   -1.2098662  0.063368845   -2.3192202     1.109354   482116 
  336000    1.0067224    -2.319194    -2.319194   -1.2087321  0.070303754    -2.319194    1.1104619   482116 
  337000    1.0086096   -2.3212415   -2.3212415   -1.2086979  0.070438927   -2.3212415    1.1125436   482116 
  338000    1.0071719   -2.3201057   -2.3201057    -1.209148  0.061646278   -2.3201057    1.1109577   482116 
  339000    1.0063695   -2.3196365   -2.3196365   -1.2095639  0.058214134   -2.3196365    1.1100726   482116 
  340000    1.0056191   -2.3184529   -2.3184529    -1.209208  0.065759456   -2.3184529    1.1092449   482116 
  341000    1.0069521   -2.3192712   -2.3192712   -1.2085559  0.064443899   -2.3192712    1.1107153   482116 
  342000    1.0059461   -2.3178648   -2.3178648   -1.2082593   0.07017675   -2.3178648    1.1096056   482116 
  343000    1.0054967   -2.3166324   -2.3166324   -1.2075225  0.066697989   -2.3166324    1.1091099   482116 
  344000     1.008306   -2.3193607   -2.3193607    -1.207152  0.069483667   -2.3193607    1.1122087   482116 
  345000    1.0082816   -2.3191947   -2.3191947   -1.2070129  0.059023293   -2.3191947    1.1121817   482116 
  346000     1.006377   -2.3165845   -2.3165845   -1.2065035  0.078102896   -2.3165845    1.1100809   482116 
  347000    1.0068442   -2.3175635   -2.3175635   -1.2069672  0.064541002   -2.3175635    1.1105963   482116 
  348000    1.0066583   -2.3171099   -2.3171099   -1.2067188  0.067928772   -2.3171099    1.1103912   482116 
  349000    1.0052463   -2.3158988   -2.3158988   -1.2070652  0.068905086   -2.3158988    1.1088336   482116 
  350000    1.0075737   -2.3183522   -2.3183522   -1.2069513   0.06578458   -2.3183522    1.1114009   482116 
  351000    1.0073864   -2.3179011   -2.3179011   -1.2067067   0.06615679   -2.3179011    1.1111944   482116 
  352000    1.0066821   -2.3174142   -2.3174142   -1.2069967  0.066521939   -2.3174142    1.1104175   482116 
  353000    1.0058631    -2.316532    -2.316532    -1.207018  0.065335171    -2.316532     1.109514   482116 
  354000     1.003084   -2.3130797   -2.3130797   -1.2066311  0.067824984   -2.3130797    1.1064486   482116 
  355000    1.0059749   -2.3155952   -2.3155952   -1.2059578  0.060419309   -2.3155952    1.1096374   482116 
  356000    1.0039839   -2.3134524   -2.3134524   -1.2060112  0.060306211   -2.3134524    1.1074412   482116 
  357000    1.0050105   -2.3142585   -2.3142585   -1.2056849  0.061960506   -2.3142585    1.1085736   482116 
  358000    1.0063378   -2.3151349   -2.3151349   -1.2050972  0.063439061   -2.3151349    1.1100377   482116 
  359000    1.0068419   -2.3159167   -2.3159167    -1.205323  0.061451064   -2.3159167    1.1105937   482116 
  360000     1.007302   -2.3166989   -2.3166989   -1.2055977  0.060280285   -2.3166989    1.1111012   482116 
  361000    1.0070037   -2.3168047   -2.3168047   -1.2060325  0.066518049   -2.3168047    1.1107722   482116 
  362000    1.0054641   -2.3140235   -2.3140235   -1.2049495  0.063610835   -2.3140235     1.109074   482116 
  363000    1.0061378   -2.3143834   -2.3143834   -1.2045663  0.063465229   -2.3143834    1.1098171   482116 
  364000    1.0081636    -2.316656    -2.316656   -1.2046044  0.070035273    -2.316656    1.1120516   482116 
  365000    1.0072818   -2.3158566   -2.3158566   -1.2047777  0.071800342   -2.3158566    1.1110789   482116 
  366000    1.0072396   -2.3156913   -2.3156913   -1.2046589  0.062493401   -2.3156913    1.1110324   482116 
  367000     1.007241   -2.3155915   -2.3155915   -1.2045576  0.066481931   -2.3155915     1.111034   482116 
  368000    1.0087169   -2.3162476   -2.3162476   -1.2035856  0.068723786   -2.3162476     1.112662   482116 
  369000    1.0096992   -2.3181344   -2.3181344    -1.204389  0.065773641   -2.3181344    1.1137454   482116 
  370000    1.0071105   -2.3155265   -2.3155265   -1.2046365  0.070446914   -2.3155265      1.11089   482116 
  371000    1.0084118   -2.3167754   -2.3167754   -1.2044501  0.070291267   -2.3167754    1.1123254   482116 
  372000    1.0063134   -2.3149721   -2.3149721   -1.2049614  0.071207618   -2.3149721    1.1100107   482116 
  373000    1.0056882   -2.3146985   -2.3146985   -1.2053773  0.066643274   -2.3146985    1.1093212   482116 
  374000     1.005115    -2.313685    -2.313685   -1.2049962  0.066330229    -2.313685    1.1086888   482116 
  375000     1.006837   -2.3164135   -2.3164135   -1.2058252  0.067185119   -2.3164135    1.1105883   482116 
  376000    1.0070262    -2.316833    -2.316833    -1.206036  0.064272787    -2.316833     1.110797   482116 
  377000    1.0060262   -2.3163312   -2.3163312   -1.2066373  0.059598148   -2.3163312    1.1096939   482116 
  378000    1.0076502   -2.3171643   -2.3171643    -1.205679  0.069714615   -2.3171643    1.1114854   482116 
  379000    1.0070119   -2.3168415   -2.3168415   -1.2060603  0.069031104   -2.3168415    1.1107812   482116 
  380000    1.0056562   -2.3160165   -2.3160165   -1.2067307  0.062315875   -2.3160165    1.1092858   482116 
  381000    1.0067954   -2.3169725   -2.3169725   -1.2064301   0.06445498   -2.3169725    1.1105424   482116 
  382000     1.007465   -2.3185866   -2.3185866   -1.2073055  0.062193397   -2.3185866     1.111281   482116 
  383000    1.0059866   -2.3161092   -2.3161092   -1.2064589  0.070439059   -2.3161092    1.1096503   482116 
  384000    1.0059039   -2.3154457   -2.3154457   -1.2058866  0.066743704   -2.3154457    1.1095591   482116 
  385000    1.0080703    -2.317338    -2.317338   -1.2053893  0.069194925    -2.317338    1.1119487   482116 
  386000      1.00686   -2.3159477   -2.3159477    -1.205334  0.074327933   -2.3159477    1.1106137   482116 
  387000    1.0066456   -2.3171424   -2.3171424   -1.2067652  0.060664567   -2.3171424    1.1103772   482116 
  388000    1.0077567   -2.3179317   -2.3179317   -1.2063289  0.071802803   -2.3179317    1.1116027   482116 
  389000    1.0070803   -2.3182691   -2.3182691   -1.2074124  0.072258903   -2.3182691    1.1108567   482116 
  390000    1.0069674    -2.318239    -2.318239   -1.2075068  0.064103763    -2.318239    1.1107322   482116 
  391000    1.0051287   -2.3163027   -2.3163027   -1.2075987  0.063900729   -2.3163027     1.108704   482116 
  392000    1.0034867   -2.3143578   -2.3143578    -1.207465  0.066753013   -2.3143578    1.1068928   482116 
  393000    1.0052523   -2.3162737   -2.3162737   -1.2074334  0.067946832   -2.3162737    1.1088403   482116 
  394000    1.0075407   -2.3178231   -2.3178231   -1.2064585  0.070739078   -2.3178231    1.1113646   482116 
  395000    1.0058167    -2.316692    -2.316692   -1.2072292   0.06421373    -2.316692    1.1094628   482116 
  396000    1.0053236    -2.316771    -2.316771    -1.207852  0.063759994    -2.316771     1.108919   482116 
  397000    1.0057686   -2.3179538   -2.3179538   -1.2085439  0.069400172   -2.3179538    1.1094098   482116 
  398000    1.0068106   -2.3192405   -2.3192405   -1.2086813  0.066848032   -2.3192405    1.1105592   482116 
  399000    1.0066562    -2.319514    -2.319514   -1.2091252  0.064701493    -2.319514    1.1103889   482116 
  400000    1.0074028   -2.3191159   -2.3191159   -1.2079035  0.060956898   -2.3191159    1.1112124   482116 
  401000    1.0067818    -2.318179    -2.318179   -1.2076515  0.067316609    -2.318179    1.1105274   482116 
  402000    1.0074554   -2.3186542   -2.3186542   -1.2073838  0.062972146   -2.3186542    1.1112704   482116 
  403000    1.0072188   -2.3180264   -2.3180264    -1.207017     0.069187   -2.3180264    1.1110094   482116 
  404000     1.008601   -2.3185049   -2.3185049   -1.2059708  0.057446452   -2.3185049    1.1125341   482116 
  405000    1.0082658   -2.3185778   -2.3185778   -1.2064134  0.067074171   -2.3185778    1.1121643   482116 
  406000    1.0085406   -2.3177948   -2.3177948   -1.2053273  0.070652298   -2.3177948    1.1124674   482116 
  407000    1.0072587   -2.3170773   -2.3170773   -1.2060238  0.064641919   -2.3170773    1.1110535   482116 
  408000    1.0070386   -2.3174883   -2.3174883   -1.2066776  0.070271856   -2.3174883    1.1108106   482116 
  409000    1.0072703   -2.3170019   -2.3170019   -1.2059356  0.072574632   -2.3170019    1.1110663   482116 
  410000     1.007287   -2.3184225   -2.3184225   -1.2073379  0.063512593   -2.3184225    1.1110846   482116 
  411000    1.0080414   -2.3185969   -2.3185969   -1.2066801  0.068027132   -2.3185969    1.1119168   482116 
  412000    1.0066219   -2.3176133   -2.3176133   -1.2072622  0.068098702   -2.3176133    1.1103511   482116 
  413000    1.0051782   -2.3165492   -2.3165492   -1.2077906  0.077277751   -2.3165492    1.1087586   482116 
  414000    1.0075766   -2.3179503   -2.3179503   -1.2065462  0.071394411   -2.3179503    1.1114041   482116 
  415000    1.0044925   -2.3157837   -2.3157837   -1.2077815  0.069571401   -2.3157837    1.1080022   482116 
  416000    1.0067138   -2.3180434   -2.3180434    -1.207591  0.073434366   -2.3180434    1.1104524   482116 
  417000    1.0066041   -2.3175023   -2.3175023    -1.207171  0.067918923   -2.3175023    1.1103314   482116 
  418000    1.0054832   -2.3175719   -2.3175719   -1.2084769  0.063847644   -2.3175719     1.109095   482116 
  419000    1.0044565   -2.3166649   -2.3166649   -1.2087024  0.066317435   -2.3166649    1.1079625   482116 
  420000    1.0038185   -2.3152199   -2.3152199   -1.2079612  0.069696372   -2.3152199    1.1072588   482116 
  421000    1.0047926   -2.3160424   -2.3160424   -1.2077091  0.064512054   -2.3160424    1.1083333   482116 
  422000    1.0052852   -2.3157137   -2.3157137   -1.2068372  0.069570348   -2.3157137    1.1088766   482116 
  423000    1.0060412   -2.3174354   -2.3174354   -1.2077249  0.061598794   -2.3174354    1.1097105   482116 
  424000    1.0076301   -2.3182624   -2.3182624   -1.2067993  0.072553114   -2.3182624    1.1114631   482116 
  425000    1.0068462   -2.3177235   -2.3177235   -1.2071251  0.068594617   -2.3177235    1.1105985   482116 
  426000    1.0065584   -2.3175963   -2.3175963   -1.2073153  0.056019349   -2.3175963     1.110281   482116 
  427000    1.0065794   -2.3175865   -2.3175865   -1.2072824  0.065321576   -2.3175865    1.1103041   482116 
  428000    1.0069229   -2.3189513   -2.3189513   -1.2082682  0.064668801   -2.3189513    1.1106831   482116 
  429000    1.0050644    -2.316736    -2.316736   -1.2081029  0.074561562    -2.316736    1.1086331   482116 
  430000    1.0060081   -2.3187124   -2.3187124   -1.2090384  0.065391918   -2.3187124     1.109674   482116 
  431000    1.0071778   -2.3184651   -2.3184651   -1.2075008   0.06652087   -2.3184651    1.1109643   482116 
  432000    1.0061116   -2.3188358   -2.3188358   -1.2090476  0.068721896   -2.3188358    1.1097881   482116 
  433000    1.0056441   -2.3194794   -2.3194794   -1.2102069  0.066040398   -2.3194794    1.1092725   482116 
  434000    1.0067036   -2.3203508   -2.3203508   -1.2099096    0.0652329   -2.3203508    1.1104412   482116 
  435000     1.005369   -2.3184157   -2.3184157   -1.2094467  0.068695025   -2.3184157     1.108969   482116 
  436000    1.0054528   -2.3183888   -2.3183888   -1.2093273  0.062105933   -2.3183888    1.1090615   482116 
  437000    1.0049052   -2.3175437   -2.3175437   -1.2090863  0.078661552   -2.3175437    1.1084574   482116 
  438000    1.0046886   -2.3167387   -2.3167387   -1.2085201  0.071167489   -2.3167387    1.1082186   482116 
  439000    1.0087737   -2.3201697   -2.3201697   -1.2074452  0.063876338   -2.3201697    1.1127245   482116 
  440000    1.0079211   -2.3199654   -2.3199654   -1.2081813  0.064709605   -2.3199654    1.1117841   482116 
  441000    1.0058975   -2.3177337   -2.3177337   -1.2081817  0.071482699   -2.3177337     1.109552   482116 
  442000    1.0070128   -2.3191165   -2.3191165   -1.2083342  0.066627126   -2.3191165    1.1107823   482116 
  443000    1.0068825   -2.3190707   -2.3190707   -1.2084322   0.06883637   -2.3190707    1.1106385   482116 
  444000    1.0082578   -2.3194916   -2.3194916   -1.2073361  0.065921618   -2.3194916    1.1121555   482116 
  445000     1.007948   -2.3199391   -2.3199391   -1.2081253  0.067925991   -2.3199391    1.1118137   482116 
  446000    1.0073214   -2.3187586   -2.3187586    -1.207636  0.071066628   -2.3187586    1.1111226   482116 
  447000     1.007562   -2.3196639   -2.3196639   -1.2082759  0.070977673   -2.3196639     1.111388   482116 
  448000    1.0054866   -2.3174578   -2.3174578    -1.208359   0.06983365   -2.3174578    1.1090988   482116 
  449000    1.0078085   -2.3194981   -2.3194981   -1.2078382  0.068345003   -2.3194981    1.1116599   482116 
  450000    1.0072456   -2.3192975   -2.3192975   -1.2082584  0.073647345   -2.3192975     1.111039   482116 
  451000    1.0060811   -2.3184797   -2.3184797   -1.2087252  0.065668212   -2.3184797    1.1097545   482116 
  452000    1.0065259    -2.319042    -2.319042   -1.2087969  0.063602836    -2.319042    1.1102451   482116 
  453000    1.0051992   -2.3181181   -2.3181181   -1.2093364  0.067913569   -2.3181181    1.1087817   482116 
  454000     1.004227   -2.3172458   -2.3172458   -1.2095364  0.066640502   -2.3172458    1.1077094   482116 
  455000    1.0041772   -2.3181023   -2.3181023   -1.2104478  0.064661179   -2.3181023    1.1076545   482116 
  456000    1.0065596   -2.3197211   -2.3197211   -1.2094388  0.065068866   -2.3197211    1.1102823   482116 
  457000    1.0069297   -2.3188663   -2.3188663   -1.2081758  0.068844076   -2.3188663    1.1106905   482116 
  458000    1.0073203   -2.3200527   -2.3200527   -1.2089314  0.072366846   -2.3200527    1.1111214   482116 
  459000    1.0081174   -2.3206135   -2.3206135   -1.2086129  0.064266961   -2.3206135    1.1120006   482116 
  460000    1.0070861   -2.3197804   -2.3197804   -1.2089172  0.065059169   -2.3197804    1.1108631   482116 
  461000    1.0061893   -2.3195064   -2.3195064   -1.2096326  0.060734151   -2.3195064    1.1098738   482116 
  462000    1.0061662   -2.3202417   -2.3202417   -1.2103933  0.061352696   -2.3202417    1.1098484   482116 
  463000    1.0060476    -2.319568    -2.319568   -1.2098505   0.06228234    -2.319568    1.1097175   482116 
  464000    1.0059043    -2.320195    -2.320195   -1.2106355  0.066561635    -2.320195    1.1095595   482116 
  465000    1.0059256   -2.3198375   -2.3198375   -1.2102545  0.062117359   -2.3198375     1.109583   482116 
  466000    1.0066482   -2.3197321   -2.3197321   -1.2093521  0.064919486   -2.3197321      1.11038   482116 
  467000    1.0066992   -2.3195279   -2.3195279   -1.2090916  0.068615358   -2.3195279    1.1104363   482116 
  468000    1.0051945   -2.3181556   -2.3181556   -1.2093791  0.066198974   -2.3181556    1.1087766   482116 
  469000    1.0060733   -2.3181122   -2.3181122   -1.2083663  0.070182306   -2.3181122    1.1097459   482116 
  470000    1.0092275   -2.3215962   -2.3215962   -1.2083711  0.067388138   -2.3215962    1.1132251   482116 
  471000    1.0090124   -2.3206248   -2.3206248   -1.2076369  0.067222428   -2.3206248    1.1129879   482116 
  472000    1.0079001   -2.3214985   -2.3214985   -1.2097376   0.07008471   -2.3214985    1.1117609   482116 
  473000    1.0064889   -2.3191155   -2.3191155   -1.2089112  0.066523065   -2.3191155    1.1102043   482116 
  474000    1.0074121   -2.3192133   -2.3192133   -1.2079907  0.067971286   -2.3192133    1.1112226   482116 
  475000    1.0070793   -2.3186772   -2.3186772   -1.2078217  0.071368693   -2.3186772    1.1108556   482116 
  476000    1.0091682   -2.3204076   -2.3204076   -1.2072478  0.069379766   -2.3204076    1.1131598   482116 
  477000    1.0075808   -2.3191816   -2.3191816   -1.2077728  0.072969776   -2.3191816    1.1114087   482116 
  478000    1.0073001   -2.3193391   -2.3193391   -1.2082399  0.064754649   -2.3193391    1.1110992   482116 
  479000    1.0069195   -2.3193515   -2.3193515   -1.2086722  0.063643355   -2.3193515    1.1106793   482116 
  480000    1.0080113   -2.3203375   -2.3203375   -1.2084538  0.067532924   -2.3203375    1.1118836   482116 
  481000    1.0076342   -2.3197548   -2.3197548   -1.2082872  0.063183471   -2.3197548    1.1114676   482116 
  482000    1.0058071   -2.3185962   -2.3185962   -1.2091439   0.05874824   -2.3185962    1.1094523   482116 
  483000    1.0058313   -2.3188909   -2.3188909   -1.2094119  0.056763085   -2.3188909    1.1094789   482116 
  484000    1.0057076   -2.3181142   -2.3181142   -1.2087717  0.071272205   -2.3181142    1.1093425   482116 
  485000    1.0068378   -2.3187764   -2.3187764   -1.2081872   0.06490495   -2.3187764    1.1105892   482116 
  486000    1.0061529   -2.3175147   -2.3175147   -1.2076809  0.066856343   -2.3175147    1.1098338   482116 
  487000    1.0063356   -2.3178035   -2.3178035   -1.2077683  0.068459546   -2.3178035    1.1100352   482116 
  488000    1.0051049   -2.3175618   -2.3175618   -1.2088842  0.060030284   -2.3175618    1.1086777   482116 
  489000    1.0054012   -2.3175696   -2.3175696   -1.2085651  0.071510503   -2.3175696    1.1090045   482116 
  490000    1.0057027   -2.3175486   -2.3175486   -1.2082115  0.064624975   -2.3175486    1.1093371   482116 
  491000    1.0067209   -2.3186635   -2.3186635   -1.2082033  0.067621717   -2.3186635    1.1104602   482116 
  492000     1.004674   -2.3167522   -2.3167522   -1.2085498  0.066494792   -2.3167522    1.1082024   482116 
  493000    1.0052262    -2.316763    -2.316763   -1.2079515  0.071360462    -2.316763    1.1088115   482116 
  494000    1.0066538   -2.3187464   -2.3187464   -1.2083602  0.062385966   -2.3187464    1.1103862   482116 
  495000    1.0058641    -2.317637    -2.317637   -1.2081218  0.064859799    -2.317637    1.1095151   482116 
  496000    1.0055146   -2.3172611   -2.3172611   -1.2081314  0.066952669   -2.3172611    1.1091297   482116 
  497000    1.0068143   -2.3176875   -2.3176875   -1.2071242  0.072260284   -2.3176875    1.1105633   482116 
  498000    1.0069068   -2.3173301   -2.3173301   -1.2066648  0.064849442   -2.3173301    1.1106653   482116 
  499000    1.0055252   -2.3171575   -2.3171575   -1.2080161  0.066053725   -2.3171575    1.1091414   482116 
  500000     1.006781   -2.3178267   -2.3178267   -1.2073001  0.070317384   -2.3178267    1.1105265   482116 
  501000    1.0074359   -2.3194991   -2.3194991   -1.2082502  0.072124724   -2.3194991    1.1112489   482116 
  502000     1.006816   -2.3183398   -2.3183398   -1.2077747  0.067174657   -2.3183398    1.1105651   482116 
  503000    1.0062534   -2.3179817   -2.3179817   -1.2080371   0.07549917   -2.3179817    1.1099446   482116 
  504000    1.0050251    -2.316608    -2.316608   -1.2080184  0.069821386    -2.316608    1.1085897   482116 
  505000    1.0062876   -2.3191842   -2.3191842   -1.2092019  0.062637315   -2.3191842    1.1099823   482116 
  506000     1.006291   -2.3193815   -2.3193815   -1.2093955  0.070083471   -2.3193815     1.109986   482116 
  507000    1.0056147    -2.319016    -2.319016    -1.209776  0.059425659    -2.319016      1.10924   482116 
  508000    1.0061815   -2.3192571   -2.3192571   -1.2093918  0.063685793   -2.3192571    1.1098653   482116 
  509000    1.0048492    -2.317472    -2.317472   -1.2090763  0.065033655    -2.317472    1.1083957   482116 
  510000    1.0060603   -2.3184327   -2.3184327   -1.2087011  0.062983625   -2.3184327    1.1097316   482116 
  511000    1.0064737   -2.3187589   -2.3187589   -1.2085714  0.066635009   -2.3187589    1.1101876   482116 
  512000    1.0065075   -2.3181192   -2.3181192   -1.2078944  0.066416597   -2.3181192    1.1102248   482116 
  513000    1.0059322   -2.3183349   -2.3183349   -1.2087446  0.067530709   -2.3183349    1.1095903   482116 
  514000    1.0059183   -2.3184534   -2.3184534   -1.2088785  0.072686752   -2.3184534    1.1095749   482116 
  515000    1.0065109   -2.3186198   -2.3186198   -1.2083912  0.066030733   -2.3186198    1.1102286   482116 
  516000    1.0055692   -2.3178475   -2.3178475   -1.2086576  0.063175443   -2.3178475    1.1091899   482116 
  517000    1.0063904   -2.3183442   -2.3183442   -1.2082485  0.068809719   -2.3183442    1.1100957   482116 
  518000    1.0082778   -2.3215521   -2.3215521   -1.2093746  0.064716464   -2.3215521    1.1121775   482116 
  519000    1.0055973   -2.3190828   -2.3190828   -1.2098619  0.070405494   -2.3190828    1.1092209   482116 
  520000     1.006275   -2.3187031   -2.3187031   -1.2087347  0.068615435   -2.3187031    1.1099684   482116 
  521000    1.0071715    -2.319874    -2.319874   -1.2089168  0.067015512    -2.319874    1.1109573   482116 
  522000    1.0080334   -2.3210111   -2.3210111   -1.2091031  0.073741639   -2.3210111     1.111908   482116 
  523000     1.007403   -2.3190785   -2.3190785    -1.207866  0.072446378   -2.3190785    1.1112126   482116 
  524000    1.0083474   -2.3197096   -2.3197096   -1.2074553  0.058286276   -2.3197096    1.1122543   482116 
  525000     1.007353   -2.3191331   -2.3191331   -1.2079757  0.058676936   -2.3191331    1.1111574   482116 
  526000    1.0074978   -2.3196224   -2.3196224   -1.2083052  0.072695287   -2.3196224    1.1113172   482116 
  527000    1.0059989   -2.3185554   -2.3185554   -1.2088915  0.067798561   -2.3185554    1.1096638   482116 
  528000    1.0062325   -2.3184377   -2.3184377   -1.2085161   0.06753575   -2.3184377    1.1099216   482116 
  529000    1.0067767   -2.3182874   -2.3182874   -1.2077656  0.059851435   -2.3182874    1.1105218   482116 
  530000    1.0059344   -2.3181717   -2.3181717    -1.208579  0.058827421   -2.3181717    1.1095927   482116 
  531000    1.0074445   -2.3200364   -2.3200364    -1.208778  0.064483837   -2.3200364    1.1112584   482116 
  532000    1.0056671    -2.319451    -2.319451   -1.2101531  0.068632343    -2.319451    1.1092979   482116 
  533000    1.0039689   -2.3170802   -2.3170802   -1.2096555  0.070321287   -2.3170802    1.1074247   482116 
  534000    1.0063855   -2.3183846   -2.3183846   -1.2082943  0.067620042   -2.3183846    1.1100903   482116 
  535000    1.0067193   -2.3197044   -2.3197044   -1.2092459  0.058032988   -2.3197044    1.1104585   482116 
  536000    1.0057317   -2.3194744   -2.3194744   -1.2101053  0.058869427   -2.3194744    1.1093691   482116 
  537000    1.0054974   -2.3188826   -2.3188826   -1.2097719  0.069346536   -2.3188826    1.1091107   482116 
  538000    1.0061817   -2.3192552   -2.3192552   -1.2093897  0.066691771   -2.3192552    1.1098655   482116 
  539000    1.0049505   -2.3180294   -2.3180294   -1.2095221  0.069856346   -2.3180294    1.1085074   482116 
  540000    1.0053147    -2.318607    -2.318607   -1.2096979  0.064386609    -2.318607    1.1089092   482116 
  541000    1.0044506    -2.317656    -2.317656   -1.2096999  0.068014214    -2.317656    1.1079561   482116 
  542000    1.0053361   -2.3180971   -2.3180971   -1.2091643  0.059928664   -2.3180971    1.1089328   482116 
  543000    1.0081842   -2.3200867   -2.3200867   -1.2080124  0.063447456   -2.3200867    1.1120743   482116 
  544000    1.0059729    -2.318497    -2.318497   -1.2088618  0.073598321    -2.318497    1.1096352   482116 
  545000    1.0067968   -2.3193203   -2.3193203   -1.2087763  0.068297988   -2.3193203     1.110544   482116 
  546000    1.0086141   -2.3206403   -2.3206403   -1.2080918   0.06664724   -2.3206403    1.1125485   482116 
  547000    1.0087816   -2.3217941   -2.3217941   -1.2090608  0.071078167   -2.3217941    1.1127333   482116 
  548000    1.0102297   -2.3227874   -2.3227874   -1.2084568  0.069349458   -2.3227874    1.1143306   482116 
  549000    1.0063708   -2.3195845   -2.3195845   -1.2095105  0.072278897   -2.3195845    1.1100741   482116 
  550000    1.0066447   -2.3200884   -2.3200884   -1.2097122  0.065197928   -2.3200884    1.1103761   482116 
  551000    1.0070168   -2.3211696   -2.3211696    -1.210383  0.064852788   -2.3211696    1.1107866   482116 
  552000     1.004733   -2.3191214   -2.3191214   -1.2108539  0.066387346   -2.3191214    1.1082675   482116 
  553000    1.0069507   -2.3218982   -2.3218982   -1.2111844  0.066122189   -2.3218982    1.1107137   482116 
  554000    1.0080443   -2.3239906   -2.3239906   -1.2120706  0.072531527   -2.3239906      1.11192   482116 
  555000    1.0061548   -2.3205075   -2.3205075   -1.2106718  0.061862662   -2.3205075    1.1098358   482116 
  556000    1.0073613    -2.321683    -2.321683   -1.2105164  0.068855309    -2.321683    1.1111666   482116 
  557000    1.0064026   -2.3204488   -2.3204488   -1.2103396  0.068547103   -2.3204488    1.1101092   482116 
  558000    1.0052558   -2.3203593   -2.3203593   -1.2115151  0.068460865   -2.3203593    1.1088442   482116 
  559000    1.0059759   -2.3202393   -2.3202393   -1.2106008  0.062163014   -2.3202393    1.1096385   482116 
  560000    1.0072772   -2.3208666   -2.3208666   -1.2097928  0.069146137   -2.3208666    1.1110738   482116 
  561000    1.0057648   -2.3195636   -2.3195636    -1.210158  0.073974303   -2.3195636    1.1094056   482116 
  562000    1.0088114   -2.3243756   -2.3243756   -1.2116095  0.070408445   -2.3243756    1.1127661   482116 
  563000    1.0081791   -2.3226058   -2.3226058   -1.2105371  0.067956021   -2.3226058    1.1120687   482116 
  564000    1.0065584   -2.3212971   -2.3212971   -1.2110161   0.06277906   -2.3212971     1.110281   482116 
  565000    1.0053851   -2.3210601   -2.3210601   -1.2120733  0.060210083   -2.3210601    1.1089868   482116 
  566000    1.0041165   -2.3191525   -2.3191525   -1.2115651   0.07059722   -2.3191525    1.1075875   482116 
  567000    1.0044639   -2.3200692   -2.3200692   -1.2120986  0.065272684   -2.3200692    1.1079706   482116 
  568000    1.0056007   -2.3206853   -2.3206853   -1.2114607  0.065981834   -2.3206853    1.1092247   482116 
  569000    1.0055025   -2.3211828   -2.3211828   -1.2120666  0.070316138   -2.3211828    1.1091162   482116 
  570000    1.0055275   -2.3210072   -2.3210072   -1.2118634  0.065548584   -2.3210072    1.1091439   482116 
  571000    1.0053853   -2.3209494   -2.3209494   -1.2119623  0.069461564   -2.3209494     1.108987   482116 
  572000    1.0069482    -2.321986    -2.321986    -1.211275  0.067921902    -2.321986     1.110711   482116 
  573000    1.0075901   -2.3228813   -2.3228813   -1.2114624  0.068491778   -2.3228813     1.111419   482116 
  574000    1.0073716   -2.3228685   -2.3228685   -1.2116905  0.070041105   -2.3228685     1.111178   482116 
  575000    1.0072973   -2.3227295   -2.3227295   -1.2116334  0.069611544   -2.3227295    1.1110961   482116 
  576000    1.0087199   -2.3237445   -2.3237445   -1.2110793  0.071787372   -2.3237445    1.1126652   482116 
  577000    1.0056167    -2.319747    -2.319747   -1.2105047  0.073866214    -2.319747    1.1092423   482116 
  578000    1.0078797   -2.3229149   -2.3229149   -1.2111764  0.069358309   -2.3229149    1.1117385   482116 
  579000    1.0101204   -2.3232479   -2.3232479   -1.2090379  0.071211154   -2.3232479      1.11421   482116 
  580000    1.0100628   -2.3237112   -2.3237112   -1.2095646  0.058285883   -2.3237112    1.1141466   482116 
  581000    1.0087089   -2.3234716   -2.3234716   -1.2108185  0.068804795   -2.3234716    1.1126531   482116 
  582000    1.0059914   -2.3205351   -2.3205351   -1.2108796   0.07410985   -2.3205351    1.1096555   482116 
  583000    1.0079028   -2.3231808   -2.3231808   -1.2114168  0.067820101   -2.3231808     1.111764   482116 
  584000     1.006898   -2.3218909   -2.3218909   -1.2112353   0.06250382   -2.3218909    1.1106556   482116 
  585000    1.0072469   -2.3219849   -2.3219849   -1.2109445  0.066874259   -2.3219849    1.1110405   482116 
  586000    1.0070473   -2.3232466   -2.3232466   -1.2124263  0.065995906   -2.3232466    1.1108203   482116 
  587000    1.0068452   -2.3225417   -2.3225417   -1.2119444  0.072976854   -2.3225417    1.1105973   482116 
  588000     1.006664   -2.3218342   -2.3218342   -1.2114367  0.063305759   -2.3218342    1.1103975   482116 
  589000    1.0059361   -2.3216248   -2.3216248   -1.2120302  0.065707634   -2.3216248    1.1095946   482116 
  590000    1.0073327   -2.3232998   -2.3232998   -1.2121648  0.071565223   -2.3232998     1.111135   482116 
  591000    1.0055064   -2.3210961   -2.3210961   -1.2119755    0.0691002   -2.3210961    1.1091206   482116 
  592000    1.0085819   -2.3254433   -2.3254433   -1.2129303   0.06387708   -2.3254433     1.112513   482116 
  593000    1.0057195   -2.3222993   -2.3222993   -1.2129436  0.066227518   -2.3222993    1.1093556   482116 
  594000    1.0053169   -2.3206343   -2.3206343   -1.2117228  0.063961258   -2.3206343    1.1089116   482116 
  595000     1.006205   -2.3227253   -2.3227253   -1.2128342  0.065184631   -2.3227253    1.1098911   482116 
  596000    1.0057148   -2.3212755   -2.3212755   -1.2119251  0.067301036   -2.3212755    1.1093504   482116 
  597000    1.0048537    -2.320811    -2.320811   -1.2124104  0.063591464    -2.320811    1.1084006   482116 
  598000    1.0043624   -2.3201984   -2.3201984   -1.2123397  0.072707512   -2.3201984    1.1078587   482116 
  599000    1.0046262   -2.3196009   -2.3196009   -1.2114512  0.063249201   -2.3196009    1.1081497   482116 
  600000    1.0053447    -2.320312    -2.320312   -1.2113698  0.063251788    -2.320312    1.1089422   482116 
  601000    1.0080206   -2.3213925   -2.3213925   -1.2094986  0.064327334   -2.3213925    1.1118939   482116 
  602000     1.006799   -2.3207149   -2.3207149   -1.2101685  0.064841511   -2.3207149    1.1105464   482116 
  603000    1.0047012    -2.318708    -2.318708   -1.2104756  0.067158268    -2.318708    1.1082324   482116 
  604000    1.0063226   -2.3205546   -2.3205546   -1.2105337  0.069683469   -2.3205546    1.1100209   482116 
  605000    1.0073346   -2.3217182   -2.3217182   -1.2105809  0.072162714   -2.3217182    1.1111372   482116 
  606000    1.0073642   -2.3217295   -2.3217295   -1.2105597   0.06295387   -2.3217295    1.1111698   482116 
  607000    1.0072605   -2.3217723   -2.3217723   -1.2107169  0.064219387   -2.3217723    1.1110554   482116 
  608000     1.006604   -2.3212987   -2.3212987   -1.2109674  0.072621323   -2.3212987    1.1103312   482116 
  609000    1.0066548   -2.3225179   -2.3225179   -1.2121305  0.066608697   -2.3225179    1.1103874   482116 
  610000    1.0048341   -2.3208721   -2.3208721    -1.212493  0.073121403   -2.3208721    1.1083791   482116 
  611000    1.0046256   -2.3216305   -2.3216305   -1.2134815  0.062519089   -2.3216305     1.108149   482116 
  612000    1.0052259   -2.3219928   -2.3219928   -1.2131816  0.058902014   -2.3219928    1.1088112   482116 
  613000    1.0058855   -2.3231786   -2.3231786   -1.2136398   0.06066231   -2.3231786    1.1095388   482116 
  614000     1.005855   -2.3242631   -2.3242631    -1.214758  0.053782792   -2.3242631    1.1095051   482116 
  615000    1.0049244   -2.3221879   -2.3221879   -1.2137093  0.064766222   -2.3221879    1.1084786   482116 
  616000    1.0051845   -2.3226425   -2.3226425   -1.2138769  0.067573943   -2.3226425    1.1087656   482116 
  617000    1.0052247   -2.3228059   -2.3228059    -1.213996  0.067715146   -2.3228059    1.1088099   482116 
  618000    1.0052343   -2.3227678   -2.3227678   -1.2139473  0.056690351   -2.3227678    1.1088205   482116 
  619000    1.0080287   -2.3256125   -2.3256125   -1.2137096  0.067611711   -2.3256125    1.1119029   482116 
  620000    1.0064863   -2.3243462   -2.3243462   -1.2141447  0.064026392   -2.3243462    1.1102015   482116 
  621000    1.0058125   -2.3232444   -2.3232444   -1.2137861  0.072451397   -2.3232444    1.1094583   482116 
  622000    1.0074291   -2.3254738   -2.3254738   -1.2142324  0.064713424   -2.3254738    1.1112414   482116 
  623000    1.0055247   -2.3244508   -2.3244508     -1.21531   0.07189143   -2.3244508    1.1091407   482116 
  624000    1.0053402   -2.3240156   -2.3240156   -1.2150784  0.072726175   -2.3240156    1.1089372   482116 
  625000    1.0066013    -2.325031    -2.325031   -1.2147027  0.067275052    -2.325031    1.1103283   482116 
  626000    1.0069869   -2.3255278   -2.3255278   -1.2147742  0.069661438   -2.3255278    1.1107536   482116 
  627000    1.0076141   -2.3268912   -2.3268912   -1.2154458  0.064121623   -2.3268912    1.1114454   482116 
  628000    1.0075191   -2.3268248   -2.3268248   -1.2154842  0.072010507   -2.3268248    1.1113406   482116 
  629000    1.0057639   -2.3243669   -2.3243669   -1.2149623  0.075471971   -2.3243669    1.1094046   482116 
  630000    1.0063528   -2.3258062   -2.3258062   -1.2157519  0.075944845   -2.3258062    1.1100542   482116 
  631000    1.0073758   -2.3268911   -2.3268911   -1.2157085  0.067465114   -2.3268911    1.1111826   482116 
  632000    1.0088202   -2.3279857   -2.3279857   -1.2152099  0.064326661   -2.3279857    1.1127758   482116 
  633000    1.0077831   -2.3272489   -2.3272489   -1.2156169  0.080799625   -2.3272489    1.1116319   482116 
  634000     1.008938    -2.327799    -2.327799   -1.2148932  0.065050514    -2.327799    1.1129058   482116 
  635000    1.0065468   -2.3264794   -2.3264794   -1.2162113  0.067444924   -2.3264794    1.1102681   482116 
  636000    1.0073604   -2.3263061   -2.3263061   -1.2151405   0.06387675   -2.3263061    1.1111656   482116 
  637000     1.006135   -2.3252656   -2.3252656   -1.2154516  0.073613968   -2.3252656     1.109814   482116 
  638000    1.0062005   -2.3241279   -2.3241279   -1.2142416   0.07698915   -2.3241279    1.1098863   482116 
  639000    1.0074018   -2.3258591   -2.3258591   -1.2146478  0.064826969   -2.3258591    1.1112113   482116 
  640000    1.0045113   -2.3226538   -2.3226538   -1.2146308  0.076713612   -2.3226538     1.108023   482116 
  641000    1.0068077   -2.3245268   -2.3245268   -1.2139708  0.064352498   -2.3245268     1.110556   482116 
  642000    1.0056984   -2.3248168   -2.3248168   -1.2154844  0.061520911   -2.3248168    1.1093324   482116 
  643000    1.0067282   -2.3246709   -2.3246709   -1.2142026  0.068393704   -2.3246709    1.1104683   482116 
  644000    1.0062651   -2.3238688   -2.3238688   -1.2139113  0.073122078   -2.3238688    1.1099575   482116 
[...]
 9831000    1.0084079   -2.3423568   -2.3423568   -1.2300357   0.06752795   -2.3423568    1.1123211   482116 
 9832000      1.00972   -2.3444674   -2.3444674   -1.2306991  0.069787348   -2.3444674    1.1137683   482116 
 9833000    1.0062917    -2.341846    -2.341846   -1.2318592  0.068009466    -2.341846    1.1099868   482116 
 9834000    1.0067576   -2.3415464   -2.3415464   -1.2310457  0.071762604   -2.3415464    1.1105007   482116 
 9835000    1.0065708   -2.3422093   -2.3422093   -1.2319146  0.068470357   -2.3422093    1.1102947   482116 
 9836000    1.0067463   -2.3421509   -2.3421509   -1.2316626  0.073025281   -2.3421509    1.1104882   482116 
 9837000     1.005986   -2.3420272   -2.3420272   -1.2323777  0.069111197   -2.3420272    1.1096496   482116 
 9838000    1.0067746   -2.3412434   -2.3412434   -1.2307239  0.077748597   -2.3412434    1.1105195   482116 
 9839000    1.0062857   -2.3397175   -2.3397175   -1.2297373  0.077808388   -2.3397175    1.1099802   482116 
 9840000    1.0090691   -2.3430528   -2.3430528   -1.2300023  0.064543476   -2.3430528    1.1130504   482116 
 9841000    1.0069441   -2.3408814   -2.3408814   -1.2301749  0.063846731   -2.3408814    1.1107065   482116 
 9842000     1.007869   -2.3414008   -2.3414008   -1.2296741  0.070267303   -2.3414008    1.1117266   482116 
 9843000    1.0068931   -2.3404699   -2.3404699   -1.2298197  0.067728824   -2.3404699    1.1106502   482116 
 9844000    1.0068457   -2.3413721   -2.3413721   -1.2307742  0.072170025   -2.3413721    1.1105979   482116 
 9845000    1.0057377   -2.3405634   -2.3405634   -1.2311877  0.074746293   -2.3405634    1.1093757   482116 
 9846000    1.0063843   -2.3417835   -2.3417835   -1.2316946  0.074999408   -2.3417835    1.1100889   482116 
 9847000    1.0072077   -2.3423803   -2.3423803   -1.2313831  0.067326735   -2.3423803    1.1109972   482116 
 9848000     1.007151   -2.3428914   -2.3428914   -1.2319567  0.066082935   -2.3428914    1.1109347   482116 
 9849000    1.0075912   -2.3434553   -2.3434553    -1.232035  0.067164922   -2.3434553    1.1114203   482116 
 9850000    1.0080239   -2.3424814   -2.3424814   -1.2305839   0.07272935   -2.3424814    1.1118975   482116 
 9851000     1.005596   -2.3392917   -2.3392917   -1.2300723  0.071864484   -2.3392917    1.1092194   482116 
 9852000    1.0081917   -2.3422993   -2.3422993   -1.2302167  0.071960259   -2.3422993    1.1120826   482116 
 9853000    1.0076435    -2.343208    -2.343208   -1.2317301  0.064986503    -2.343208    1.1114779   482116 
 9854000    1.0065207   -2.3416388   -2.3416388   -1.2313994  0.069517725   -2.3416388    1.1102394   482116 
 9855000    1.0069805   -2.3422154   -2.3422154   -1.2314689  0.067302351   -2.3422154    1.1107466   482116 
 9856000    1.0072722   -2.3427401   -2.3427401   -1.2316718  0.067780618   -2.3427401    1.1110683   482116 
 9857000    1.0072994   -2.3437273   -2.3437273   -1.2326289  0.073661187   -2.3437273    1.1110984   482116 
 9858000    1.0058992   -2.3419012   -2.3419012   -1.2323473  0.070468972   -2.3419012    1.1095539   482116 
 9859000    1.0084887   -2.3441435   -2.3441435   -1.2317332  0.068855193   -2.3441435    1.1124102   482116 
 9860000    1.0056832   -2.3425343   -2.3425343   -1.2332186  0.069498061   -2.3425343    1.1093156   482116 
 9861000    1.0066463   -2.3437259   -2.3437259    -1.233348  0.063366444   -2.3437259    1.1103779   482116 
 9862000    1.0056804    -2.342794    -2.342794   -1.2334815  0.073340513    -2.342794    1.1093125   482116 
 9863000    1.0060696   -2.3437646   -2.3437646   -1.2340228  0.066182469   -2.3437646    1.1097418   482116 
 9864000    1.0048965   -2.3429607   -2.3429607   -1.2345128  0.065439785   -2.3429607    1.1084479   482116 
 9865000    1.0055366   -2.3439945   -2.3439945   -1.2348406  0.074232261   -2.3439945    1.1091539   482116 
 9866000    1.0071584   -2.3451125   -2.3451125   -1.2341697  0.064359764   -2.3451125    1.1109428   482116 
 9867000    1.0059437   -2.3444791   -2.3444791   -1.2348762  0.066818484   -2.3444791    1.1096029   482116 
 9868000    1.0065524   -2.3443363   -2.3443363    -1.234062  0.062381453   -2.3443363    1.1102744   482116 
 9869000    1.0052025   -2.3440063   -2.3440063   -1.2352209  0.069246159   -2.3440063    1.1087854   482116 
 9870000    1.0047365   -2.3444316   -2.3444316   -1.2361603  0.067913826   -2.3444316    1.1082713   482116 
 9871000    1.0041938   -2.3444174   -2.3444174   -1.2367446   0.07219143   -2.3444174    1.1076728   482116 
 9872000    1.0067593   -2.3477043   -2.3477043   -1.2372017  0.075444499   -2.3477043    1.1105026   482116 
 9873000    1.0074043   -2.3463128   -2.3463128   -1.2350987  0.076243321   -2.3463128    1.1112141   482116 
 9874000    1.0061693   -2.3445304   -2.3445304   -1.2346787  0.072726771   -2.3445304    1.1098518   482116 
 9875000    1.0071426   -2.3458299   -2.3458299   -1.2349045  0.074476976   -2.3458299    1.1109254   482116 
 9876000    1.0085244    -2.346951    -2.346951   -1.2345014  0.072238561    -2.346951    1.1124496   482116 
 9877000    1.0082445   -2.3467849   -2.3467849    -1.234644  0.076531395   -2.3467849    1.1121408   482116 
 9878000    1.0082598   -2.3473415   -2.3473415   -1.2351838  0.066784827   -2.3473415    1.1121577   482116 
 9879000     1.007874   -2.3461665   -2.3461665   -1.2344343  0.068943966   -2.3461665    1.1117321   482116 
 9880000    1.0069481   -2.3448738   -2.3448738    -1.234163   0.06788407   -2.3448738    1.1107108   482116 
 9881000    1.0068794   -2.3451766   -2.3451766   -1.2345416  0.066758245   -2.3451766     1.110635   482116 
 9882000    1.0066365   -2.3444712   -2.3444712   -1.2341041  0.071032958   -2.3444712    1.1103671   482116 
 9883000    1.0070512   -2.3445535   -2.3445535   -1.2337289  0.065113079   -2.3445535    1.1108246   482116 
 9884000    1.0056949   -2.3424606   -2.3424606   -1.2331321  0.067884913   -2.3424606    1.1093285   482116 
 9885000    1.0067481   -2.3411801   -2.3411801   -1.2306898  0.062830515   -2.3411801    1.1104903   482116 
 9886000     1.005799   -2.3412589   -2.3412589   -1.2318156  0.068773786   -2.3412589    1.1094433   482116 
 9887000    1.0053805   -2.3411172   -2.3411172   -1.2321354   0.07418391   -2.3411172    1.1089818   482116 
 9888000    1.0057457   -2.3423401   -2.3423401   -1.2329556  0.065933906   -2.3423401    1.1093845   482116 
 9889000    1.0051119    -2.340686    -2.340686   -1.2320006  0.071689799    -2.340686    1.1086854   482116 
 9890000    1.0049526   -2.3419096   -2.3419096   -1.2333999  0.062553527   -2.3419096    1.1085098   482116 
 9891000    1.0046474   -2.3406829   -2.3406829   -1.2325099  0.068185007   -2.3406829    1.1081731   482116 
 9892000    1.0056273     -2.34113     -2.34113    -1.231876  0.064457743     -2.34113    1.1092539   482116 
 9893000    1.0045952   -2.3401256   -2.3401256   -1.2320101  0.068823998   -2.3401256    1.1081155   482116 
 9894000    1.0033938   -2.3392284   -2.3392284    -1.232438  0.062184772   -2.3392284    1.1067903   482116 
 9895000     1.006086   -2.3419089   -2.3419089   -1.2321489  0.060258479   -2.3419089    1.1097599   482116 
 9896000    1.0053879   -2.3404647   -2.3404647   -1.2314748  0.063219781   -2.3404647    1.1089899   482116 
 9897000    1.0042863   -2.3393449   -2.3393449   -1.2315701  0.065046183   -2.3393449    1.1077748   482116 
 9898000    1.0065634   -2.3418488   -2.3418488   -1.2315623  0.067918329   -2.3418488    1.1102865   482116 
 9899000    1.0072781   -2.3423439   -2.3423439    -1.231269  0.079669154   -2.3423439    1.1110749   482116 
 9900000    1.0056544   -2.3407668   -2.3407668    -1.231483  0.063777217   -2.3407668    1.1092838   482116 
 9901000    1.0077211   -2.3434063   -2.3434063   -1.2318428  0.063660545   -2.3434063    1.1115635   482116 
 9902000     1.005499   -2.3387209   -2.3387209   -1.2296085  0.073332298   -2.3387209    1.1091124   482116 
 9903000    1.0076044   -2.3411637   -2.3411637   -1.2297289  0.066709745   -2.3411637    1.1114348   482116 
 9904000    1.0080064   -2.3419878   -2.3419878   -1.2301096  0.080087066   -2.3419878    1.1118783   482116 
 9905000    1.0066291   -2.3400827   -2.3400827   -1.2297237  0.067205799   -2.3400827     1.110359   482116 
 9906000    1.0072221   -2.3399922   -2.3399922   -1.2289791  0.066835638   -2.3399922    1.1110131   482116 
 9907000    1.0091739    -2.342271    -2.342271    -1.229105  0.071745221    -2.342271     1.113166   482116 
 9908000    1.0084499   -2.3431078   -2.3431078   -1.2307404  0.067021491   -2.3431078    1.1123674   482116 
 9909000    1.0069193   -2.3410056   -2.3410056   -1.2303265  0.074307413   -2.3410056    1.1106791   482116 
 9910000    1.0078233   -2.3424402   -2.3424402    -1.230764  0.072319482   -2.3424402    1.1116762   482116 
 9911000    1.0068504   -2.3420243   -2.3420243   -1.2314212  0.072382274   -2.3420243    1.1106031   482116 
 9912000    1.0077708   -2.3422287   -2.3422287   -1.2306104  0.071503923   -2.3422287    1.1116183   482116 
 9913000    1.0073935   -2.3421829   -2.3421829   -1.2309807  0.068610134   -2.3421829    1.1112022   482116 
 9914000     1.007272   -2.3419355   -2.3419355   -1.2308673  0.070720573   -2.3419355    1.1110682   482116 
 9915000    1.0075181   -2.3422039   -2.3422039   -1.2308643  0.062910438   -2.3422039    1.1113396   482116 
 9916000    1.0071148    -2.340927    -2.340927   -1.2300323  0.070507069    -2.340927    1.1108947   482116 
 9917000    1.0064991   -2.3416161   -2.3416161   -1.2314005  0.072163207   -2.3416161    1.1102156   482116 
 9918000    1.0045464    -2.339598    -2.339598   -1.2315363   0.06027577    -2.339598    1.1080617   482116 
 9919000    1.0046808   -2.3395903   -2.3395903   -1.2313804  0.071957285   -2.3395903    1.1082099   482116 
 9920000    1.0047384   -2.3399921   -2.3399921   -1.2317187  0.065976502   -2.3399921    1.1082734   482116 
 9921000    1.0047576   -2.3402694   -2.3402694   -1.2319747   0.05975737   -2.3402694    1.1082946   482116 
 9922000    1.0058876   -2.3407632   -2.3407632   -1.2312221  0.067285877   -2.3407632     1.109541   482116 
 9923000    1.0036634   -2.3394007   -2.3394007    -1.232313  0.067277388   -2.3394007    1.1070877   482116 
 9924000    1.0046813   -2.3398608   -2.3398608   -1.2316504  0.074599967   -2.3398608    1.1082104   482116 
 9925000    1.0066354   -2.3425535   -2.3425535   -1.2321875  0.065008391   -2.3425535     1.110366   482116 
 9926000    1.0067875   -2.3419272   -2.3419272   -1.2313935  0.064624254   -2.3419272    1.1105337   482116 
 9927000    1.0063572   -2.3415982   -2.3415982   -1.2315391  0.068558288   -2.3415982     1.110059   482116 
 9928000     1.005981   -2.3411335   -2.3411335   -1.2314894  0.068603662   -2.3411335    1.1096441   482116 
 9929000    1.0059326   -2.3399481   -2.3399481   -1.2303574  0.063474476   -2.3399481    1.1095907   482116 
 9930000    1.0068813   -2.3424241   -2.3424241   -1.2317869  0.065650839   -2.3424241    1.1106372   482116 
 9931000      1.00605    -2.341113    -2.341113   -1.2313928  0.067874038    -2.341113    1.1097203   482116 
 9932000    1.0067455   -2.3417692   -2.3417692   -1.2312819  0.071337856   -2.3417692    1.1104874   482116 
 9933000    1.0046988   -2.3391001   -2.3391001   -1.2308704  0.071999255   -2.3391001    1.1082298   482116 
 9934000    1.0059607   -2.3406509   -2.3406509   -1.2310293  0.075223402   -2.3406509    1.1096217   482116 
 9935000    1.0058744   -2.3419535   -2.3419535    -1.232427  0.066807293   -2.3419535    1.1095265   482116 
 9936000    1.0063139   -2.3421798   -2.3421798   -1.2321685  0.069850086   -2.3421798    1.1100113   482116 
 9937000    1.0067994   -2.3429916   -2.3429916   -1.2324448  0.068696728   -2.3429916    1.1105469   482116 
 9938000    1.0074963   -2.3440089   -2.3440089   -1.2326934  0.073046053   -2.3440089    1.1113155   482116 
 9939000    1.0081849    -2.344541    -2.344541   -1.2324658  0.070444248    -2.344541    1.1120752   482116 
 9940000    1.0071388   -2.3435969   -2.3435969   -1.2326757  0.068945533   -2.3435969    1.1109212   482116 
 9941000    1.0075565   -2.3440898   -2.3440898   -1.2327078  0.076184423   -2.3440898    1.1113819   482116 
 9942000    1.0065741   -2.3434429   -2.3434429   -1.2331446  0.066889926   -2.3434429    1.1102983   482116 
 9943000    1.0075114   -2.3436596   -2.3436596   -1.2323274   0.06161339   -2.3436596    1.1113322   482116 
 9944000    1.0079391   -2.3444212   -2.3444212   -1.2326172  0.073746819   -2.3444212     1.111804   482116 
 9945000    1.0054243   -2.3414408   -2.3414408   -1.2324107  0.078840108   -2.3414408    1.1090301   482116 
 9946000    1.0078293   -2.3452396   -2.3452396   -1.2335568   0.06363273   -2.3452396    1.1116828   482116 
 9947000    1.0054812   -2.3435152   -2.3435152   -1.2344224  0.065731528   -2.3435152    1.1090928   482116 
 9948000     1.003935   -2.3410006   -2.3410006   -1.2336133  0.078889468   -2.3410006    1.1073873   482116 
 9949000    1.0044731   -2.3428634   -2.3428634   -1.2348825  0.068210182   -2.3428634    1.1079809   482116 
 9950000    1.0040408   -2.3417799   -2.3417799   -1.2342759  0.071071331   -2.3417799     1.107504   482116 
 9951000    1.0056331   -2.3419456   -2.3419456   -1.2326853  0.070247712   -2.3419456    1.1092604   482116 
 9952000     1.006353   -2.3423031   -2.3423031   -1.2322486  0.070744462   -2.3423031    1.1100544   482116 
 9953000    1.0057736   -2.3416908   -2.3416908   -1.2322754  0.068630573   -2.3416908    1.1094154   482116 
 9954000    1.0053316    -2.341447    -2.341447   -1.2325192  0.067903911    -2.341447    1.1089278   482116 
 9955000    1.0046064   -2.3408292   -2.3408292   -1.2327013  0.068402102   -2.3408292    1.1081279   482116 
 9956000    1.0063549   -2.3420082   -2.3420082   -1.2319517   0.07384077   -2.3420082    1.1100565   482116 
 9957000    1.0046447   -2.3401955   -2.3401955   -1.2320254  0.071055225   -2.3401955    1.1081701   482116 
 9958000    1.0067062   -2.3419413   -2.3419413   -1.2314973  0.063944725   -2.3419413     1.110444   482116 
 9959000    1.0057425   -2.3406338   -2.3406338   -1.2312528  0.071323006   -2.3406338     1.109381   482116 
 9960000     1.006023   -2.3410866   -2.3410866   -1.2313962   0.05894828   -2.3410866    1.1096904   482116 
 9961000    1.0055384   -2.3412702   -2.3412702   -1.2321144  0.064605991   -2.3412702    1.1091558   482116 
 9962000    1.0070656   -2.3428368   -2.3428368   -1.2319964   0.07134556   -2.3428368    1.1108405   482116 
 9963000    1.0074131   -2.3426179   -2.3426179    -1.231394  0.077691616   -2.3426179    1.1112238   482116 
 9964000    1.0057723   -2.3401015   -2.3401015   -1.2306875  0.067327327   -2.3401015    1.1094139   482116 
 9965000    1.0041954   -2.3387482   -2.3387482   -1.2310737  0.072361258   -2.3387482    1.1076745   482116 
 9966000     1.006833   -2.3408646   -2.3408646   -1.2302807  0.064070674   -2.3408646    1.1105838   482116 
 9967000    1.0059628   -2.3398414   -2.3398414   -1.2302174  0.068586386   -2.3398414    1.1096241   482116 
 9968000    1.0068191   -2.3416065   -2.3416065   -1.2310379  0.067359595   -2.3416065    1.1105686   482116 
 9969000    1.0070669   -2.3408922   -2.3408922   -1.2300504  0.072699489   -2.3408922    1.1108419   482116 
 9970000    1.0076511   -2.3408583   -2.3408583    -1.229372  0.072630333   -2.3408583    1.1114863   482116 
 9971000    1.0067016   -2.3408523   -2.3408523   -1.2304133  0.075594731   -2.3408523    1.1104389   482116 
 9972000    1.0063899   -2.3409908   -2.3409908   -1.2308956  0.071393964   -2.3409908    1.1100952   482116 
 9973000    1.0059526   -2.3398624   -2.3398624   -1.2302497  0.067153931   -2.3398624    1.1096128   482116 
 9974000    1.0079692   -2.3423898   -2.3423898   -1.2305525  0.069494323   -2.3423898    1.1118372   482116 
 9975000    1.0067449   -2.3407402   -2.3407402   -1.2302535  0.065362447   -2.3407402    1.1104867   482116 
 9976000    1.0082802   -2.3441237   -2.3441237   -1.2319435  0.064814572   -2.3441237    1.1121803   482116 
 9977000    1.0074087   -2.3437177   -2.3437177   -1.2324988  0.062944368   -2.3437177     1.111219   482116 
 9978000    1.0066656    -2.343409    -2.343409   -1.2330097  0.074440782    -2.343409    1.1103993   482116 
 9979000    1.0050317   -2.3429298   -2.3429298   -1.2343328  0.069223338   -2.3429298     1.108597   482116 
 9980000    1.0056916   -2.3430241   -2.3430241   -1.2336992  0.062914953   -2.3430241    1.1093249   482116 
 9981000     1.005239   -2.3430373   -2.3430373   -1.2342117  0.068737706   -2.3430373    1.1088256   482116 
 9982000    1.0061248   -2.3446446   -2.3446446   -1.2348419  0.061215735   -2.3446446    1.1098027   482116 
 9983000    1.0073154   -2.3456022   -2.3456022   -1.2344862  0.065628868   -2.3456022     1.111116   482116 
 9984000    1.0061199   -2.3438919   -2.3438919   -1.2340946  0.072484975   -2.3438919    1.1097973   482116 
 9985000    1.0071876   -2.3453022   -2.3453022   -1.2343272  0.070664738   -2.3453022    1.1109751   482116 
 9986000    1.0090167   -2.3467975   -2.3467975   -1.2338049  0.067418738   -2.3467975    1.1129926   482116 
 9987000    1.0073397   -2.3454349   -2.3454349   -1.2342921  0.069734707   -2.3454349    1.1111428   482116 
 9988000    1.0081922   -2.3458961   -2.3458961   -1.2338129   0.06642339   -2.3458961    1.1120831   482116 
 9989000    1.0085367   -2.3457866   -2.3457866   -1.2333235  0.065236719   -2.3457866    1.1124631   482116 
 9990000    1.0066917   -2.3446906   -2.3446906   -1.2342625  0.064478332   -2.3446906    1.1104281   482116 
 9991000    1.0071378   -2.3449916   -2.3449916   -1.2340715  0.066842552   -2.3449916    1.1109201   482116 
 9992000    1.0062093   -2.3433949   -2.3433949    -1.233499  0.072752416   -2.3433949    1.1098959   482116 
 9993000    1.0058647   -2.3443648   -2.3443648   -1.2348489   0.07998062   -2.3443648    1.1095159   482116 
 9994000    1.0059217   -2.3442949   -2.3442949   -1.2347162   0.07066553   -2.3442949    1.1095787   482116 
 9995000    1.0061542   -2.3448069   -2.3448069   -1.2349717  0.066302355   -2.3448069    1.1098352   482116 
 9996000    1.0061997   -2.3442264   -2.3442264   -1.2343411  0.069970562   -2.3442264    1.1098853   482116 
 9997000    1.0052964   -2.3431192   -2.3431192   -1.2342303  0.064664324   -2.3431192    1.1088889   482116 
 9998000    1.0060916   -2.3428586   -2.3428586   -1.2330925  0.072182084   -2.3428586    1.1097661   482116 
 9999000    1.0063364   -2.3433667   -2.3433667   -1.2333305  0.068426628   -2.3433667    1.1100361   482116 
10000000    1.0053781   -2.3424195   -2.3424195   -1.2334404  0.072130776   -2.3424195    1.1089791   482116 
Loop time of 86294 on 64 procs for 10000000 steps with 482116 atoms

Performance: 50061.422 tau/day, 115.883 timesteps/s
99.1% CPU use with 64 MPI tasks x 1 OpenMP threads

MPI task timing breakdown:
Section |  min time  |  avg time  |  max time  |%varavg|  %CPU | %total
-----------------------------------------------------------------------
Pair    | 11150      | 20357      | 33843      |3422.2 |  98.9 | 23.59
Bond    | 3.84       | 5.9234     | 28.967     | 243.2 | 100.0 |  0.01
Neigh   | 7835.7     | 14613      | 26526      |2510.8 |  99.9 | 16.93
Comm    | 17567      | 37788      | 54026      |5177.7 |  98.7 | 43.79
Output  | 497.98     | 499.77     | 502.7      |   5.8 |  96.3 |  0.58
Modify  | 6189.8     | 12309      | 23750      |5817.3 |  99.3 | 14.26
Other   |            | 722.1      |            |       |       |  0.84

Nlocal:        7533.06 ave        8810 max        6294 min
Histogram: 3 3 0 16 20 5 4 8 2 3
Nghost:        11611.4 ave       20646 max        5952 min
Histogram: 6 7 6 21 7 8 4 1 2 2
Neighs:       155337.0 ave      224240 max       65045 min
Histogram: 3 4 5 3 9 11 7 11 3 8

Total # of neighbors = 9941585
Ave neighs/atom = 20.620732
Ave special neighs/atom = 0.0000000
Neighbor list builds = 1000000
Dangerous builds = 990000

Total wall time: 23:58:22
