LAMMPS (29 Oct 2020)
  using 1 OpenMP thread(s) per MPI task
#Read the equilibrated lj fluid and add nanocubes

units           lj
atom_style      full
atom_modify     map array first cubes
dimension       3
boundary        p p f
pair_style      lj/smooth/linear 2.0

variable        sigma           equal 1.0
variable        epsilon         equal 1.0
read_restart	restart.dat.5000000
Reading restart file ...
  restart file = 24 Dec 2020, LAMMPS = 29 Oct 2020
WARNING: Restart file used different # of processors: 192 vs. 64 (src/read_restart.cpp:697)
  restoring atom style full from restart
  orthogonal box = (0.0000000 0.0000000 0.0000000) to (80.000000 80.000000 160.00000)
  2 by 4 by 8 MPI processor grid
  restoring pair style lj/smooth/linear from restart
  439061 atoms
Finding 1-2 1-3 1-4 neighbors ...
  special bond factors lj:    0.0      0.0      0.0     
  special bond factors coul:  0.0      0.0      0.0     
     0 = max # of 1-2 neighbors
     0 = max # of 1-3 neighbors
     0 = max # of 1-4 neighbors
     1 = max # of special neighbors
  special bonds CPU = 8.022 seconds
  read_restart CPU = 8.760 seconds

group		solvent type 1
439061 atoms in group solvent

read_data	data_96.cubes group cubes add append
Reading data file ...
  orthogonal box = (0.0000000 0.0000000 0.0000000) to (80.000000 80.000000 160.00000)
  2 by 4 by 8 MPI processor grid
WARNING: Pair style in data file differs from currently defined pair style (src/read_data.cpp:588)
  reading atoms ...
  109728 atoms
  reading velocities ...
  109728 velocities
Finding 1-2 1-3 1-4 neighbors ...
  special bond factors lj:    0.0      0.0      0.0     
  special bond factors coul:  0.0      0.0      0.0     
     0 = max # of 1-2 neighbors
     0 = max # of 1-3 neighbors
     0 = max # of 1-4 neighbors
     1 = max # of special neighbors
  special bonds CPU = 0.015 seconds
  read_data CPU = 0.356 seconds

group 		hull  type 2
42816 atoms in group hull
group 		dummy type 3
66912 atoms in group dummy

neighbor      0.4 bin
neigh_modify  exclude molecule/intra cubes


pair_modify   shift yes

pair_coeff    1 1 1.0 1.0 #solvent
pair_coeff    2 2 1.0 1.0 1.12 #np
pair_coeff    3 3 0.0 0.0 0.0 #dummy
pair_coeff    2 3 0.0 0.0 0.0 #np dummy
pair_coeff    1 2 ${sol} 1.0  #np solvent
pair_coeff    1 2 .70 1.0  
pair_coeff    1 3 0.0 0.0 2.0 #dummy solvent

# delete solvent where the cubes are
delete_atoms  overlap 1.0 solvent cubes
System init for delete_atoms ...
Neighbor list info ...
  update every 1 steps, delay 10 steps, check yes
  max neighbors/atom: 2000, page size: 100000
  master list distance cutoff = 2.4
  ghost atom cutoff = 2.4
  binsize = 1.2, bins = 67 67 134
  2 neighbor lists, perpetual/occasional/extra = 1 1 0
  (1) command delete_atoms, occasional
      attributes: full, newton on
      pair build: full/bin
      stencil: full/bin/3d
      bin: standard
  (2) pair lj/smooth/linear, perpetual
      attributes: half, newton on
      pair build: half/bin/newton
      stencil: half/bin/3d/newton
      bin: standard
WARNING: Delete_atoms cutoff > minimum neighbor cutoff (src/delete_atoms.cpp:307)
WARNING: Ignoring 'compress yes' for molecular system (src/delete_atoms.cpp:125)
Deleted 82778 atoms, new total = 466011

pair_coeff    1 1 1.0 1.0 #solvent
pair_coeff    2 2 1.0 1.0 1.12 #np
pair_coeff    3 3 0.0 0.0 0.0 #dummy
pair_coeff    2 3 0.0 0.0 0.0 #np dummy
pair_coeff    1 2 ${sol} 1.0  #np solvent
pair_coeff    1 2 .70 1.0  
pair_coeff    1 3 0.0 0.0 0.0 #dummy solvent


comm_modify   mode multi cutoff/multi 1 2.0 cutoff/multi 2 2.0 cutoff/multi 3 6.95

reset_timestep 	0

balance 	1.05 shift z 10 1.05
Balancing ...
Neighbor list info ...
  update every 1 steps, delay 10 steps, check yes
  max neighbors/atom: 2000, page size: 100000
  master list distance cutoff = 2.4
  ghost atom cutoff = 6.95
  binsize = 1.2, bins = 67 67 134
  1 neighbor lists, perpetual/occasional/extra = 1 0 0
  (1) pair lj/smooth/linear, perpetual
      attributes: half, newton on
      pair build: half/bin/newton
      stencil: half/bin/3d/newton
      bin: standard
 rebalancing time: 0.012 seconds
  iteration count = 4
  initial/final maximal load/proc = 11057.000 8804.0000
  initial/final imbalance factor  = 1.5185221 1.2091045
  x cuts: 0.0000000 0.5 1.0000000
  y cuts: 0.0000000 0.25 0.5 0.75 1.0000000
  z cuts: 0.0000000 0.0859375 0.1796875 0.2578125 0.359375 0.421875 0.515625 0.6171875 1.0000000

####################### WALLS ###########################

variable       epsilonWall equal 2*${epsilon}
variable       epsilonWall equal 2*1
variable       repulsive   equal   0.7147*${sigma}
variable       repulsive   equal   0.7147*1
variable       full	   equal   3*${sigma}
variable       full	   equal   3*1
region         lowWall block EDGE EDGE EDGE EDGE EDGE 2

fix            topWall all wall/lj93 zhi EDGE 	       ${epsilonWall} ${sigma} ${repulsive} units box
fix            topWall all wall/lj93 zhi EDGE 	       2 ${sigma} ${repulsive} units box
fix            topWall all wall/lj93 zhi EDGE 	       2 1 ${repulsive} units box
fix            topWall all wall/lj93 zhi EDGE 	       2 1 0.7147 units box
fix            lowSol solvent wall/lj93 zlo EDGE                ${epsilonWall} ${sigma} ${full} units box
fix            lowSol solvent wall/lj93 zlo EDGE                2 ${sigma} ${full} units box
fix            lowSol solvent wall/lj93 zlo EDGE                2 1 ${full} units box
fix            lowSol solvent wall/lj93 zlo EDGE                2 1 3 units box
fix 	       lowCub cubes wall/lj93 zlo EDGE                ${epsilonWall} ${sigma} ${repulsive} units box
fix 	       lowCub cubes wall/lj93 zlo EDGE                2 ${sigma} ${repulsive} units box
fix 	       lowCub cubes wall/lj93 zlo EDGE                2 1 ${repulsive} units box
fix 	       lowCub cubes wall/lj93 zlo EDGE                2 1 0.7147 units box


###################### COMPUTES ##########################

compute        bin1 solvent chunk/atom bin/1d z lower 1.0 units box
compute        bin3 solvent chunk/atom bin/3d x lower 1.0 y lower 1.0 z lower 1.0 units box

compute 	pe solvent 	   pe/atom
compute 	pe2 all 	   pe/atom

######################  FIXES ############################


fix             peclet solvent ave/chunk 10 10 10000 bin1 density/number norm                  none ave one file density.profile

fix              temp solvent ave/chunk 10 10 10000 bin1 temp norm                  none ave one file temp.profile

fix 		 dens solvent ave/chunk 10 10 500000 bin3 density/number norm 		 none ave one file dens3.profile

fix		 temp2 solvent ave/chunk 10 10 500000 bin3 temp norm none ave one file temp3.profile

fix 		pe solvent ave/chunk 1 1 500000 bin3 c_pe norm none ave one file pe3.profile

fix             1 cubes rigid/nve/small molecule
  create bodies CPU = 0.012 seconds
  96 rigid bodies with 109728 atoms
  6.9282032 = max distance from body owner to body atom

fix             2 solvent nve# temp ${temp} ${temp} 10


## Thermostat
region          regthermo block EDGE EDGE EDGE EDGE 0 15
group           thermo dynamic solvent region regthermo every 1000
dynamic group thermo defined
fix             3 thermo langevin ${temp} ${temp} 10 156453
fix             3 thermo langevin 0.6 ${temp} 10 156453
fix             3 thermo langevin 0.6 0.6 10 156453


#### Load balancing

fix             bal all balance 1000 1.05 shift z 10 1.05

############### Diagnostics and computes ###################

compute        	com cubes          rigid/local   1 mol x y z
compute        	quat cubes         rigid/local   1 mol quatw quati quatj quatk

compute 	cc2 cubes 	   chunk/atom 	 molecule
compute 	msd cubes 	   msd/chunk 	 cc2

fix 		msd all ave/time  1 1 10000 c_msd[*] file dump.msd ave one mode vector


dump            1 all custom 500000 dump.lammpstrj id mol type x y z vx vy vz c_pe2
dump		sol  solvent custom 500000 dump.soltrj id x y z vx vy vz c_pe
dump		cubetrj cubes custom 500000 cubes.lammpstrj id mol type x y z vx vy vz
dump            com cubes local 100000 dump.*.xyz c_com[*]
dump	        xyz hull xyz 100000 cubes.xyz
dump            quat cubes      local 100000 dump.*.quat c_quat[*]
dump		order cubes 	local 100000 dump.*.order c_com[*] c_quat[*]
#dump		mol cubes molfile 10000 mol.xyz xyz


dump            2 all image 100000 image.*.png type type zoom 1.5 size 1280 720
dump_modify     2 pad 8
dump		image cubes image 100000 image_cubes.*.png type type zoom 1.5 size 1280 720
dump_modify	image pad 8
dump            3 all movie 5000 movie.avi type type zoom 1.5 size 1280 720
dump		4 cubes movie 5000 movie_cubes.avi type type size 1280 720


thermo          1000
thermo_style    custom step temp epair evdwl etotal press pe ke atoms

restart         1000000 restart.dat
timestep        0.005
timer           full
New timer settings: style=full  mode=nosync  timeout=off

run 		10000000
Per MPI rank memory allocation (min/avg/max) = 86.32 | 97.19 | 101.2 Mbytes
Step Temp E_pair E_vdwl TotEng Press PotEng KinEng Atoms 
       0   0.61217182   -1.7352323   -1.7352323   -1.0328132 -0.014890459   -1.7352323   0.70241905   466011 
    1000   0.61317602   -1.7370174   -1.7370174   -1.0334461  0.038434706   -1.7370174    0.7035713   466011 
    2000   0.61292615   -1.7370545   -1.7370545   -1.0337699  0.034925703   -1.7370545   0.70328459   466011 
    3000   0.61264751   -1.7367831   -1.7367831   -1.0338182  0.036868926   -1.7367831   0.70296487   466011 
    4000    0.6131809    -1.737547    -1.737547   -1.0339701  0.035038541    -1.737547   0.70357689   466011 
    5000    0.6130265   -1.7383867   -1.7383867    -1.034987  0.039122236   -1.7383867   0.70339973   466011 
    6000   0.61314908   -1.7378654   -1.7378654    -1.034325  0.034691211   -1.7378654   0.70354038   466011 
    7000   0.61278315   -1.7380516   -1.7380516    -1.034931   0.03713425   -1.7380516   0.70312051   466011 
    8000   0.61253262   -1.7377996   -1.7377996   -1.0349665  0.038736561   -1.7377996   0.70283304   466011 
    9000   0.61233671   -1.7383839   -1.7383839   -1.0357756  0.034671696   -1.7383839   0.70260826   466011 
   10000   0.61278493   -1.7393427   -1.7393427   -1.0362201  0.037552057   -1.7393427   0.70312255   466011 
   11000   0.61246855   -1.7391165   -1.7391165    -1.036357  0.034129933   -1.7391165   0.70275952   466011 
   12000   0.61198408   -1.7391265   -1.7391265   -1.0369229  0.036415385   -1.7391265   0.70220364   466011 
   13000   0.61143156   -1.7395492   -1.7395492   -1.0379795  0.034108761   -1.7395492   0.70156967   466011 
   14000   0.61119611   -1.7397939   -1.7397939   -1.0384944  0.039110472   -1.7397939    0.7012995   466011 
   15000   0.61066323   -1.7390952   -1.7390952   -1.0384072  0.037261168   -1.7390952   0.70068806   466011 
   16000   0.61181103    -1.740046    -1.740046    -1.038041  0.036278657    -1.740046   0.70200508   466011 
   17000   0.61237579   -1.7408495   -1.7408495   -1.0381964   0.03708291   -1.7408495   0.70265309   466011 
   18000    0.6121853   -1.7408984   -1.7408984   -1.0384639  0.039712232   -1.7408984   0.70243452   466011 
   19000   0.61280809   -1.7424739   -1.7424739   -1.0393248  0.038438671   -1.7424739   0.70314912   466011 
   20000   0.61289812   -1.7425041   -1.7425041   -1.0392517  0.038126376   -1.7425041   0.70325243   466011 
   21000   0.61277542   -1.7425421   -1.7425421   -1.0394304  0.037457885   -1.7425421   0.70311164   466011 
   22000   0.61214359   -1.7422615   -1.7422615   -1.0398748  0.039088429   -1.7422615   0.70238666   466011 
   23000   0.61254624   -1.7433947   -1.7433947    -1.040546  0.038679825   -1.7433947   0.70284868   466011 
   24000   0.61192286   -1.7421742   -1.7421742   -1.0400408  0.036566139   -1.7421742    0.7021334   466011 
   25000   0.61400461   -1.7447344   -1.7447344   -1.0402123  0.038056836   -1.7447344   0.70452203   466011 
   26000   0.61257226   -1.7430038   -1.7430038   -1.0401253  0.041624798   -1.7430038   0.70287853   466011 
   27000   0.61413529   -1.7448202   -1.7448202   -1.0401482  0.034713747   -1.7448202   0.70467198   466011 
   28000   0.61430335   -1.7451148   -1.7451148     -1.04025  0.042242885   -1.7451148   0.70486482   466011 
   29000   0.61338665   -1.7447829   -1.7447829     -1.04097  0.035891934   -1.7447829   0.70381297   466011 
   30000   0.61381891   -1.7456278   -1.7456278   -1.0413189  0.037761505   -1.7456278   0.70430896   466011 
   31000   0.61376246   -1.7460889   -1.7460889   -1.0418447  0.043637058   -1.7460889   0.70424418   466011 
   32000   0.61279441   -1.7453792   -1.7453792   -1.0422457  0.040887306   -1.7453792   0.70313343   466011 
   33000   0.61172035   -1.7456131   -1.7456131   -1.0437121   0.03585972   -1.7456131   0.70190102   466011 
   34000   0.61235443   -1.7449386   -1.7449386     -1.04231  0.042556402   -1.7449386   0.70262859   466011 
   35000   0.61282856    -1.746562    -1.746562   -1.0433894  0.041221587    -1.746562   0.70317261   466011 
   36000   0.61243817    -1.746097    -1.746097   -1.0433723   0.04505913    -1.746097   0.70272467   466011 
   37000    0.6121492   -1.7457339   -1.7457339   -1.0433408   0.03863583   -1.7457339    0.7023931   466011 
   38000   0.61182236   -1.7445702   -1.7445702   -1.0425521  0.041284662   -1.7445702   0.70201808   466011 
   39000   0.61186423   -1.7441041   -1.7441041    -1.042038   0.03794374   -1.7441041   0.70206612   466011 
   40000   0.61175825   -1.7442109   -1.7442109   -1.0422664  0.038949061   -1.7442109   0.70194451   466011 
   41000   0.61164866   -1.7441013   -1.7441013   -1.0422825  0.039347905   -1.7441013   0.70181877   466011 
   42000   0.61181387   -1.7439164   -1.7439164    -1.041908  0.035446291   -1.7439164   0.70200833   466011 
   43000   0.61235324   -1.7446711   -1.7446711   -1.0420439  0.037604435   -1.7446711   0.70262722   466011 
   44000   0.61293924   -1.7448203   -1.7448203   -1.0415207  0.040615147   -1.7448203   0.70329961   466011 
   45000   0.61140299   -1.7427874   -1.7427874   -1.0412505  0.043364862   -1.7427874   0.70153689   466011 
   46000   0.61146065   -1.7423953   -1.7423953   -1.0407922  0.035808512   -1.7423953   0.70160304   466011 
   47000   0.61239052   -1.7437379   -1.7437379   -1.0410679   0.04160795   -1.7437379      0.70267   466011 
   48000   0.61172798   -1.7423846   -1.7423846   -1.0404748   0.04188796   -1.7423846   0.70190978   466011 
   49000   0.61014241   -1.7403246   -1.7403246   -1.0402342  0.038211604   -1.7403246   0.70009046   466011 
   50000   0.61131357   -1.7420155   -1.7420155   -1.0405813  0.045438856   -1.7420155   0.70143428   466011 
   51000   0.61212051   -1.7430193   -1.7430193   -1.0406591  0.040617554   -1.7430193   0.70236018   466011 
   52000   0.61208617   -1.7425058   -1.7425058    -1.040185  0.036548514   -1.7425058   0.70232078   466011 
   53000   0.61213797   -1.7432007   -1.7432007   -1.0408205  0.033575977   -1.7432007   0.70238021   466011 
   54000      0.61088   -1.7417407   -1.7417407   -1.0408039  0.037036329   -1.7417407   0.70093679   466011 
   55000   0.61088395   -1.7421258   -1.7421258   -1.0411845  0.029829526   -1.7421258   0.70094133   466011 
   56000   0.61087102   -1.7422621   -1.7422621   -1.0413356  0.036136236   -1.7422621   0.70092649   466011 
   57000   0.61147895   -1.7430515   -1.7430515   -1.0414275  0.030285565   -1.7430515   0.70162404   466011 
   58000   0.60965167   -1.7403034   -1.7403034    -1.040776  0.040210579   -1.7403034   0.69952739   466011 
   59000   0.61126472   -1.7418896   -1.7418896   -1.0405113  0.035110285   -1.7418896   0.70137823   466011 
   60000   0.61080635   -1.7412882   -1.7412882   -1.0404359  0.042592993   -1.7412882   0.70085228   466011 
   61000   0.61197317   -1.7417784   -1.7417784   -1.0395873  0.039321606   -1.7417784   0.70219111   466011 
   62000   0.61243464   -1.7425071   -1.7425071   -1.0397864  0.042354178   -1.7425071   0.70272062   466011 
   63000   0.61259845   -1.7417222   -1.7417222   -1.0388136  0.041991285   -1.7417222   0.70290858   466011 
   64000   0.61271888   -1.7424211   -1.7424211   -1.0393743  0.041588795   -1.7424211   0.70304677   466011 
   65000   0.61239615   -1.7422056   -1.7422056   -1.0395292  0.036797925   -1.7422056   0.70267646   466011 
   66000   0.61219512    -1.742252    -1.742252   -1.0398062  0.036950073    -1.742252   0.70244579   466011 
   67000    0.6116274   -1.7418354   -1.7418354   -1.0400411  0.035855409   -1.7418354   0.70179437   466011 
   68000   0.61218471    -1.742851    -1.742851   -1.0404172  0.042725644    -1.742851   0.70243385   466011 
   69000   0.61205768     -1.74365     -1.74365   -1.0413619  0.039971827     -1.74365   0.70228808   466011 
   70000   0.61349398   -1.7446982   -1.7446982   -1.0407621  0.036429015   -1.7446982   0.70393613   466011 
   71000   0.61308095   -1.7446398   -1.7446398   -1.0411776  0.034261547   -1.7446398   0.70346221   466011 
   72000   0.61276059   -1.7442603   -1.7442603   -1.0411656  0.033140726   -1.7442603   0.70309462   466011 
   73000   0.61222844   -1.7434503   -1.7434503   -1.0409662  0.040468511   -1.7434503   0.70248402   466011 
   74000   0.61228084   -1.7440202   -1.7440202    -1.041476   0.03610488   -1.7440202   0.70254414   466011 
   75000   0.61235098   -1.7441378   -1.7441378   -1.0415132  0.045101279   -1.7441378   0.70262463   466011 
   76000   0.61250525   -1.7449735   -1.7449735   -1.0421719  0.041967731   -1.7449735   0.70280164   466011 
   77000   0.61263262   -1.7440284   -1.7440284   -1.0410807  0.041360064   -1.7440284   0.70294778   466011 
   78000   0.61364262   -1.7456899   -1.7456899   -1.0415832  0.036944989   -1.7456899   0.70410669   466011 
   79000   0.61317292   -1.7450707   -1.7450707    -1.041503  0.037722922   -1.7450707   0.70356774   466011 
   80000   0.61298119   -1.7447703   -1.7447703   -1.0414226  0.043877883   -1.7447703   0.70334774   466011 
   81000     0.613404   -1.7461496   -1.7461496   -1.0423167  0.039829886   -1.7461496   0.70383288   466011 
   82000   0.61206811   -1.7449052   -1.7449052   -1.0426051    0.0411436   -1.7449052   0.70230005   466011 
   83000   0.61221036   -1.7452235   -1.7452235   -1.0427603  0.037643407   -1.7452235   0.70246328   466011 
   84000   0.61194984   -1.7453373   -1.7453373   -1.0431729  0.038625053   -1.7453373   0.70216434   466011 
   85000   0.61161649    -1.744221    -1.744221   -1.0424391  0.041279366    -1.744221   0.70178186   466011 
   86000   0.61198684   -1.7448308   -1.7448308    -1.042624  0.037385434   -1.7448308   0.70220681   466011 
   87000   0.61176031   -1.7443902   -1.7443902   -1.0424433  0.038677246   -1.7443902   0.70194688   466011 
   88000   0.61177041   -1.7446705   -1.7446705   -1.0427121  0.035164357   -1.7446705   0.70195847   466011 
   89000   0.61145903   -1.7439462   -1.7439462    -1.042345  0.040216986   -1.7439462   0.70160119   466011 
   90000   0.61128303   -1.7430112   -1.7430112    -1.041612  0.037011866   -1.7430112   0.70139923   466011 
   91000   0.61271209   -1.7444206   -1.7444206   -1.0413816  0.039010605   -1.7444206   0.70303897   466011 
   92000   0.61168603   -1.7435444   -1.7435444   -1.0416828  0.040514693   -1.7435444   0.70186165   466011 
   93000   0.61075485    -1.741908    -1.741908   -1.0411148  0.038269773    -1.741908   0.70079319   466011 
   94000   0.61104256   -1.7426982   -1.7426982   -1.0415749  0.034710861   -1.7426982   0.70112331   466011 
   95000   0.61058612   -1.7418839   -1.7418839   -1.0412843   0.04151588   -1.7418839   0.70059958   466011 
   96000   0.61121559   -1.7423793   -1.7423793   -1.0410575  0.040428196   -1.7423793   0.70132186   466011 
   97000   0.61241222   -1.7436063   -1.7436063   -1.0409114  0.030604225   -1.7436063    0.7026949   466011 
   98000   0.61182374   -1.7431252   -1.7431252   -1.0411055  0.038199769   -1.7431252   0.70201966   466011 
   99000   0.61205931   -1.7432848   -1.7432848   -1.0409948  0.043061203   -1.7432848   0.70228996   466011 
  100000    0.6117438   -1.7436445   -1.7436445   -1.0417166   0.03295509   -1.7436445   0.70192793   466011 
  101000   0.60990756   -1.7422593   -1.7422593   -1.0424383  0.039273055   -1.7422593     0.699821   466011 
  102000   0.61132324   -1.7426237   -1.7426237   -1.0411783  0.039251926   -1.7426237   0.70144538   466011 
  103000   0.61119435   -1.7425394   -1.7425394   -1.0412419  0.037788048   -1.7425394   0.70129748   466011 
  104000   0.61143444   -1.7431045   -1.7431045   -1.0415315  0.039530154   -1.7431045   0.70157297   466011 
  105000   0.61217152   -1.7435059   -1.7435059   -1.0410872  0.037880693   -1.7435059   0.70241872   466011 
  106000   0.61314914   -1.7438209   -1.7438209   -1.0402805  0.039543581   -1.7438209   0.70354045   466011 
  107000   0.61314263   -1.7453335   -1.7453335   -1.0418006  0.033047681   -1.7453335   0.70353298   466011 
  108000   0.61174743     -1.74314     -1.74314   -1.0412079  0.039736514     -1.74314    0.7019321   466011 
  109000   0.61222316   -1.7436675   -1.7436675   -1.0411896  0.036986471   -1.7436675   0.70247796   466011 
  110000   0.61211439   -1.7440642   -1.7440642    -1.041711  0.038047089   -1.7440642   0.70235316   466011 
  111000   0.61209109   -1.7438061   -1.7438061   -1.0414796  0.042302311   -1.7438061   0.70232643   466011 
  112000   0.61201367   -1.7437079   -1.7437079   -1.0414703  0.037990412   -1.7437079   0.70223758   466011 
  113000   0.61313852   -1.7450335   -1.7450335   -1.0415053  0.040640217   -1.7450335   0.70352826   466011 
  114000   0.61155518   -1.7432802   -1.7432802   -1.0415687  0.040865741   -1.7432802   0.70171151   466011 
  115000   0.61154063   -1.7445899   -1.7445899   -1.0428951  0.036565744   -1.7445899   0.70169481   466011 
  116000   0.61144226   -1.7450509   -1.7450509    -1.043469  0.039722574   -1.7450509   0.70158194   466011 
  117000   0.61151615   -1.7456824   -1.7456824   -1.0440157  0.043151541   -1.7456824   0.70166672   466011 
  118000   0.61065803   -1.7445982   -1.7445982    -1.043916  0.039707353   -1.7445982   0.70068211   466011 
  119000   0.61112749   -1.7453657   -1.7453657   -1.0441449  0.038038848   -1.7453657   0.70122077   466011 
  120000   0.61092969   -1.7446499   -1.7446499   -1.0436561  0.036493072   -1.7446499   0.70099381   466011 
  121000   0.61156491   -1.7460258   -1.7460258   -1.0443031  0.038075732   -1.7460258   0.70172267   466011 
  122000   0.61072243   -1.7456038   -1.7456038   -1.0448478  0.037486913   -1.7456038     0.700756   466011 
  123000   0.61202715    -1.747252    -1.747252   -1.0449989   0.03735415    -1.747252   0.70225305   466011 
  124000   0.61142666   -1.7462518   -1.7462518   -1.0446878  0.035747324   -1.7462518   0.70156404   466011 
  125000   0.61158313   -1.7470751   -1.7470751   -1.0453315  0.037780985   -1.7470751   0.70174358   466011 
  126000   0.61251342   -1.7476492   -1.7476492   -1.0448382  0.039205574   -1.7476492   0.70281101   466011 
  127000   0.61125466   -1.7473826   -1.7473826    -1.046016  0.038679429   -1.7473826   0.70136668   466011 
  128000   0.61223013   -1.7481844   -1.7481844   -1.0456984  0.040881942   -1.7481844   0.70248596   466011 
  129000   0.61288567    -1.748428    -1.748428   -1.0451899  0.037724804    -1.748428   0.70323814   466011 
  130000   0.61167343   -1.7477401   -1.7477401   -1.0458929  0.036773881   -1.7477401   0.70184719   466011 
  131000   0.61172691   -1.7473738   -1.7473738   -1.0454653  0.036530125   -1.7473738   0.70190855   466011 
  132000   0.61256213   -1.7490005   -1.7490005   -1.0461336  0.031988858   -1.7490005   0.70286691   466011 
  133000   0.61150454   -1.7481988   -1.7481988   -1.0465454  0.042374015   -1.7481988   0.70165341   466011 
  134000   0.61135578   -1.7477164   -1.7477164   -1.0462337  0.041119008   -1.7477164   0.70148272   466011 
  135000   0.61182182   -1.7486387   -1.7486387   -1.0466212  0.039171783   -1.7486387   0.70201745   466011 
  136000    0.6119283    -1.749248    -1.749248   -1.0471084  0.038450629    -1.749248   0.70213964   466011 
  137000   0.61050157   -1.7483417   -1.7483417   -1.0478392  0.039252507   -1.7483417   0.70050257   466011 
  138000   0.61200029   -1.7503136   -1.7503136   -1.0480914  0.036328538   -1.7503136   0.70222224   466011 
  139000   0.60991297    -1.748133    -1.748133   -1.0483058  0.039949942    -1.748133   0.69982721   466011 
  140000   0.61057381   -1.7483993   -1.7483993   -1.0478139  0.045911349   -1.7483993   0.70058546   466011 
  141000   0.61213323   -1.7493966   -1.7493966   -1.0470219  0.037368037   -1.7493966   0.70237477   466011 
  142000   0.61156979   -1.7494417   -1.7494417   -1.0477135  0.038370554   -1.7494417   0.70172827   466011 
  143000   0.61175323   -1.7492826   -1.7492826   -1.0473438  0.040418294   -1.7492826   0.70193876   466011 
  144000   0.61192286   -1.7495663   -1.7495663   -1.0474329  0.039648237   -1.7495663    0.7021334   466011 
  145000   0.61184572   -1.7494942   -1.7494942   -1.0474494  0.038126642   -1.7494942   0.70204488   466011 
  146000   0.61138406   -1.7492835   -1.7492835   -1.0477683  0.037204231   -1.7492835   0.70151516   466011 
  147000   0.61077855    -1.748304    -1.748304   -1.0474837  0.044835716    -1.748304   0.70082038   466011 
  148000   0.61092346   -1.7484757   -1.7484757    -1.047489  0.037128781   -1.7484757   0.70098665   466011 
  149000   0.61225789   -1.7490713   -1.7490713   -1.0465535  0.035870831   -1.7490713   0.70251782   466011 
  150000    0.6122544    -1.749276    -1.749276   -1.0467622  0.045464771    -1.749276   0.70251381   466011 
  151000   0.61223253    -1.749522    -1.749522   -1.0470333  0.037462476    -1.749522   0.70248871   466011 
  152000   0.61242645   -1.7491796   -1.7491796   -1.0464684  0.035571348   -1.7491796   0.70271123   466011 
  153000   0.61175758   -1.7487833   -1.7487833   -1.0468395  0.037063999   -1.7487833   0.70194375   466011 
  154000   0.61123867   -1.7477647   -1.7477647   -1.0464164  0.034299879   -1.7477647   0.70134834   466011 
  155000   0.61066207     -1.74746     -1.74746   -1.0467733  0.042249693     -1.74746   0.70068674   466011 
  156000    0.6110669   -1.7481846   -1.7481846   -1.0470333  0.037128253   -1.7481846   0.70115125   466011 
  157000   0.61223349   -1.7493987   -1.7493987   -1.0469088  0.032530278   -1.7493987   0.70248982   466011 
  158000   0.61080109   -1.7474889   -1.7474889   -1.0466427   0.04107689   -1.7474889   0.70084625   466011 
  159000   0.61118869    -1.748427    -1.748427   -1.0471361  0.036070818    -1.748427   0.70129099   466011 
  160000   0.61079093   -1.7479011   -1.7479011   -1.0470665  0.042651326   -1.7479011    0.7008346   466011 
  161000   0.61143123   -1.7480568   -1.7480568   -1.0464875  0.039361452   -1.7480568   0.70156929   466011 
  162000   0.61054604   -1.7479149   -1.7479149   -1.0473613  0.033444145   -1.7479149    0.7005536   466011 
  163000   0.60984682   -1.7468652   -1.7468652   -1.0471139  0.039505198   -1.7468652    0.6997513   466011 
  164000   0.61066881   -1.7483226   -1.7483226   -1.0476281   0.03729429   -1.7483226   0.70069447   466011 
  165000   0.61080029   -1.7484627   -1.7484627   -1.0476174  0.040101173   -1.7484627   0.70084533   466011 
  166000   0.61052731   -1.7480348   -1.7480348   -1.0475027  0.037581067   -1.7480348   0.70053211   466011 
  167000   0.61094202    -1.747897    -1.747897    -1.046889  0.036415097    -1.747897   0.70100796   466011 
  168000   0.61122217   -1.7482772   -1.7482772   -1.0469478  0.040201248   -1.7482772   0.70132941   466011 
  169000   0.61084171   -1.7480925   -1.7480925   -1.0471997  0.032752969   -1.7480925   0.70089285   466011 
  170000    0.6108947    -1.748016    -1.748016   -1.0470623  0.036110995    -1.748016   0.70095365   466011 
  171000   0.61151804    -1.748609    -1.748609   -1.0469401  0.036297616    -1.748609   0.70166889   466011 
  172000   0.61091448   -1.7475307   -1.7475307   -1.0465544  0.033506876   -1.7475307   0.70097635   466011 
  173000   0.61139645   -1.7477875   -1.7477875   -1.0462581   0.03763558   -1.7477875   0.70152938   466011 
  174000   0.61270214    -1.749128    -1.749128   -1.0461004  0.034711001    -1.749128   0.70302755   466011 
  175000   0.61212926   -1.7497796   -1.7497796   -1.0474094  0.040525516   -1.7497796   0.70237022   466011 
  176000   0.61330145   -1.7499354   -1.7499354   -1.0462201  0.043091489   -1.7499354   0.70371521   466011 
  177000   0.61241096   -1.7491339   -1.7491339   -1.0464405  0.040128143   -1.7491339   0.70269345   466011 
  178000   0.61341668   -1.7510505   -1.7510505   -1.0472031  0.041821483   -1.7510505   0.70384744   466011 
  179000   0.61280045   -1.7502037   -1.7502037   -1.0470634  0.037553834   -1.7502037   0.70314036   466011 
  180000    0.6120682   -1.7494199   -1.7494199   -1.0471197  0.040974121   -1.7494199   0.70230016   466011 
  181000   0.61131524    -1.748471    -1.748471   -1.0470348  0.038429363    -1.748471   0.70143619   466011 
  182000   0.61176133   -1.7497014   -1.7497014   -1.0477534  0.036614707   -1.7497014   0.70194806   466011 
  183000    0.6113768   -1.7486247   -1.7486247   -1.0471178  0.040556894   -1.7486247   0.70150683   466011 
  184000   0.61228518   -1.7492318   -1.7492318   -1.0466827  0.034147216   -1.7492318   0.70254913   466011 
  185000   0.61187363   -1.7492631   -1.7492631   -1.0471862  0.043716933   -1.7492631    0.7020769   466011 
  186000   0.61148943   -1.7495812   -1.7495812   -1.0479451  0.038704794   -1.7495812   0.70163606   466011 
  187000   0.61116064   -1.7491468   -1.7491468    -1.047888  0.033009755   -1.7491468    0.7012588   466011 
  188000   0.61134468   -1.7491241   -1.7491241   -1.0476541  0.037865253   -1.7491241   0.70146998   466011 
  189000   0.61069389   -1.7489751   -1.7489751   -1.0482519  0.036375616   -1.7489751   0.70072324   466011 
  190000   0.61055183   -1.7487939   -1.7487939   -1.0482337  0.037528617   -1.7487939   0.70056024   466011 
  191000   0.61173504   -1.7498741   -1.7498741   -1.0479562  0.039199131   -1.7498741   0.70191788   466011 
  192000   0.61048049   -1.7488332   -1.7488332   -1.0483548   0.04073174   -1.7488332   0.70047839   466011 
  193000     0.610273   -1.7485375   -1.7485375   -1.0482972  0.038393927   -1.7485375    0.7002403   466011 
  194000   0.60909162   -1.7472894   -1.7472894   -1.0484046  0.042439339   -1.7472894   0.69888477   466011 
  195000   0.60993838   -1.7487101   -1.7487101   -1.0488537  0.043915792   -1.7487101   0.69985636   466011 
  196000   0.60968023   -1.7480425   -1.7480425   -1.0484824  0.036798655   -1.7480425   0.69956016   466011 
  197000   0.61081545   -1.7497019   -1.7497019   -1.0488392  0.031818873   -1.7497019   0.70086272   466011 
  198000    0.6097511   -1.7493017   -1.7493017   -1.0496602  0.038589805   -1.7493017   0.69964147   466011 
  199000   0.61046635   -1.7500898   -1.7500898   -1.0496276  0.035632303   -1.7500898   0.70046216   466011 
  200000    0.6088827   -1.7491578   -1.7491578   -1.0505128  0.037977682   -1.7491578   0.69864504   466011 
  201000    0.6103922   -1.7504908   -1.7504908   -1.0501137  0.041432609   -1.7504908   0.70037708   466011 
  202000   0.61016879   -1.7498923   -1.7498923   -1.0497715  0.035019155   -1.7498923   0.70012073   466011 
  203000   0.61038467   -1.7504822   -1.7504822   -1.0501137  0.041979952   -1.7504822   0.70036844   466011 
  204000   0.61000584   -1.7504253   -1.7504253   -1.0504915  0.033947163   -1.7504253   0.69993376   466011 
  205000   0.61118201   -1.7514137   -1.7514137   -1.0501304  0.038644663   -1.7514137   0.70128332   466011 
  206000   0.61150064   -1.7510918   -1.7510918   -1.0494428  0.039852351   -1.7510918   0.70164893   466011 
  207000   0.61218141   -1.7520704   -1.7520704   -1.0496404  0.037604989   -1.7520704   0.70243005   466011 
  208000    0.6114468    -1.751544    -1.751544   -1.0499569  0.041544327    -1.751544   0.70158715   466011 
  209000   0.61201071   -1.7524468   -1.7524468   -1.0502126  0.045175961   -1.7524468   0.70223419   466011 
  210000   0.61196117   -1.7523391   -1.7523391   -1.0501617  0.037824959   -1.7523391   0.70217735   466011 
  211000   0.61188446   -1.7521971   -1.7521971   -1.0501078  0.041565006   -1.7521971   0.70208933   466011 
  212000   0.61216739   -1.7522949   -1.7522949    -1.049881  0.038309055   -1.7522949   0.70241397   466011 
  213000   0.61199852    -1.752515    -1.752515   -1.0502948  0.041035419    -1.752515    0.7022202   466011 
  214000   0.61251495   -1.7539627   -1.7539627   -1.0511499  0.036147038   -1.7539627   0.70281277   466011 
  215000   0.61171591   -1.7532395   -1.7532395   -1.0513436   0.04378472   -1.7532395   0.70189594   466011 
  216000    0.6115257    -1.753101    -1.753101   -1.0514233  0.039429713    -1.753101   0.70167769   466011 
  217000   0.61041296   -1.7519781   -1.7519781   -1.0515772  0.044251311   -1.7519781    0.7004009   466011 
  218000   0.61156253   -1.7524856   -1.7524856   -1.0507656  0.046137996   -1.7524856   0.70171994   466011 
  219000   0.61179593   -1.7521842   -1.7521842   -1.0501964  0.038335248   -1.7521842   0.70198774   466011 
  220000   0.61121386   -1.7526521   -1.7526521   -1.0513322  0.032086801   -1.7526521   0.70131987   466011 
  221000   0.61140472   -1.7531731   -1.7531731   -1.0516343  0.039571608   -1.7531731   0.70153887   466011 
  222000   0.61086298   -1.7519771   -1.7519771   -1.0510599  0.038097167   -1.7519771   0.70091726   466011 
  223000   0.61102758    -1.752328    -1.752328   -1.0512218  0.036163346    -1.752328   0.70110613   466011 
  224000   0.61025289   -1.7519162   -1.7519162    -1.051699  0.038520872   -1.7519162   0.70021723   466011 
  225000   0.61060167   -1.7528553   -1.7528553   -1.0522378  0.044241029   -1.7528553   0.70061743   466011 
  226000    0.6112785   -1.7527053   -1.7527053   -1.0513113  0.039999463   -1.7527053   0.70139404   466011 
  227000    0.6108087    -1.752289    -1.752289    -1.051434  0.039290341    -1.752289   0.70085498   466011 
  228000   0.60990523   -1.7516013   -1.7516013    -1.051783   0.03734747   -1.7516013   0.69981832   466011 
  229000   0.61122807   -1.7518102   -1.7518102   -1.0504741  0.042068379   -1.7518102   0.70133618   466011 
  230000   0.61176475   -1.7520761   -1.7520761   -1.0501241  0.038991044   -1.7520761   0.70195197   466011 
  231000   0.61174491   -1.7518728   -1.7518728   -1.0499436  0.038889908   -1.7518728   0.70192921   466011 
  232000   0.61028587   -1.7502915   -1.7502915   -1.0500364  0.037623174   -1.7502915   0.70025507   466011 
  233000    0.6102589   -1.7507527   -1.7507527   -1.0505286  0.035207047   -1.7507527   0.70022412   466011 
  234000   0.61061603   -1.7506783   -1.7506783   -1.0500444  0.032971028   -1.7506783    0.7006339   466011 
  235000   0.61063555   -1.7504428   -1.7504428   -1.0497865  0.039937817   -1.7504428    0.7006563   466011 
  236000   0.60965763   -1.7490588   -1.7490588   -1.0495246   0.03827857   -1.7490588   0.69953422   466011 
  237000   0.61000363   -1.7504104   -1.7504104   -1.0504792  0.035775727   -1.7504104   0.69993123   466011 
  238000   0.61020768   -1.7501194   -1.7501194   -1.0499541  0.031702606   -1.7501194   0.70016536   466011 
  239000   0.61027708    -1.749487    -1.749487    -1.049242   0.03065211    -1.749487   0.70024499   466011 
  240000   0.61038503   -1.7506992   -1.7506992   -1.0503304  0.035568645   -1.7506992   0.70036885   466011 
  241000   0.61064992   -1.7506243   -1.7506243   -1.0499515  0.036596584   -1.7506243    0.7006728   466011 
  242000   0.60992818   -1.7501131   -1.7501131   -1.0502684  0.036590889   -1.7501131   0.69984465   466011 
  243000   0.61011216   -1.7503348   -1.7503348   -1.0502791  0.041435769   -1.7503348   0.70005575   466011 
  244000   0.61068091   -1.7503784   -1.7503784   -1.0496701  0.032934166   -1.7503784   0.70070835   466011 
  245000   0.61109398   -1.7507609   -1.7507609   -1.0495786  0.038405414   -1.7507609   0.70118232   466011 
  246000   0.61091443   -1.7508209   -1.7508209   -1.0498446  0.033704487   -1.7508209    0.7009763   466011 
  247000   0.61206821    -1.751392    -1.751392   -1.0490918  0.042172724    -1.751392   0.70230016   466011 
  248000   0.61058621   -1.7496919   -1.7496919   -1.0490922  0.043784716   -1.7496919   0.70059969   466011 
  249000   0.61113024   -1.7500799   -1.7500799    -1.048856  0.040437608   -1.7500799   0.70122392   466011 
  250000   0.61012047    -1.749687    -1.749687   -1.0496217  0.038601622    -1.749687   0.70006529   466011 
  251000    0.6110461   -1.7512643   -1.7512643   -1.0501369  0.041495253   -1.7512643   0.70112738   466011 
  252000   0.61189656   -1.7525758   -1.7525758   -1.0504726  0.035597729   -1.7525758   0.70210321   466011 
  253000   0.61129205   -1.7519958   -1.7519958   -1.0505862  0.035668452   -1.7519958   0.70140959   466011 
  254000   0.61174234   -1.7525786   -1.7525786   -1.0506523  0.041827947   -1.7525786   0.70192626   466011 
  255000   0.61156275   -1.7524041   -1.7524041   -1.0506839  0.036907534   -1.7524041    0.7017202   466011 
  256000   0.61194672   -1.7531516   -1.7531516   -1.0509908  0.042583063   -1.7531516   0.70216077   466011 
  257000   0.61181171   -1.7523652   -1.7523652   -1.0503594  0.040252311   -1.7523652   0.70200586   466011 
  258000     0.611102   -1.7517132   -1.7517132   -1.0505217  0.037944035   -1.7517132   0.70119152   466011 
  259000   0.61166586   -1.7530176   -1.7530176   -1.0511791  0.043121852   -1.7530176    0.7018385   466011 
  260000   0.61057076   -1.7518658   -1.7518658   -1.0512838  0.043172432   -1.7518658   0.70058196   466011 
  261000   0.61135945   -1.7527077   -1.7527077   -1.0512207  0.041215868   -1.7527077   0.70148692   466011 
  262000   0.61257068   -1.7539647   -1.7539647    -1.051088  0.039562539   -1.7539647   0.70287671   466011 
  263000   0.61214234   -1.7538854   -1.7538854   -1.0515002   0.03566072   -1.7538854   0.70238523   466011 
  264000   0.61116491   -1.7533033   -1.7533033   -1.0520396  0.043837926   -1.7533033   0.70126371   466011 
  265000   0.61117191   -1.7524902   -1.7524902   -1.0512185  0.044093982   -1.7524902   0.70127173   466011 
  266000   0.61076797    -1.752138    -1.752138   -1.0513298  0.037867289    -1.752138   0.70080825   466011 
  267000   0.61081697   -1.7521525   -1.7521525    -1.051288  0.040262052   -1.7521525   0.70086447   466011 
  268000   0.61132981   -1.7527378   -1.7527378   -1.0512849  0.039370856   -1.7527378   0.70145292   466011 
  269000   0.61018769   -1.7515481   -1.7515481   -1.0514057  0.038607053   -1.7515481   0.70014242   466011 
  270000   0.61079062   -1.7517684   -1.7517684   -1.0509342  0.039744828   -1.7517684   0.70083423   466011 
  271000    0.6113696   -1.7522519   -1.7522519   -1.0507533     0.038265   -1.7522519   0.70149857   466011 
  272000   0.61047566   -1.7505422   -1.7505422   -1.0500694  0.042858088   -1.7505422   0.70047285   466011 
  273000   0.61127021   -1.7508702   -1.7508702   -1.0494856  0.043149894   -1.7508702   0.70138453   466011 
  274000   0.61237471   -1.7524195   -1.7524195   -1.0497676  0.037102604   -1.7524195   0.70265186   466011 
  275000   0.61129871   -1.7512946   -1.7512946   -1.0498773  0.044049336   -1.7512946   0.70141723   466011 
  276000   0.61206552   -1.7516559   -1.7516559   -1.0493588  0.044267712   -1.7516559   0.70229708   466011 
  277000   0.61164692   -1.7514263   -1.7514263   -1.0496096  0.038925427   -1.7514263   0.70181678   466011 
  278000   0.61095321   -1.7506567   -1.7506567   -1.0496359  0.035477289   -1.7506567   0.70102079   466011 
  279000   0.60974571   -1.7492078   -1.7492078   -1.0495725  0.041916902   -1.7492078   0.69963529   466011 
  280000   0.60961084   -1.7497113   -1.7497113   -1.0502308  0.040606327   -1.7497113   0.69948053   466011 
  281000   0.61085929   -1.7512973   -1.7512973   -1.0503843   0.04057452   -1.7512973   0.70091303   466011 
  282000   0.61008484   -1.7504265   -1.7504265   -1.0504021  0.036302907   -1.7504265    0.7000244   466011 
  283000   0.60997597    -1.750868    -1.750868   -1.0509685  0.037175762    -1.750868   0.69989949   466011 
  284000   0.61074631   -1.7512906   -1.7512906   -1.0505072  0.037260514   -1.7512906    0.7007834   466011 
  285000   0.60946979   -1.7504631   -1.7504631   -1.0511444  0.040936076   -1.7504631   0.69931869   466011 
  286000   0.60964989   -1.7508935   -1.7508935   -1.0513682  0.032446031   -1.7508935   0.69952534   466011 
  287000   0.60945121   -1.7507502   -1.7507502   -1.0514529  0.036604787   -1.7507502   0.69929737   466011 
  288000     0.610535   -1.7524667   -1.7524667   -1.0519258  0.037743107   -1.7524667   0.70054093   466011 
  289000   0.61042924   -1.7515675   -1.7515675   -1.0511479   0.03595131   -1.7515675   0.70041958   466011 
  290000   0.61033307   -1.7509664   -1.7509664   -1.0506572  0.039752379   -1.7509664   0.70030923   466011 
  291000   0.61055049   -1.7520811   -1.7520811   -1.0515224  0.037309731   -1.7520811   0.70055871   466011 
  292000   0.61032907   -1.7519942   -1.7519942   -1.0516896  0.040385591   -1.7519942   0.70030464   466011 
  293000    0.6103718   -1.7508455   -1.7508455   -1.0504919  0.041660463   -1.7508455   0.70035367   466011 
  294000   0.61124045   -1.7521216   -1.7521216   -1.0507712  0.040077877   -1.7521216   0.70135039   466011 
  295000   0.61149438   -1.7527998   -1.7527998    -1.051158  0.035146474   -1.7527998   0.70164175   466011 
  296000    0.6115344   -1.7527221   -1.7527221   -1.0510344  0.036681322   -1.7527221   0.70168766   466011 
  297000   0.60926665    -1.750859    -1.750859   -1.0517734  0.039424573    -1.750859    0.6990856   466011 
  298000   0.61195096   -1.7537644   -1.7537644   -1.0515988  0.039184617   -1.7537644   0.70216563   466011 
  299000   0.61182514   -1.7532014   -1.7532014   -1.0511802    0.0375134   -1.7532014   0.70202127   466011 
  300000   0.61110376   -1.7526655   -1.7526655   -1.0514719  0.039980781   -1.7526655   0.70119354   466011 
  301000   0.61057521   -1.7519466   -1.7519466   -1.0513596  0.037411772   -1.7519466   0.70058707   466011 
  302000   0.61080554   -1.7525963   -1.7525963   -1.0517449  0.037540637   -1.7525963   0.70085135   466011 
  303000   0.61022491   -1.7515495   -1.7515495   -1.0513644  0.039690706   -1.7515495   0.70018512   466011 
  304000   0.61058676   -1.7524168   -1.7524168   -1.0518165  0.040981655   -1.7524168   0.70060032   466011 
  305000   0.61148248   -1.7535501   -1.7535501    -1.051922  0.042692397   -1.7535501   0.70162809   466011 
  306000   0.60963887   -1.7512892   -1.7512892   -1.0517765  0.040942039   -1.7512892   0.69951269   466011 
  307000   0.61126825   -1.7527122   -1.7527122   -1.0513299  0.036903569   -1.7527122   0.70138228   466011 
  308000   0.61022433   -1.7523878   -1.7523878   -1.0522034   0.03477381   -1.7523878   0.70018446   466011 
  309000   0.61191694   -1.7544191   -1.7544191   -1.0522925  0.037536502   -1.7544191   0.70212659   466011 
  310000   0.61046813   -1.7534748   -1.7534748   -1.0530106  0.036596613   -1.7534748   0.70046421   466011 
  311000   0.61019408   -1.7529372   -1.7529372   -1.0527874  0.036116902   -1.7529372   0.70014975   466011 
  312000   0.60975044   -1.7528439   -1.7528439   -1.0532032  0.038541271   -1.7528439   0.69964071   466011 
  313000   0.60983052   -1.7528959   -1.7528959   -1.0531633  0.036314943   -1.7528959    0.6997326   466011 
  314000   0.60965655   -1.7523063   -1.7523063   -1.0527733  0.038216601   -1.7523063   0.69953298   466011 
  315000   0.61057009   -1.7540138   -1.7540138   -1.0534326  0.032724267   -1.7540138   0.70058119   466011 
  316000   0.61080649    -1.753669    -1.753669   -1.0528166  0.047564186    -1.753669   0.70085244   466011 
  317000   0.61061051   -1.7535758   -1.7535758   -1.0529482   0.03772769   -1.7535758   0.70062757   466011 
  318000   0.60967004    -1.752771    -1.752771   -1.0532225  0.034307352    -1.752771   0.69954846   466011 
  319000   0.60977485   -1.7531072   -1.7531072   -1.0534385  0.039352598   -1.7531072   0.69966873   466011 
  320000   0.60978522   -1.7538051   -1.7538051   -1.0541245  0.036840382   -1.7538051   0.69968062   466011 
  321000   0.60959469    -1.752975    -1.752975    -1.053513  0.041152997    -1.752975     0.699462   466011 
  322000   0.60972287   -1.7544343   -1.7544343   -1.0548252   0.03965143   -1.7544343   0.69960907   466011 
  323000    0.6096572    -1.754341    -1.754341   -1.0548072  0.040718842    -1.754341   0.69953373   466011 
  324000   0.60954815   -1.7544895   -1.7544895   -1.0550809  0.039072547   -1.7544895   0.69940859   466011 
  325000   0.60924356   -1.7552958   -1.7552958   -1.0562367  0.034442774   -1.7552958   0.69905911   466011 
  326000   0.60916473   -1.7544352   -1.7544352   -1.0554666   0.03697589   -1.7544352   0.69896866   466011 
  327000   0.61088505   -1.7568559   -1.7568559   -1.0559133  0.040884115   -1.7568559   0.70094259   466011 
  328000   0.61029827   -1.7556832   -1.7556832   -1.0554139  0.036106463   -1.7556832   0.70026931   466011 
  329000   0.60922602   -1.7541748   -1.7541748   -1.0551359   0.04005829   -1.7541748   0.69903898   466011 
  330000   0.61060439   -1.7558597   -1.7558597   -1.0552392  0.042295096   -1.7558597   0.70062055   466011 
  331000   0.61120678   -1.7564753   -1.7564753   -1.0551636   0.03389078   -1.7564753   0.70131175   466011 
  332000   0.61199849    -1.756792    -1.756792   -1.0545719   0.03628287    -1.756792   0.70222017   466011 
  333000   0.61167978   -1.7570487   -1.7570487   -1.0551943  0.039240834   -1.7570487   0.70185448   466011 
  334000   0.61164705   -1.7567356   -1.7567356   -1.0549187  0.039804042   -1.7567356   0.70181692   466011 
  335000   0.61164421   -1.7566068   -1.7566068   -1.0547932    0.0377387   -1.7566068   0.70181366   466011 
  336000   0.61104662   -1.7554842   -1.7554842   -1.0543562  0.039995625   -1.7554842   0.70112798   466011 
  337000   0.61199377   -1.7551324   -1.7551324   -1.0529176  0.043834118   -1.7551324   0.70221475   466011 
  338000   0.61217888   -1.7565694   -1.7565694   -1.0541423  0.044427475   -1.7565694   0.70242715   466011 
  339000   0.61206484   -1.7565514   -1.7565514   -1.0542551  0.039609222   -1.7565514    0.7022963   466011 
  340000   0.61232412   -1.7563462   -1.7563462   -1.0537524  0.041056843   -1.7563462   0.70259381   466011 
  341000   0.61113662   -1.7556884   -1.7556884   -1.0544572  0.041782336   -1.7556884   0.70123124   466011 
  342000    0.6119205   -1.7564967   -1.7564967    -1.054366  0.039423625   -1.7564967   0.70213068   466011 
  343000   0.61133502   -1.7560709   -1.7560709    -1.054612  0.043542912   -1.7560709   0.70145889   466011 
  344000   0.60961052    -1.754071    -1.754071   -1.0545908   0.03968731    -1.754071   0.69948017   466011 
  345000   0.61043341   -1.7554543   -1.7554543     -1.05503  0.035467499   -1.7554543   0.70042436   466011 
  346000   0.61021014   -1.7553204   -1.7553204   -1.0551523  0.036836854   -1.7553204   0.70016818   466011 
  347000   0.60952033   -1.7538553   -1.7538553   -1.0544787   0.03957864   -1.7538553   0.69937668   466011 
  348000   0.61049096   -1.7557015   -1.7557015   -1.0552111  0.032791096   -1.7557015    0.7004904   466011 
  349000   0.61033061   -1.7559027   -1.7559027   -1.0555962  0.036000138   -1.7559027   0.70030641   466011 
  350000      0.61001   -1.7550265   -1.7550265    -1.055088  0.038556755   -1.7550265   0.69993853   466011 
  351000   0.60912057   -1.7538049   -1.7538049   -1.0548869  0.040760611   -1.7538049   0.69891799   466011 
  352000   0.60938609   -1.7540855   -1.7540855   -1.0548628  0.035883268   -1.7540855   0.69922265   466011 
  353000   0.60981206   -1.7538974   -1.7538974    -1.054186  0.039314846   -1.7538974   0.69971141   466011 
  354000   0.60982862   -1.7535143   -1.7535143   -1.0537839  0.041608779   -1.7535143   0.69973042   466011 
  355000   0.61030459   -1.7541902   -1.7541902   -1.0539136  0.035115529   -1.7541902   0.70027655   466011 
  356000   0.61069391    -1.754658    -1.754658   -1.0539347  0.037163524    -1.754658   0.70072327   466011 
  357000   0.61036148   -1.7544942   -1.7544942   -1.0541524  0.034934195   -1.7544942   0.70034183   466011 
  358000   0.61043461   -1.7545908   -1.7545908    -1.054165  0.042365133   -1.7545908   0.70042574   466011 
  359000   0.60978324   -1.7536121   -1.7536121   -1.0539337  0.039007314   -1.7536121   0.69967835   466011 
  360000   0.61070219   -1.7552905   -1.7552905   -1.0545578   0.03957259   -1.7552905   0.70073277   466011 
  361000   0.61037152   -1.7544966   -1.7544966   -1.0541432  0.035101904   -1.7544966   0.70035335   466011 
  362000   0.61099337   -1.7550156   -1.7550156   -1.0539487  0.039262076   -1.7550156   0.70106688   466011 
  363000   0.61039491   -1.7543041   -1.7543041   -1.0539239  0.035485849   -1.7543041   0.70038019   466011 
  364000   0.61116054   -1.7544128   -1.7544128   -1.0531541  0.037150661   -1.7544128   0.70125869   466011 
  365000    0.6107734   -1.7556365   -1.7556365    -1.054822  0.042781132   -1.7556365   0.70081447   466011 
  366000   0.61118786   -1.7564346   -1.7564346   -1.0551446  0.034454293   -1.7564346   0.70129003   466011 
  367000   0.61106762   -1.7553139   -1.7553139   -1.0541618  0.038227417   -1.7553139   0.70115208   466011 
  368000   0.61101814   -1.7555151   -1.7555151   -1.0544198  0.045515305   -1.7555151    0.7010953   466011 
  369000   0.61067345   -1.7546004   -1.7546004   -1.0539006  0.041977356   -1.7546004   0.70069979   466011 
  370000   0.61122691   -1.7562121   -1.7562121   -1.0548773  0.039426606   -1.7562121   0.70133485   466011 
  371000   0.60994256   -1.7544197   -1.7544197   -1.0545586  0.039830331   -1.7544197   0.69986115   466011 
  372000   0.60986444   -1.7552351   -1.7552351   -1.0554636  0.038850891   -1.7552351   0.69977151   466011 
  373000    0.6107038   -1.7557843   -1.7557843   -1.0550497  0.040607221   -1.7557843   0.70073461   466011 
  374000   0.61131896   -1.7562223   -1.7562223   -1.0547819   0.03913133   -1.7562223   0.70144046   466011 
  375000   0.61209799   -1.7567531   -1.7567531   -1.0544188   0.04073168   -1.7567531   0.70233434   466011 
  376000   0.61037955   -1.7549059   -1.7549059   -1.0545433  0.046366952   -1.7549059   0.70036257   466011 
  377000   0.61187991   -1.7576205   -1.7576205   -1.0555364  0.043608886   -1.7576205   0.70208411   466011 
  378000    0.6120947   -1.7573756   -1.7573756    -1.055045  0.043414567   -1.7573756   0.70233056   466011 
  379000   0.61081728   -1.7558058   -1.7558058   -1.0549409   0.03679133   -1.7558058   0.70086483   466011 
  380000   0.61003849   -1.7559859   -1.7559859   -1.0560147  0.042050168   -1.7559859   0.69997122   466011 
  381000   0.61155648    -1.757893    -1.757893     -1.05618  0.042114181    -1.757893     0.701713   466011 
  382000   0.61079746   -1.7568874   -1.7568874   -1.0560454  0.042979947   -1.7568874   0.70084209   466011 
  383000   0.61133517   -1.7575039   -1.7575039   -1.0560448  0.040109925   -1.7575039   0.70145906   466011 
  384000   0.61010134   -1.7559184   -1.7559184    -1.055875  0.036028376   -1.7559184   0.70004335   466011 
  385000   0.61121981   -1.7576248   -1.7576248   -1.0562981  0.040202455   -1.7576248    0.7013267   466011 
  386000   0.61063783   -1.7567736   -1.7567736   -1.0561147  0.043447307   -1.7567736   0.70065892   466011 
  387000   0.61097493   -1.7570124   -1.7570124   -1.0559667   0.03345627   -1.7570124   0.70104572   466011 
  388000   0.60967674   -1.7558857   -1.7558857   -1.0563295  0.043280268   -1.7558857   0.69955615   466011 
  389000   0.61066279   -1.7565942   -1.7565942   -1.0559066  0.042667163   -1.7565942   0.70068756   466011 
  390000   0.61011192   -1.7558316   -1.7558316   -1.0557761   0.03562112   -1.7558316   0.70005549   466011 
  391000   0.61112239   -1.7571424   -1.7571424   -1.0559275  0.041485457   -1.7571424   0.70121491   466011 
  392000   0.61120884   -1.7569436   -1.7569436   -1.0556295  0.039496928   -1.7569436   0.70131411   466011 
  393000   0.61107989    -1.756362    -1.756362   -1.0551959  0.041658061    -1.756362   0.70116616   466011 
  394000   0.61120855   -1.7573404   -1.7573404   -1.0560267   0.04236301   -1.7573404   0.70131378   466011 
  395000   0.60970381   -1.7555992   -1.7555992    -1.056012  0.035811656   -1.7555992    0.6995872   466011 
  396000   0.60848749   -1.7547463   -1.7547463   -1.0565547  0.039410416   -1.7547463   0.69819158   466011 
  397000   0.61016705   -1.7559142   -1.7559142   -1.0557954  0.036505197   -1.7559142   0.70011874   466011 
  398000   0.60852507    -1.754081    -1.754081   -1.0558463  0.043349106    -1.754081    0.6982347   466011 
  399000   0.60910219   -1.7540465   -1.7540465   -1.0551496  0.042380015   -1.7540465    0.6988969   466011 
  400000   0.61074215   -1.7566556   -1.7566556    -1.055877  0.037999134   -1.7566556   0.70077863   466011 
  401000   0.60999091   -1.7559806   -1.7559806   -1.0560639  0.038073436   -1.7559806   0.69991664   466011 
  402000   0.61035456   -1.7562105   -1.7562105   -1.0558766  0.036310943   -1.7562105   0.70033389   466011 
  403000   0.60977831   -1.7551277   -1.7551277    -1.055455  0.040265437   -1.7551277   0.69967269   466011 
  404000   0.61008737   -1.7555048   -1.7555048   -1.0554775  0.044214032   -1.7555048   0.70002732   466011 
  405000   0.61093915    -1.756182    -1.756182   -1.0551773  0.039217749    -1.756182   0.70100467   466011 
  406000   0.61163324   -1.7570741   -1.7570741    -1.055273  0.044801747   -1.7570741   0.70180108   466011 
  407000   0.61139826   -1.7567837   -1.7567837   -1.0552523  0.034922256   -1.7567837   0.70153146   466011 
  408000   0.61085043   -1.7563254   -1.7563254   -1.0554225  0.041706834   -1.7563254   0.70090287   466011 
  409000   0.61085968   -1.7562769   -1.7562769   -1.0553634  0.036236933   -1.7562769   0.70091348   466011 
  410000   0.61202927    -1.757514    -1.757514   -1.0552585  0.042616677    -1.757514   0.70225549   466011 
  411000   0.61110256   -1.7568115   -1.7568115   -1.0556194  0.032714523   -1.7568115   0.70119216   466011 
  412000    0.6111753   -1.7576923   -1.7576923   -1.0564166  0.037823058   -1.7576923   0.70127563   466011 
  413000   0.60981657   -1.7564777   -1.7564777   -1.0567611  0.039192707   -1.7564777   0.69971659   466011 
  414000   0.61150617    -1.758037    -1.758037   -1.0563818  0.036979595    -1.758037   0.70165527   466011 
  415000   0.61041801   -1.7570108   -1.7570108   -1.0566041  0.033588645   -1.7570108   0.70040669   466011 
  416000   0.61021773   -1.7573091   -1.7573091   -1.0571322  0.039510779   -1.7573091   0.70017689   466011 
  417000   0.61007838   -1.7571902   -1.7571902   -1.0571732  0.038586788   -1.7571902     0.700017   466011 
  418000   0.60973371   -1.7560784   -1.7560784   -1.0564569  0.035252985   -1.7560784   0.69962151   466011 
  419000   0.61052473   -1.7565178   -1.7565178   -1.0559886  0.036982481   -1.7565178   0.70052914   466011 
  420000   0.61078349   -1.7564618   -1.7564618   -1.0556358  0.040640791   -1.7564618   0.70082606   466011 
  421000   0.61081697   -1.7560465   -1.7560465   -1.0551821    0.0380367   -1.7560465   0.70086447   466011 
  422000    0.6123594   -1.7587343   -1.7587343      -1.0561  0.038837325   -1.7587343   0.70263428   466011 
  423000   0.61112964   -1.7579041   -1.7579041   -1.0566808  0.041084192   -1.7579041   0.70122324   466011 
  424000   0.61049574   -1.7572234   -1.7572234   -1.0567275  0.038604691   -1.7572234   0.70049589   466011 
  425000   0.61086862   -1.7577862   -1.7577862   -1.0568625  0.039962294   -1.7577862   0.70092374   466011 
  426000   0.61145715    -1.758602    -1.758602    -1.057003  0.038975621    -1.758602   0.70159903   466011 
  427000   0.61117385     -1.75769     -1.75769    -1.056416  0.044548637     -1.75769   0.70127396   466011 
  428000    0.6119157   -1.7586284   -1.7586284   -1.0565032  0.037039544   -1.7586284   0.70212518   466011 
  429000   0.61004468   -1.7562385   -1.7562385   -1.0562602  0.036696922   -1.7562385   0.69997833   466011 
  430000   0.61145486   -1.7574051   -1.7574051   -1.0558087  0.045781466   -1.7574051    0.7015964   466011 
  431000   0.61232826   -1.7580026   -1.7580026    -1.055404   0.03952297   -1.7580026   0.70259856   466011 
  432000   0.61174825   -1.7578103   -1.7578103   -1.0558773  0.039205635   -1.7578103   0.70193304   466011 
  433000   0.61131953    -1.758377    -1.758377   -1.0569359  0.040800506    -1.758377   0.70144112   466011 
  434000   0.61081035   -1.7580496   -1.7580496   -1.0571927  0.037334305   -1.7580496   0.70085687   466011 
  435000    0.6103345   -1.7576231   -1.7576231   -1.0573122  0.041869671   -1.7576231   0.70031088   466011 
  436000   0.60969094   -1.7574772   -1.7574772   -1.0579047  0.046504938   -1.7574772   0.69957244   466011 
  437000   0.60939849   -1.7575747   -1.7575747   -1.0583378  0.039365713   -1.7575747   0.69923688   466011 
  438000   0.60986709   -1.7579836   -1.7579836    -1.058209  0.034581996   -1.7579836   0.69977456   466011 
  439000   0.60962667   -1.7574557   -1.7574557    -1.057957  0.038185889   -1.7574557   0.69949869   466011 
  440000   0.61066187    -1.759104    -1.759104   -1.0584175  0.031073007    -1.759104   0.70068651   466011 
  441000   0.60928088   -1.7577291   -1.7577291   -1.0586271   0.04294384   -1.7577291   0.69910193   466011 
  442000   0.60888282   -1.7571304   -1.7571304   -1.0584852  0.039031855   -1.7571304   0.69864519   466011 
  443000   0.60946844   -1.7582318   -1.7582318   -1.0589147  0.034573601   -1.7582318   0.69931714   466011 
  444000   0.60886746   -1.7573001   -1.7573001   -1.0586726  0.038503313   -1.7573001   0.69862756   466011 
  445000    0.6096193   -1.7581207   -1.7581207   -1.0586304  0.038619372   -1.7581207   0.69949024   466011 
  446000   0.61019416   -1.7585101   -1.7585101   -1.0583602  0.039125067   -1.7585101   0.70014984   466011 
  447000    0.6109046   -1.7586896   -1.7586896   -1.0577246  0.040677145   -1.7586896   0.70096502   466011 
  448000   0.61040361   -1.7585503   -1.7585503   -1.0581601  0.039156639   -1.7585503   0.70039018   466011 
  449000   0.60981163   -1.7582361   -1.7582361   -1.0585252  0.041569197   -1.7582361   0.69971092   466011 
  450000   0.61049979   -1.7594846   -1.7594846    -1.058984  0.039587989   -1.7594846   0.70050053   466011 
  451000   0.61081965   -1.7600333   -1.7600333   -1.0591657  0.043920695   -1.7600333   0.70086755   466011 
  452000   0.61037913   -1.7593575   -1.7593575   -1.0589954  0.040876386   -1.7593575   0.70036209   466011 
  453000   0.61057866   -1.7597862   -1.7597862   -1.0591951  0.040559362   -1.7597862   0.70059103   466011 
  454000   0.61031166   -1.7587111   -1.7587111   -1.0584264  0.038259339   -1.7587111   0.70028466   466011 
  455000   0.60950367   -1.7580672   -1.7580672   -1.0587097  0.037821877   -1.7580672   0.69935756   466011 
  456000   0.61148592   -1.7598583   -1.7598583   -1.0582263  0.040789539   -1.7598583   0.70163204   466011 
  457000   0.61085787   -1.7594043   -1.7594043   -1.0584929  0.041436877   -1.7594043    0.7009114   466011 
  458000   0.61097196   -1.7591947   -1.7591947   -1.0581524  0.046756328   -1.7591947   0.70104231   466011 
  459000   0.61063531   -1.7583271   -1.7583271    -1.057671  0.043736689   -1.7583271   0.70065603   466011 
  460000   0.61126495   -1.7593508   -1.7593508   -1.0579723   0.04476007   -1.7593508    0.7013785   466011 
  461000   0.61156786   -1.7602919   -1.7602919   -1.0585658  0.040050888   -1.7602919   0.70172606   466011 
  462000   0.61089387   -1.7594933   -1.7594933   -1.0585406  0.038372053   -1.7594933   0.70095271   466011 
  463000   0.61080819   -1.7598403   -1.7598403   -1.0589859  0.038258726   -1.7598403   0.70085439   466011 
  464000   0.60908805   -1.7578395   -1.7578395   -1.0589589  0.036645406   -1.7578395   0.69888067   466011 
  465000   0.61024704   -1.7585526   -1.7585526   -1.0583421  0.041060337   -1.7585526   0.70021052   466011 
  466000   0.61004889    -1.758293    -1.758293   -1.0583099  0.038315233    -1.758293   0.69998315   466011 
  467000    0.6093113   -1.7579475   -1.7579475   -1.0588107  0.037744417   -1.7579475   0.69913683   466011 
  468000   0.60901596   -1.7580764   -1.7580764   -1.0592784  0.033916935   -1.7580764   0.69879796   466011 
  469000   0.60955012   -1.7584014   -1.7584014   -1.0589905  0.040987521   -1.7584014   0.69941086   466011 
  470000   0.60911584   -1.7576621   -1.7576621   -1.0587496  0.041494447   -1.7576621   0.69891256   466011 
  471000   0.61004347   -1.7594952   -1.7594952   -1.0595182  0.037033258   -1.7594952   0.69997693   466011 
  472000   0.60918792   -1.7581193   -1.7581193    -1.059124  0.037730835   -1.7581193   0.69899526   466011 
  473000   0.60871991   -1.7574592   -1.7574592   -1.0590009  0.043489424   -1.7574592   0.69845826   466011 
  474000   0.60891509   -1.7580758   -1.7580758   -1.0593936    0.0359112   -1.7580758   0.69868221   466011 
  475000    0.6100281   -1.7590831   -1.7590831   -1.0591238  0.035945016   -1.7590831   0.69995931   466011 
  476000   0.60922661   -1.7585652   -1.7585652   -1.0595255  0.040829489   -1.7585652   0.69903965   466011 
  477000   0.61047955   -1.7600008   -1.7600008   -1.0595235  0.036097014   -1.7600008    0.7004773   466011 
  478000   0.61006274   -1.7593595   -1.7593595   -1.0593605  0.040234082   -1.7593595   0.69999905   466011 
  479000   0.61069375   -1.7590951   -1.7590951    -1.058372    0.0330264   -1.7590951   0.70072309   466011 
  480000   0.61108203   -1.7592186   -1.7592186     -1.05805  0.047957623   -1.7592186    0.7011686   466011 
  481000   0.61028681   -1.7582659   -1.7582659   -1.0580097  0.041292088   -1.7582659   0.70025616   466011 
  482000   0.60976784   -1.7581728   -1.7581728   -1.0585121  0.035991167   -1.7581728   0.69966068   466011 
  483000   0.60966569   -1.7578014   -1.7578014    -1.058258  0.038399718   -1.7578014   0.69954347   466011 
  484000   0.61092877   -1.7583433   -1.7583433   -1.0573505  0.043444306   -1.7583433   0.70099275   466011 
  485000   0.61076684   -1.7583583   -1.7583583   -1.0575514  0.039833071   -1.7583583   0.70080695   466011 
  486000   0.61047403   -1.7583163   -1.7583163   -1.0578453  0.039672249   -1.7583163   0.70047097   466011 
  487000    0.6096776   -1.7581446   -1.7581446   -1.0585875  0.036094205   -1.7581446   0.69955713   466011 
  488000   0.60959148   -1.7583543   -1.7583543    -1.058896  0.031542127   -1.7583543   0.69945832   466011 
  489000   0.61017993   -1.7591492   -1.7591492   -1.0590156  0.036597964   -1.7591492   0.70013352   466011 
  490000   0.60873313   -1.7571846   -1.7571846   -1.0587112   0.03545813   -1.7571846   0.69847343   466011 
  491000   0.60958668      -1.7587      -1.7587   -1.0592472  0.038628539      -1.7587    0.6994528   466011 
  492000   0.60965089   -1.7586807   -1.7586807   -1.0591542  0.040577074   -1.7586807   0.69952648   466011 
  493000   0.60951944   -1.7591149   -1.7591149   -1.0597392  0.043100177   -1.7591149   0.69937566   466011 
  494000   0.61076828   -1.7604502   -1.7604502   -1.0596416  0.042806649   -1.7604502   0.70080861   466011 
  495000   0.60982667   -1.7588354   -1.7588354   -1.0591072   0.04009502   -1.7588354   0.69972818   466011 
  496000   0.61099502   -1.7604293   -1.7604293   -1.0593605  0.045111551   -1.7604293   0.70106877   466011 
  497000   0.61007574   -1.7596217   -1.7596217   -1.0596077   0.03544405   -1.7596217   0.70001396   466011 
  498000    0.6110051   -1.7603022   -1.7603022   -1.0592219  0.034271768   -1.7603022   0.70108033   466011 
  499000    0.6106025   -1.7594715   -1.7594715   -1.0588531  0.038597174   -1.7594715   0.70061839   466011 
  500000   0.61009438   -1.7592423   -1.7592423    -1.059207  0.034321279   -1.7592423   0.70003535   466011 
  501000   0.60973513   -1.7585333   -1.7585333   -1.0589102  0.041287523   -1.7585333   0.69962314   466011 
  502000   0.61134857   -1.7602769   -1.7602769   -1.0588025  0.039681614   -1.7602769   0.70147444   466011 
  503000   0.61119256    -1.759562    -1.759562   -1.0582666  0.042460269    -1.759562   0.70129543   466011 
  504000   0.61057727   -1.7598785   -1.7598785   -1.0592891  0.039041888   -1.7598785   0.70058943   466011 
  505000   0.61112407    -1.759777    -1.759777   -1.0585602  0.036394184    -1.759777   0.70121685   466011 
  506000   0.61014447   -1.7593988   -1.7593988    -1.059306  0.038937326   -1.7593988   0.70009283   466011 
  507000   0.61035971   -1.7600706   -1.7600706   -1.0597308  0.035071019   -1.7600706    0.7003398   466011 
  508000    0.6094846   -1.7588194   -1.7588194   -1.0594837  0.040103382   -1.7588194   0.69933568   466011 
  509000   0.60918932   -1.7587399   -1.7587399   -1.0597431  0.038429029   -1.7587399   0.69899687   466011 
  510000    0.6085045    -1.758333    -1.758333   -1.0601219   0.03630273    -1.758333   0.69821109   466011 
  511000   0.60948974   -1.7591413   -1.7591413   -1.0597997  0.038109538   -1.7591413   0.69934158   466011 
  512000   0.60970651    -1.758396    -1.758396   -1.0588057  0.040968221    -1.758396   0.69959031   466011 
  513000   0.60957197   -1.7578176   -1.7578176   -1.0583817  0.039730639   -1.7578176   0.69943593   466011 
  514000   0.61008879    -1.758748    -1.758748   -1.0587191  0.034901983    -1.758748   0.70002895   466011 
  515000   0.61020685   -1.7586954   -1.7586954    -1.058531  0.038104228   -1.7586954    0.7001644   466011 
  516000   0.60945073    -1.757538    -1.757538   -1.0582412  0.040919032    -1.757538   0.69929682   466011 
  517000   0.60941933   -1.7579899   -1.7579899   -1.0587291  0.035120851   -1.7579899   0.69926079   466011 
  518000   0.60865651     -1.75737     -1.75737   -1.0589845  0.039075291     -1.75737   0.69838551   466011 
  519000   0.60933381   -1.7577405   -1.7577405   -1.0585778  0.035928863   -1.7577405   0.69916266   466011 
  520000   0.60927896   -1.7576187   -1.7576187    -1.058519  0.042098859   -1.7576187   0.69909972   466011 
  521000   0.60904141   -1.7583691   -1.7583691    -1.059542  0.035228722   -1.7583691   0.69882715   466011 
  522000    0.6082762   -1.7570087   -1.7570087   -1.0590596  0.040206167   -1.7570087   0.69794913   466011 
  523000   0.60944372   -1.7580498   -1.7580498    -1.058761  0.043655155   -1.7580498   0.69928877   466011 
  524000   0.61025902   -1.7587997   -1.7587997   -1.0585754  0.041654706   -1.7587997   0.70022427   466011 
  525000   0.61034174   -1.7585801   -1.7585801   -1.0582609  0.038011705   -1.7585801   0.70031918   466011 
  526000   0.60987045   -1.7578929   -1.7578929   -1.0581145  0.037461357   -1.7578929   0.69977841   466011 
  527000   0.60992416   -1.7573913   -1.7573913   -1.0575512  0.040728441   -1.7573913   0.69984004   466011 
  528000   0.60952368   -1.7575641   -1.7575641   -1.0581836  0.036066077   -1.7575641   0.69938052   466011 
  529000   0.60966079   -1.7579719   -1.7579719    -1.058434  0.036663712   -1.7579719   0.69953785   466011 
  530000   0.60773126   -1.7565647   -1.7565647   -1.0592408  0.044159195   -1.7565647   0.69732386   466011 
  531000   0.60835917    -1.757631    -1.757631   -1.0595867  0.041802845    -1.757631   0.69804434   466011 
  532000   0.61012294   -1.7586344   -1.7586344   -1.0585662  0.037071058   -1.7586344   0.70006813   466011 
  533000    0.6099687   -1.7589025   -1.7589025   -1.0590113  0.039313258   -1.7589025   0.69989115   466011 
  534000   0.60912872   -1.7585548   -1.7585548   -1.0596275  0.040736317   -1.7585548   0.69892734   466011 
  535000   0.60942133   -1.7582265   -1.7582265   -1.0589634  0.037436484   -1.7582265   0.69926309   466011 
  536000   0.60878513   -1.7579892   -1.7579892   -1.0594561  0.039196129   -1.7579892   0.69853309   466011 
  537000   0.60894423   -1.7589904   -1.7589904   -1.0602748  0.035751068   -1.7589904   0.69871565   466011 
  538000   0.60888727   -1.7585341   -1.7585341   -1.0598838  0.034205062   -1.7585341   0.69865029   466011 
  539000   0.60898043   -1.7587417   -1.7587417   -1.0599845  0.041290448   -1.7587417   0.69875719   466011 
  540000   0.60930819   -1.7593839   -1.7593839   -1.0602506  0.034804941   -1.7593839   0.69913326   466011 
  541000   0.60968179   -1.7597633   -1.7597633   -1.0602013  0.039894881   -1.7597633   0.69956195   466011 
  542000    0.6096513   -1.7595462   -1.7595462   -1.0600192  0.040196245   -1.7595462   0.69952696   466011 
  543000   0.60918593   -1.7586732   -1.7586732   -1.0596803  0.039613528   -1.7586732   0.69899298   466011 
  544000   0.61032139   -1.7598197   -1.7598197   -1.0595239  0.042559077   -1.7598197   0.70029583   466011 
  545000   0.61077645    -1.760221    -1.760221    -1.059403  0.038293723    -1.760221   0.70081797   466011 
  546000   0.61085042   -1.7602979   -1.7602979    -1.059395  0.036228824   -1.7602979   0.70090285   466011 
  547000   0.61046027   -1.7596981   -1.7596981   -1.0592429  0.041940752   -1.7596981   0.70045519   466011 
  548000   0.61104178   -1.7605394   -1.7605394    -1.059417  0.042221788   -1.7605394   0.70112242   466011 
  549000   0.60925127   -1.7590966   -1.7590966   -1.0600287  0.041069346   -1.7590966   0.69906795   466011 
  550000   0.61003477   -1.7601891   -1.7601891   -1.0602221  0.032853806   -1.7601891   0.69996696   466011 
  551000   0.60957703   -1.7598952   -1.7598952   -1.0604535   0.03956783   -1.7598952   0.69944173   466011 
  552000   0.61077429   -1.7614575   -1.7614575    -1.060642  0.037020931   -1.7614575    0.7008155   466011 
  553000    0.6104706   -1.7616266   -1.7616266   -1.0611595  0.041215461   -1.7616266   0.70046704   466011 
  554000   0.60899185   -1.7605982   -1.7605982   -1.0618279   0.03974864   -1.7605982   0.69877029   466011 
  555000   0.60883476    -1.760649    -1.760649    -1.062059  0.037682997    -1.760649   0.69859004   466011 
  556000   0.60794249   -1.7592622   -1.7592622    -1.061696  0.037790565   -1.7592622   0.69756624   466011 
  557000   0.60843718   -1.7591079   -1.7591079   -1.0609741  0.030338075   -1.7591079   0.69813385   466011 
  558000   0.60770644   -1.7589269   -1.7589269   -1.0616315  0.039571421   -1.7589269   0.69729538   466011 
  559000   0.60893543   -1.7596998   -1.7596998   -1.0609942   0.04029809   -1.7596998   0.69870555   466011 
  560000   0.60916656   -1.7598863   -1.7598863   -1.0609156   0.03616417   -1.7598863   0.69897075   466011 
  561000   0.60907354   -1.7597301   -1.7597301   -1.0608661  0.035165142   -1.7597301   0.69886403   466011 
  562000   0.60908471   -1.7595631   -1.7595631   -1.0606863   0.03796716   -1.7595631   0.69887684   466011 
  563000   0.60924468   -1.7596448   -1.7596448   -1.0605844  0.037040709   -1.7596448   0.69906039   466011 
  564000   0.61027951   -1.7612123   -1.7612123   -1.0609645  0.036193156   -1.7612123   0.70024778   466011 
  565000   0.60936567   -1.7596814   -1.7596814   -1.0604822  0.033839038   -1.7596814   0.69919921   466011 
  566000   0.60980982   -1.7604441   -1.7604441   -1.0607353  0.035395628   -1.7604441   0.69970885   466011 
  567000   0.60847496   -1.7591514   -1.7591514   -1.0609742  0.037414861   -1.7591514    0.6981772   466011 
  568000   0.61093492   -1.7615243   -1.7615243   -1.0605245  0.040246716   -1.7615243   0.70099981   466011 
  569000    0.6100617   -1.7608303   -1.7608303   -1.0608325  0.034810314   -1.7608303   0.69999786   466011 
  570000   0.61001404   -1.7607334   -1.7607334   -1.0607902  0.040914407   -1.7607334   0.69994317   466011 
  571000   0.60918974   -1.7593359   -1.7593359   -1.0603385  0.040211679   -1.7593359   0.69899735   466011 
  572000   0.61000299   -1.7600361   -1.7600361   -1.0601056  0.047407611   -1.7600361   0.69993049   466011 
  573000    0.6104535   -1.7604853   -1.7604853   -1.0600379   0.03901723   -1.7604853   0.70044742   466011 
  574000   0.61019037   -1.7601406   -1.7601406   -1.0599952  0.040517726   -1.7601406   0.70014549   466011 
  575000    0.6100892   -1.7604117   -1.7604117   -1.0603823  0.039026427   -1.7604117   0.70002942   466011 
  576000   0.60961008   -1.7602992   -1.7602992   -1.0608195  0.043652604   -1.7602992   0.69947966   466011 
  577000   0.61109554   -1.7614863   -1.7614863   -1.0603022  0.041366934   -1.7614863   0.70118411   466011 
  578000   0.60936462   -1.7612075   -1.7612075   -1.0620095  0.037640759   -1.7612075   0.69919801   466011 
  579000   0.60989454   -1.7615687   -1.7615687   -1.0617627  0.033952653   -1.7615687   0.69980606   466011 
  580000     0.609387   -1.7605613   -1.7605613   -1.0613376  0.038114101   -1.7605613   0.69922369   466011 
  581000   0.60877449   -1.7605608   -1.7605608   -1.0620399  0.045141903   -1.7605608   0.69852088   466011 
  582000   0.61055197   -1.7620726   -1.7620726   -1.0615122   0.03651595   -1.7620726    0.7005604   466011 
  583000   0.60936647   -1.7609262   -1.7609262   -1.0617261  0.040393453   -1.7609262   0.69920013   466011 
  584000   0.61034507   -1.7614975   -1.7614975   -1.0611745  0.035588718   -1.7614975     0.700323   466011 
  585000   0.60903259    -1.760639    -1.760639   -1.0618219  0.033714195    -1.760639   0.69881703   466011 
  586000   0.60875153   -1.7595939   -1.7595939   -1.0610993  0.042457759   -1.7595939   0.69849454   466011 
  587000   0.60954964   -1.7604234   -1.7604234   -1.0610131  0.039226975   -1.7604234   0.69941031   466011 
  588000   0.60938985   -1.7603433   -1.7603433   -1.0611163  0.037541906   -1.7603433   0.69922696   466011 
  589000   0.60946707   -1.7605022   -1.7605022   -1.0611866  0.038521682   -1.7605022   0.69931557   466011 
  590000   0.60855801   -1.7591033   -1.7591033   -1.0608308  0.038421805   -1.7591033   0.69827249   466011 
  591000   0.60801174   -1.7593897   -1.7593897    -1.061744  0.036816949   -1.7593897    0.6976457   466011 
  592000   0.60953315   -1.7606783   -1.7606783   -1.0612869  0.045080279   -1.7606783   0.69939139   466011 
  593000   0.60960382   -1.7609582   -1.7609582   -1.0614857  0.038422678   -1.7609582   0.69947248   466011 
  594000   0.60981715   -1.7606074   -1.7606074   -1.0608901  0.039942919   -1.7606074   0.69971725   466011 
  595000    0.6083502    -1.759062    -1.759062    -1.061028  0.036123545    -1.759062   0.69803405   466011 
  596000   0.60912919   -1.7602384   -1.7602384   -1.0613105  0.036876677   -1.7602384   0.69892787   466011 
  597000   0.60831863   -1.7594092   -1.7594092   -1.0614113  0.041211512   -1.7594092   0.69799783   466011 
  598000   0.60883696   -1.7599445   -1.7599445   -1.0613519  0.040880055   -1.7599445   0.69859256   466011 
  599000   0.60957118   -1.7606316   -1.7606316   -1.0611966  0.038636802   -1.7606316   0.69943502   466011 
  600000   0.60861709   -1.7591193   -1.7591193   -1.0607791  0.039484617   -1.7591193   0.69834028   466011 
  601000   0.60843527   -1.7595618   -1.7595618   -1.0614301  0.041796872   -1.7595618   0.69813166   466011 
  602000   0.60950467   -1.7600752   -1.7600752   -1.0607165  0.044383174   -1.7600752    0.6993587   466011 
  603000   0.60931338   -1.7600528   -1.7600528   -1.0609136  0.044774745   -1.7600528   0.69913922   466011 
  604000    0.6080798   -1.7584888   -1.7584888    -1.060765  0.043969743   -1.7584888   0.69772378   466011 
  605000   0.60842807   -1.7580155   -1.7580155   -1.0598921  0.036145442   -1.7580155   0.69812339   466011 
  606000   0.60932139   -1.7586868   -1.7586868   -1.0595384  0.034977414   -1.7586868   0.69914841   466011 
  607000   0.60887525   -1.7588051   -1.7588051   -1.0601686  0.040190746   -1.7588051   0.69863649   466011 
  608000   0.60900272   -1.7588796   -1.7588796   -1.0600969  0.035934391   -1.7588796   0.69878276   466011 
  609000   0.60838145   -1.7585676   -1.7585676   -1.0604977   0.03817429   -1.7585676   0.69806991   466011 
  610000   0.60865961   -1.7590086   -1.7590086   -1.0606195  0.036823443   -1.7590086   0.69838907   466011 
  611000    0.6083016   -1.7586387   -1.7586387   -1.0606604  0.037669567   -1.7586387   0.69797828   466011 
  612000     0.608956   -1.7587752   -1.7587752    -1.060046  0.041493986   -1.7587752   0.69872915   466011 
  613000   0.60974735   -1.7597096   -1.7597096   -1.0600724  0.038292833   -1.7597096   0.69963716   466011 
  614000   0.60983599   -1.7600509   -1.7600509    -1.060312  0.037849323   -1.7600509   0.69973887   466011 
  615000   0.61029659   -1.7616419   -1.7616419   -1.0613745  0.028385153   -1.7616419   0.70026738   466011 
  616000   0.60913963   -1.7602954   -1.7602954   -1.0613556  0.033021597   -1.7602954   0.69893986   466011 
  617000   0.61020829   -1.7614936   -1.7614936   -1.0613275  0.036970277   -1.7614936   0.70016606   466011 
  618000   0.60850155   -1.7602075   -1.7602075   -1.0619998  0.040133433   -1.7602075   0.69820771   466011 
  619000   0.60932884   -1.7609601   -1.7609601   -1.0618032  0.041156758   -1.7609601   0.69915695   466011 
  620000    0.6098195   -1.7613471   -1.7613471   -1.0616272  0.042406661   -1.7613471   0.69971996   466011 
  621000   0.60931269   -1.7610483   -1.7610483   -1.0619099  0.033775719   -1.7610483   0.69913843   466011 
  622000   0.60910351   -1.7612753   -1.7612753   -1.0623769   0.04415754   -1.7612753   0.69889841   466011 
  623000   0.60862551   -1.7608059   -1.7608059   -1.0624559  0.036423577   -1.7608059   0.69834994   466011 
  624000   0.61101613   -1.7633806   -1.7633806   -1.0622876  0.040278643   -1.7633806   0.70109299   466011 
  625000   0.61024095   -1.7627562   -1.7627562   -1.0625526  0.039385724   -1.7627562   0.70020353   466011 
  626000   0.61096106   -1.7638517   -1.7638517   -1.0628219    0.0358571   -1.7638517    0.7010298   466011 
  627000   0.61041406   -1.7633116   -1.7633116   -1.0629094  0.039709151   -1.7633116   0.70040217   466011 
  628000   0.61020658   -1.7623816   -1.7623816   -1.0622175  0.042974134   -1.7623816    0.7001641   466011 
  629000   0.61049974   -1.7629961   -1.7629961   -1.0624957  0.039278625   -1.7629961   0.70050048   466011 
  630000   0.60889749      -1.7612      -1.7612    -1.062538  0.038350173      -1.7612   0.69866202   466011 
  631000   0.60998128   -1.7623886   -1.7623886    -1.062483  0.041569905   -1.7623886   0.69990559   466011 
  632000   0.60984575    -1.762105    -1.762105   -1.0623549  0.036836233    -1.762105   0.69975007   466011 
  633000   0.60916625   -1.7616289   -1.7616289   -1.0626585  0.038617739   -1.7616289    0.6989704   466011 
  634000   0.61003212   -1.7626848   -1.7626848   -1.0627209  0.041030996   -1.7626848   0.69996392   466011 
  635000   0.60894656   -1.7620314   -1.7620314   -1.0633131   0.03865887   -1.7620314   0.69871832   466011 
  636000   0.60888925   -1.7624885   -1.7624885   -1.0638359  0.038738619   -1.7624885   0.69865257   466011 
  637000   0.60875936   -1.7624313   -1.7624313   -1.0639278  0.034847004   -1.7624313   0.69850353   466011 
  638000   0.60940519   -1.7624664   -1.7624664   -1.0632218   0.03570014   -1.7624664   0.69924456   466011 
  639000   0.60858188   -1.7615018   -1.7615018    -1.063202  0.039361223   -1.7615018   0.69829988   466011 
  640000   0.60747951   -1.7606615   -1.7606615   -1.0636265  0.037193459   -1.7606615   0.69703499   466011 
  641000   0.60844264   -1.7614696   -1.7614696   -1.0633295  0.041497635   -1.7614696   0.69814011   466011 
  642000   0.60895999   -1.7622826   -1.7622826   -1.0635489  0.036741914   -1.7622826   0.69873373   466011 
  643000   0.60948316   -1.7616703   -1.7616703   -1.0623363  0.037757293   -1.7616703   0.69933403   466011 
  644000   0.60874538   -1.7612607   -1.7612607   -1.0627732  0.044247528   -1.7612607   0.69848748   466011 
[...]
 9831000   0.60276457   -1.8037866   -1.8037866   -1.1121616  0.035648609   -1.8037866   0.69162497   466011 
 9832000   0.60225343   -1.8031641   -1.8031641   -1.1121256  0.036867054   -1.8031641   0.69103848   466011 
 9833000   0.60371865   -1.8046178   -1.8046178   -1.1118981  0.036700247   -1.8046178   0.69271971   466011 
 9834000     0.603931   -1.8052937   -1.8052937   -1.1123303  0.039742335   -1.8052937   0.69296336   466011 
 9835000   0.60350322    -1.805062    -1.805062   -1.1125895  0.034068998    -1.805062   0.69247251   466011 
 9836000   0.60352401   -1.8049524   -1.8049524   -1.1124561  0.037993351   -1.8049524   0.69249638   466011 
 9837000   0.60431983   -1.8058613   -1.8058613   -1.1124518  0.030180758   -1.8058613   0.69340951   466011 
 9838000   0.60415703     -1.80567     -1.80567   -1.1124473  0.034149596     -1.80567   0.69322271   466011 
 9839000   0.60333077    -1.804711    -1.804711   -1.1124363  0.039245503    -1.804711   0.69227464   466011 
 9840000   0.60468987   -1.8067831   -1.8067831    -1.112949  0.036442998   -1.8067831    0.6938341   466011 
 9841000   0.60464924   -1.8069022   -1.8069022   -1.1131147  0.031732767   -1.8069022   0.69378748   466011 
 9842000   0.60417856   -1.8069529   -1.8069529   -1.1137055  0.037835319   -1.8069529   0.69324741   466011 
 9843000   0.60284259   -1.8052665   -1.8052665   -1.1135521  0.039458334   -1.8052665   0.69171449   466011 
 9844000   0.60438965    -1.806484    -1.806484   -1.1129944  0.039021175    -1.806484   0.69348962   466011 
 9845000   0.60397996   -1.8063986   -1.8063986   -1.1133791  0.040240607   -1.8063986   0.69301954   466011 
 9846000   0.60510582    -1.806876    -1.806876   -1.1125646  0.036682403    -1.806876   0.69431137   466011 
 9847000     0.603814   -1.8056108   -1.8056108   -1.1127817  0.031397497   -1.8056108   0.69282912   466011 
 9848000   0.60341038   -1.8049997   -1.8049997   -1.1126337  0.042796635   -1.8049997   0.69236599   466011 
 9849000   0.60394753   -1.8054584   -1.8054584   -1.1124761  0.032662547   -1.8054584   0.69298233   466011 
 9850000   0.60378644   -1.8054868   -1.8054868   -1.1126893  0.037338941   -1.8054868   0.69279749   466011 
 9851000   0.60286879   -1.8046035   -1.8046035   -1.1128589  0.041516857   -1.8046035   0.69174456   466011 
 9852000   0.60499097   -1.8069637   -1.8069637   -1.1127841  0.033897552   -1.8069637   0.69417959   466011 
 9853000   0.60405099   -1.8065009   -1.8065009   -1.1133999  0.031991372   -1.8065009   0.69310104   466011 
 9854000    0.6042872    -1.806145    -1.806145   -1.1127729  0.033983195    -1.806145   0.69337207   466011 
 9855000   0.60426159   -1.8058398   -1.8058398   -1.1124972  0.037527552   -1.8058398   0.69334269   466011 
 9856000   0.60361688   -1.8048995   -1.8048995   -1.1122966  0.036442516   -1.8048995   0.69260294   466011 
 9857000   0.60411662   -1.8051958   -1.8051958   -1.1120195  0.034005523   -1.8051958   0.69317635   466011 
 9858000    0.6045553   -1.8055393   -1.8055393   -1.1118596  0.037132155   -1.8055393    0.6936797   466011 
 9859000   0.60369608   -1.8044655   -1.8044655   -1.1117717  0.034610825   -1.8044655   0.69269381   466011 
 9860000   0.60258971   -1.8032444   -1.8032444   -1.1118201  0.033130884   -1.8032444   0.69142434   466011 
 9861000   0.60291947   -1.8039293   -1.8039293   -1.1121266   0.03084062   -1.8039293   0.69180271   466011 
 9862000   0.60283372   -1.8038752   -1.8038752   -1.1121709  0.032224935   -1.8038752   0.69170432   466011 
 9863000   0.60293568   -1.8032772   -1.8032772   -1.1114559  0.034726961   -1.8032772   0.69182131   466011 
 9864000    0.6035982   -1.8034456   -1.8034456   -1.1108641  0.031085101   -1.8034456    0.6925815   466011 
 9865000    0.6030599   -1.8035987   -1.8035987   -1.1116349   0.03299744   -1.8035987   0.69196384   466011 
 9866000   0.60240422   -1.8020458   -1.8020458   -1.1108343  0.034951722   -1.8020458    0.6912115   466011 
 9867000    0.6029759   -1.8024078   -1.8024078   -1.1105404  0.036181861   -1.8024078   0.69186746   466011 
 9868000   0.60396815   -1.8035823   -1.8035823   -1.1105763  0.034547164   -1.8035823   0.69300599   466011 
 9869000   0.60305331    -1.803139    -1.803139   -1.1111828  0.033098991    -1.803139   0.69195628   466011 
 9870000   0.60389655   -1.8040525   -1.8040525   -1.1111287  0.032164339   -1.8040525   0.69292383   466011 
 9871000   0.60317074   -1.8023521   -1.8023521   -1.1102611  0.034342135   -1.8023521   0.69209103   466011 
 9872000   0.60342987   -1.8024646   -1.8024646   -1.1100763  0.038016483   -1.8024646   0.69238835   466011 
 9873000   0.60313671   -1.8026203   -1.8026203   -1.1105683  0.032219596   -1.8026203   0.69205197   466011 
 9874000   0.60383101   -1.8032376   -1.8032376   -1.1103889  0.028063794   -1.8032376   0.69284864   466011 
 9875000   0.60368175   -1.8032495   -1.8032495   -1.1105721  0.034855387   -1.8032495   0.69267737   466011 
 9876000   0.60350872   -1.8031091   -1.8031091   -1.1106303  0.028920063   -1.8031091   0.69247883   466011 
 9877000   0.60316165   -1.8022599   -1.8022599   -1.1101793  0.036824731   -1.8022599   0.69208059   466011 
 9878000   0.60409887   -1.8037651   -1.8037651   -1.1106091  0.028110333   -1.8037651   0.69315597   466011 
 9879000   0.60168997   -1.8021595   -1.8021595   -1.1117676  0.035263118   -1.8021595   0.69039195   466011 
 9880000    0.6025269    -1.803216    -1.803216   -1.1118637  0.033863595    -1.803216   0.69135227   466011 
 9881000   0.60227176   -1.8025919   -1.8025919   -1.1115324  0.037502952   -1.8025919   0.69105952   466011 
 9882000   0.60355553   -1.8038976   -1.8038976    -1.111365  0.034491814   -1.8038976   0.69253254   466011 
 9883000   0.60281477   -1.8034947   -1.8034947   -1.1118122  0.033856699   -1.8034947   0.69168257   466011 
 9884000   0.60438327   -1.8048582   -1.8048582   -1.1113759  0.034522473   -1.8048582   0.69348231   466011 
 9885000   0.60295178   -1.8041165   -1.8041165   -1.1122767  0.035074296   -1.8041165   0.69183978   466011 
 9886000   0.60415546   -1.8063073   -1.8063073   -1.1130864  0.037858536   -1.8063073   0.69322092   466011 
 9887000   0.60389814   -1.8055802   -1.8055802   -1.1126546  0.035742118   -1.8055802   0.69292566   466011 
 9888000   0.60380294    -1.806285    -1.806285   -1.1134686  0.036421426    -1.806285   0.69281642   466011 
 9889000   0.60433168    -1.806157    -1.806157   -1.1127339  0.036863822    -1.806157   0.69342311   466011 
 9890000    0.6047896   -1.8062184   -1.8062184   -1.1122699  0.034113462   -1.8062184   0.69394854   466011 
 9891000   0.60322654   -1.8051462   -1.8051462   -1.1129912  0.039218089   -1.8051462   0.69215505   466011 
 9892000   0.60440818   -1.8062793   -1.8062793   -1.1127684  0.038271475   -1.8062793   0.69351088   466011 
 9893000   0.60403502   -1.8060222   -1.8060222   -1.1129395  0.039976848   -1.8060222   0.69308271   466011 
 9894000    0.6044735   -1.8064598   -1.8064598    -1.112874  0.038520463   -1.8064598   0.69358583   466011 
 9895000   0.60417116   -1.8060553   -1.8060553   -1.1128164  0.038626673   -1.8060553   0.69323893   466011 
 9896000   0.60463215      -1.8057      -1.8057   -1.1119321  0.040697026      -1.8057   0.69376788   466011 
 9897000   0.60520176   -1.8061801   -1.8061801   -1.1117586  0.035146654   -1.8061801   0.69442145   466011 
 9898000   0.60497567   -1.8060441   -1.8060441   -1.1118821  0.043082211   -1.8060441   0.69416204   466011 
 9899000   0.60343049   -1.8048899   -1.8048899   -1.1125008  0.037392859   -1.8048899   0.69238906   466011 
 9900000   0.60330798   -1.8053206   -1.8053206   -1.1130721  0.031043072   -1.8053206    0.6922485   466011 
 9901000   0.60262092   -1.8050714   -1.8050714   -1.1136112  0.035968215   -1.8050714   0.69146015   466011 
 9902000    0.6021707   -1.8048022   -1.8048022   -1.1138587   0.03674523   -1.8048022   0.69094356   466011 
 9903000   0.60287275   -1.8054613   -1.8054613   -1.1137122  0.036512287   -1.8054613    0.6917491   466011 
 9904000   0.60308482   -1.8057742   -1.8057742   -1.1137818  0.033812131   -1.8057742   0.69199244   466011 
 9905000   0.60232077   -1.8054295   -1.8054295   -1.1143138  0.032033578   -1.8054295   0.69111575   466011 
 9906000   0.60221487   -1.8045246   -1.8045246   -1.1135304  0.039332853   -1.8045246   0.69099424   466011 
 9907000   0.60211577   -1.8050033   -1.8050033   -1.1141228  0.027995797   -1.8050033   0.69088053   466011 
 9908000   0.60206072    -1.804502    -1.804502   -1.1136847  0.032909593    -1.804502   0.69081736   466011 
 9909000   0.60335067   -1.8061028   -1.8061028   -1.1138053  0.032718245   -1.8061028   0.69229748   466011 
 9910000   0.60277442   -1.8050899   -1.8050899   -1.1134536  0.034914285   -1.8050899   0.69163627   466011 
 9911000   0.60307489   -1.8055818   -1.8055818   -1.1136008  0.033493884   -1.8055818   0.69198104   466011 
 9912000   0.60358652    -1.805654    -1.805654   -1.1130859  0.036917751    -1.805654    0.6925681   466011 
 9913000   0.60269622   -1.8050665   -1.8050665   -1.1135199  0.033209655   -1.8050665   0.69154655   466011 
 9914000   0.60374822   -1.8061111   -1.8061111   -1.1133574  0.029508955   -1.8061111   0.69275364   466011 
 9915000   0.60316293   -1.8054502   -1.8054502   -1.1133682  0.038521587   -1.8054502   0.69208206   466011 
 9916000   0.60443747   -1.8073578   -1.8073578   -1.1138133  0.029233086   -1.8073578   0.69354449   466011 
 9917000    0.6022735   -1.8053746   -1.8053746   -1.1143131  0.033353279   -1.8053746    0.6910615   466011 
 9918000   0.60275289   -1.8059909   -1.8059909   -1.1143793   0.03475155   -1.8059909   0.69161157   466011 
 9919000   0.60355437   -1.8061171   -1.8061171   -1.1135859  0.033013964   -1.8061171   0.69253121   466011 
 9920000   0.60351742    -1.805748    -1.805748   -1.1132592  0.036433096    -1.805748   0.69248881   466011 
 9921000   0.60285477   -1.8055645   -1.8055645    -1.113836  0.035598012   -1.8055645   0.69172847   466011 
 9922000   0.60329301    -1.806476    -1.806476   -1.1142447  0.033264246    -1.806476   0.69223132   466011 
 9923000   0.60467892   -1.8064536   -1.8064536   -1.1126321  0.035059236   -1.8064536   0.69382154   466011 
 9924000     0.603876   -1.8056824   -1.8056824   -1.1127821  0.037168999   -1.8056824   0.69290025   466011 
 9925000   0.60412906   -1.8063512   -1.8063512   -1.1131606  0.033299741   -1.8063512   0.69319062   466011 
 9926000   0.60339266   -1.8058164   -1.8058164   -1.1134707  0.036522844   -1.8058164   0.69234566   466011 
 9927000   0.60286288   -1.8048484   -1.8048484   -1.1131106  0.035791116   -1.8048484   0.69173778   466011 
 9928000   0.60273042   -1.8045736   -1.8045736   -1.1129879   0.03332551   -1.8045736   0.69158579   466011 
 9929000   0.60374192   -1.8055876   -1.8055876   -1.1128412  0.038684412   -1.8055876   0.69274641   466011 
 9930000   0.60333773   -1.8052311   -1.8052311   -1.1129485  0.033343146   -1.8052311   0.69228263   466011 
 9931000   0.60365893   -1.8052293   -1.8052293   -1.1125781  0.033744285   -1.8052293   0.69265118   466011 
 9932000   0.60282261   -1.8039043   -1.8039043   -1.1122128   0.03579362   -1.8039043   0.69169157   466011 
 9933000   0.60376808   -1.8053334   -1.8053334    -1.112557  0.033790318   -1.8053334   0.69277642   466011 
 9934000   0.60432576   -1.8051871   -1.8051871   -1.1117708  0.036192827   -1.8051871   0.69341632   466011 
 9935000   0.60375415   -1.8049388   -1.8049388   -1.1121784  0.034613075   -1.8049388   0.69276044   466011 
 9936000     0.603674   -1.8051513   -1.8051513   -1.1124828  0.031996261   -1.8051513   0.69266847   466011 
 9937000   0.60419876    -1.804449    -1.804449   -1.1111784  0.030327877    -1.804449    0.6932706   466011 
 9938000   0.60298176   -1.8029776   -1.8029776   -1.1111034  0.037431636   -1.8029776   0.69187418   466011 
 9939000   0.60355806   -1.8039011   -1.8039011   -1.1113657  0.035253119   -1.8039011   0.69253545   466011 
 9940000   0.60265569    -1.803059    -1.803059    -1.111559  0.043132018    -1.803059   0.69150004   466011 
 9941000    0.6027043   -1.8035849   -1.8035849   -1.1120291  0.033879038   -1.8035849   0.69155582   466011 
 9942000   0.60187495   -1.8023644   -1.8023644   -1.1117602   0.03771275   -1.8023644   0.69060421   466011 
 9943000   0.60264713   -1.8028107   -1.8028107   -1.1113204  0.034226389   -1.8028107   0.69149023   466011 
 9944000   0.60315696   -1.8039745   -1.8039745   -1.1118993  0.032133678   -1.8039745   0.69207521   466011 
 9945000   0.60283748   -1.8034035   -1.8034035   -1.1116948  0.033622144   -1.8034035   0.69170864   466011 
 9946000   0.60324601   -1.8035067   -1.8035067   -1.1113293    0.0341127   -1.8035067   0.69217739   466011 
 9947000   0.60319366   -1.8042485   -1.8042485   -1.1121312  0.033925625   -1.8042485   0.69211732   466011 
 9948000    0.6028377   -1.8034868   -1.8034868   -1.1117779  0.038445195   -1.8034868   0.69170889   466011 
 9949000   0.60363809   -1.8042885   -1.8042885   -1.1116612  0.038626348   -1.8042885   0.69262727   466011 
 9950000   0.60371272   -1.8039516   -1.8039516   -1.1112387    0.0401462   -1.8039516   0.69271291   466011 
 9951000   0.60392308   -1.8040059   -1.8040059   -1.1110517  0.037303172   -1.8040059   0.69295427   466011 
 9952000   0.60254339   -1.8035165   -1.8035165   -1.1121453   0.03373781   -1.8035165   0.69137118   466011 
 9953000   0.60252922   -1.8028892   -1.8028892   -1.1115343    0.0385655   -1.8028892   0.69135493   466011 
 9954000   0.60371893   -1.8042899   -1.8042899   -1.1115699  0.034288416   -1.8042899   0.69272003   466011 
 9955000    0.6038814   -1.8041574   -1.8041574    -1.111251  0.033509744   -1.8041574   0.69290645   466011 
 9956000   0.60373461   -1.8042982   -1.8042982   -1.1115602  0.037222186   -1.8042982   0.69273802   466011 
 9957000   0.60304737   -1.8034581   -1.8034581   -1.1115087  0.037222919   -1.8034581   0.69194947   466011 
 9958000   0.60248901   -1.8031938   -1.8031938    -1.111885  0.035646858   -1.8031938   0.69130879   466011 
 9959000   0.60350859   -1.8041217   -1.8041217    -1.111643  0.033750496   -1.8041217   0.69247868   466011 
 9960000   0.60230711   -1.8032125   -1.8032125   -1.1121124  0.037827449   -1.8032125   0.69110007   466011 
 9961000   0.60256962   -1.8040603   -1.8040603    -1.112659  0.028938335   -1.8040603   0.69140129   466011 
 9962000   0.60344143   -1.8043405   -1.8043405   -1.1119389  0.034235199   -1.8043405   0.69240162   466011 
 9963000   0.60274076   -1.8032771   -1.8032771   -1.1116795  0.040213447   -1.8032771   0.69159765   466011 
 9964000   0.60261579   -1.8027327   -1.8027327   -1.1112785  0.037203842   -1.8027327   0.69145426   466011 
 9965000   0.60330154   -1.8039415   -1.8039415   -1.1117003  0.036365522   -1.8039415   0.69224111   466011 
 9966000   0.60463683   -1.8043025   -1.8043025   -1.1105293  0.038539965   -1.8043025   0.69377324   466011 
 9967000   0.60482429   -1.8049503   -1.8049503    -1.110962   0.04066067   -1.8049503   0.69398834   466011 
 9968000    0.6047588   -1.8050667   -1.8050667   -1.1111535  0.035472104   -1.8050667    0.6939132   466011 
 9969000   0.60370865   -1.8048918   -1.8048918   -1.1121836  0.040350916   -1.8048918   0.69270823   466011 
 9970000   0.60373139   -1.8041401   -1.8041401   -1.1114058  0.041021965   -1.8041401   0.69273432   466011 
 9971000   0.60310066   -1.8033694   -1.8033694   -1.1113588  0.038602691   -1.8033694   0.69201061   466011 
 9972000   0.60428448   -1.8052839   -1.8052839    -1.111915  0.036731087   -1.8052839   0.69336896   466011 
 9973000   0.60312923   -1.8034776   -1.8034776   -1.1114342  0.039963794   -1.8034776   0.69204339   466011 
 9974000   0.60307677   -1.8034729   -1.8034729   -1.1114897  0.033085554   -1.8034729    0.6919832   466011 
 9975000   0.60347662   -1.8041913   -1.8041913   -1.1117493  0.035838639   -1.8041913     0.692442   466011 
 9976000   0.60473036   -1.8051771   -1.8051771   -1.1112965   0.03448574   -1.8051771   0.69388056   466011 
 9977000   0.60368002   -1.8032524   -1.8032524    -1.110577  0.035609886   -1.8032524   0.69267538   466011 
 9978000   0.60399039   -1.8040965   -1.8040965    -1.111065  0.028934878   -1.8040965   0.69303151   466011 
 9979000   0.60363221   -1.8037325   -1.8037325    -1.111112  0.034283975   -1.8037325   0.69262053   466011 
 9980000   0.60417774   -1.8036886   -1.8036886   -1.1104421  0.037351289   -1.8036886   0.69324647   466011 
 9981000   0.60366652   -1.8037124   -1.8037124   -1.1110525  0.036632576   -1.8037124   0.69265989   466011 
 9982000   0.60365716   -1.8040896   -1.8040896   -1.1114405  0.042090481   -1.8040896   0.69264915   466011 
 9983000   0.60387204   -1.8045286   -1.8045286   -1.1116328  0.031575211   -1.8045286    0.6928957   466011 
 9984000   0.60341464   -1.8039498   -1.8039498   -1.1115789  0.029633026   -1.8039498   0.69237088   466011 
 9985000   0.60333071   -1.8029512   -1.8029512   -1.1106767  0.036460177   -1.8029512   0.69227457   466011 
 9986000   0.60398055   -1.8033243   -1.8033243   -1.1103041  0.039297507   -1.8033243   0.69302022   466011 
 9987000   0.60448059   -1.8033507   -1.8033507   -1.1097568  0.039592338   -1.8033507   0.69359397   466011 
 9988000   0.60363302   -1.8022489   -1.8022489   -1.1096275  0.037581316   -1.8022489   0.69262145   466011 
 9989000    0.6033934     -1.80134     -1.80134   -1.1089935  0.035565994     -1.80134   0.69234651   466011 
 9990000   0.60347793   -1.8021619   -1.8021619   -1.1097184  0.038937475   -1.8021619    0.6924435   466011 
 9991000   0.60383278   -1.8022093   -1.8022093   -1.1093586  0.036347789   -1.8022093   0.69285066   466011 
 9992000   0.60377009   -1.8025123   -1.8025123   -1.1097336  0.036404693   -1.8025123   0.69277873   466011 
 9993000   0.60326901   -1.8020741   -1.8020741   -1.1098703  0.042064899   -1.8020741   0.69220378   466011 
 9994000   0.60345754    -1.802593    -1.802593   -1.1101729  0.026920861    -1.802593   0.69242011   466011 
 9995000   0.60411227   -1.8033126   -1.8033126   -1.1101413  0.032195239   -1.8033126   0.69317135   466011 
 9996000   0.60351524   -1.8031266   -1.8031266   -1.1106403   0.03491692   -1.8031266   0.69248631   466011 
 9997000   0.60328157   -1.8022829   -1.8022829   -1.1100647  0.031321128   -1.8022829   0.69221819   466011 
 9998000   0.60377886   -1.8026761   -1.8026761   -1.1098873   0.03102583   -1.8026761    0.6927888   466011 
 9999000   0.60163615   -1.8001279   -1.8001279   -1.1097977  0.037524197   -1.8001279    0.6903302   466011 
10000000   0.60367464   -1.8026252   -1.8026252    -1.109956  0.038348532   -1.8026252   0.69266921   466011 
Loop time of 58735.7 on 64 procs for 10000000 steps with 466011 atoms

Performance: 73549.805 tau/day, 170.254 timesteps/s
98.8% CPU use with 64 MPI tasks x 1 OpenMP threads

MPI task timing breakdown:
Section |  min time  |  avg time  |  max time  |%varavg|  %CPU | %total
-----------------------------------------------------------------------
Pair    | 9643.9     | 17845      | 27190      |2748.3 |  98.7 | 30.38
Bond    | 3.8554     | 5.1571     | 11.869     | 106.1 | 100.0 |  0.01
Neigh   | 5399.3     | 9440       | 14407      |1734.4 |  99.7 | 16.07
Comm    | 11119      | 22956      | 37372      |4248.3 |  98.4 | 39.08
Output  | 416.33     | 419.75     | 434.74     |  27.8 |  96.9 |  0.71
Modify  | 4864.3     | 7428.3     | 11003      |2917.5 |  98.7 | 12.65
Other   |            | 642.2      |            |       |       |  1.09

Nlocal:        7281.42 ave        8089 max        6578 min
Histogram: 2 2 8 12 16 10 6 4 2 2
Nghost:        8695.80 ave       12342 max        4691 min
Histogram: 6 6 4 2 7 7 16 5 7 4
Neighs:        96056.2 ave      134524 max       45028 min
Histogram: 8 0 1 1 6 17 15 8 0 8

Total # of neighbors = 6147595
Ave neighs/atom = 13.191953
Ave special neighs/atom = 0.0000000
Neighbor list builds = 992973
Dangerous builds = 868711

Total wall time: 16:19:10
