LAMMPS (3 Mar 2020)
  using 1 OpenMP thread(s) per MPI task
WARNING: Restart file used different # of processors: 32 vs. 256 (src/read_restart.cpp:752)
  restoring atom style full from restart
  orthogonal box = (0 0 0) to (80 80 160)
  4 by 4 by 16 MPI processor grid
  restoring pair style lj/cut/opt from restart
  515430 atoms
  0 = max # of 1-2 neighbors
  0 = max # of 1-3 neighbors
  0 = max # of 1-4 neighbors
  1 = max # of special neighbors
  special bonds CPU = 29.7936 secs
  read_restart CPU = 30.8791 secs
442278 atoms in group solvent
73152 atoms in group cubes
Unused restart file global fix info:
  fix style: rigid/nvt/small, fix ID: 1
Neighbor list info ...
  update every 1 steps, delay 10 steps, check yes
  max neighbors/atom: 2000, page size: 100000
  master list distance cutoff = 4.8
  ghost atom cutoff = 6.95
  binsize = 2.4, bins = 34 34 67
  1 neighbor lists, perpetual/occasional/extra = 1 0 0
  (1) pair lj/cut/opt, perpetual
      attributes: half, newton on
      pair build: half/bin/newton
      stencil: half/bin/3d/newton
      bin: standard
  rebalancing time: 0.00740653 seconds
  iteration count = 4
  initial/final max load/proc = 3690 3483
  initial/final imbalance factor = 1.83272 1.72991
  x cuts: 0 0.25 0.5 0.75 1
  y cuts: 0 0.25 0.5 0.75 1
  z cuts: 0 0.0429688 0.0742188 0.117188 0.164062 0.195312 0.246094 0.285156 0.324219 0.359375 0.390625 0.453125 0.496094 0.519531 0.582031 0.632812 1
  create bodies CPU = 0.0163935 secs
64 rigid bodies with 73152 atoms
  6.94564 = max distance from body owner to body atom
dynamic group thermo defined
New timer settings: style=full  mode=nosync  timeout=off
Per MPI rank memory allocation (min/avg/max) = 16.11 | 27.63 | 32.37 Mbytes
Step Temp E_pair E_vdwl TotEng Press PotEng KinEng Volume 
       0   0.99486084   -3.9931875   -3.9931875   -2.7123208  0.036252383   -3.9931875    1.2808667      1024000 
    1000   0.98429767   -4.0217347   -4.0217347   -2.7442042  0.065309365   -4.0217347    1.2775305      1024000 
    2000   0.98500549   -4.0219496   -4.0219496   -2.7430627  0.061072223   -4.0219496     1.278887      1024000 
    3000   0.98636705   -4.0237239   -4.0237239   -2.7426306  0.055171721   -4.0237239    1.2810934      1024000 
    4000   0.98597518   -4.0231279   -4.0231279   -2.7421222  0.069421874   -4.0231279    1.2810056      1024000 
    5000   0.98713661   -4.0245812   -4.0245812   -2.7416547   0.06954258   -4.0245812    1.2829265      1024000 
    6000   0.98618719   -4.0234607   -4.0234607   -2.7412935  0.080440717   -4.0234607    1.2821672      1024000 
    7000   0.98819132   -4.0253449   -4.0253449    -2.740066  0.053297607   -4.0253449     1.285279      1024000 
    8000   0.98703845   -4.0238867   -4.0238867   -2.7396818  0.065713134   -4.0238867    1.2842049      1024000 
    9000   0.98582783   -4.0219462   -4.0219462   -2.7388133  0.046992231   -4.0219462    1.2831329      1024000 
   10000   0.98265213   -4.0173206   -4.0173206   -2.7378167  0.052511179   -4.0173206    1.2795039      1024000 
   11000   0.97821355   -4.0113418   -4.0113418   -2.7371573  0.043592595   -4.0113418    1.2741845      1024000 
   12000   0.97637652   -4.0099685   -4.0099685   -2.7376849  0.033560076   -4.0099685    1.2722836      1024000 
   13000   0.97472122     -4.00872     -4.00872   -2.7381667  0.022902566     -4.00872    1.2705533      1024000 
   14000   0.97128488   -4.0055101   -4.0055101   -2.7389858 0.0097364377   -4.0055101    1.2665243      1024000 
   15000   0.96776312   -4.0014715   -4.0014715    -2.739031  0.016303686   -4.0014715    1.2624405      1024000 
   16000    0.9670246   -4.0019818   -4.0019818   -2.7400036  -0.01208755   -4.0019818    1.2619783      1024000 
   17000   0.96509699   -4.0006988   -4.0006988   -2.7407604 -0.012361814   -4.0006988    1.2599384      1024000 
   18000   0.96558897    -4.001792    -4.001792   -2.7407325 -0.0055304537    -4.001792    1.2610595      1024000 
   19000   0.96478392   -4.0007094   -4.0007094   -2.7402076 -0.0044182465   -4.0007094    1.2605018      1024000 
   20000   0.96434162   -3.9999674   -3.9999674    -2.739562 -0.026786445   -3.9999674    1.2604053      1024000 
   21000   0.96257085   -3.9975284   -3.9975284   -2.7389517 -0.0043346025   -3.9975284    1.2585768      1024000 
   22000    0.9624927   -3.9972265   -3.9972265   -2.7382037 -0.0051223629   -3.9972265    1.2590228      1024000 
   23000   0.96115153   -3.9965026   -3.9965026   -2.7387457 -0.0083046963   -3.9965026    1.2577568      1024000 
   24000   0.96002399   -3.9956591   -3.9956591   -2.7389515 0.0017056935   -3.9956591    1.2567076      1024000 
   25000   0.96103441   -3.9965259   -3.9965259   -2.7381009 -0.017438272   -3.9965259     1.258425      1024000 
   26000   0.95972656   -3.9952129   -3.9952129   -2.7380093 -0.012681109   -3.9952129    1.2572036      1024000 
   27000   0.95863092   -3.9943953   -3.9943953   -2.7381757 -0.0016878056   -3.9943953    1.2562197      1024000 
   28000   0.95778077   -3.9936436   -3.9936436   -2.7381587 -0.0097166268   -3.9936436    1.2554849      1024000 
   29000    0.9583944   -3.9956398   -3.9956398   -2.7389037 -0.024112618   -3.9956398    1.2567361      1024000 
   30000   0.95797479   -3.9951589   -3.9951589   -2.7385484 -0.012687747   -3.9951589    1.2566105      1024000 
   31000   0.95820157    -3.997047    -3.997047   -2.7397315 -0.012347552    -3.997047    1.2573156      1024000 
   32000   0.96022477    -3.999872    -3.999872    -2.739488 -0.0048765195    -3.999872     1.260384      1024000 
   33000   0.95991287   -4.0005988   -4.0005988   -2.7402577 -0.011006663   -4.0005988    1.2603411      1024000 
   34000   0.95990861   -4.0029004   -4.0029004   -2.7421758 -0.0065876662   -4.0029004    1.2607246      1024000 
   35000   0.95879746   -4.0027429   -4.0027429   -2.7430937 -0.0043837124   -4.0027429    1.2596492      1024000 
   36000   0.95837706   -4.0033673   -4.0033673   -2.7439014 0.0075896311   -4.0033673    1.2594659      1024000 
   37000   0.95982585   -4.0062298   -4.0062298   -2.7444751 0.0010867116   -4.0062298    1.2617547      1024000 
   38000    0.9593943   -4.0060965   -4.0060965   -2.7445743 -0.0041668823   -4.0060965    1.2615222      1024000 
   39000   0.96025917    -4.008467    -4.008467   -2.7453996 0.0055654686    -4.008467    1.2630674      1024000 
   40000   0.96083158   -4.0116832   -4.0116832   -2.7475472 -0.00013780841   -4.0116832     1.264136      1024000 
   41000   0.95907774    -4.012071    -4.012071   -2.7498871 -0.0057818695    -4.012071    1.2621839      1024000 
   42000   0.95918334   -4.0129206   -4.0129206   -2.7502947 0.0011763161   -4.0129206    1.2626259      1024000 
   43000   0.95771493   -4.0123149   -4.0123149   -2.7513318  0.012255379   -4.0123149    1.2609831      1024000 
   44000   0.95843288   -4.0133589   -4.0133589   -2.7512026 0.0028772034   -4.0133589    1.2621562      1024000 
   45000     0.959074   -4.0162531   -4.0162531   -2.7529467 0.0061216703   -4.0162531    1.2633064      1024000 
   46000   0.95993862   -4.0192108   -4.0192108   -2.7544969 0.0062858172   -4.0192108    1.2647139      1024000 
   47000   0.95860706    -4.019983    -4.019983   -2.7567375 0.0072676283    -4.019983    1.2632455      1024000 
   48000   0.95821639   -4.0210527   -4.0210527   -2.7580411  0.014629554   -4.0210527    1.2630115      1024000 
   49000   0.95664103   -4.0215171   -4.0215171   -2.7602513  0.012876927   -4.0215171    1.2612658      1024000 
   50000   0.95757729   -4.0239966   -4.0239966   -2.7612054  0.010163567   -4.0239966    1.2627912      1024000 
   51000     0.957095   -4.0238076   -4.0238076   -2.7613363   0.01146367   -4.0238076    1.2624713      1024000 
   52000   0.95810512   -4.0274895   -4.0274895   -2.7633717  0.012434884   -4.0274895    1.2641178      1024000 
   53000   0.95631914   -4.0267317   -4.0267317   -2.7647093  0.015862176   -4.0267317    1.2620223      1024000 
   54000   0.95544561    -4.028019    -4.028019   -2.7668435 0.0094357145    -4.028019    1.2611755      1024000 
   55000   0.95301683   -4.0271149   -4.0271149    -2.768865  0.024655842   -4.0271149    1.2582499      1024000 
   56000   0.95382473   -4.0294716   -4.0294716   -2.7699195 0.0066357188   -4.0294716    1.2595521      1024000 
   57000   0.95249421   -4.0295621   -4.0295621   -2.7715066  0.012346508   -4.0295621    1.2580555      1024000 
   58000   0.95123363   -4.0294783   -4.0294783   -2.7728477  0.012871465   -4.0294783    1.2566306      1024000 
   59000    0.9497696   -4.0284638   -4.0284638   -2.7734824 0.0060404446   -4.0284638    1.2549814      1024000 
   60000   0.95131391   -4.0308369   -4.0308369   -2.7735596  0.014176031   -4.0308369    1.2572773      1024000 
   61000   0.95136709   -4.0322808   -4.0322808   -2.7746677   0.01201708   -4.0322808    1.2576131      1024000 
   62000   0.95213692   -4.0345634   -4.0345634   -2.7756568  0.012571098   -4.0345634    1.2589066      1024000 
   63000     0.951495   -4.0352999   -4.0352999    -2.777044 0.0060054521   -4.0352999    1.2582559      1024000 
   64000   0.95145882   -4.0341036   -4.0341036   -2.7756548 0.0055616568   -4.0341036    1.2584488      1024000 
   65000   0.95179794   -4.0352002   -4.0352002   -2.7760269  0.015232325   -4.0352002    1.2591734      1024000 
   66000   0.94961271    -4.033916    -4.033916    -2.777358   0.01780204    -4.033916     1.256558      1024000 
   67000   0.94972435    -4.034436    -4.034436   -2.7774646  0.012846698    -4.034436    1.2569714      1024000 
   68000   0.95031675   -4.0354421   -4.0354421   -2.7774684  0.012588614   -4.0354421    1.2579737      1024000 
   69000   0.94900501   -4.0359554   -4.0359554   -2.7794248  0.018421679   -4.0359554    1.2565306      1024000 
   70000   0.94861427   -4.0365629   -4.0365629   -2.7803115 0.0065435546   -4.0365629    1.2562513      1024000 
   71000    0.9479654   -4.0366107   -4.0366107   -2.7809656  0.016453344   -4.0366107    1.2556451      1024000 
   72000   0.94806623   -4.0377379   -4.0377379   -2.7817462 0.0074076219   -4.0377379    1.2559918      1024000 
   73000   0.94803371   -4.0381362   -4.0381362   -2.7819267  0.011840127   -4.0381362    1.2562095      1024000 
   74000    0.9458521   -4.0370678   -4.0370678   -2.7834862  0.013905285   -4.0370678    1.2535815      1024000 
   75000   0.94612967   -4.0391973   -4.0391973   -2.7849899 -0.00095789521   -4.0391973    1.2542074      1024000 
   76000    0.9435737   -4.0367029   -4.0367029   -2.7856288 0.0080816175   -4.0367029    1.2510741      1024000 
   77000   0.94399109   -4.0375211   -4.0375211    -2.785651 0.0043202996   -4.0375211    1.2518701      1024000 
   78000   0.94400514   -4.0390564   -4.0390564   -2.7868999 -0.0074706117   -4.0390564    1.2521565      1024000 
   79000   0.94127227   -4.0366962   -4.0366962   -2.7879425 0.0030994734   -4.0366962    1.2487537      1024000 
   80000   0.94188878   -4.0393012   -4.0393012   -2.7894847 -0.0041823648   -4.0393012    1.2498165      1024000 
   81000   0.94123263   -4.0396109   -4.0396109   -2.7904578 -0.0019316471   -4.0396109    1.2491531      1024000 
   82000   0.94124967   -4.0397086   -4.0397086    -2.790328 0.0065225386   -4.0397086    1.2493806      1024000 
   83000    0.9406998   -4.0396354   -4.0396354   -2.7907573 0.0027076129   -4.0396354    1.2488781      1024000 
   84000   0.94126311   -4.0408122   -4.0408122   -2.7909612 0.0023551073   -4.0408122     1.249851      1024000 
   85000   0.94167413   -4.0408987   -4.0408987   -2.7902943 0.0030648142   -4.0408987    1.2506044      1024000 
   86000   0.94001345   -4.0399818   -4.0399818    -2.791328 -0.00047543489   -4.0399818    1.2486538      1024000 
   87000   0.94037705   -4.0407133   -4.0407133   -2.7913539 0.0061482218   -4.0407133    1.2493594      1024000 
   88000   0.94149365   -4.0423303   -4.0423303   -2.7912795 0.00066238627   -4.0423303    1.2510507      1024000 
   89000     0.941422   -4.0423091   -4.0423091   -2.7911456 0.00088547622   -4.0423091    1.2511635      1024000 
   90000   0.94089646   -4.0427866   -4.0427866   -2.7921087 0.0014276313   -4.0427866    1.2506779      1024000 
   91000    0.9393811   -4.0422972   -4.0422972   -2.7934209 0.0015990259   -4.0422972    1.2488763      1024000 
   92000   0.94026446   -4.0445072   -4.0445072    -2.794221 0.0015350829   -4.0445072    1.2502861      1024000 
   93000   0.94032098   -4.0455284   -4.0455284   -2.7949766 0.0024025939   -4.0455284    1.2505517      1024000 
   94000   0.94045568   -4.0473596   -4.0473596   -2.7964081 0.0043192204   -4.0473596    1.2509515      1024000 
   95000   0.93891606   -4.0458622   -4.0458622   -2.7967383  0.005871624   -4.0458622    1.2491239      1024000 
   96000   0.93877191   -4.0458543   -4.0458543   -2.7967294  0.010043727   -4.0458543    1.2491249      1024000 
   97000   0.94158406   -4.0501336   -4.0501336   -2.7970683 0.0021268114   -4.0501336    1.2530653      1024000 
   98000    0.9383291   -4.0467118   -4.0467118   -2.7977829 0.0070766107   -4.0467118    1.2489289      1024000 
   99000   0.94004025   -4.0501283   -4.0501283   -2.7987462 0.0030662509   -4.0501283    1.2513822      1024000 
  100000    0.9379976   -4.0479331   -4.0479331   -2.7990396 0.0012893556   -4.0479331    1.2488935      1024000 
  101000   0.93666721   -4.0475558   -4.0475558   -2.8002485   0.01439333   -4.0475558    1.2473073      1024000 
  102000   0.93796372   -4.0495227   -4.0495227   -2.8003059 0.0016612196   -4.0495227    1.2492168      1024000 
  103000   0.93649625   -4.0484599   -4.0484599   -2.8010048  0.012062642   -4.0484599    1.2474551      1024000 
  104000   0.93796686   -4.0512178   -4.0512178   -2.8016206 0.0086756136   -4.0512178    1.2495972      1024000 
  105000    0.9359815   -4.0482975   -4.0482975   -2.8011475  0.017123034   -4.0482975      1.24715      1024000 
  106000   0.93739127   -4.0517481   -4.0517481    -2.802529   0.01186052   -4.0517481    1.2492191      1024000 
  107000   0.93567737   -4.0500987   -4.0500987   -2.8029258  0.015468425   -4.0500987     1.247173      1024000 
  108000   0.93629506   -4.0516846   -4.0516846   -2.8035179   0.01393368   -4.0516846    1.2481668      1024000 
  109000    0.9363926   -4.0520028   -4.0520028   -2.8034903   0.01352573   -4.0520028    1.2485125      1024000 
  110000   0.93530744   -4.0517816   -4.0517816   -2.8045155 -0.0016300944   -4.0517816    1.2472661      1024000 
  111000   0.93567686   -4.0524425   -4.0524425   -2.8045107 0.0078331079   -4.0524425    1.2479318      1024000 
  112000   0.93577187   -4.0537534   -4.0537534   -2.8054666  0.012125768   -4.0537534    1.2482868      1024000 
  113000   0.93491217   -4.0525645   -4.0525645   -2.8052289 0.0072449389   -4.0525645    1.2473356      1024000 
  114000    0.9349878    -4.053104    -4.053104   -2.8054995  0.013624706    -4.053104    1.2476045      1024000 
  115000   0.93294176   -4.0521027   -4.0521027    -2.807013 0.0010660538   -4.0521027    1.2450897      1024000 
  116000   0.93131847   -4.0512394   -4.0512394   -2.8080986 0.0084830853   -4.0512394    1.2431408      1024000 
  117000   0.93054267   -4.0521896   -4.0521896   -2.8098495 0.00036836668   -4.0521896    1.2423401      1024000 
  118000   0.92984864   -4.0524471   -4.0524471   -2.8108213 0.0040174155   -4.0524471    1.2416259      1024000 
  119000   0.92997446    -4.052892    -4.052892   -2.8109007  0.013565522    -4.052892    1.2419913      1024000 
  120000   0.92953404   -4.0531979   -4.0531979   -2.8115674 0.0011668181   -4.0531979    1.2416305      1024000 
  121000   0.92832149   -4.0521804   -4.0521804   -2.8119824 0.0037914671   -4.0521804    1.2401981      1024000 
  122000    0.9290799   -4.0548092   -4.0548092   -2.8134154 0.0030527895   -4.0548092    1.2413937      1024000 
  123000   0.92804971   -4.0548992   -4.0548992   -2.8147221 -0.0050991403   -4.0548992     1.240177      1024000 
  124000    0.9277365   -4.0551532   -4.0551532   -2.8151175 -0.00018437793   -4.0551532    1.2400357      1024000 
  125000   0.92696627    -4.053654    -4.053654   -2.8144781 -0.0009747344    -4.053654    1.2391759      1024000 
  126000   0.92829297   -4.0564197   -4.0564197   -2.8152728 0.0010840465   -4.0564197    1.2411469      1024000 
  127000   0.92819621   -4.0564204   -4.0564204   -2.8151928 0.0017430008   -4.0564204    1.2412276      1024000 
  128000   0.92808983   -4.0568384   -4.0568384   -2.8155505 -0.003672113   -4.0568384     1.241288      1024000 
  129000   0.92772975   -4.0571399   -4.0571399   -2.8161659 0.00034660828   -4.0571399    1.2409739      1024000 
  130000   0.92876449   -4.0588676   -4.0588676   -2.8163342 -0.0013705839   -4.0588676    1.2425334      1024000 
  131000   0.92905149   -4.0591973   -4.0591973   -2.8160945 0.0047040069   -4.0591973    1.2431028      1024000 
  132000   0.92808993   -4.0589722   -4.0589722   -2.8169406 -0.0033523546   -4.0589722    1.2420316      1024000 
  133000   0.92787304   -4.0595806   -4.0595806   -2.8176589  0.001693351   -4.0595806    1.2419216      1024000 
  134000   0.92850539    -4.060386    -4.060386     -2.81744 0.0093849897    -4.060386     1.242946      1024000 
  135000   0.92741338   -4.0591356   -4.0591356   -2.8174886 0.0060615285   -4.0591356     1.241647      1024000 
  136000   0.92804809   -4.0610471   -4.0610471   -2.8183397 0.0073031984   -4.0610471    1.2427074      1024000 
  137000   0.92670008   -4.0606497   -4.0606497   -2.8195796 0.0099752991   -4.0606497    1.2410701      1024000 
  138000   0.92673742   -4.0609053   -4.0609053   -2.8196098 0.0056977062   -4.0609053    1.2412955      1024000 
  139000   0.92568971    -4.061723    -4.061723   -2.8216456 0.0095105649    -4.061723    1.2400773      1024000 
  140000   0.92639206   -4.0636755   -4.0636755   -2.8224594 9.3903488e-05   -4.0636755    1.2412162      1024000 
  141000   0.92618198   -4.0639113   -4.0639113   -2.8227887 0.0052562721   -4.0639113    1.2411226      1024000 
  142000   0.92527444   -4.0634353   -4.0634353   -2.8233986 0.0087219856   -4.0634353    1.2400367      1024000 
  143000   0.92361924   -4.0629277   -4.0629277   -2.8249543  0.014779898   -4.0629277    1.2379735      1024000 
  144000   0.92579888   -4.0666788   -4.0666788   -2.8256285 0.0047626599   -4.0666788    1.2410503      1024000 
  145000   0.92522091    -4.066759    -4.066759    -2.826303 0.0095434202    -4.066759     1.240456      1024000 
  146000   0.92488959    -4.066973    -4.066973   -2.8267257 0.0054397503    -4.066973    1.2402473      1024000 
  147000   0.92454653    -4.067106    -4.067106   -2.8271283 0.0020777513    -4.067106    1.2399777      1024000 
  148000   0.92428701   -4.0682462   -4.0682462   -2.8284387 0.0084916543   -4.0682462    1.2398075      1024000 
  149000    0.9239122   -4.0692761   -4.0692761   -2.8297784  0.011483332   -4.0692761    1.2394977      1024000 
  150000   0.92322112   -4.0683569   -4.0683569   -2.8295609 0.0079128256   -4.0683569     1.238796      1024000 
  151000   0.92343815   -4.0705305   -4.0705305    -2.831298  0.012397295   -4.0705305    1.2392325      1024000 
  152000   0.92198261   -4.0698732   -4.0698732   -2.8324213  0.012162652   -4.0698732    1.2374519      1024000 
  153000   0.92288517    -4.071084    -4.071084   -2.8322729  0.010783389    -4.071084    1.2388111      1024000 
  154000   0.92299833   -4.0715149   -4.0715149   -2.8323764 0.0067407146   -4.0715149    1.2391385      1024000 
  155000   0.92121458   -4.0700869   -4.0700869   -2.8331655 0.0098384559   -4.0700869    1.2369214      1024000 
  156000   0.92133046   -4.0721916   -4.0721916   -2.8349119 -0.0020410318   -4.0721916    1.2372798      1024000 
  157000   0.92066023   -4.0720771   -4.0720771   -2.8355347 0.0024953944   -4.0720771    1.2365424      1024000 
  158000   0.92105563   -4.0733591   -4.0733591   -2.8360853 -0.0019752008   -4.0733591    1.2372738      1024000 
  159000   0.92023176   -4.0729487   -4.0729487   -2.8365739  0.011412469   -4.0729487    1.2363748      1024000 
  160000   0.92075085   -4.0758423   -4.0758423   -2.8385747 -0.0015855671   -4.0758423    1.2372676      1024000 
  161000    0.9192552   -4.0743082   -4.0743082   -2.8388753 0.0095534404   -4.0743082    1.2354329      1024000 
  162000   0.92029012   -4.0761495   -4.0761495   -2.8391529  0.013922906   -4.0761495    1.2369966      1024000 
  163000    0.9196176   -4.0749444   -4.0749444    -2.838669 0.0056870855   -4.0749444    1.2362755      1024000 
  164000   0.91726916   -4.0728176   -4.0728176   -2.8394844 0.0046041092   -4.0728176    1.2333333      1024000 
  165000   0.91722398   -4.0751982   -4.0751982   -2.8417308  0.009723547   -4.0751982    1.2334674      1024000 
  166000   0.91829426   -4.0776089   -4.0776089   -2.8424869 0.0032569457   -4.0776089     1.235122      1024000 
  167000   0.91819247   -4.0774392   -4.0774392   -2.8422989 0.0089033542   -4.0774392    1.2351403      1024000 
  168000   0.91865749   -4.0790289   -4.0790289   -2.8430752 0.00096899151   -4.0790289    1.2359537      1024000 
  169000   0.91862566   -4.0791931   -4.0791931   -2.8431143 -0.0032728346   -4.0791931    1.2360788      1024000 
  170000   0.91757835   -4.0783939   -4.0783939   -2.8435341 0.0038914551   -4.0783939    1.2348599      1024000 
  171000   0.91696217   -4.0777789   -4.0777789   -2.8435805 0.0050023193   -4.0777789    1.2341983      1024000 
  172000   0.91804717   -4.0798628   -4.0798628   -2.8440663 0.0014837804   -4.0798628    1.2357966      1024000 
  173000   0.91548787   -4.0777608   -4.0777608   -2.8452569 0.0072623274   -4.0777608     1.232504      1024000 
  174000   0.91682489   -4.0801286   -4.0801286   -2.8456518 -0.00025036018   -4.0801286    1.2344768      1024000 
  175000   0.91713889   -4.0804431   -4.0804431   -2.8453932 0.0035741607   -4.0804431    1.2350499      1024000 
  176000   0.91575152   -4.0793518   -4.0793518   -2.8460025 0.0097594431   -4.0793518    1.2333493      1024000 
  177000   0.91610049   -4.0805273   -4.0805273   -2.8465427  0.015229634   -4.0805273    1.2339846      1024000 
  178000   0.91636452   -4.0822717   -4.0822717   -2.8477536 0.0049324165   -4.0822717    1.2345182      1024000 
  179000   0.91618499   -4.0819434   -4.0819434   -2.8475267 0.0028242191   -4.0819434    1.2344166      1024000 
  180000    0.9150121   -4.0804468   -4.0804468   -2.8474352 0.00038471425   -4.0804468    1.2330116      1024000 
  181000    0.9147976   -4.0808321   -4.0808321   -2.8479593 0.0083328396   -4.0808321    1.2328728      1024000 
  182000   0.91373348   -4.0805996   -4.0805996   -2.8489909 0.0056674908   -4.0805996    1.2316087      1024000 
  183000   0.91264067   -4.0804102   -4.0804102    -2.850082 0.0095282585   -4.0804102    1.2303282      1024000 
  184000   0.91318697   -4.0819665   -4.0819665   -2.8507267 0.0048943402   -4.0819665    1.2312397      1024000 
  185000   0.91442539   -4.0847084   -4.0847084   -2.8516161  0.003273386   -4.0847084    1.2330924      1024000 
  186000   0.91232633   -4.0821045   -4.0821045   -2.8516902    0.0113219   -4.0821045    1.2304143      1024000 
  187000     0.912599   -4.0817706   -4.0817706   -2.8507659 0.0094779823   -4.0817706    1.2310047      1024000 
  188000   0.91276506   -4.0828652   -4.0828652   -2.8514588   0.00279522   -4.0828652    1.2314064      1024000 
  189000   0.91204204   -4.0825789   -4.0825789   -2.8519728 0.0045493048   -4.0825789    1.2306061      1024000 
  190000   0.91009216   -4.0813809   -4.0813809   -2.8532609 0.0075323281   -4.0813809      1.22812      1024000 
  191000    0.9110989   -4.0833951   -4.0833951   -2.8537415  0.012556459   -4.0833951    1.2296536      1024000 
  192000   0.91136108   -4.0853607   -4.0853607   -2.8551806 -0.0029844571   -4.0853607    1.2301801      1024000 
  193000   0.91127883    -4.085649    -4.085649   -2.8554098 0.00029369821    -4.085649    1.2302392      1024000 
  194000   0.91147889   -4.0863272   -4.0863272   -2.8556652 -0.0027730416   -4.0863272     1.230662      1024000 
  195000   0.90917794   -4.0845856   -4.0845856   -2.8568704 0.0041983374   -4.0845856    1.2277152      1024000 
  196000   0.90987723   -4.0856434   -4.0856434   -2.8568139 -0.0076473258   -4.0856434    1.2288295      1024000 
  197000   0.90796201   -4.0850844   -4.0850844   -2.8587092 0.00074557643   -4.0850844    1.2263752      1024000 
  198000   0.90915744   -4.0872143   -4.0872143    -2.859077 0.0055775704   -4.0872143    1.2281373      1024000 
  199000   0.90771452   -4.0868788   -4.0868788   -2.8605134 -0.002040073   -4.0868788    1.2263654      1024000 
  200000   0.90905585   -4.0888852   -4.0888852   -2.8605276 -0.00070908983   -4.0888852    1.2283577      1024000 
  201000   0.90835143   -4.0877644   -4.0877644   -2.8601386 -0.0048881968   -4.0877644    1.2276258      1024000 
  202000   0.90723919   -4.0878297   -4.0878297   -2.8615298 0.0008871758   -4.0878297    1.2262999      1024000 
  203000   0.90938748   -4.0899669   -4.0899669   -2.8606053 0.0064734666   -4.0899669    1.2293615      1024000 
  204000   0.90800495   -4.0895498   -4.0895498   -2.8618947 -0.0045458205   -4.0895498    1.2276551      1024000 
  205000   0.90757948   -4.0893632   -4.0893632   -2.8621183  0.012388714   -4.0893632    1.2272449      1024000 
  206000   0.90836883   -4.0926172   -4.0926172   -2.8641097 0.0026499407   -4.0926172    1.2285075      1024000 
  207000   0.90691384     -4.09173     -4.09173   -2.8649953  0.011139694     -4.09173    1.2267347      1024000 
  208000   0.90745672   -4.0931793   -4.0931793   -2.8655376 0.0053544219   -4.0931793    1.2276417      1024000 
  209000   0.90798968   -4.0944355   -4.0944355    -2.865895  0.011014202   -4.0944355    1.2285405      1024000 
  210000   0.90863935   -4.0953395   -4.0953395    -2.865742  0.014215911   -4.0953395    1.2295976      1024000 
  211000   0.90751917   -4.0949353   -4.0949353   -2.8667134  0.010599989   -4.0949353    1.2282219      1024000 
  212000   0.90894761   -4.0980556   -4.0980556   -2.8677222 0.0044550932   -4.0980556    1.2303333      1024000 
  213000   0.90656906   -4.0957669   -4.0957669   -2.8685004  0.011237905   -4.0957669    1.2272665      1024000 
  214000   0.90594613   -4.0956571   -4.0956571   -2.8690538 -0.0073248634   -4.0956571    1.2266033      1024000 
  215000   0.90556522   -4.0957856   -4.0957856   -2.8695453 0.0073146602   -4.0957856    1.2262402      1024000 
  216000   0.90519201   -4.0956985   -4.0956985   -2.8698211  0.014742245   -4.0956985    1.2258774      1024000 
  217000   0.90574599   -4.0967636   -4.0967636   -2.8699782 0.0052034488   -4.0967636    1.2267854      1024000 
  218000   0.90598908   -4.0982399   -4.0982399   -2.8709173 0.0085389219   -4.0982399    1.2273226      1024000 
  219000   0.90606236   -4.0987981   -4.0987981   -2.8712234 0.0042875285   -4.0987981    1.2275747      1024000 
  220000   0.90426468   -4.0984588   -4.0984588   -2.8731671  0.009268434   -4.0984588    1.2252917      1024000 
  221000   0.90391284   -4.0981877   -4.0981877   -2.8732051  0.002315762   -4.0981877    1.2249826      1024000 
  222000   0.90357583   -4.0984677   -4.0984677   -2.8737718 0.0041515704   -4.0984677    1.2246959      1024000 
  223000   0.90435525   -4.1006915   -4.1006915   -2.8747438 0.0043108196   -4.1006915    1.2259477      1024000 
  224000   0.90378157   -4.1011374   -4.1011374   -2.8757948  0.011882167   -4.1011374    1.2253427      1024000 
  225000   0.90349469   -4.1006347   -4.1006347   -2.8755007 0.0010096073   -4.1006347    1.2251339      1024000 
  226000   0.90226357   -4.0998582   -4.0998582   -2.8762211 0.0016847333   -4.0998582    1.2236371      1024000 
  227000   0.90331525   -4.1020225   -4.1020225   -2.8768114 0.0039343746   -4.1020225    1.2252111      1024000 
  228000   0.90176807    -4.100688    -4.100688   -2.8774504 0.0047322167    -4.100688    1.2232376      1024000 
  229000   0.90111955   -4.0999657   -4.0999657   -2.8774279 0.0045366591   -4.0999657    1.2225378      1024000 
  230000   0.90202027   -4.1021189   -4.1021189   -2.8781964 -0.0031985395   -4.1021189    1.2239224      1024000 
  231000    0.9002697   -4.1003018   -4.1003018   -2.8785798 0.0014043363   -4.1003018     1.221722      1024000 
  232000   0.89960527   -4.0999672   -4.0999672   -2.8790095 0.00030488512   -4.0999672    1.2209577      1024000 
  233000   0.89938787   -4.0995039   -4.0995039   -2.8787015 -0.003155151   -4.0995039    1.2208024      1024000 
  234000     0.899372    -4.099168    -4.099168   -2.8782298 0.0017732002    -4.099168    1.2209382      1024000 
  235000   0.89983803   -4.1003044   -4.1003044   -2.8785986 0.00061723722   -4.1003044    1.2217058      1024000 
  236000   0.89958162   -4.1009597   -4.1009597   -2.8794445 0.0020842578   -4.1009597    1.2215152      1024000 
  237000   0.89890566     -4.10047     -4.10047   -2.8797179 0.0060030923     -4.10047    1.2207522      1024000 
  238000   0.89769111   -4.1002856   -4.1002856   -2.8810257 0.0062009255   -4.1002856    1.2192599      1024000 
  239000   0.89858355   -4.1009703   -4.1009703   -2.8803434 0.0021714735   -4.1009703     1.220627      1024000 
  240000    0.8988883   -4.1020891   -4.1020891   -2.8808482 0.0061644646   -4.1020891    1.2212409      1024000 
  241000   0.90019927   -4.1045194   -4.1045194   -2.8813472 0.0087118139   -4.1045194    1.2231723      1024000 
  242000   0.89787738   -4.1025594   -4.1025594   -2.8823697 0.00075401069   -4.1025594    1.2201897      1024000 
  243000   0.89852617   -4.1035124   -4.1035124   -2.8822734 -0.0028309375   -4.1035124     1.221239      1024000 
  244000   0.89845395   -4.1036368   -4.1036368   -2.8823584 0.0043757518   -4.1036368    1.2212784      1024000 
  245000   0.89820694    -4.104478    -4.104478   -2.8833703 0.0012629625    -4.104478    1.2211077      1024000 
  246000   0.89752453   -4.1039323   -4.1039323   -2.8835974 0.0092593433   -4.1039323     1.220335      1024000 
  247000    0.8987937   -4.1061148   -4.1061148   -2.8839314 -0.0039293338   -4.1061148    1.2221833      1024000 
  248000    0.8978954   -4.1052944   -4.1052944   -2.8841749 -0.0033163896   -4.1052944    1.2211195      1024000 
  249000   0.89856063   -4.1066871   -4.1066871   -2.8845277  0.015227295   -4.1066871    1.2221594      1024000 
  250000   0.89726283   -4.1068256   -4.1068256   -2.8862712 0.0032133633   -4.1068256    1.2205543      1024000 
  251000   0.89646934    -4.106642    -4.106642    -2.887007 0.0059116663    -4.106642    1.2196349      1024000 
  252000   0.89583767   -4.1069639   -4.1069639   -2.8880234 0.0062028737   -4.1069639    1.2189405      1024000 
  253000   0.89556226   -4.1072157   -4.1072157   -2.8884775 0.0010029691   -4.1072157    1.2187382      1024000 
  254000   0.89680483   -4.1099388   -4.1099388   -2.8893619 -0.0031546795   -4.1099388    1.2205768      1024000 
  255000    0.8948232   -4.1077619   -4.1077619   -2.8897122 0.0022991766   -4.1077619    1.2180496      1024000 
  256000   0.89574143     -4.10935     -4.10935   -2.8899104 0.0009017428     -4.10935    1.2194396      1024000 
  257000   0.89650416   -4.1107536   -4.1107536   -2.8901103  0.006617992   -4.1107536    1.2206433      1024000 
  258000   0.89478198   -4.1092722   -4.1092722   -2.8908463 0.00033362827   -4.1092722    1.2184259      1024000 
  259000    0.8955938   -4.1109645   -4.1109645   -2.8912855 0.0068182745   -4.1109645     1.219679      1024000 
  260000   0.89553539    -4.111172    -4.111172   -2.8914398 0.0084598084    -4.111172    1.2197322      1024000 
  261000   0.89521782   -4.1106387   -4.1106387   -2.8912014 0.0094715224   -4.1106387    1.2194373      1024000 
  262000   0.89569918   -4.1109377   -4.1109377   -2.8906969 0.0078804853   -4.1109377    1.2202407      1024000 
  263000   0.89501129   -4.1107122   -4.1107122   -2.8912384 0.0088566299   -4.1107122    1.2194739      1024000 
  264000   0.89593671   -4.1132681   -4.1132681    -2.892398 -0.001783846   -4.1132681    1.2208701      1024000 
  265000   0.89477386   -4.1122852   -4.1122852   -2.8928494  0.014536493   -4.1122852    1.2194358      1024000 
  266000   0.89337597    -4.111047    -4.111047   -2.8933863 0.0029173521    -4.111047    1.2176607      1024000 
  267000   0.89302437   -4.1116326   -4.1116326   -2.8942936 -0.0049123343   -4.1116326     1.217339      1024000 
  268000   0.89298708   -4.1124936   -4.1124936   -2.8950928 -0.0059862952   -4.1124936    1.2174007      1024000 
  269000    0.8917866   -4.1109293   -4.1109293   -2.8950253 0.00081443412   -4.1109293     1.215904      1024000 
  270000   0.89223352   -4.1131326   -4.1131326   -2.8964393 0.0021363089   -4.1131326    1.2166933      1024000 
  271000   0.89310089   -4.1143947   -4.1143947   -2.8963383 0.0019104755   -4.1143947    1.2180563      1024000 
  272000   0.89339163   -4.1146733   -4.1146733   -2.8961153 0.00067956763   -4.1146733     1.218558      1024000 
  273000   0.89081079   -4.1123161   -4.1123161   -2.8971509 -0.0018045223   -4.1123161    1.2151652      1024000 
  274000   0.89059706   -4.1129322   -4.1129322   -2.8979312 0.0072151076   -4.1129322    1.2150011      1024000 
  275000   0.89054188    -4.112745    -4.112745   -2.8976893 0.0030557442    -4.112745    1.2150557      1024000 
  276000   0.88988274   -4.1125387   -4.1125387    -2.898255 0.0077586063   -4.1125387    1.2142837      1024000 
  277000   0.89061224   -4.1143701   -4.1143701   -2.8989685 -0.0033557193   -4.1143701    1.2154016      1024000 
  278000   0.89076986   -4.1136013   -4.1136013   -2.8978396 0.0048980951   -4.1136013    1.2157617      1024000 
  279000   0.89092189   -4.1139574   -4.1139574   -2.8978482 0.0067574677   -4.1139574    1.2161092      1024000 
  280000   0.89048501   -4.1142537   -4.1142537   -2.8986233 0.0056505214   -4.1142537    1.2156304      1024000 
  281000   0.88902779   -4.1125436   -4.1125436   -2.8987452 0.0094694073   -4.1125436    1.2137984      1024000 
  282000    0.8907217   -4.1149015   -4.1149015   -2.8986702  0.006490559   -4.1149015    1.2162312      1024000 
  283000   0.89031322   -4.1149107   -4.1149107   -2.8990896 0.0089886365   -4.1149107    1.2158211      1024000 
  284000   0.89037904   -4.1161409   -4.1161409   -2.9000648 0.0056504478   -4.1161409    1.2160761      1024000 
  285000   0.88987992   -4.1162039   -4.1162039   -2.9006444 0.0061113566   -4.1162039    1.2155596      1024000 
  286000   0.89046334   -4.1178056   -4.1178056   -2.9013014 0.0062057032   -4.1178056    1.2165042      1024000 
  287000   0.88941455   -4.1170893   -4.1170893   -2.9018652   0.01153999   -4.1170893     1.215224      1024000 
  288000   0.88830136    -4.118235    -4.118235    -2.904342 0.0094973192    -4.118235     1.213893      1024000 
  289000   0.88688514   -4.1165409   -4.1165409   -2.9044259 0.0065417096   -4.1165409     1.212115      1024000 
  290000   0.88634082   -4.1171349   -4.1171349   -2.9056016 0.0012959124   -4.1171349    1.2115332      1024000 
  291000   0.88586502   -4.1172493   -4.1172493   -2.9062043  0.007522375   -4.1172493     1.211045      1024000 
  292000   0.88719669   -4.1201589   -4.1201589   -2.9071085 -0.0021665403   -4.1201589    1.2130504      1024000 
  293000   0.88726086   -4.1198029   -4.1198029   -2.9064698   0.00604671   -4.1198029    1.2133331      1024000 
  294000   0.88696409   -4.1205388   -4.1205388    -2.907474 8.9284471e-05   -4.1205388    1.2130648      1024000 
  295000   0.88673766   -4.1223358   -4.1223358   -2.9095007 -0.0022068235   -4.1223358    1.2128351      1024000 
  296000   0.88597565   -4.1218997   -4.1218997    -2.909987 0.00037900429   -4.1218997    1.2119128      1024000 
  297000   0.88540844   -4.1207052   -4.1207052    -2.909431 0.0086563062   -4.1207052    1.2112742      1024000 
  298000   0.88711102   -4.1223243   -4.1223243   -2.9085732  0.004147379   -4.1223243     1.213751      1024000 
  299000   0.88513584   -4.1198648   -4.1198648   -2.9086689 0.0027250126   -4.1198648    1.2111959      1024000 
  300000   0.88629257   -4.1211645   -4.1211645   -2.9082107  0.011908984   -4.1211645    1.2129538      1024000 
  301000   0.88544897   -4.1215937   -4.1215937   -2.9096495 -0.0076941441   -4.1215937    1.2119443      1024000 
  302000   0.88403702   -4.1211469   -4.1211469    -2.911008 0.0051155163   -4.1211469     1.210139      1024000 
  303000   0.88524045   -4.1236483   -4.1236483   -2.9117245 0.0041222997   -4.1236483    1.2119238      1024000 
  304000   0.88573348    -4.124785    -4.124785   -2.9120736 0.0020160288    -4.124785    1.2127114      1024000 
  305000   0.88411799   -4.1236162   -4.1236162   -2.9129568 0.0054611713   -4.1236162    1.2106594      1024000 
  306000   0.88381067   -4.1234736   -4.1234736   -2.9130927  0.011622131   -4.1234736    1.2103809      1024000 
  307000   0.88517816   -4.1251905   -4.1251905   -2.9127892 0.0056965564   -4.1251905    1.2124013      1024000 
  308000   0.88473143   -4.1251103   -4.1251103   -2.9131508 0.0024687298   -4.1251103    1.2119595      1024000 
  309000   0.88317294   -4.1238565   -4.1238565   -2.9138845  0.014233002   -4.1238565     1.209972      1024000 
  310000   0.88503099   -4.1262301   -4.1262301   -2.9135724  0.011926088   -4.1262301    1.2126578      1024000 
  311000   0.88401333   -4.1249769   -4.1249769   -2.9135685 0.0077437133   -4.1249769    1.2114085      1024000 
  312000   0.88388595   -4.1252356   -4.1252356   -2.9138767   0.01162244   -4.1252356     1.211359      1024000 
  313000   0.88254425   -4.1252014   -4.1252014   -2.9155163 0.0022624702   -4.1252014    1.2096851      1024000 
  314000    0.8829946   -4.1262259   -4.1262259    -2.915771 0.0065589882   -4.1262259    1.2104549      1024000 
  315000   0.88208413   -4.1251144   -4.1251144   -2.9157652 0.0026218581   -4.1251144    1.2093492      1024000 
  316000     0.882835   -4.1270615   -4.1270615   -2.9165528 0.0080995723   -4.1270615    1.2105087      1024000 
  317000   0.88184874   -4.1246461   -4.1246461   -2.9153573 0.0049187998   -4.1246461    1.2092888      1024000 
  318000   0.88331099   -4.1277923   -4.1277923   -2.9163456  0.004798775   -4.1277923    1.2114467      1024000 
  319000   0.88184783   -4.1268125   -4.1268125   -2.9172225 -0.010203396   -4.1268125      1.20959      1024000 
  320000   0.88163639   -4.1269678   -4.1269678   -2.9174828 0.0070946906   -4.1269678    1.2094849      1024000 
  321000   0.88079894   -4.1267703   -4.1267703   -2.9182968 0.00071561445   -4.1267703    1.2084735      1024000 
  322000    0.8815156   -4.1279018   -4.1279018   -2.9182975 -0.0041364041   -4.1279018    1.2096043      1024000 
  323000   0.88021098   -4.1272425   -4.1272425   -2.9192785  0.010905841   -4.1272425     1.207964      1024000 
  324000   0.88092241   -4.1277613   -4.1277613   -2.9186959 -0.00016473659   -4.1277613    1.2090653      1024000 
  325000   0.87920771   -4.1264537   -4.1264537   -2.9196095 0.00013072425   -4.1264537    1.2068442      1024000 
  326000   0.87890686   -4.1267431   -4.1267431   -2.9201597 -0.0044114311   -4.1267431    1.2065835      1024000 
  327000   0.87763241   -4.1268018   -4.1268018   -2.9218632 0.00036369534   -4.1268018    1.2049386      1024000 
  328000   0.87765507   -4.1277345   -4.1277345   -2.9226277 0.00074647527   -4.1277345    1.2051068      1024000 
  329000   0.87764372   -4.1279083   -4.1279083   -2.9226525 0.0042544202   -4.1279083    1.2052558      1024000 
  330000   0.87587593   -4.1266564   -4.1266564   -2.9236665 0.0014710168   -4.1266564      1.20299      1024000 
  331000   0.87575199   -4.1275198   -4.1275198   -2.9245681 -0.0039288043   -4.1275198    1.2029517      1024000 
  332000   0.87542048    -4.127655    -4.127655   -2.9250043 0.0044920818    -4.127655    1.2026507      1024000 
  333000   0.87677309   -4.1307832   -4.1307832   -2.9261397 -0.011660405   -4.1307832    1.2046435      1024000 
  334000   0.87678578   -4.1317244   -4.1317244   -2.9269337 0.0020891924   -4.1317244    1.2047907      1024000 
  335000   0.87642807   -4.1311559   -4.1311559   -2.9266922 -0.0031225099   -4.1311559    1.2044638      1024000 
  336000    0.8757219   -4.1303265   -4.1303265   -2.9267061 0.0051750855   -4.1303265    1.2036204      1024000 
  337000   0.87677666   -4.1322092   -4.1322092   -2.9270268 0.0026515326   -4.1322092    1.2051824      1024000 
  338000   0.87648338   -4.1327648   -4.1327648   -2.9278582 -0.0011016943   -4.1327648    1.2049066      1024000 
  339000    0.8759112   -4.1316716   -4.1316716   -2.9274169 -0.0032957914   -4.1316716    1.2042547      1024000 
  340000    0.8771911    -4.133652    -4.133652   -2.9274902 0.0008087709    -4.133652    1.2061618      1024000 
  341000    0.8772556   -4.1344306   -4.1344306   -2.9280301  0.005761274   -4.1344306    1.2064005      1024000 
  342000   0.87741772   -4.1350578   -4.1350578   -2.9283143 0.0076293468   -4.1350578    1.2067435      1024000 
  343000   0.87600343    -4.133762    -4.133762   -2.9287988  0.006836363    -4.133762    1.2049632      1024000 
  344000   0.87840223   -4.1378866   -4.1378866   -2.9295261 -0.002679917   -4.1378866    1.2083605      1024000 
  345000   0.87665048   -4.1371966   -4.1371966   -2.9310908 0.0023982108   -4.1371966    1.2061057      1024000 
  346000   0.87713909    -4.138196    -4.138196   -2.9313029  0.013002737    -4.138196    1.2068931      1024000 
  347000    0.8760255   -4.1377126   -4.1377126   -2.9321968  0.012261934   -4.1377126    1.2055158      1024000 
  348000   0.87519414   -4.1372642   -4.1372642   -2.9327926  0.012003924   -4.1372642    1.2044717      1024000 
  349000    0.8763426   -4.1390237   -4.1390237   -2.9328214 0.0028217156   -4.1390237    1.2062023      1024000 
  350000   0.87508499   -4.1388168   -4.1388168   -2.9342031 0.0060641185   -4.1388168    1.2046137      1024000 
  351000   0.87344569   -4.1381432   -4.1381432   -2.9356115 -0.00088864286   -4.1381432    1.2025317      1024000 
  352000   0.87372656   -4.1394743   -4.1394743   -2.9363912  0.005160616   -4.1394743    1.2030832      1024000 
  353000   0.87384232   -4.1403758   -4.1403758   -2.9370009 -0.003477693   -4.1403758    1.2033749      1024000 
  354000   0.87489125   -4.1426561   -4.1426561   -2.9377092 -0.0069227289   -4.1426561    1.2049469      1024000 
  355000   0.87313793   -4.1409447   -4.1409447   -2.9382802  0.016261322   -4.1409447    1.2026644      1024000 
  356000   0.87407208   -4.1421514   -4.1421514   -2.9380828  0.005705854   -4.1421514    1.2040686      1024000 
  357000   0.87371312   -4.1423905   -4.1423905    -2.938704 0.0050075288   -4.1423905    1.2036866      1024000 
  358000   0.87454187    -4.144197    -4.144197   -2.9392512 0.0061236906    -4.144197    1.2049459      1024000 
  359000   0.87385123   -4.1432441   -4.1432441   -2.9391273 0.0060717373   -4.1432441    1.2041168      1024000 
  360000   0.87346146   -4.1424537   -4.1424537    -2.938744 0.0047992239   -4.1424537    1.2037097      1024000 
  361000   0.87265458   -4.1433125   -4.1433125   -2.9405499 0.0014080887   -4.1433125    1.2027626      1024000 
  362000   0.87261727   -4.1446005   -4.1446005   -2.9417644 0.0057905328   -4.1446005    1.2028361      1024000 
  363000   0.87149965   -4.1445907   -4.1445907   -2.9431778  0.001429075   -4.1445907    1.2014128      1024000 
  364000    0.8709888   -4.1439368   -4.1439368   -2.9431134 -0.005185129   -4.1439368    1.2008233      1024000 
  365000   0.87070498   -4.1438476   -4.1438476   -2.9433083 -0.0031584544   -4.1438476    1.2005393      1024000 
  366000   0.87130027   -4.1446595   -4.1446595   -2.9431896 0.0053675885   -4.1446595    1.2014699      1024000 
  367000   0.87066745   -4.1447336   -4.1447336   -2.9440091 -0.0047579872   -4.1447336    1.2007246      1024000 
  368000   0.87110278   -4.1454154   -4.1454154   -2.9439781 0.0035865688   -4.1454154    1.2014373      1024000 
  369000   0.86804185   -4.1425557   -4.1425557   -2.9451983   0.01655695   -4.1425557    1.1973574      1024000 
  370000   0.87041329   -4.1449686   -4.1449686   -2.9442352 0.0039526148   -4.1449686    1.2007334      1024000 
  371000   0.87267551   -4.1485719   -4.1485719   -2.9445902 0.0070201959   -4.1485719    1.2039817      1024000 
  372000   0.87056025    -4.146056    -4.146056   -2.9448652 0.0082986245    -4.146056    1.2011908      1024000 
  373000   0.87048286    -4.146118    -4.146118   -2.9449066 -0.00018963787    -4.146118    1.2012114      1024000 
  374000   0.87067916   -4.1472247   -4.1472247   -2.9456274  0.014112973   -4.1472247    1.2015972      1024000 
  375000   0.87205673   -4.1501385   -4.1501385      -2.9465 0.0045528288   -4.1501385    1.2036385      1024000 
  376000   0.86995539   -4.1482571   -4.1482571   -2.9473241 -0.0024604367   -4.1482571     1.200933      1024000 
  377000   0.86807147   -4.1457317   -4.1457317   -2.9472547  0.014040031   -4.1457317     1.198477      1024000 
  378000   0.86866774   -4.1458738   -4.1458738   -2.9464663  0.010032726   -4.1458738    1.1994075      1024000 
  379000   0.86867821   -4.1466411   -4.1466411   -2.9470994 0.0012806775   -4.1466411    1.1995417      1024000 
  380000   0.86756937    -4.146058    -4.146058   -2.9479302 0.00062342209    -4.146058    1.1981277      1024000 
  381000     0.868461   -4.1469616   -4.1469616   -2.9474852  0.008717679   -4.1469616    1.1994764      1024000 
  382000   0.86924492   -4.1473527   -4.1473527   -2.9466811  0.014387755   -4.1473527    1.2006716      1024000 
  383000   0.86884404   -4.1481648   -4.1481648   -2.9479245 0.0059659402   -4.1481648    1.2002403      1024000 
  384000   0.86939812   -4.1501841   -4.1501841   -2.9490784 0.0064994238   -4.1501841    1.2011057      1024000 
  385000   0.86958019   -4.1501451   -4.1501451   -2.9486603 0.0038952923   -4.1501451    1.2014848      1024000 
  386000   0.86835598   -4.1482635   -4.1482635   -2.9483603 0.0080798115   -4.1482635    1.1999033      1024000 
  387000   0.86671023   -4.1473426   -4.1473426   -2.9495813 -0.0018086832   -4.1473426    1.1977613      1024000 
  388000   0.86716629   -4.1482475   -4.1482475   -2.9497212 0.0054606661   -4.1482475    1.1985264      1024000 
  389000   0.86740396   -4.1495262   -4.1495262    -2.950584 0.0012153367   -4.1495262    1.1989422      1024000 
  390000   0.86541933   -4.1485384   -4.1485384   -2.9522422 0.0076666499   -4.1485384    1.1962962      1024000 
  391000   0.86569609   -4.1485315   -4.1485315   -2.9517355 0.0050308776   -4.1485315     1.196796      1024000 
  392000   0.86594433   -4.1499384   -4.1499384   -2.9526221 -0.012261697   -4.1499384    1.1973163      1024000 
  393000   0.86519887   -4.1493575   -4.1493575   -2.9529623 -0.0098327633   -4.1493575    1.1963952      1024000 
  394000   0.86403945   -4.1483121   -4.1483121    -2.953418 0.0010785071   -4.1483121    1.1948941      1024000 
  395000    0.8660528   -4.1501798   -4.1501798   -2.9523442 -0.0031629152   -4.1501798    1.1978356      1024000 
  396000   0.86611463   -4.1498815   -4.1498815   -2.9518131 -0.0027397723   -4.1498815    1.1980685      1024000 
  397000    0.8660956   -4.1496477   -4.1496477   -2.9514707 0.0028491208   -4.1496477     1.198177      1024000 
  398000   0.86681944   -4.1516818   -4.1516818   -2.9523309 0.0019963554   -4.1516818    1.1993509      1024000 
  399000   0.86477673   -4.1490954   -4.1490954   -2.9524486 0.0068052483   -4.1490954    1.1966468      1024000 
  400000   0.86621238   -4.1522701   -4.1522701   -2.9534916  0.010643927   -4.1522701    1.1987784      1024000 
  401000   0.86636468   -4.1524876   -4.1524876   -2.9533809  0.006802404   -4.1524876    1.1991067      1024000 
  402000   0.86544728   -4.1505673   -4.1505673   -2.9526254  0.022499053   -4.1505673    1.1979419      1024000 
  403000   0.86599952   -4.1518898   -4.1518898   -2.9530585 0.0051955191   -4.1518898    1.1988313      1024000 
  404000   0.86440209   -4.1511538   -4.1511538   -2.9544215  0.002108509   -4.1511538    1.1967323      1024000 
  405000   0.86503924   -4.1526552   -4.1526552   -2.9548909 0.0014914156   -4.1526552    1.1977643      1024000 
  406000   0.86410117   -4.1511966   -4.1511966   -2.9545913 0.0040338928   -4.1511966    1.1966053      1024000 
  407000   0.86431597   -4.1526931   -4.1526931   -2.9556579  0.015920872   -4.1526931    1.1970351      1024000 
  408000   0.86372002   -4.1519966   -4.1519966    -2.955647  0.010008359   -4.1519966    1.1963496      1024000 
  409000   0.86349174   -4.1511448   -4.1511448   -2.9549741 0.0065845065   -4.1511448    1.1961707      1024000 
  410000   0.86343703   -4.1525352   -4.1525352    -2.956288  0.011186271   -4.1525352    1.1962472      1024000 
  411000   0.86437241   -4.1546615   -4.1546615   -2.9569983 0.0016250463   -4.1546615    1.1976632      1024000 
  412000   0.86275912   -4.1527248   -4.1527248   -2.9571323  0.002587084   -4.1527248    1.1955926      1024000 
  413000   0.86370479   -4.1537933   -4.1537933   -2.9567678  0.019303568   -4.1537933    1.1970256      1024000 
  414000     0.862672   -4.1535639   -4.1535639   -2.9578274 0.0019566395   -4.1535639    1.1957365      1024000 
  415000   0.86220594   -4.1541246   -4.1541246   -2.9589217  0.010788955   -4.1541246    1.1952029      1024000 
  416000   0.86362941   -4.1552851   -4.1552851   -2.9579989  0.011261808   -4.1552851    1.1972862      1024000 
  417000   0.86235111   -4.1542606   -4.1542606   -2.9586417 -0.0013814856   -4.1542606    1.1956189      1024000 
  418000   0.86324404   -4.1548059   -4.1548059   -2.9578164 0.00077245383   -4.1548059    1.1969895      1024000 
  419000   0.86300514   -4.1563698   -4.1563698   -2.9595916 0.0019832334   -4.1563698    1.1967782      1024000 
  420000   0.86265698    -4.155108    -4.155108   -2.9586726 -0.0030768913    -4.155108    1.1964354      1024000 
  421000   0.86208108   -4.1538726   -4.1538726   -2.9581084 0.0010942074   -4.1538726    1.1957642      1024000 
  422000    0.8606567   -4.1532886   -4.1532886   -2.9593754 0.00060012408   -4.1532886    1.1939132      1024000 
  423000   0.86047293   -4.1546216   -4.1546216    -2.960846 -0.004546589   -4.1546216    1.1937756      1024000 
  424000   0.86070937   -4.1546337   -4.1546337   -2.9603953 0.0034916831   -4.1546337    1.1942384      1024000 
  425000   0.85991092   -4.1543322   -4.1543322   -2.9610768 -0.015753794   -4.1543322    1.1932553      1024000 
  426000   0.86067188   -4.1558718   -4.1558718   -2.9613982 -0.0026630337   -4.1558718    1.1944736      1024000 
  427000   0.85849859   -4.1543054   -4.1543054   -2.9627383 0.0022886796   -4.1543054    1.1915671      1024000 
  428000   0.86029086    -4.156533    -4.156533   -2.9623509 -0.0017996635    -4.156533    1.1941821      1024000 
  429000   0.85913606   -4.1557538   -4.1557538   -2.9630175 0.0039566007   -4.1557538    1.1927363      1024000 
  430000   0.85815294    -4.153969    -4.153969   -2.9624929 0.0048259552    -4.153969    1.1914761      1024000 
  431000   0.85981117   -4.1554069   -4.1554069   -2.9615261 0.00083756692   -4.1554069    1.1938808      1024000 
  432000   0.85904731   -4.1558967   -4.1558967   -2.9629717 0.0035007464   -4.1558967     1.192925      1024000 
  433000   0.85993333   -4.1581775   -4.1581775   -2.9638921  -0.00778494   -4.1581775    1.1942854      1024000 
  434000   0.85834928   -4.1562477   -4.1562477     -2.96403 0.00089740422   -4.1562477    1.1922176      1024000 
  435000   0.85841181   -4.1559381   -4.1559381   -2.9635288 0.0029415231   -4.1559381    1.1924093      1024000 
  436000   0.85864866   -4.1569913   -4.1569913   -2.9640932 -0.0095661404   -4.1569913    1.1928981      1024000 
  437000   0.85937609   -4.1583847   -4.1583847   -2.9643385 -0.00054195377   -4.1583847    1.1940462      1024000 
  438000   0.85879397   -4.1589087   -4.1589087   -2.9655439 0.0030239313   -4.1589087    1.1933648      1024000 
  439000   0.85870859   -4.1598288   -4.1598288   -2.9664802 0.0012598464   -4.1598288    1.1933486      1024000 
  440000   0.85816846    -4.158856    -4.158856   -2.9661181 -0.0091309927    -4.158856    1.1927379      1024000 
  441000   0.85713907   -4.1585221   -4.1585221   -2.9671375 -0.0036982479   -4.1585221    1.1913845      1024000 
  442000   0.85719239   -4.1587413   -4.1587413   -2.9672028 -0.0013401932   -4.1587413    1.1915385      1024000 
  443000   0.85598582   -4.1574688   -4.1574688   -2.9674978  0.005565731   -4.1574688     1.189971      1024000 
  444000   0.85680825   -4.1605032   -4.1605032   -2.9692442 -0.0058360197   -4.1605032    1.1912591      1024000 
  445000   0.85639714   -4.1605725   -4.1605725   -2.9697378 0.0056750228   -4.1605725    1.1908347      1024000 
  446000   0.85738823   -4.1619784   -4.1619784   -2.9696531 0.0078553473   -4.1619784    1.1923252      1024000 
  447000   0.85665018   -4.1605009   -4.1605009   -2.9690672 0.0097456279   -4.1605009    1.1914337      1024000 
  448000   0.85715417   -4.1629207   -4.1629207   -2.9706736 0.0087822875   -4.1629207    1.1922471      1024000 
  449000   0.85822187   -4.1639675   -4.1639675   -2.9701202 0.0033284895   -4.1639675    1.1938473      1024000 
  450000   0.85654918   -4.1624186   -4.1624186   -2.9707782  0.014449779   -4.1624186    1.1916404      1024000 
  451000   0.85788498   -4.1656364   -4.1656364   -2.9720001 -0.00093495759   -4.1656364    1.1936364      1024000 
  452000   0.85632384   -4.1626153   -4.1626153   -2.9710411 0.0040175133   -4.1626153    1.1915742      1024000 
  453000    0.8580093   -4.1658351   -4.1658351   -2.9717829  0.011963135   -4.1658351    1.1940522      1024000 
  454000   0.85747725   -4.1650099   -4.1650099    -2.971593 0.0086898351   -4.1650099    1.1934169      1024000 
  455000   0.85662962   -4.1633312   -4.1633312    -2.970994 0.0048882035   -4.1633312    1.1923372      1024000 
  456000   0.85616399    -4.164442    -4.164442   -2.9726404 0.0050740245    -4.164442    1.1918016      1024000 
  457000   0.85521844   -4.1643796   -4.1643796   -2.9737693 0.0023232843   -4.1643796    1.1906102      1024000 
  458000   0.85533514   -4.1640333   -4.1640333   -2.9731582 0.0051454525   -4.1640333    1.1908751      1024000 
  459000   0.85484823   -4.1642729   -4.1642729   -2.9739433 0.0032875185   -4.1642729    1.1903296      1024000 
  460000   0.85579229   -4.1649058   -4.1649058   -2.9731692 0.0040471476   -4.1649058    1.1917366      1024000 
  461000   0.85423338   -4.1637414   -4.1637414   -2.9740483 -0.0070377177   -4.1637414    1.1896931      1024000 
  462000    0.8543991   -4.1631759   -4.1631759   -2.9731321   0.01156971   -4.1631759    1.1900438      1024000 
  463000   0.85420566   -4.1644682   -4.1644682   -2.9745814 -0.0014607316   -4.1644682    1.1898867      1024000 
  464000   0.85394326   -4.1639339   -4.1639339   -2.9742928  0.013191052   -4.1639339    1.1896411      1024000 
  465000   0.85471235   -4.1644736   -4.1644736   -2.9736236 0.0079984141   -4.1644736      1.19085      1024000 
  466000   0.85311709   -4.1631518   -4.1631518   -2.9744046 -0.0013034761   -4.1631518    1.1887472      1024000 
  467000   0.85331349   -4.1637671   -4.1637671   -2.9746514 0.0062914944   -4.1637671    1.1891157      1024000 
  468000   0.85279615   -4.1626339   -4.1626339   -2.9741143 0.0010983414   -4.1626339    1.1885196      1024000 
  469000    0.8529676   -4.1641527   -4.1641527   -2.9752594 0.0029296608   -4.1641527    1.1888934      1024000 
  470000   0.85256085   -4.1633643   -4.1633643   -2.9749455 -0.00087098753   -4.1633643    1.1884188      1024000 
  471000   0.85144548   -4.1629821   -4.1629821   -2.9759959 -0.00080228712   -4.1629821    1.1869862      1024000 
  472000   0.85036554   -4.1625633   -4.1625633    -2.976973 -0.00089372485   -4.1625633    1.1855902      1024000 
  473000   0.84986754   -4.1630008   -4.1630008   -2.9779879 -0.0015824015   -4.1630008    1.1850129      1024000 
  474000    0.8509138   -4.1648227   -4.1648227   -2.9782537 -0.0096319857   -4.1648227     1.186569      1024000 
  475000   0.85134308   -4.1654592   -4.1654592   -2.9781618 -0.0042343524   -4.1654592    1.1872974      1024000 
  476000   0.85173602   -4.1654204   -4.1654204   -2.9774502 -0.0022497173   -4.1654204    1.1879702      1024000 
  477000   0.85044499   -4.1642094   -4.1642094   -2.9779027 0.0040421618   -4.1642094    1.1863067      1024000 
  478000   0.85158465   -4.1668325   -4.1668325   -2.9788013 -0.0044309644   -4.1668325    1.1880313      1024000 
  479000   0.85178012   -4.1661524   -4.1661524   -2.9777285 -0.0040775752   -4.1661524    1.1884239      1024000 
  480000   0.85059711   -4.1654422   -4.1654422   -2.9785641 -0.0080990674   -4.1654422    1.1868781      1024000 
  481000   0.85056477   -4.1656982   -4.1656982   -2.9787554 0.00031057185   -4.1656982    1.1869428      1024000 
  482000     0.852211   -4.1686616   -4.1686616   -2.9793364 -0.0052839446   -4.1686616    1.1893251      1024000 
  483000   0.84988819   -4.1651287   -4.1651287    -2.978933  0.002041201   -4.1651287    1.1861957      1024000 
  484000   0.84919365   -4.1655826   -4.1655826   -2.9802142  0.006773137   -4.1655826    1.1853685      1024000 
  485000   0.85055656   -4.1677401   -4.1677401   -2.9803319 -0.0080950213   -4.1677401    1.1874083      1024000 
  486000   0.85027026   -4.1666306   -4.1666306   -2.9795071 -0.0001927019   -4.1666306    1.1871235      1024000 
  487000   0.85056705   -4.1677482   -4.1677482   -2.9800904 0.0035399204   -4.1677482    1.1876578      1024000 
  488000   0.84968947   -4.1664255   -4.1664255   -2.9798608   0.01322927   -4.1664255    1.1865647      1024000 
  489000   0.84972722   -4.1680111   -4.1680111   -2.9812813 0.0013596763   -4.1680111    1.1867298      1024000 
  490000   0.85123206   -4.1702297   -4.1702297   -2.9812931  0.010460946   -4.1702297    1.1889366      1024000 
  491000   0.85025721   -4.1706678   -4.1706678   -2.9829654 0.0058101611   -4.1706678    1.1877025      1024000 
  492000   0.85119449   -4.1729669   -4.1729669   -2.9838625 0.00045700504   -4.1729669    1.1891043      1024000 
  493000   0.85016202   -4.1722139   -4.1722139   -2.9844369 0.0081558887   -4.1722139     1.187777      1024000 
  494000   0.84907473   -4.1708581   -4.1708581   -2.9844903 0.0090358547   -4.1708581    1.1863678      1024000 
  495000   0.84758045   -4.1695329   -4.1695329   -2.9851757 0.0014890447   -4.1695329    1.1843573      1024000 
  496000   0.84836426   -4.1707585   -4.1707585   -2.9851762 0.0088738444   -4.1707585    1.1855823      1024000 
  497000   0.84811361   -4.1714488   -4.1714488   -2.9860895 0.0058792393   -4.1714488    1.1853594      1024000 
  498000   0.84797617   -4.1719351   -4.1719351    -2.986608  0.010014421   -4.1719351     1.185327      1024000 
  499000   0.84765792   -4.1707886   -4.1707886   -2.9857791 -0.0023284519   -4.1707886    1.1850095      1024000 
  500000    0.8490997   -4.1732159   -4.1732159   -2.9860733   0.01029183   -4.1732159    1.1871426      1024000 
  501000   0.84872316   -4.1734198   -4.1734198   -2.9866887 0.0096206623   -4.1734198    1.1867312      1024000 
  502000   0.84980184   -4.1739078   -4.1739078   -2.9855206  0.010483572   -4.1739078    1.1883872      1024000 
  503000   0.84794132   -4.1728382   -4.1728382   -2.9869129 0.0053142183   -4.1728382    1.1859253      1024000 
  504000   0.84876222   -4.1744073   -4.1744073   -2.9872213  0.001483059   -4.1744073     1.187186      1024000 
  505000   0.84723758    -4.172243    -4.172243   -2.9870497  0.014878888    -4.172243    1.1851934      1024000 
  506000   0.84736794   -4.1713537   -4.1713537   -2.9859155  0.016881191   -4.1713537    1.1854382      1024000 
  507000   0.84821735   -4.1729216   -4.1729216   -2.9861775 0.0065166762   -4.1729216    1.1867441      1024000 
  508000   0.84737867   -4.1706675   -4.1706675   -2.9849593 0.0037695161   -4.1706675    1.1857082      1024000 
  509000   0.84632564   -4.1703883   -4.1703883   -2.9860362 -0.0010828078   -4.1703883    1.1843521      1024000 
  510000   0.84493465   -4.1689907   -4.1689907    -2.986453  0.018095906   -4.1689907    1.1825377      1024000 
  511000   0.84620523   -4.1707571   -4.1707571   -2.9863113 -0.0027948849   -4.1707571    1.1844458      1024000 
  512000   0.84480405   -4.1701295   -4.1701295   -2.9875152 0.0050379085   -4.1701295    1.1826143      1024000 
  513000   0.84425496   -4.1702203   -4.1702203   -2.9882675 0.0012957855   -4.1702203    1.1819529      1024000 
  514000   0.84614883   -4.1716008   -4.1716008   -2.9868866 0.0031092978   -4.1716008    1.1847142      1024000 
  515000   0.84507587   -4.1701096   -4.1701096   -2.9867853 -0.00025697519   -4.1701096    1.1833243      1024000 
  516000   0.84612893   -4.1719501   -4.1719501   -2.9870637 0.0033537236   -4.1719501    1.1848864      1024000 
  517000   0.84507002   -4.1701533   -4.1701533   -2.9866449 0.0050500899   -4.1701533    1.1835084      1024000 
  518000   0.84430847   -4.1704291   -4.1704291   -2.9878675 0.0025897238   -4.1704291    1.1825617      1024000 
  519000   0.84495445   -4.1719216   -4.1719216   -2.9883228 0.0009633352   -4.1719216    1.1835988      1024000 
  520000   0.84599032   -4.1732736   -4.1732736   -2.9881212 -0.0055728205   -4.1732736    1.1851524      1024000 
  521000   0.84428278    -4.171485    -4.171485   -2.9886098 -0.0055090756    -4.171485    1.1828752      1024000 
  522000   0.84311227   -4.1697782   -4.1697782   -2.9884481 -0.0039311869   -4.1697782      1.18133      1024000 
  523000   0.84313282    -4.171712    -4.171712   -2.9902509 -0.0067938139    -4.171712    1.1814611      1024000 
  524000   0.84160075   -4.1689094   -4.1689094    -2.989498 -0.0057023732   -4.1689094    1.1794114      1024000 
  525000   0.84212544   -4.1697688   -4.1697688     -2.98949 -0.010149557   -4.1697688    1.1802788      1024000 
  526000    0.8427254   -4.1719615   -4.1719615   -2.9907246 -0.0024644255   -4.1719615    1.1812369      1024000 
  527000   0.84239668   -4.1723197   -4.1723197   -2.9914438 -0.015147142   -4.1723197    1.1808759      1024000 
  528000   0.84282345   -4.1728653   -4.1728653   -2.9912738 -0.0071941891   -4.1728653    1.1815915      1024000 
  529000   0.84203523   -4.1721451   -4.1721451   -2.9915663 -0.0037601079   -4.1721451    1.1805787      1024000 
  530000   0.84404135   -4.1751868   -4.1751868   -2.9916629 -0.0060074946   -4.1751868    1.1835239      1024000 
  531000   0.84235883   -4.1733558   -4.1733558   -2.9920738  0.014574824   -4.1733558     1.181282      1024000 
  532000   0.84287588   -4.1751101   -4.1751101   -2.9930006 -0.0040758521   -4.1751101    1.1821095      1024000 
  533000   0.84304335   -4.1750852   -4.1750852   -2.9926358 -0.00024787011   -4.1750852    1.1824493      1024000 
  534000    0.8418831   -4.1747135   -4.1747135   -2.9937642 -0.0010161694   -4.1747135    1.1809493      1024000 
  535000   0.84189335   -4.1755784   -4.1755784   -2.9945049 0.0055719375   -4.1755784    1.1810735      1024000 
  536000   0.84369926    -4.177212    -4.177212   -2.9935124 -0.0058484444    -4.177212    1.1836996      1024000 
  537000   0.84308179   -4.1771825   -4.1771825   -2.9942492 0.0093150853   -4.1771825    1.1829333      1024000 
  538000   0.84388833   -4.1789427   -4.1789427   -2.9947726 0.00045158741   -4.1789427    1.1841701      1024000 
  539000   0.84338552   -4.1782435   -4.1782435   -2.9946888 0.0037228682   -4.1782435    1.1835547      1024000 
  540000   0.84301789    -4.178252    -4.178252   -2.9950882 0.0095717281    -4.178252    1.1831638      1024000 
  541000   0.84340244   -4.1798406   -4.1798406   -2.9960369  0.014619755   -4.1798406    1.1838037      1024000 
  542000   0.84382527   -4.1801409   -4.1801409   -2.9956585  0.004176905   -4.1801409    1.1844824      1024000 
  543000   0.84186146    -4.178727    -4.178727   -2.9968912  0.015412904    -4.178727    1.1818358      1024000 
  544000    0.8429887   -4.1808113   -4.1808113   -2.9972403 0.0077103736   -4.1808113    1.1835709      1024000 
  545000   0.84299859   -4.1813534   -4.1813534   -2.9976634 -0.00086233204   -4.1813534      1.18369      1024000 
  546000   0.84126086    -4.179758    -4.179758   -2.9983955   0.01360537    -4.179758    1.1813625      1024000 
  547000   0.84243227   -4.1830916   -4.1830916   -2.9999564  0.011876823   -4.1830916    1.1831351      1024000 
  548000   0.84092071   -4.1813792   -4.1813792    -3.000207 0.0078452176   -4.1813792    1.1811723      1024000 
  549000   0.84097697   -4.1819214   -4.1819214   -3.0005526  0.014302625   -4.1819214    1.1813688      1024000 
  550000   0.83835908   -4.1801537   -4.1801537   -3.0023477 0.0077167309   -4.1801537     1.177806      1024000 
  551000   0.83987146   -4.1830873   -4.1830873   -3.0030341 -0.0060163454   -4.1830873    1.1800531      1024000 
  552000   0.83807002   -4.1813105   -4.1813105   -3.0036588 0.00030591985   -4.1813105    1.1776517      1024000 
  553000   0.83809637   -4.1812263   -4.1812263   -3.0034153 0.0063824968   -4.1812263    1.1778109      1024000 
  554000    0.8390848   -4.1819908   -4.1819908   -3.0026784 0.0057514612   -4.1819908    1.1793124      1024000 
  555000   0.83968782   -4.1828754   -4.1828754   -3.0026204 0.0073632224   -4.1828754    1.1802549      1024000 
  556000   0.83869265   -4.1810766   -4.1810766   -3.0021006 0.0076027635   -4.1810766     1.178976      1024000 
  557000   0.83899955   -4.1821111   -4.1821111   -3.0025838 0.0031348568   -4.1821111    1.1795273      1024000 
  558000   0.83957037   -4.1826341   -4.1826341   -3.0021892 0.00041747786   -4.1826341    1.1804449      1024000 
  559000   0.83849337   -4.1795828   -4.1795828   -3.0005473 0.0094300554   -4.1795828    1.1790355      1024000 
  560000   0.83853888    -4.179645    -4.179645   -3.0004255 0.0051306518    -4.179645    1.1792195      1024000 
  561000   0.83824153   -4.1800236   -4.1800236   -3.0011149  0.011053638   -4.1800236    1.1789087      1024000 
  562000   0.83894783   -4.1808267   -4.1808267   -3.0007896 0.0029716412   -4.1808267    1.1800371      1024000 
  563000   0.83837435   -4.1798069   -4.1798069   -3.0004639 0.0025704041   -4.1798069     1.179343      1024000 
  564000    0.8379401   -4.1800714   -4.1800714   -3.0012143 0.0034301917   -4.1800714    1.1788571      1024000 
  565000   0.83769752     -4.18054     -4.18054   -3.0018893 0.0024232681     -4.18054    1.1786507      1024000 
  566000    0.8374886   -4.1806391   -4.1806391   -3.0021474 0.00014094503   -4.1806391    1.1784917      1024000 
  567000   0.83828182   -4.1806186   -4.1806186   -3.0009006 0.0053641546   -4.1806186     1.179718      1024000 
  568000   0.83825437   -4.1807189   -4.1807189    -3.000932 -0.0021543517   -4.1807189    1.1797869      1024000 
  569000   0.83811395   -4.1814832   -4.1814832   -3.0017713 0.0034924497   -4.1814832    1.1797119      1024000 
  570000   0.83698673   -4.1807055   -4.1807055   -3.0024828 0.0050513875   -4.1807055    1.1782227      1024000 
  571000    0.8371481   -4.1805209   -4.1805209   -3.0019385 -0.010675056   -4.1805209    1.1785824      1024000 
  572000   0.83716985   -4.1805763   -4.1805763   -3.0018558 -0.0090599829   -4.1805763    1.1787205      1024000 
  573000   0.83678691   -4.1806943   -4.1806943   -3.0024205  0.001392686   -4.1806943    1.1782738      1024000 
  574000   0.83697574     -4.18128     -4.18128   -3.0026027 0.0043658994     -4.18128    1.1786773      1024000 
  575000   0.83577127   -4.1795814   -4.1795814   -3.0024854 -0.0036323735   -4.1795814     1.177096      1024000 
  576000   0.83623743   -4.1802354   -4.1802354   -3.0023954 0.00097443765   -4.1802354      1.17784      1024000 
  577000   0.83782971   -4.1826079   -4.1826079   -3.0024225 0.0040180448   -4.1826079    1.1801854      1024000 
  578000   0.83624609   -4.1807235   -4.1807235   -3.0026438 -0.0032070111   -4.1807235    1.1780797      1024000 
  579000   0.83639583   -4.1815184   -4.1815184   -3.0031201 -0.0060024704   -4.1815184    1.1783983      1024000 
  580000   0.83564819   -4.1814312   -4.1814312   -3.0039538 -0.0091039008   -4.1814312    1.1774774      1024000 
  581000   0.83594204   -4.1821121   -4.1821121    -3.004113  0.001225357   -4.1821121     1.177999      1024000 
  582000   0.83388596   -4.1792873   -4.1792873   -3.0040634 0.00077019743   -4.1792873    1.1752239      1024000 
  583000   0.83318922   -4.1781548   -4.1781548    -3.003828 0.0081970884   -4.1781548    1.1743268      1024000 
  584000    0.8342465   -4.1800631   -4.1800631   -3.0041338 -0.0043105032   -4.1800631    1.1759293      1024000 
  585000    0.8347844   -4.1818727   -4.1818727   -3.0050702 0.0030146068   -4.1818727    1.1768025      1024000 
  586000    0.8342534   -4.1814486   -4.1814486   -3.0053022 -0.0067105182   -4.1814486    1.1761464      1024000 
  587000   0.83285733   -4.1799504   -4.1799504   -3.0056549 -0.0092919816   -4.1799504    1.1742954      1024000 
  588000   0.83266488   -4.1805285   -4.1805285   -3.0064071 -0.0045846723   -4.1805285    1.1741214      1024000 
  589000   0.83361273   -4.1820092   -4.1820092   -3.0064439 -0.0047974679   -4.1820092    1.1755653      1024000 
  590000   0.83515753   -4.1848184   -4.1848184   -3.0069895 0.0090905643   -4.1848184    1.1778289      1024000 
  591000   0.83617209   -4.1848174   -4.1848174   -3.0054373  0.010483883   -4.1848174    1.1793801      1024000 
  592000   0.83684263   -4.1855182   -4.1855182    -3.005092 0.0048437364   -4.1855182    1.1804262      1024000 
  593000   0.83662484   -4.1843997   -4.1843997   -3.0041704 0.0050881051   -4.1843997    1.1802294      1024000 
  594000   0.83618299   -4.1851842   -4.1851842   -3.0054452 0.0034917423   -4.1851842     1.179739      1024000 
  595000   0.83631684   -4.1845566   -4.1845566   -3.0044933 0.0015814612   -4.1845566    1.1800633      1024000 
  596000   0.83426741   -4.1829238   -4.1829238   -3.0056547 0.0048168117   -4.1829238    1.1772691      1024000 
  597000   0.83357695   -4.1827795   -4.1827795   -3.0063547 0.0023200476   -4.1827795    1.1764249      1024000 
  598000    0.8350376    -4.186209    -4.186209   -3.0076024  0.002227015    -4.186209    1.1786066      1024000 
  599000   0.83378616   -4.1852841   -4.1852841   -3.0083162 0.0063479039   -4.1852841    1.1769679      1024000 
  600000   0.83387699   -4.1854997   -4.1854997   -3.0083059 0.0033736137   -4.1854997    1.1771938      1024000 
  601000   0.83279801   -4.1838532   -4.1838532   -3.0080851 0.0013346668   -4.1838532    1.1757681      1024000 
  602000   0.83294614   -4.1844751   -4.1844751   -3.0083877 -0.00037603413   -4.1844751    1.1760874      1024000 
  603000   0.83239672   -4.1849809   -4.1849809   -3.0095918 -3.7918951e-05   -4.1849809    1.1753891      1024000 
  604000   0.83366139    -4.187478    -4.187478   -3.0102029 0.0021548386    -4.187478    1.1772751      1024000 
  605000   0.83129005   -4.1845432   -4.1845432   -3.0105069 0.0078678874   -4.1845432    1.1740363      1024000 
  606000   0.83185683   -4.1856315   -4.1856315   -3.0106922 0.0073307532   -4.1856315    1.1749393      1024000 
  607000   0.83021068    -4.184069    -4.184069   -3.0113624 -0.0017357111    -4.184069    1.1727066      1024000 
  608000   0.83122827   -4.1849881   -4.1849881   -3.0107517 -0.013653927   -4.1849881    1.1742364      1024000 
  609000   0.82984097   -4.1831721   -4.1831721   -3.0107781 -0.0035141815   -4.1831721     1.172394      1024000 
  610000   0.83107867   -4.1848903   -4.1848903   -3.0106352 0.0022194988   -4.1848903    1.1742551      1024000 
  611000    0.8316155   -4.1855489   -4.1855489   -3.0104227 0.0020502421   -4.1855489    1.1751262      1024000 
  612000   0.83188598   -4.1871063   -4.1871063   -3.0114803 -0.0053237531   -4.1871063     1.175626      1024000 
  613000   0.83112751   -4.1853625   -4.1853625   -3.0107257 0.0090437941   -4.1853625    1.1746367      1024000 
  614000   0.83193862   -4.1867153   -4.1867153   -3.0108095 -0.0029477189   -4.1867153    1.1759058      1024000 
  615000   0.82981703   -4.1845625   -4.1845625    -3.011543  0.010448476   -4.1845625    1.1730194      1024000 
  616000   0.83057237   -4.1852509   -4.1852509   -3.0110436 0.0064833982   -4.1852509    1.1742072      1024000 
  617000   0.83139177   -4.1874997   -4.1874997   -3.0119787 0.0082630062   -4.1874997    1.1755209      1024000 
  618000   0.83030505   -4.1856888   -4.1856888   -3.0115793 0.0050621933   -4.1856888    1.1741095      1024000 
  619000   0.83090012   -4.1873191   -4.1873191   -3.0122605 0.0044331819   -4.1873191    1.1750586      1024000 
  620000   0.83066709   -4.1877898   -4.1877898   -3.0129531 -0.00061016567   -4.1877898    1.1748367      1024000 
  621000   0.82949996   -4.1862233   -4.1862233   -3.0129048 -0.0036186305   -4.1862233    1.1733185      1024000 
  622000   0.82931676   -4.1873861   -4.1873861   -3.0142041 0.0009242633   -4.1873861    1.1731819      1024000 
  623000   0.82729026   -4.1851286   -4.1851286   -3.0147261 0.0041657459   -4.1851286    1.1704025      1024000 
  624000   0.83057728   -4.1908062   -4.1908062   -3.0156282 -0.0082168199   -4.1908062    1.1751781      1024000 
  625000   0.82866178   -4.1885331   -4.1885331   -3.0159603 0.0045360403   -4.1885331    1.1725728      1024000 
  626000   0.82995799   -4.1909303   -4.1909303   -3.0164281  0.013315099   -4.1909303    1.1745022      1024000 
  627000    0.8292535   -4.1905846   -4.1905846   -3.0169792 0.0041484616   -4.1905846    1.1736053      1024000 
  628000    0.8293247   -4.1899727   -4.1899727   -3.0161565 -0.0060493923   -4.1899727    1.1738162      1024000 
  629000   0.82900517   -4.1893419   -4.1893419   -3.0158678 -0.0012816575   -4.1893419    1.1734741      1024000 
  630000   0.82984508   -4.1910368   -4.1910368    -3.016256 -0.0047054645   -4.1910368    1.1747808      1024000 
  631000    0.8289744   -4.1900682   -4.1900682   -3.0164073 -0.0064712644   -4.1900682    1.1736609      1024000 
  632000   0.82911158   -4.1894613   -4.1894613   -3.0155135 0.0053389772   -4.1894613    1.1739478      1024000 
  633000    0.8278971   -4.1897437   -4.1897437   -3.0173955 0.0086094675   -4.1897437    1.1723482      1024000 
  634000   0.82873856   -4.1912855   -4.1912855   -3.0176481 0.0052417412   -4.1912855    1.1736375      1024000 
  635000   0.82747813   -4.1899716   -4.1899716   -3.0180116 0.0071326894   -4.1899716      1.17196      1024000 
  636000   0.82721973   -4.1909678   -4.1909678   -3.0192688    0.0122701   -4.1909678    1.1716991      1024000 
  637000    0.8282585   -4.1924362   -4.1924362   -3.0191481 0.0036302395   -4.1924362    1.1732881      1024000 
  638000   0.82858653   -4.1938299   -4.1938299   -3.0199568 -0.0004327054   -4.1938299    1.1738731      1024000 
  639000   0.82752383   -4.1928879   -4.1928879   -3.0204153 0.00013127448   -4.1928879    1.1724727      1024000 
  640000   0.82708485   -4.1931705   -4.1931705   -3.0211897 0.0019053844   -4.1931705    1.1719808      1024000 
  641000   0.82909295   -4.1958956   -4.1958956   -3.0209464 -0.0021592197   -4.1958956    1.1749492      1024000 
  642000   0.82755618    -4.194509    -4.194509    -3.021655 0.00040939515    -4.194509     1.172854      1024000 
  643000   0.82697637   -4.1933618   -4.1933618   -3.0211893 0.0078959856   -4.1933618    1.1721725      1024000 
  644000   0.82655274   -4.1925568   -4.1925568   -3.0208622 -0.0020265709   -4.1925568    1.1716947      1024000 
  645000   0.82781522   -4.1945419   -4.1945419   -3.0209297 -0.0038027213   -4.1945419    1.1736122      1024000 
  646000   0.82580966   -4.1923662   -4.1923662   -3.0215098 -0.00088127155   -4.1923662    1.1708564      1024000 
  647000   0.82618073   -4.1923479   -4.1923479   -3.0208478 6.8177027e-05   -4.1923479    1.1715001      1024000 
  648000   0.82647774    -4.192953    -4.192953   -3.0209265 0.0024362263    -4.192953    1.1720265      1024000 
  649000   0.82661095   -4.1939363   -4.1939363   -3.0216006  0.003335733   -4.1939363    1.1723356      1024000 
  650000   0.82708118   -4.1947251   -4.1947251   -3.0216173  0.006990494   -4.1947251    1.1731078      1024000 
  651000   0.82646817   -4.1939884   -4.1939884   -3.0216373 0.0050332269   -4.1939884    1.1723511      1024000 
  652000   0.82703535   -4.1946054   -4.1946054    -3.021367 0.0093885818   -4.1946054    1.1732384      1024000 
  653000   0.82648852   -4.1950214   -4.1950214   -3.0224509 0.0027825081   -4.1950214    1.1725705      1024000 
  654000   0.82569295   -4.1945657   -4.1945657   -3.0230062 0.0011384991   -4.1945657    1.1715595      1024000 
  655000   0.82474433   -4.1932315   -4.1932315   -3.0229579 0.0016025991   -4.1932315    1.1702736      1024000 
  656000   0.82365316    -4.191587    -4.191587   -3.0227793 0.0038964718    -4.191587    1.1688077      1024000 
  657000   0.82334904   -4.1917735   -4.1917735   -3.0232649 0.0088393823   -4.1917735    1.1685086      1024000 
  658000   0.82474544   -4.1926271   -4.1926271   -3.0220016 -0.0052775561   -4.1926271    1.1706256      1024000 
  659000   0.82491498     -4.19281     -4.19281   -3.0218335  0.013095659     -4.19281    1.1709764      1024000 
  660000   0.82469352   -4.1937683   -4.1937683   -3.0229835 0.0021433358   -4.1937683    1.1707848      1024000 
  661000   0.82417935   -4.1943537   -4.1943537   -3.0241937 0.0085552413   -4.1943537      1.17016      1024000 
  662000   0.82315177   -4.1935064   -4.1935064   -3.0247179 -0.0039179859   -4.1935064    1.1687885      1024000 
  663000   0.82427856   -4.1952572   -4.1952572   -3.0247561 -0.0016048949   -4.1952572    1.1705012      1024000 
  664000   0.82343456    -4.194421    -4.194421   -3.0250257 -0.00054345542    -4.194421    1.1693953      1024000 
  665000   0.82339555      -4.1937      -4.1937   -3.0242426 0.0055490085      -4.1937    1.1694575      1024000 
  666000   0.82382772   -4.1929593   -4.1929593   -3.0227979 -0.0030065496   -4.1929593    1.1701614      1024000 
  667000   0.82405329   -4.1930019   -4.1930019   -3.0223998 -0.0045704811   -4.1930019    1.1706021      1024000 
  668000   0.82391012   -4.1923117   -4.1923117   -3.0218177 -0.0024221179   -4.1923117    1.1704939      1024000 
  669000   0.82391586   -4.1930586   -4.1930586   -3.0224613 -0.00028008749   -4.1930586    1.1705973      1024000 
  670000   0.82443946   -4.1940573   -4.1940573   -3.0226057 0.0052417643   -4.1940573    1.1714516      1024000 
  671000   0.82488664    -4.194908    -4.194908   -3.0227206 0.0032608097    -4.194908    1.1721874      1024000 
  672000   0.82322152   -4.1931662   -4.1931662   -3.0232498 0.0031795774   -4.1931662    1.1699164      1024000 
  673000   0.82166778   -4.1916089   -4.1916089    -3.023783  0.013107513   -4.1916089    1.1678259      1024000 
  674000   0.82251696    -4.193032    -4.193032   -3.0238865 0.00031422815    -4.193032    1.1691455      1024000 
  675000   0.82274783   -4.1929264   -4.1929264    -3.023345 0.0088222272   -4.1929264    1.1695814      1024000 
  676000   0.82197913   -4.1927776   -4.1927776   -3.0241838 0.0042743777   -4.1927776    1.1685938      1024000 
  677000   0.82229436   -4.1942874   -4.1942874   -3.0250927 -0.00038559128   -4.1942874    1.1691947      1024000 
  678000   0.82180995   -4.1939221   -4.1939221    -3.025281 0.0019390352   -4.1939221    1.1686412      1024000 
  679000   0.82096171   -4.1934578   -4.1934578   -3.0259028 0.0075797119   -4.1934578     1.167555      1024000 
  680000   0.82121397   -4.1937751   -4.1937751   -3.0257487 0.0063136929   -4.1937751    1.1680264      1024000 
  681000     0.820674   -4.1940569   -4.1940569   -3.0266859 0.0022217205   -4.1940569     1.167371      1024000 
  682000   0.82130016   -4.1947294   -4.1947294   -3.0263651 -0.0052941266   -4.1947294    1.1683644      1024000 
  683000   0.82093945   -4.1942174   -4.1942174   -3.0262886 0.0035818886   -4.1942174    1.1679288      1024000 
[...]
 9838000  0.083219044   -1.5790196   -1.5790196   -1.0791574 -0.0049478982   -1.5790196   0.49986226      1024000 
 9839000  0.083162863   -1.5786787   -1.5786787   -1.0790725 0.0046615512   -1.5786787   0.49960619      1024000 
 9840000  0.083338149   -1.5763134   -1.5763134   -1.0755544 0.0011052921   -1.5763134   0.50075897      1024000 
 9841000  0.083319065   -1.5758324   -1.5758324   -1.0750928 -0.0013611017   -1.5758324   0.50073951      1024000 
 9842000  0.083482907   -1.5762116   -1.5762116   -1.0743829 -0.0047924154   -1.5762116   0.50182872      1024000 
 9843000  0.083150186   -1.5733159   -1.5733159   -1.0733468 0.0036419376   -1.5733159   0.49996907      1024000 
 9844000    0.0831901   -1.5735576   -1.5735576   -1.0732715 0.0048643351   -1.5735576   0.50028614      1024000 
 9845000  0.082858667   -1.5739334   -1.5739334    -1.075523 -0.0034517449   -1.5739334   0.49841041      1024000 
 9846000  0.082964515   -1.5745208   -1.5745208   -1.0754194 0.0027410361   -1.5745208   0.49910139      1024000 
 9847000  0.082490238   -1.5708846   -1.5708846   -1.0745419 0.0079928606   -1.5708846    0.4963427      1024000 
 9848000  0.083205888   -1.5753241   -1.5753241     -1.07453 0.0017283273   -1.5753241   0.50079407      1024000 
 9849000  0.082143618   -1.5696211   -1.5696211   -1.0751219 -0.0048724277   -1.5696211   0.49449922      1024000 
 9850000  0.082625373   -1.5708807   -1.5708807   -1.0733685 0.00021976272   -1.5708807   0.49751218      1024000 
 9851000   0.08253321   -1.5669386   -1.5669386    -1.069819 0.0053692584   -1.5669386   0.49711962      1024000 
 9852000  0.082343879   -1.5668253   -1.5668253    -1.070765 -0.0013805797   -1.5668253   0.49606028      1024000 
 9853000   0.08181715   -1.5660353   -1.5660353   -1.0730766 -0.003456907   -1.5660353   0.49295873      1024000 
 9854000  0.082204606   -1.5674649   -1.5674649   -1.0720907 -0.00042259581   -1.5674649   0.49537416      1024000 
 9855000  0.082488534   -1.5683383   -1.5683383   -1.0711448 0.0063898618   -1.5683383    0.4971935      1024000 
 9856000  0.082852946   -1.5675392   -1.5675392   -1.0680267 -0.0024778723   -1.5675392   0.49951247      1024000 
 9857000  0.082728539   -1.5666495   -1.5666495   -1.0677874 -0.0035099475   -1.5666495   0.49886214      1024000 
 9858000  0.082252939   -1.5641408   -1.5641408   -1.0680294 0.0044115298   -1.5641408   0.49611142      1024000 
 9859000  0.082367333   -1.5634521   -1.5634521   -1.0665694 -0.00096734468   -1.5634521   0.49688269      1024000 
 9860000  0.082831663   -1.5636898   -1.5636898   -1.0638879 0.0026083859   -1.5636898    0.4998019      1024000 
 9861000  0.082375031   -1.5606977   -1.5606977   -1.0635426 0.0082909141   -1.5606977   0.49715509      1024000 
 9862000  0.081959054   -1.5583779   -1.5583779   -1.0636118 0.00043914226   -1.5583779   0.49476606      1024000 
 9863000  0.082056744   -1.5613489   -1.5613489   -1.0658759  0.001190613   -1.5613489   0.49547297      1024000 
 9864000  0.081330452   -1.5604546   -1.5604546   -1.0692867 0.00034133515   -1.5604546   0.49116794      1024000 
 9865000  0.081623268   -1.5607421   -1.5607421   -1.0676936 0.0021015619   -1.5607421   0.49304848      1024000 
 9866000  0.081731909   -1.5607464   -1.5607464   -1.0669203 0.0010896138   -1.5607464    0.4938261      1024000 
 9867000  0.081732062   -1.5583292   -1.5583292   -1.0644167 -0.0041607359   -1.5583292   0.49391246      1024000 
 9868000  0.081227582   -1.5576019   -1.5576019   -1.0666128 -0.0052442195   -1.5576019   0.49098905      1024000 
 9869000     0.081512   -1.5601103   -1.5601103   -1.0673123 0.0040569942   -1.5601103   0.49279802      1024000 
 9870000  0.081159322   -1.5574033   -1.5574033   -1.0666212 0.0085639775   -1.5574033   0.49078208      1024000 
 9871000   0.08181204   -1.5580503   -1.5580503   -1.0632264 0.0079281837   -1.5580503   0.49482385      1024000 
 9872000  0.082191995   -1.5598901   -1.5598901   -1.0626548 0.0037404791   -1.5598901   0.49723523      1024000 
 9873000  0.081618504   -1.5577436   -1.5577436   -1.0638878 0.0078094121   -1.5577436   0.49385584      1024000 
 9874000  0.081348139   -1.5572887   -1.5572887   -1.0649745 0.0016088862   -1.5572887   0.49231419      1024000 
 9875000   0.08125703   -1.5571606   -1.5571606   -1.0652856 -0.0019253899   -1.5571606   0.49187495      1024000 
 9876000  0.081445512    -1.556622    -1.556622   -1.0635162 0.0035828576    -1.556622   0.49310585      1024000 
 9877000  0.081224256   -1.5542474   -1.5542474   -1.0623779 0.0025817877   -1.5542474   0.49186948      1024000 
 9878000  0.081524081   -1.5563432   -1.5563432   -1.0625545 0.0038110781   -1.5563432   0.49378877      1024000 
 9879000  0.081006543   -1.5527087   -1.5527087   -1.0619516 0.0022411022   -1.5527087   0.49075709      1024000 
 9880000  0.081230214   -1.5532945   -1.5532945   -1.0610745 -0.0074750993   -1.5532945   0.49221998      1024000 
 9881000  0.081133196   -1.5523615   -1.5523615   -1.0606351 0.0046424027   -1.5523615   0.49172639      1024000 
 9882000  0.080753023   -1.5512233   -1.5512233    -1.061734 0.00080942663   -1.5512233   0.48948932      1024000 
 9883000  0.080676204   -1.5526255   -1.5526255   -1.0634946 0.0052902071   -1.5526255    0.4891309      1024000 
 9884000  0.080905502   -1.5518601   -1.5518601   -1.0612314 -0.00035602912   -1.5518601    0.4906287      1024000 
 9885000  0.080790827   -1.5490109   -1.5490109    -1.059006 -0.0023375402   -1.5490109   0.49000492      1024000 
 9886000  0.081035427   -1.5479469   -1.5479469   -1.0563551 0.0022585729   -1.5479469   0.49159179      1024000 
 9887000  0.080848066   -1.5482153   -1.5482153   -1.0576704 0.0062875957   -1.5482153   0.49054487      1024000 
 9888000   0.08108798   -1.5505948   -1.5505948   -1.0584997 -0.0027669747   -1.5505948   0.49209503      1024000 
 9889000  0.081172411   -1.5487408   -1.5487408   -1.0560117 0.0091471464   -1.5487408   0.49272908      1024000 
 9890000  0.080908505   -1.5476155   -1.5476155   -1.0564075 0.00022949656   -1.5476155     0.491208      1024000 
 9891000  0.080634265   -1.5444596   -1.5444596    -1.054827 0.0016404285   -1.5444596   0.48963264      1024000 
 9892000  0.080914932    -1.546867    -1.546867   -1.0554356 0.0001707709    -1.546867   0.49143136      1024000 
 9893000  0.080540504   -1.5466154   -1.5466154   -1.0573462 0.0039970238   -1.5466154   0.48926924      1024000 
 9894000  0.080339364   -1.5452232   -1.5452232   -1.0570731 0.0021461098   -1.5452232   0.48815013      1024000 
 9895000  0.080155582    -1.544435    -1.544435   -1.0572855 0.0027158663    -1.544435   0.48714942      1024000 
 9896000  0.080120481   -1.5441466   -1.5441466   -1.0571258 -0.0032072685   -1.5441466   0.48702084      1024000 
 9897000  0.080189951   -1.5423961   -1.5423961   -1.0548503 -0.0066984451   -1.5423961   0.48754584      1024000 
 9898000  0.080660391   -1.5430334   -1.5430334   -1.0525285 0.0071474191   -1.5430334   0.49050492      1024000 
 9899000  0.080626559   -1.5411545   -1.5411545   -1.0507609 0.0067426391   -1.5411545   0.49039356      1024000 
 9900000  0.080267451   -1.5407581   -1.5407581   -1.0524548 -0.0018770131   -1.5407581   0.48830335      1024000 
 9901000  0.080225999   -1.5400759   -1.5400759   -1.0519666 -0.0004588595   -1.5400759   0.48810934      1024000 
 9902000  0.080172683   -1.5433399   -1.5433399   -1.0554297 0.0028345108   -1.5433399   0.48791022      1024000 
 9903000  0.080263233    -1.545768    -1.545768   -1.0571858 0.0096966609    -1.545768   0.48858226      1024000 
 9904000   0.07964078   -1.5441776   -1.5441776   -1.0592865 -0.00099672372   -1.5441776   0.48489108      1024000 
 9905000  0.079819428    -1.543541    -1.543541   -1.0574106 0.0019895746    -1.543541   0.48613043      1024000 
 9906000  0.079458991   -1.5403662   -1.5403662   -1.0563288 0.00092372327   -1.5403662    0.4840374      1024000 
 9907000  0.079955228     -1.54489     -1.54489   -1.0577626 -0.0026005475     -1.54489   0.48712738      1024000 
 9908000  0.079750732    -1.540481    -1.540481   -1.0544924 -0.002582211    -1.540481   0.48598857      1024000 
 9909000  0.080014875   -1.5411994   -1.5411994   -1.0534354 -0.0044460479   -1.5411994   0.48776395      1024000 
 9910000  0.080017159   -1.5406201   -1.5406201   -1.0527078 0.0069458357   -1.5406201   0.48791233      1024000 
 9911000  0.079840781   -1.5393884   -1.5393884   -1.0524665 0.0028247148   -1.5393884   0.48692186      1024000 
 9912000  0.079428494   -1.5401056   -1.5401056   -1.0555734 0.0093928196   -1.5401056   0.48453214      1024000 
 9913000  0.079119839   -1.5364525   -1.5364525   -1.0537589 0.0029186451   -1.5364525   0.48269365      1024000 
 9914000  0.079410312   -1.5393993   -1.5393993   -1.0548177 0.00093336051   -1.5393993   0.48458159      1024000 
 9915000  0.079151423   -1.5400976   -1.5400976   -1.0570203 0.0063139053   -1.5400976    0.4830773      1024000 
 9916000  0.079156137   -1.5381628   -1.5381628   -1.0549723 0.0036495919   -1.5381628   0.48319051      1024000 
 9917000  0.078944759   -1.5399435   -1.5399435    -1.057959 0.00096243318   -1.5399435   0.48198443      1024000 
 9918000  0.079417608   -1.5401815   -1.5401815   -1.0552388 0.0072775278   -1.5401815   0.48494272      1024000 
 9919000  0.078756459   -1.5364698   -1.5364698   -1.0554668 -0.0023152602   -1.5364698   0.48100296      1024000 
 9920000  0.078832412   -1.5386661   -1.5386661   -1.0571505 0.0044792626   -1.5386661   0.48151559      1024000 
 9921000  0.079201179   -1.5392032   -1.5392032   -1.0553327 0.0002934014   -1.5392032   0.48387049      1024000 
 9922000  0.079225087   -1.5395001   -1.5395001   -1.0553855 0.0024503928   -1.5395001    0.4841146      1024000 
 9923000  0.078651025   -1.5358943   -1.5358943    -1.055168 -0.00077577236   -1.5358943   0.48072625      1024000 
 9924000  0.078735341   -1.5357999   -1.5357999    -1.054443 -0.0035806908   -1.5357999   0.48135687      1024000 
 9925000  0.078784741   -1.5378931   -1.5378931   -1.0560966 0.00030149593   -1.5378931   0.48179648      1024000 
 9926000  0.078374675     -1.53869     -1.53869   -1.0593261 -0.00028196787     -1.53869   0.47936388      1024000 
 9927000  0.077988265   -1.5317236   -1.5317236    -1.054622 0.00010310878   -1.5317236   0.47710162      1024000 
 9928000  0.078201808   -1.5327563   -1.5327563   -1.0542645  0.001241229   -1.5327563    0.4784918      1024000 
 9929000  0.078544157   -1.5321845   -1.5321845   -1.0514828 0.0032748655   -1.5321845   0.48070176      1024000 
 9930000  0.078320488   -1.5314017   -1.5314017   -1.0520026 -0.0039529863   -1.5314017   0.47939919      1024000 
 9931000  0.078536906   -1.5307484   -1.5307484   -1.0499625 -0.0024205651   -1.5307484   0.48078597      1024000 
 9932000  0.078352978   -1.5296683   -1.5296683   -1.0498977 -0.00085498383   -1.5296683   0.47977065      1024000 
 9933000  0.078067912   -1.5286133   -1.5286133   -1.0505131 -0.0014097994   -1.5286133   0.47810013      1024000 
 9934000  0.078124778   -1.5290261   -1.5290261   -1.0504761 0.0058379203   -1.5290261   0.47854996      1024000 
 9935000  0.078133516    -1.527056    -1.527056   -1.0483642  0.005514975    -1.527056   0.47869186      1024000 
 9936000  0.078892093   -1.5293452   -1.5293452   -1.0459211 0.0045865831   -1.5293452   0.48342415      1024000 
 9937000  0.077600287   -1.5255196   -1.5255196   -1.0499277 0.0026529207   -1.5255196   0.47559183      1024000 
 9938000  0.078253919   -1.5284854   -1.5284854   -1.0488124 0.00037956165   -1.5284854   0.47967308      1024000 
 9939000  0.078178796   -1.5282983   -1.5282983   -1.0489883 0.0023755623   -1.5282983      0.47931      1024000 
 9940000  0.077857801   -1.5263316   -1.5263316   -1.0488881 -0.0021199799   -1.5263316   0.47744346      1024000 
 9941000  0.077924226   -1.5249523   -1.5249523   -1.0469911 0.0028825696   -1.5249523   0.47796121      1024000 
 9942000  0.078263831   -1.5246021   -1.5246021    -1.044478 -0.00055871638   -1.5246021   0.48012411      1024000 
 9943000  0.077625838   -1.5211776   -1.5211776   -1.0449058 0.0025993205   -1.5211776   0.47627186      1024000 
 9944000  0.078037513    -1.523518    -1.523518   -1.0446317  0.002252005    -1.523518   0.47888624      1024000 
 9945000  0.078064234   -1.5219728   -1.5219728   -1.0428251 -0.0024901183   -1.5219728   0.47914769      1024000 
 9946000  0.077798058   -1.5218337   -1.5218337   -1.0441828 0.0051900063   -1.5218337    0.4776509      1024000 
 9947000  0.078183616   -1.5244253   -1.5244253   -1.0443228 0.0044626401   -1.5244253   0.48010247      1024000 
 9948000  0.077018324   -1.5197148   -1.5197148   -1.0466892 -0.0069657745   -1.5197148   0.47302555      1024000 
 9949000  0.077433762   -1.5198514   -1.5198514   -1.0441907 -0.00023583863   -1.5198514    0.4756607      1024000 
 9950000  0.078012488   -1.5224892   -1.5224892   -1.0432069 0.0021061743   -1.5224892   0.47928225      1024000 
 9951000  0.077813952   -1.5188604   -1.5188604   -1.0407404 0.00019686713   -1.5188604   0.47812005      1024000 
 9952000  0.077294269   -1.5171333   -1.5171333    -1.042114 -0.0030286131   -1.5171333   0.47501928      1024000 
 9953000  0.077651708   -1.5188771   -1.5188771   -1.0416036 0.0019748403   -1.5188771   0.47727341      1024000 
 9954000  0.077528866   -1.5177991   -1.5177991    -1.041166 -0.0040855882   -1.5177991   0.47663316      1024000 
 9955000  0.078022935   -1.5226548   -1.5226548   -1.0429219 -0.001647514   -1.5226548   0.47973283      1024000 
 9956000  0.077410179    -1.515474    -1.515474   -1.0394161 0.0033830487    -1.515474   0.47605786      1024000 
 9957000  0.077325548   -1.5156626   -1.5156626   -1.0400767 -0.001029282   -1.5156626   0.47558587      1024000 
 9958000  0.077284715    -1.512948    -1.512948   -1.0375428 0.0065789342    -1.512948   0.47540523      1024000 
 9959000  0.077736517   -1.5139679   -1.5139679   -1.0356948 5.4010975e-05   -1.5139679   0.47827309      1024000 
 9960000  0.077329959   -1.5100023   -1.5100023   -1.0341511 0.00073166023   -1.5100023   0.47585116      1024000 
 9961000  0.077575761   -1.5086592   -1.5086592   -1.0312203 -0.00091059337   -1.5086592   0.47743897      1024000 
 9962000  0.077234129   -1.5067974   -1.5067974   -1.0313596 -0.0022565604   -1.5067974   0.47543781      1024000 
 9963000  0.077213466    -1.506826    -1.506826    -1.031436 0.0046971942    -1.506826   0.47538999      1024000 
 9964000   0.07712029    -1.504362    -1.504362   -1.0294752 0.0023267993    -1.504362   0.47488682      1024000 
 9965000  0.076890424   -1.5041465   -1.5041465   -1.0305565  0.002172591   -1.5041465   0.47359002      1024000 
 9966000  0.076791347    -1.503901    -1.503901   -1.0308378 0.0015459834    -1.503901    0.4730632      1024000 
 9967000  0.077012037   -1.5058025   -1.5058025   -1.0312917 0.0031462975   -1.5058025   0.47451083      1024000 
 9968000  0.076862304   -1.5034235   -1.5034235   -1.0297869 0.0035184232   -1.5034235   0.47363662      1024000 
 9969000  0.077427018   -1.5055202   -1.5055202    -1.028355 0.0039283045   -1.5055202   0.47716521      1024000 
 9970000   0.07717227   -1.5042027   -1.5042027   -1.0284881 0.0018794681   -1.5042027   0.47571454      1024000 
 9971000  0.077152187   -1.5039112   -1.5039112   -1.0282233 0.00044114925   -1.5039112   0.47568795      1024000 
 9972000  0.077498904   -1.5054877   -1.5054877   -1.0275688 0.0026137633   -1.5054877   0.47791891      1024000 
 9973000   0.07719331   -1.5034851   -1.5034851   -1.0273888 0.0016082107   -1.5034851   0.47609632      1024000 
 9974000  0.077265475   -1.5000912   -1.5000912   -1.0234568 -0.0045247801   -1.5000912   0.47663443      1024000 
 9975000   0.07728682   -1.5030519   -1.5030519   -1.0262015 -0.0013460863   -1.5030519   0.47685032      1024000 
 9976000  0.076872015   -1.5008663   -1.5008663   -1.0265135 4.2063758e-05   -1.5008663   0.47435277      1024000 
 9977000  0.077226195     -1.50294     -1.50294   -1.0263263 -0.00013723625     -1.50294   0.47661365      1024000 
 9978000  0.077098058   -1.5017425   -1.5017425   -1.0258489 -0.0016947286   -1.5017425   0.47589364      1024000 
 9979000  0.076408935    -1.500082    -1.500082   -1.0283411 -0.0022144125    -1.500082    0.4717409      1024000 
 9980000  0.077081144   -1.5014639   -1.5014639   -1.0254842 -0.0032085214   -1.5014639   0.47597961      1024000 
 9981000  0.077024516   -1.5003281   -1.5003281   -1.0246274 0.0035171743   -1.5003281   0.47570076      1024000 
 9982000   0.07658455   -1.4978587   -1.4978587   -1.0247783 -0.00029483975   -1.4978587   0.47308041      1024000 
 9983000  0.076530758   -1.4998621   -1.4998621   -1.0270436 -0.007224504   -1.4998621   0.47281854      1024000 
 9984000  0.076061184   -1.4971463   -1.4971463   -1.0271282 0.0043975125   -1.4971463   0.47001808      1024000 
 9985000  0.076415955   -1.5009235   -1.5009235   -1.0286251 0.0028039866   -1.5009235   0.47229834      1024000 
 9986000  0.076296781   -1.4984995   -1.4984995   -1.0268191 0.0031472624   -1.4984995   0.47168039      1024000 
 9987000  0.076028346   -1.4943704   -1.4943704   -1.0243013 -0.0016901275   -1.4943704   0.47006904      1024000 
 9988000  0.076256478   -1.4942627   -1.4942627   -1.0227261 -0.0033831823   -1.4942627   0.47153665      1024000 
 9989000   0.07607684   -1.4936459   -1.4936459   -1.0231148 0.0023567491   -1.4936459   0.47053108      1024000 
 9990000  0.075455001   -1.4937955   -1.4937955   -1.0269973 0.0027530802   -1.4937955   0.46679816      1024000 
 9991000  0.076320863   -1.4956157   -1.4956157   -1.0233994 0.0054323905   -1.4956157   0.47221639      1024000 
 9992000  0.076221907   -1.4934924   -1.4934924   -1.0217959 -0.0017979864   -1.4934924   0.47169648      1024000 
 9993000  0.076321034   -1.4956229   -1.4956229   -1.0232072 -0.0049187155   -1.4956229   0.47241566      1024000 
 9994000  0.076044542   -1.4945256   -1.4945256   -1.0237248 -0.0037983724   -1.4945256   0.47080083      1024000 
 9995000  0.076250005   -1.4945126   -1.4945126   -1.0223516 0.0026642472   -1.4945126   0.47216097      1024000 
 9996000  0.076080709   -1.4951008   -1.4951008   -1.0239134 0.0016326834   -1.4951008   0.47118739      1024000 
 9997000  0.075123039   -1.4894609   -1.4894609   -1.0241134 0.0054652051   -1.4894609    0.4653475      1024000 
 9998000  0.076041592   -1.4961682   -1.4961682   -1.0250604 -0.00027128419   -1.4961682   0.47110781      1024000 
 9999000  0.075760593   -1.4951684   -1.4951684    -1.025727 0.00052304749   -1.4951684   0.46944141      1024000 
10000000  0.075869957   -1.4923637   -1.4923637     -1.02217 0.0061625883   -1.4923637   0.47019371      1024000 
Loop time of 373146 on 256 procs for 10000000 steps with 107079 atoms

Performance: 5788.620 tau/day, 26.799 timesteps/s
99.2% CPU use with 256 MPI tasks x 1 OpenMP threads

MPI task timing breakdown:
Section |  min time  |  avg time  |  max time  |%varavg|  %CPU | %total
-----------------------------------------------------------------------
Pair    | 8830.1     | 20776      | 30299      |2554.5 |  99.9 |  5.57
Bond    | 3.734      | 5.3588     | 12.617     |  71.3 | 100.0 |  0.00
Neigh   | 40095      | 1.2764e+05 | 2.0502e+05 |8092.3 |  99.6 | 34.21
Comm    | 94334      | 1.8896e+05 | 2.8941e+05 |7509.6 |  98.7 | 50.64
Output  | 439.76     | 443.29     | 455.62     |  21.1 |  99.1 |  0.12
Modify  | 13758      | 32623      | 82544      |8242.1 |  99.1 |  8.74
Other   |            | 2706       |            |       |       |  0.73

Nlocal:    418.277 ave 1144 max 29 min
Histogram: 19 38 27 58 81 24 7 0 1 1
Nghost:    10675.8 ave 17325 max 3274 min
Histogram: 15 24 22 25 28 29 36 27 28 22
Neighs:    23302.8 ave 56459 max 481 min
Histogram: 28 33 30 33 33 40 30 17 9 3

Total # of neighbors = 5965507
Ave neighs/atom = 55.7113
Ave special neighs/atom = 0
Neighbor list builds = 10000000
Dangerous builds = 0
Total wall time: 103:39:38
