LAMMPS (24 Dec 2020)
OMP_NUM_THREADS environment is not set. Defaulting to 1 thread. (src/comm.cpp:94)
  using 1 OpenMP thread(s) per MPI task
#Read the equilibrated lj fluid and add nanocubes


atom_modify     map array first cubes
dimension       3
boundary        p p f

variable        sigma           equal 1.0
variable        epsilon         equal 1.0
read_restart 	restart.dat.1000000
Reading restart file ...
  restart file = 24 Dec 2020, LAMMPS = 24 Dec 2020
  restoring atom style full from restart
  orthogonal box = (0.0000000 0.0000000 0.0000000) to (160.00000 160.00000 320.00000)
  5 by 4 by 12 MPI processor grid
  restoring pair style lj/cut/opt from restart
  4233413 atoms
Finding 1-2 1-3 1-4 neighbors ...
  special bond factors lj:    0        0        0       
  special bond factors coul:  0        0        0       
     0 = max # of 1-2 neighbors
     0 = max # of 1-3 neighbors
     0 = max # of 1-4 neighbors
     1 = max # of special neighbors
  special bonds CPU = 1.924 seconds
  read_restart CPU = 3.736 seconds

neighbor      0.4 bin
neigh_modify  exclude molecule/intra cubes


comm_modify   mode multi cutoff/multi 1 2.5 cutoff/multi 2 2.5 cutoff/multi 3 6.95

balance 	1.05 shift z 10 1.05
Balancing ...
Unused restart file global fix info:
  fix style: STORE, fix ID: msd_COMPUTE_STORE
Neighbor list info ...
  update every 1 steps, delay 10 steps, check yes
  max neighbors/atom: 2000, page size: 100000
  master list distance cutoff = 2.9
  ghost atom cutoff = 6.95
  binsize = 1.45, bins = 111 111 221
  1 neighbor lists, perpetual/occasional/extra = 1 0 0
  (1) pair lj/cut/opt, perpetual
      attributes: half, newton on
      pair build: half/bin/newton
      stencil: half/bin/3d/newton
      bin: standard
 rebalancing time: 0.079 seconds
  iteration count = 5
  initial/final maximal load/proc = 31496.000 22667.000
  initial/final imbalance factor  = 1.7855664 1.2850341
  x cuts: 0.0000000 0.20000000 0.40000000 0.60000000 0.80000000 1.0000000
  y cuts: 0.0000000 0.25000000 0.50000000 0.75000000 1.0000000
  z cuts: 0.0000000 0.054687500 0.10677083 0.15104167 0.20312500 0.25520833 0.30468750 0.35677083 0.40625000 0.46875000 0.51041667 0.56510417 1.0000000

####################### WALLS ###########################

variable       epsilonWall equal 2*${epsilon}
variable       epsilonWall equal 2*1

variable       cutoffTop   equal   0.7147*${sigma}
variable       cutoffTop   equal   0.7147*1

variable       cutoffLow   equal   3*${sigma}
variable       cutoffLow   equal   3*1

region         lowWall block EDGE EDGE EDGE EDGE EDGE 2


fix            topWall all wall/lj93 zhi EDGE 	       ${epsilonWall} ${sigma} ${cutoffTop} units box
fix            topWall all wall/lj93 zhi EDGE 	       2 ${sigma} ${cutoffTop} units box
fix            topWall all wall/lj93 zhi EDGE 	       2 1 ${cutoffTop} units box
fix            topWall all wall/lj93 zhi EDGE 	       2 1 0.7147 units box

fix            lowWall all wall/lj93 zlo EDGE                ${epsilonWall} ${sigma} ${cutoffLow} units box
fix            lowWall all wall/lj93 zlo EDGE                2 ${sigma} ${cutoffLow} units box
fix            lowWall all wall/lj93 zlo EDGE                2 1 ${cutoffLow} units box
fix            lowWall all wall/lj93 zlo EDGE                2 1 3 units box


######################  FIXES ############################


fix             1 cubes rigid/nve/small molecule # temp 1.0 1.0 0.25
  create bodies CPU = 0.004 seconds
  512 rigid bodies with 585216 atoms
  6.9282032 = max distance from body owner to body atom

fix             2 solvent nve


## Thermostat

region          regthermo block EDGE EDGE EDGE EDGE 0 20

group           thermo dynamic solvent region regthermo every 1000
dynamic group thermo defined

fix             3 thermo langevin ${startTemp} ${temp} 0.1 156453
fix             3 thermo langevin 0.8 ${temp} 0.1 156453
fix             3 thermo langevin 0.8 0.8 0.1 156453




#### Load balancing

fix             bal all balance 1000 1.05 shift z 10 1.05

############### Diagnostics and computes ###################

compute        com cubes          rigid/local   1 mol x y z
compute        quat cubes         rigid/local   1 mol quatw quati quatj quatk
compute 	cc2 cubes chunk/atom molecule

compute 	msd cubes msd/chunk cc2

thermo          1000
thermo_style    custom step temp epair evdwl etotal press pe ke vol

dump            1 all custom 100000 dump.lammpstrj id mol type x y z
dump            2 all image 10000 image.*.png type type

dump_modify     2 pad 8


dump		image cubes image 10000 image.*.png type type

dump_modify	2 pad 8

dump            3 all movie 5000 movie.avi type type
dump           com cubes local 1000 dump.*.xyz c_com[*]
dump           quat cubes      local 1000 dump.*.quat c_quat[*]


restart         500000 restart.dat
timestep        0.0025
timer           full
New timer settings: style=full  mode=nosync  timeout=off

run            1000000
Per MPI rank memory allocation (min/avg/max) = 42.86 | 54.85 | 59.61 Mbytes
Step Temp E_pair E_vdwl TotEng Press PotEng KinEng Volume 
 1000000   0.76711984   -3.9880483   -3.9880483   -2.9961574  0.010195976   -3.9880483   0.99189084      8192000 
 1001000   0.76654336   -3.9875105   -3.9875105   -2.9963651  0.029776272   -3.9875105   0.99114545      8192000 
 1002000   0.76702978   -3.9877022   -3.9877022   -2.9959278  0.031839486   -3.9877022    0.9917744      8192000 
 1003000   0.76717418   -3.9874284   -3.9874284   -2.9954673  0.029598824   -3.9874284   0.99196111      8192000 
 1004000    0.7667058   -3.9868406   -3.9868406   -2.9954851  0.029301621   -3.9868406   0.99135549      8192000 
 1005000   0.76680438   -3.9866483   -3.9866483   -2.9951653  0.029878988   -3.9866483   0.99148295      8192000 
 1006000   0.76701396   -3.9864725   -3.9864725   -2.9947186  0.024770553   -3.9864725   0.99175394      8192000 
 1007000    0.7669854   -3.9866546   -3.9866546   -2.9949376  0.027901553   -3.9866546   0.99171701      8192000 
 1008000   0.76701677   -3.9863088   -3.9863088   -2.9945513   0.03021728   -3.9863088   0.99175757      8192000 
 1009000    0.7670301   -3.9862443   -3.9862443   -2.9944695  0.026731493   -3.9862443   0.99177481      8192000 
 1010000   0.76694545   -3.9856502   -3.9856502   -2.9939849  0.028908358   -3.9856502   0.99166536      8192000 
 1011000   0.76709863    -3.985754    -3.985754   -2.9938906  0.027265289    -3.985754   0.99186342      8192000 
 1012000   0.76704573   -3.9854351   -3.9854351   -2.9936401  0.027654298   -3.9854351   0.99179503      8192000 
 1013000   0.76714718   -3.9848456   -3.9848456   -2.9929194  0.029787145   -3.9848456    0.9919262      8192000 
 1014000   0.76701914   -3.9851522   -3.9851522   -2.9933916  0.025862459   -3.9851522   0.99176063      8192000 
 1015000   0.76691695   -3.9847473   -3.9847473   -2.9931188  0.029658017   -3.9847473   0.99162851      8192000 
 1016000   0.76726892   -3.9849206   -3.9849206    -2.992837  0.026774172   -3.9849206    0.9920836      8192000 
 1017000   0.76711027   -3.9847777   -3.9847777   -2.9928992  0.026457497   -3.9847777   0.99187847      8192000 
 1018000   0.76709568   -3.9843339   -3.9843339   -2.9924743  0.025692089   -3.9843339   0.99185961      8192000 
 1019000   0.76695696   -3.9839258   -3.9839258   -2.9922456  0.030329832   -3.9839258   0.99168024      8192000 
 1020000   0.76724832     -3.98409     -3.98409   -2.9920331  0.028831878     -3.98409   0.99205697      8192000 
 1021000   0.76735045   -3.9836669   -3.9836669   -2.9914779  0.027900899   -3.9836669   0.99218903      8192000 
 1022000   0.76721534   -3.9835629   -3.9835629   -2.9915486  0.027156872   -3.9835629   0.99201433      8192000 
 1023000   0.76753612    -3.983854    -3.983854   -2.9914249  0.026991593    -3.983854   0.99242909      8192000 
 1024000   0.76744957   -3.9832514   -3.9832514   -2.9909342  0.027989183   -3.9832514   0.99231718      8192000 
 1025000   0.76757176   -3.9834524   -3.9834524   -2.9909772  0.027029213   -3.9834524   0.99247518      8192000 
 1026000      0.76784   -3.9832471   -3.9832471   -2.9904251  0.027043665   -3.9832471   0.99282202      8192000 
 1027000   0.76729177   -3.9830288   -3.9830288   -2.9909157  0.025487146   -3.9830288   0.99211315      8192000 
 1028000   0.76750214   -3.9824218   -3.9824218   -2.9900367  0.029707518   -3.9824218   0.99238516      8192000 
 1029000   0.76767938   -3.9825444   -3.9825444   -2.9899301  0.028051986   -3.9825444   0.99261433      8192000 
 1030000   0.76775867   -3.9823543   -3.9823543   -2.9896374  0.029874585   -3.9823543   0.99271686      8192000 
 1031000   0.76776185   -3.9823167   -3.9823167   -2.9895957   0.03072288   -3.9823167   0.99272097      8192000 
 1032000   0.76795553   -3.9824062   -3.9824062   -2.9894348  0.029725224   -3.9824062   0.99297139      8192000 
 1033000   0.76747971   -3.9817507   -3.9817507   -2.9893945  0.029467614   -3.9817507   0.99235616      8192000 
 1034000   0.76799962   -3.9821776   -3.9821776   -2.9891492  0.027990998   -3.9821776    0.9930284      8192000 
 1035000   0.76797271   -3.9823934   -3.9823934   -2.9893998   0.02672664   -3.9823934    0.9929936      8192000 
 1036000   0.76836008   -3.9827013   -3.9827013   -2.9892068   0.02403628   -3.9827013   0.99349448      8192000 
 1037000   0.76759451   -3.9817044   -3.9817044   -2.9891998  0.029240163   -3.9817044   0.99250459      8192000 
 1038000   0.76760428   -3.9816882   -3.9816882    -2.989171   0.02761763   -3.9816882   0.99251722      8192000 
 1039000   0.76827475   -3.9822225   -3.9822225   -2.9888384  0.027969851   -3.9822225   0.99338415      8192000 
 1040000    0.7678383    -3.981475    -3.981475   -2.9886552  0.027869613    -3.981475   0.99281982      8192000 
 1041000   0.76791472   -3.9812716   -3.9812716    -2.988353   0.02791341   -3.9812716   0.99291863      8192000 
 1042000   0.76823319    -3.981399    -3.981399   -2.9880686   0.02586117    -3.981399   0.99333042      8192000 
 1043000   0.76795988   -3.9811085   -3.9811085   -2.9881315  0.030235508   -3.9811085   0.99297702      8192000 
 1044000   0.76809565   -3.9809266   -3.9809266   -2.9877741  0.026467251   -3.9809266   0.99315258      8192000 
 1045000   0.76820927   -3.9809146   -3.9809146   -2.9876152   0.02913441   -3.9809146   0.99329949      8192000 
 1046000    0.7680481   -3.9809189   -3.9809189   -2.9878279  0.026160135   -3.9809189   0.99309109      8192000 
 1047000   0.76848602   -3.9808552   -3.9808552   -2.9871979  0.026298365   -3.9808552   0.99365732      8192000 
 1048000   0.76817321   -3.9805873   -3.9805873   -2.9873345  0.026911431   -3.9805873   0.99325286      8192000 
 1049000    0.7686825   -3.9807539   -3.9807539   -2.9868426   0.02625701   -3.9807539   0.99391137      8192000 
 1050000   0.76788573   -3.9801893   -3.9801893   -2.9873081  0.028810842   -3.9801893   0.99288115      8192000 
 1051000   0.76863532   -3.9805172   -3.9805172   -2.9866668  0.029048229   -3.9805172   0.99385037      8192000 
 1052000   0.76874001   -3.9806547   -3.9806547   -2.9866689  0.028619884   -3.9806547   0.99398573      8192000 
 1053000   0.76891521    -3.980493    -3.980493   -2.9862808   0.02646622    -3.980493   0.99421227      8192000 
 1054000   0.76854522   -3.9802157   -3.9802157   -2.9864818  0.027894889   -3.9802157   0.99373387      8192000 
 1055000   0.76834785   -3.9799437   -3.9799437   -2.9864651  0.027426645   -3.9799437   0.99347867      8192000 
 1056000   0.76929797   -3.9804279   -3.9804279   -2.9857207  0.025229714   -3.9804279   0.99470718      8192000 
 1057000   0.76876169   -3.9798301   -3.9798301   -2.9858164  0.028929711   -3.9798301   0.99401377      8192000 
 1058000   0.76866524   -3.9799018   -3.9799018   -2.9860128  0.026294108   -3.9799018   0.99388906      8192000 
 1059000   0.76854739   -3.9795335   -3.9795335   -2.9857968  0.028165682   -3.9795335   0.99373667      8192000 
 1060000   0.76845335    -3.979133    -3.979133   -2.9855179  0.029038379    -3.979133   0.99361509      8192000 
 1061000   0.76844566   -3.9794715   -3.9794715   -2.9858663  0.029353815   -3.9794715   0.99360514      8192000 
 1062000   0.76900704   -3.9794935   -3.9794935   -2.9851625  0.026814455   -3.9794935     0.994331      8192000 
 1063000   0.76894738     -3.97963     -3.97963   -2.9853762  0.025574551     -3.97963   0.99425386      8192000 
 1064000    0.7683784   -3.9787426   -3.9787426   -2.9852244  0.027994293   -3.9787426   0.99351817      8192000 
 1065000   0.76853674    -3.978989    -3.978989   -2.9852661  0.025246001    -3.978989    0.9937229      8192000 
 1066000   0.76855827   -3.9787759   -3.9787759   -2.9850252  0.028698354   -3.9787759   0.99375074      8192000 
 1067000   0.76885351    -3.979105    -3.979105   -2.9849725  0.025972448    -3.979105   0.99413249      8192000 
 1068000    0.7684727   -3.9786963   -3.9786963   -2.9850562  0.028011905   -3.9786963    0.9936401      8192000 
 1069000    0.7685337   -3.9784538   -3.9784538   -2.9847348  0.028060321   -3.9784538   0.99371897      8192000 
 1070000   0.76841361   -3.9785085   -3.9785085   -2.9849448  0.027683414   -3.9785085    0.9935637      8192000 
 1071000   0.76894362   -3.9784121   -3.9784121   -2.9841631   0.02958767   -3.9784121     0.994249      8192000 
 1072000   0.76935981   -3.9790901   -3.9790901    -2.984303  0.028629487   -3.9790901   0.99478715      8192000 
 1073000   0.76945263   -3.9788973   -3.9788973   -2.9839902  0.028757021   -3.9788973   0.99490715      8192000 
 1074000   0.76867927   -3.9778127   -3.9778127   -2.9839055  0.030212938   -3.9778127   0.99390719      8192000 
 1075000   0.76919823   -3.9785091   -3.9785091   -2.9839309  0.029004427   -3.9785091   0.99457822      8192000 
 1076000   0.76914711   -3.9783188   -3.9783188   -2.9838067  0.028352684   -3.9783188   0.99451212      8192000 
 1077000    0.7691446   -3.9780937   -3.9780937   -2.9835849  0.030506986   -3.9780937   0.99450887      8192000 
 1078000   0.76949848   -3.9784778   -3.9784778   -2.9835114   0.02694197   -3.9784778   0.99496644      8192000 
 1079000   0.76942462   -3.9779696   -3.9779696   -2.9830986  0.024202264   -3.9779696   0.99487094      8192000 
 1080000   0.76913042    -3.977291    -3.977291   -2.9828005  0.029583586    -3.977291   0.99449053      8192000 
 1081000   0.76928286   -3.9774024   -3.9774024   -2.9827147  0.029951243   -3.9774024   0.99468764      8192000 
 1082000   0.76952627   -3.9776297   -3.9776297   -2.9826273  0.026681489   -3.9776297   0.99500238      8192000 
 1083000    0.7695452   -3.9778872   -3.9778872   -2.9828603  0.027836304   -3.9778872   0.99502685      8192000 
 1084000   0.76899886   -3.9770761   -3.9770761   -2.9827557  0.028594783   -3.9770761   0.99432043      8192000 
 1085000    0.7690881   -3.9769429   -3.9769429   -2.9825071  0.028410133   -3.9769429   0.99443582      8192000 
 1086000   0.76926364   -3.9772115   -3.9772115   -2.9825488  0.026687133   -3.9772115   0.99466279      8192000 
 1087000   0.76921991   -3.9772515   -3.9772515   -2.9826453   0.02707046   -3.9772515   0.99460624      8192000 
 1088000   0.76927939   -3.9770702   -3.9770702   -2.9823871  0.028025233   -3.9770702   0.99468316      8192000 
 1089000   0.76945117   -3.9769901   -3.9769901   -2.9820848  0.030196823   -3.9769901   0.99490526      8192000 
 1090000   0.76922702   -3.9767377   -3.9767377   -2.9821222   0.02764243   -3.9767377   0.99461544      8192000 
 1091000   0.76935873   -3.9764171   -3.9764171   -2.9816313  0.028900654   -3.9764171   0.99478574      8192000 
 1092000   0.76923993   -3.9766995   -3.9766995   -2.9820674  0.027574172   -3.9766995   0.99463213      8192000 
 1093000   0.76954779   -3.9766611   -3.9766611   -2.9816309  0.027140682   -3.9766611    0.9950302      8192000 
 1094000   0.76937555   -3.9765047   -3.9765047   -2.9816972  0.028391071   -3.9765047   0.99480749      8192000 
 1095000   0.76946847   -3.9759095   -3.9759095   -2.9809818  0.028180294   -3.9759095   0.99492764      8192000 
 1096000   0.76928551   -3.9758588   -3.9758588   -2.9811678  0.024582594   -3.9758588   0.99469107      8192000 
 1097000   0.76931977   -3.9757952   -3.9757952   -2.9810598  0.030502368   -3.9757952   0.99473536      8192000 
 1098000   0.76986014   -3.9760228   -3.9760228   -2.9805887  0.028743533   -3.9760228   0.99543407      8192000 
 1099000   0.76984861    -3.976201    -3.976201   -2.9807819  0.028738639    -3.976201   0.99541916      8192000 
 1100000   0.76949042   -3.9755718   -3.9755718   -2.9806158  0.029267868   -3.9755718   0.99495602      8192000 
 1101000   0.76977187   -3.9756024   -3.9756024   -2.9802825  0.029102081   -3.9756024   0.99531994      8192000 
 1102000   0.76989053   -3.9757681   -3.9757681   -2.9802948  0.030952407   -3.9757681   0.99547336      8192000 
 1103000   0.76981337   -3.9758102   -3.9758102   -2.9804366  0.027410873   -3.9758102   0.99537359      8192000 
 1104000   0.77007122   -3.9756481   -3.9756481    -2.979941  0.026462717   -3.9756481     0.995707      8192000 
 1105000   0.77022814   -3.9757947   -3.9757947   -2.9798848  0.026635225   -3.9757947   0.99590989      8192000 
 1106000   0.77004443   -3.9756198   -3.9756198   -2.9799475  0.025827813   -3.9756198   0.99567236      8192000 
 1107000    0.7701504    -3.975669    -3.975669   -2.9798596  0.025942528    -3.975669   0.99580938      8192000 
 1108000   0.76990462   -3.9754272   -3.9754272   -2.9799356  0.027994361   -3.9754272   0.99549158      8192000 
 1109000   0.76963644    -3.974859    -3.974859   -2.9797141  0.027567517    -3.974859   0.99514482      8192000 
 1110000   0.76968301   -3.9748315   -3.9748315   -2.9796265  0.026474117   -3.9748315   0.99520504      8192000 
 1111000   0.76997352   -3.9748843   -3.9748843   -2.9793037  0.025362107   -3.9748843   0.99558067      8192000 
 1112000   0.76942678   -3.9742345   -3.9742345   -2.9793607  0.027569585   -3.9742345   0.99487374      8192000 
 1113000   0.76986971   -3.9744176   -3.9744176   -2.9789711  0.027237321   -3.9744176   0.99544644      8192000 
 1114000   0.77000596   -3.9746005   -3.9746005   -2.9789779  0.026717309   -3.9746005   0.99562261      8192000 
 1115000   0.76930172   -3.9734581   -3.9734581   -2.9787461  0.028713954   -3.9734581   0.99471203      8192000 
 1116000   0.76987397   -3.9741712   -3.9741712   -2.9787192  0.026863385   -3.9741712   0.99545195      8192000 
 1117000   0.76978022   -3.9740599   -3.9740599   -2.9787292  0.024379342   -3.9740599   0.99533074      8192000 
 1118000   0.76990273   -3.9741558   -3.9741558   -2.9786667  0.023589608   -3.9741558   0.99548914      8192000 
 1119000   0.76961614   -3.9733492   -3.9733492   -2.9782306   0.02785474   -3.9733492   0.99511857      8192000 
 1120000   0.77001162   -3.9739799   -3.9739799   -2.9783499  0.025975336   -3.9739799   0.99562994      8192000 
 1121000   0.77019263   -3.9741075   -3.9741075   -2.9782436  0.025768748   -3.9741075   0.99586398      8192000 
 1122000   0.77016743   -3.9736564   -3.9736564    -2.977825  0.026642491   -3.9736564   0.99583139      8192000 
 1123000   0.76999294   -3.9737992   -3.9737992   -2.9781934  0.026004069   -3.9737992   0.99560578      8192000 
 1124000   0.77033877   -3.9736864   -3.9736864   -2.9776334  0.026343377   -3.9736864   0.99605295      8192000 
 1125000    0.7697764   -3.9732217   -3.9732217   -2.9778959  0.027973802   -3.9732217    0.9953258      8192000 
 1126000   0.76988318   -3.9733956   -3.9733956   -2.9779318  0.026382784   -3.9733956   0.99546386      8192000 
 1127000   0.76990339   -3.9732239   -3.9732239   -2.9777339  0.026810395   -3.9732239      0.99549      8192000 
 1128000   0.77004393   -3.9736117   -3.9736117     -2.97794  0.025851705   -3.9736117   0.99567171      8192000 
 1129000   0.77004169   -3.9733421   -3.9733421   -2.9776733  0.024244498   -3.9733421   0.99566882      8192000 
 1130000   0.76980951   -3.9730223   -3.9730223   -2.9776537  0.027686233   -3.9730223   0.99536861      8192000 
 1131000   0.77026274   -3.9734152   -3.9734152   -2.9774606  0.025981469   -3.9734152   0.99595463      8192000 
 1132000   0.77005147   -3.9732829   -3.9732829   -2.9776015  0.024908857   -3.9732829   0.99568145      8192000 
 1133000   0.77026159   -3.9730879   -3.9730879   -2.9771347  0.024489933   -3.9730879   0.99595315      8192000 
 1134000     0.770605   -3.9733984   -3.9733984   -2.9770013  0.026791881   -3.9733984   0.99639718      8192000 
 1135000   0.77070551   -3.9729348   -3.9729348   -2.9764077   0.02455256   -3.9729348   0.99652714      8192000 
 1136000   0.77062866   -3.9728383   -3.9728383   -2.9764105  0.024338102   -3.9728383   0.99642777      8192000 
 1137000   0.76995895   -3.9722834   -3.9722834   -2.9767216  0.026952168   -3.9722834   0.99556184      8192000 
 1138000   0.77031216   -3.9725607   -3.9725607   -2.9765422  0.026697017   -3.9725607   0.99601854      8192000 
 1139000   0.76993514   -3.9720798   -3.9720798   -2.9765487  0.027221544   -3.9720798   0.99553104      8192000 
 1140000   0.77070204   -3.9722718   -3.9722718   -2.9757491  0.026381705   -3.9722718   0.99652265      8192000 
 1141000    0.7705258   -3.9726014   -3.9726014   -2.9763066  0.027232378   -3.9726014   0.99629477      8192000 
 1142000   0.77070509   -3.9727604   -3.9727604   -2.9762338  0.027585074   -3.9727604   0.99652659      8192000 
 1143000   0.77081987   -3.9730493   -3.9730493   -2.9763743  0.026762426   -3.9730493   0.99667501      8192000 
 1144000   0.77053015   -3.9725594   -3.9725594    -2.976259  0.027786443   -3.9725594   0.99630039      8192000 
 1145000   0.77035369   -3.9724608   -3.9724608   -2.9763886  0.029413757   -3.9724608   0.99607224      8192000 
 1146000   0.77090196   -3.9728795   -3.9728795   -2.9760984  0.027347976   -3.9728795   0.99678115      8192000 
 1147000   0.77026212   -3.9721396   -3.9721396   -2.9761857  0.028164747   -3.9721396   0.99595384      8192000 
 1148000   0.77077472   -3.9727679   -3.9727679   -2.9761513  0.026977598   -3.9727679   0.99661663      8192000 
 1149000   0.77029295   -3.9722094   -3.9722094   -2.9762157  0.026896119   -3.9722094   0.99599369      8192000 
 1150000   0.77110872     -3.97244     -3.97244   -2.9753916  0.025575331     -3.97244   0.99704849      8192000 
 1151000   0.77043813   -3.9717727   -3.9717727   -2.9755913  0.026446495   -3.9717727   0.99618142      8192000 
 1152000   0.77036985   -3.9716249   -3.9716249   -2.9755317  0.029081624   -3.9716249   0.99609313      8192000 
 1153000   0.77069029   -3.9719462   -3.9719462   -2.9754387  0.025981321   -3.9719462   0.99650746      8192000 
 1154000   0.77099601   -3.9719799   -3.9719799   -2.9750771  0.025495693   -3.9719799   0.99690275      8192000 
 1155000   0.77047884   -3.9713579   -3.9713579   -2.9751238  0.026998387   -3.9713579   0.99623405      8192000 
 1156000   0.77062754    -3.971496    -3.971496   -2.9750696  0.027722144    -3.971496   0.99642633      8192000 
 1157000   0.77081949   -3.9719162   -3.9719162   -2.9752416  0.026522276   -3.9719162   0.99667451      8192000 
 1158000   0.77012419   -3.9710735   -3.9710735    -2.975298  0.026470171   -3.9710735   0.99577549      8192000 
 1159000    0.7705645   -3.9715314   -3.9715314   -2.9751866   0.02570557   -3.9715314   0.99634481      8192000 
 1160000    0.7702651     -3.97143     -3.97143   -2.9754723   0.02683557     -3.97143   0.99595769      8192000 
 1161000   0.77080071   -3.9715698   -3.9715698   -2.9749196   0.02744338   -3.9715698   0.99665023      8192000 
 1162000   0.77081921    -3.971508    -3.971508   -2.9748339  0.029412272    -3.971508   0.99667416      8192000 
 1163000   0.77068325   -3.9712164   -3.9712164    -2.974718  0.028176987   -3.9712164   0.99649835      8192000 
 1164000   0.77099926   -3.9713119   -3.9713119    -2.974405  0.026467824   -3.9713119   0.99690696      8192000 
 1165000   0.77092071   -3.9713766   -3.9713766   -2.9745712  0.027359464   -3.9713766   0.99680539      8192000 
 1166000   0.77150518   -3.9712017   -3.9712017   -2.9736406  0.027627005   -3.9712017   0.99756111      8192000 
 1167000   0.77129566   -3.9711838   -3.9711838   -2.9738936  0.026608325   -3.9711838   0.99729021      8192000 
 1168000   0.77190038   -3.9717965   -3.9717965   -2.9737244   0.02793415   -3.9717965   0.99807211      8192000 
 1169000    0.7713359   -3.9711387   -3.9711387   -2.9737964   0.02845703   -3.9711387   0.99734224      8192000 
 1170000   0.77140725    -3.971095    -3.971095   -2.9736605  0.028041939    -3.971095   0.99743449      8192000 
 1171000   0.77099822   -3.9704864   -3.9704864   -2.9735808  0.029547095   -3.9704864   0.99690561      8192000 
 1172000   0.77125989    -3.970712    -3.970712    -2.973468  0.025465863    -3.970712   0.99724395      8192000 
 1173000   0.77119578   -3.9706461   -3.9706461    -2.973485  0.028789198   -3.9706461   0.99716106      8192000 
 1174000   0.77116815    -3.970444    -3.970444   -2.9733187  0.028976036    -3.970444   0.99712533      8192000 
 1175000   0.77128939   -3.9702863   -3.9702863   -2.9730043  0.029289443   -3.9702863   0.99728209      8192000 
 1176000   0.77130087   -3.9705228   -3.9705228   -2.9732259  0.026808454   -3.9705228   0.99729694      8192000 
 1177000   0.77134414   -3.9700143   -3.9700143   -2.9726614   0.02832746   -3.9700143   0.99735289      8192000 
 1178000   0.77168027   -3.9702997   -3.9702997   -2.9725122  0.028264535   -3.9702997   0.99778751      8192000 
 1179000   0.77140347   -3.9700285   -3.9700285   -2.9725989  0.026059851   -3.9700285   0.99742961      8192000 
 1180000   0.77084314   -3.9697108   -3.9697108   -2.9730057   0.02625726   -3.9697108    0.9967051      8192000 
 1181000   0.77099575    -3.969457    -3.969457   -2.9725546  0.028063522    -3.969457   0.99690241      8192000 
 1182000   0.77077827   -3.9693916   -3.9693916   -2.9727704  0.027546624   -3.9693916   0.99662121      8192000 
 1183000    0.7711703   -3.9695443   -3.9695443   -2.9724162  0.025019023   -3.9695443   0.99712812      8192000 
 1184000   0.77125394   -3.9692565   -3.9692565   -2.9720202  0.024781189   -3.9692565   0.99723626      8192000 
 1185000   0.77110733   -3.9691996   -3.9691996   -2.9721529   0.02476421   -3.9691996   0.99704669      8192000 
 1186000   0.77103287    -3.969322    -3.969322   -2.9723716  0.023591652    -3.969322   0.99695042      8192000 
 1187000   0.77105002   -3.9693021   -3.9693021   -2.9723295  0.025106026   -3.9693021   0.99697259      8192000 
 1188000   0.77130027   -3.9691134   -3.9691134   -2.9718173  0.025362498   -3.9691134   0.99729616      8192000 
 1189000   0.77135062   -3.9691708   -3.9691708   -2.9718095  0.025259649   -3.9691708   0.99736127      8192000 
 1190000   0.77104623   -3.9686537   -3.9686537    -2.971686  0.026474045   -3.9686537    0.9969677      8192000 
 1191000   0.77093111   -3.9686761   -3.9686761   -2.9718572  0.023999657   -3.9686761   0.99681885      8192000 
 1192000   0.77119537   -3.9684764   -3.9684764   -2.9713159  0.025688783   -3.9684764   0.99716053      8192000 
 1193000   0.77104742   -3.9685977   -3.9685977   -2.9716285  0.025948162   -3.9685977   0.99696924      8192000 
 1194000    0.7715031   -3.9684113   -3.9684113   -2.9708528  0.026115635   -3.9684113   0.99755842      8192000 
 1195000   0.77144215   -3.9690154   -3.9690154   -2.9715358  0.023684844   -3.9690154   0.99747961      8192000 
 1196000   0.77166188   -3.9685648   -3.9685648   -2.9708011  0.027340982   -3.9685648   0.99776372      8192000 
 1197000   0.77138194   -3.9684583   -3.9684583   -2.9710565  0.025180551   -3.9684583   0.99740176      8192000 
 1198000   0.77151055   -3.9685583   -3.9685583   -2.9709902  0.022902815   -3.9685583   0.99756806      8192000 
 1199000   0.77127249   -3.9682336   -3.9682336   -2.9709734  0.026891044   -3.9682336   0.99726025      8192000 
 1200000   0.77091881   -3.9678527   -3.9678527   -2.9710498  0.025433187   -3.9678527   0.99680294      8192000 
 1201000   0.77072413   -3.9678121   -3.9678121   -2.9712608  0.027863804   -3.9678121   0.99655122      8192000 
 1202000   0.77106797   -3.9677559   -3.9677559   -2.9707601  0.025825735   -3.9677559    0.9969958      8192000 
 1203000   0.77133817    -3.968431    -3.968431   -2.9710858  0.023175955    -3.968431   0.99734517      8192000 
 1204000   0.77098233   -3.9675559   -3.9675559   -2.9706708  0.026515491   -3.9675559   0.99688507      8192000 
 1205000   0.77083053   -3.9674587   -3.9674587   -2.9707699  0.024814334   -3.9674587   0.99668879      8192000 
 1206000   0.77138912   -3.9681211   -3.9681211     -2.97071  0.024571016   -3.9681211   0.99741104      8192000 
 1207000   0.77112036    -3.967995    -3.967995   -2.9709315  0.023285044    -3.967995   0.99706354      8192000 
 1208000   0.77108645   -3.9676572   -3.9676572   -2.9706375  0.024375768   -3.9676572   0.99701969      8192000 
 1209000   0.77111094   -3.9674068   -3.9674068   -2.9703555  0.023530172   -3.9674068   0.99705137      8192000 
 1210000   0.77155523   -3.9675409   -3.9675409    -2.969915   0.02595334   -3.9675409   0.99762583      8192000 
 1211000   0.77143173   -3.9673364   -3.9673364   -2.9698703  0.026767233   -3.9673364   0.99746615      8192000 
 1212000   0.77157495   -3.9675484   -3.9675484   -2.9698971  0.027086432   -3.9675484   0.99765133      8192000 
 1213000   0.77094383   -3.9667018   -3.9667018   -2.9698665  0.029494744   -3.9667018   0.99683528      8192000 
 1214000   0.77147473   -3.9673418   -3.9673418   -2.9698201  0.027455446   -3.9673418   0.99752174      8192000 
 1215000   0.77185063   -3.9676275   -3.9676275   -2.9696197  0.024921881   -3.9676275   0.99800778      8192000 
 1216000   0.77190453   -3.9678862   -3.9678862   -2.9698087  0.028647159   -3.9678862   0.99807748      8192000 
 1217000   0.77243044   -3.9679976   -3.9679976   -2.9692401  0.026349371   -3.9679976   0.99875748      8192000 
 1218000   0.77237417   -3.9678733   -3.9678733   -2.9691885  0.029212209   -3.9678733   0.99868473      8192000 
 1219000    0.7726257   -3.9676035   -3.9676035   -2.9685936  0.029108914   -3.9676035   0.99900995      8192000 
 1220000   0.77211871    -3.967432    -3.967432   -2.9690776  0.031932625    -3.967432   0.99835442      8192000 
 1221000   0.77228803   -3.9676662   -3.9676662   -2.9690928  0.028964264   -3.9676662   0.99857335      8192000 
 1222000   0.77245066   -3.9677788   -3.9677788   -2.9689951  0.027518923   -3.9677788   0.99878362      8192000 
 1223000   0.77227852   -3.9674697   -3.9674697   -2.9689086  0.028213595   -3.9674697   0.99856105      8192000 
 1224000   0.77198556   -3.9669688   -3.9669688   -2.9687865  0.030590597   -3.9669688   0.99818225      8192000 
 1225000   0.77210249   -3.9670496   -3.9670496   -2.9687161  0.026209174   -3.9670496   0.99833345      8192000 
 1226000   0.77235867   -3.9675891   -3.9675891   -2.9689245   0.02597024   -3.9675891   0.99866469      8192000 
 1227000   0.77265899    -3.967445    -3.967445    -2.968392   0.02812805    -3.967445     0.999053      8192000 
 1228000    0.7722965   -3.9668887   -3.9668887   -2.9683044  0.029813091   -3.9668887    0.9985843      8192000 
 1229000   0.77218027   -3.9670591   -3.9670591   -2.9686251  0.027013773   -3.9670591   0.99843402      8192000 
 1230000    0.7722616   -3.9673679   -3.9673679   -2.9688287  0.025049083   -3.9673679   0.99853917      8192000 
 1231000   0.77174606   -3.9662905   -3.9662905   -2.9684179  0.030608069   -3.9662905   0.99787258      8192000 
 1232000   0.77197088    -3.966894    -3.966894   -2.9687307  0.030614257    -3.966894   0.99816327      8192000 
 1233000   0.77300699   -3.9676177   -3.9676177   -2.9681148  0.026659369   -3.9676177   0.99950297      8192000 
 1234000   0.77216499   -3.9671768   -3.9671768   -2.9687625  0.025691309   -3.9671768   0.99841425      8192000 
 1235000   0.77237259   -3.9671795   -3.9671795   -2.9684968  0.027997015   -3.9671795   0.99868268      8192000 
 1236000    0.7723189   -3.9668997   -3.9668997   -2.9682865   0.02563024   -3.9668997   0.99861326      8192000 
 1237000    0.7724909   -3.9670369   -3.9670369   -2.9682012  0.026954765   -3.9670369   0.99883566      8192000 
 1238000   0.77233364   -3.9667123   -3.9667123     -2.96808  0.027327759   -3.9667123   0.99863232      8192000 
 1239000   0.77224902   -3.9662008   -3.9662008   -2.9676779  0.029958812   -3.9662008    0.9985229      8192000 
 1240000   0.77255343   -3.9668805   -3.9668805    -2.967964  0.028531639   -3.9668805    0.9989165      8192000 
 1241000   0.77277918   -3.9669077   -3.9669077   -2.9676993  0.026574153   -3.9669077   0.99920841      8192000 
 1242000   0.77219448   -3.9659509   -3.9659509   -2.9674985  0.030421606   -3.9659509   0.99845239      8192000 
 1243000    0.7726223   -3.9661989   -3.9661989   -2.9671933  0.029687189   -3.9661989   0.99900556      8192000 
 1244000   0.77249708   -3.9659521   -3.9659521   -2.9671084  0.029382733   -3.9659521   0.99884365      8192000 
 1245000   0.77274563    -3.966283    -3.966283    -2.967118   0.02586418    -3.966283   0.99916503      8192000 
 1246000   0.77252614   -3.9657652   -3.9657652    -2.966884  0.029793301   -3.9657652   0.99888123      8192000 
 1247000   0.77212676   -3.9651961   -3.9651961   -2.9668313  0.028689065   -3.9651961   0.99836482      8192000 
 1248000   0.77280373   -3.9658595   -3.9658595   -2.9666193  0.025806512   -3.9658595   0.99924015      8192000 
 1249000    0.7720568   -3.9651509   -3.9651509   -2.9668766   0.02759515   -3.9651509   0.99827436      8192000 
 1250000   0.77238049   -3.9651186   -3.9651186   -2.9664257  0.028585757   -3.9651186    0.9986929      8192000 
 1251000   0.77218423     -3.96505     -3.96505   -2.9666109  0.025599838     -3.96505   0.99843913      8192000 
 1252000   0.77205486   -3.9651725   -3.9651725   -2.9669007  0.026196342   -3.9651725   0.99827185      8192000 
 1253000   0.77225887   -3.9652132   -3.9652132   -2.9666776  0.024540516   -3.9652132   0.99853565      8192000 
 1254000   0.77185537   -3.9646621   -3.9646621   -2.9666482  0.025781937   -3.9646621   0.99801391      8192000 
 1255000   0.77162904   -3.9643784   -3.9643784   -2.9666572  0.026625843   -3.9643784   0.99772126      8192000 
 1256000   0.77202445   -3.9649595   -3.9649595    -2.966727  0.025104076   -3.9649595   0.99823253      8192000 
 1257000   0.77192781   -3.9642957   -3.9642957   -2.9661881   0.02796434   -3.9642957   0.99810758      8192000 
 1258000   0.77200519   -3.9641342   -3.9641342   -2.9659266  0.028077209   -3.9641342   0.99820764      8192000 
 1259000   0.77233322   -3.9641272   -3.9641272   -2.9654954  0.022151488   -3.9641272   0.99863178      8192000 
 1260000   0.77260316   -3.9648828   -3.9648828    -2.965902   0.02343026   -3.9648828   0.99898081      8192000 
 1261000   0.77234969   -3.9641963   -3.9641963   -2.9655432  0.026596494   -3.9641963   0.99865307      8192000 
 1262000    0.7722142   -3.9640059   -3.9640059    -2.965528  0.027520102   -3.9640059   0.99847789      8192000 
 1263000   0.77190529   -3.9639067   -3.9639067   -2.9658282   0.02696913   -3.9639067   0.99807846      8192000 
 1264000   0.77237738   -3.9641112   -3.9641112   -2.9654223  0.028809836   -3.9641112   0.99868888      8192000 
 1265000   0.77205521   -3.9639758   -3.9639758   -2.9657035  0.025940312   -3.9639758    0.9982723      8192000 
 1266000   0.77225682   -3.9638718   -3.9638718   -2.9653388  0.027746449   -3.9638718     0.998533      8192000 
 1267000   0.77220558   -3.9638737   -3.9638737   -2.9654069  0.027032063   -3.9638737   0.99846674      8192000 
 1268000   0.77212123   -3.9638867   -3.9638867    -2.965529  0.023077632   -3.9638867   0.99835768      8192000 
 1269000   0.77226133    -3.964092    -3.964092   -2.9655532  0.024100659    -3.964092   0.99853882      8192000 
 1270000   0.77211454   -3.9636528   -3.9636528   -2.9653038  0.024779742   -3.9636528   0.99834902      8192000 
 1271000    0.7724011   -3.9640169   -3.9640169   -2.9652973  0.025690091   -3.9640169   0.99871954      8192000 
 1272000    0.7726593   -3.9643829   -3.9643829   -2.9653295  0.025308385   -3.9643829    0.9990534      8192000 
 1273000   0.77263792   -3.9640461   -3.9640461   -2.9650203  0.027590614   -3.9640461   0.99902576      8192000 
 1274000   0.77230711   -3.9634845   -3.9634845   -2.9648865  0.025662158   -3.9634845   0.99859801      8192000 
 1275000   0.77268778    -3.964203    -3.964203   -2.9651128   0.02272893    -3.964203   0.99909023      8192000 
 1276000   0.77248978   -3.9635529   -3.9635529   -2.9647187  0.022417257   -3.9635529   0.99883421      8192000 
 1277000   0.77214742   -3.9629999   -3.9629999   -2.9646084  0.025428412   -3.9629999   0.99839154      8192000 
 1278000   0.77235541   -3.9634216   -3.9634216   -2.9647612  0.023727267   -3.9634216   0.99866047      8192000 
 1279000   0.77248558   -3.9633505   -3.9633505   -2.9645217  0.023655741   -3.9633505   0.99882878      8192000 
 1280000   0.77230331   -3.9634627   -3.9634627   -2.9648696  0.022674629   -3.9634627    0.9985931      8192000 
 1281000    0.7724866   -3.9634449   -3.9634449   -2.9646148  0.024869332   -3.9634449   0.99883009      8192000 
 1282000   0.77263118   -3.9634049   -3.9634049   -2.9643878   0.02590133   -3.9634049   0.99901704      8192000 
 1283000   0.77280063   -3.9636515   -3.9636515   -2.9644154    0.0256033   -3.9636515   0.99923614      8192000 
 1284000   0.77299044   -3.9641356   -3.9641356   -2.9646541  0.025580662   -3.9641356   0.99948157      8192000 
 1285000   0.77234735   -3.9632022   -3.9632022   -2.9645522  0.025621399   -3.9632022   0.99865005      8192000 
 1286000   0.77265439   -3.9632733   -3.9632733   -2.9642262  0.027576238   -3.9632733   0.99904705      8192000 
 1287000   0.77302251   -3.9640405   -3.9640405   -2.9645175  0.025583301   -3.9640405   0.99952303      8192000 
 1288000    0.7725365   -3.9634208   -3.9634208   -2.9645262  0.028837503   -3.9634208   0.99889462      8192000 
 1289000   0.77280512   -3.9634427   -3.9634427   -2.9642008  0.028118713   -3.9634427   0.99924194      8192000 
 1290000   0.77312954    -3.963723    -3.963723   -2.9640616  0.028736445    -3.963723   0.99966142      8192000 
 1291000   0.77328443   -3.9638044   -3.9638044   -2.9639427  0.030550787   -3.9638044   0.99986169      8192000 
 1292000   0.77351739   -3.9637402   -3.9637402   -2.9635773  0.029307157   -3.9637402    1.0001629      8192000 
 1293000   0.77377064   -3.9641005   -3.9641005   -2.9636102   0.02500329   -3.9641005    1.0004904      8192000 
 1294000   0.77337599   -3.9637891   -3.9637891    -2.963809  0.024973534   -3.9637891   0.99998009      8192000 
 1295000   0.77343706    -3.963723    -3.963723   -2.9636639  0.026906161    -3.963723     1.000059      8192000 
 1296000   0.77359733   -3.9634864   -3.9634864   -2.9632201  0.029396139   -3.9634864    1.0002663      8192000 
 1297000   0.77357814   -3.9639169   -3.9639169   -2.9636754  0.030800705   -3.9639169    1.0002415      8192000 
 1298000   0.77324335   -3.9638618   -3.9638618   -2.9640532  0.026874545   -3.9638618   0.99980858      8192000 
 1299000   0.77329126   -3.9636565   -3.9636565    -2.963786  0.029535755   -3.9636565   0.99987053      8192000 
 1300000   0.77308349   -3.9633149   -3.9633149    -2.963713  0.029316652   -3.9633149   0.99960188      8192000 
 1301000   0.77304255   -3.9636334   -3.9636334   -2.9640844  0.027001668   -3.9636334   0.99954895      8192000 
 1302000   0.77311024   -3.9634929   -3.9634929   -2.9638564   0.02703094   -3.9634929   0.99963647      8192000 
 1303000    0.7733686   -3.9636998   -3.9636998   -2.9637293  0.026459234   -3.9636998   0.99997053      8192000 
 1304000   0.77301526   -3.9632607   -3.9632607   -2.9637471  0.027172561   -3.9632607   0.99951365      8192000 
 1305000   0.77262748   -3.9628872   -3.9628872    -2.963875   0.02933479   -3.9628872   0.99901225      8192000 
 1306000   0.77324263   -3.9634411   -3.9634411   -2.9636334  0.026216626   -3.9634411   0.99980765      8192000 
 1307000   0.77294138   -3.9628121   -3.9628121   -2.9633939  0.029410264   -3.9628121   0.99941813      8192000 
 1308000   0.77259065   -3.9626125   -3.9626125   -2.9636479  0.027197115   -3.9626125   0.99896463      8192000 
 1309000   0.77302302   -3.9633204   -3.9633204   -2.9637967  0.027524613   -3.9633204    0.9995237      8192000 
 1310000   0.77326523   -3.9628109   -3.9628109   -2.9629741  0.030431134   -3.9628109   0.99983687      8192000 
 1311000    0.7731308   -3.9624576   -3.9624576   -2.9627945  0.028398799   -3.9624576   0.99966306      8192000 
 1312000    0.7737071   -3.9633784   -3.9633784   -2.9629702  0.029064229   -3.9633784    1.0004082      8192000 
 1313000   0.77384697   -3.9630525   -3.9630525   -2.9624635   0.02943766   -3.9630525    1.0005891      8192000 
 1314000   0.77384417   -3.9628927   -3.9628927   -2.9623072  0.027660969   -3.9628927    1.0005854      8192000 
 1315000   0.77364876   -3.9629168   -3.9629168    -2.962584  0.028692155   -3.9629168    1.0003328      8192000 
 1316000   0.77390054   -3.9628358   -3.9628358   -2.9621774   0.02666167   -3.9628358    1.0006583      8192000 
 1317000   0.77402596   -3.9627185   -3.9627185    -2.961898  0.028998785   -3.9627185    1.0008205      8192000 
 1318000   0.77365263   -3.9629334   -3.9629334   -2.9625956  0.026018501   -3.9629334    1.0003378      8192000 
 1319000   0.77357915   -3.9625159   -3.9625159   -2.9622731  0.027507403   -3.9625159    1.0002428      8192000 
 1320000   0.77335589   -3.9623182   -3.9623182   -2.9623641  0.027228438   -3.9623182   0.99995409      8192000 
 1321000   0.77344031   -3.9623062   -3.9623062   -2.9622429  0.027986854   -3.9623062    1.0000632      8192000 
 1322000   0.77345535   -3.9622312   -3.9622312   -2.9621485  0.027864996   -3.9622312    1.0000827      8192000 
 1323000   0.77344229   -3.9620233   -3.9620233   -2.9619575  0.026309163   -3.9620233    1.0000658      8192000 
 1324000   0.77329359   -3.9619999   -3.9619999   -2.9621263  0.026709514   -3.9619999   0.99987355      8192000 
 1325000   0.77386971   -3.9626377   -3.9626377   -2.9620192  0.026648479   -3.9626377    1.0006185      8192000 
 1326000    0.7734973   -3.9618522   -3.9618522   -2.9617153  0.027736786   -3.9618522    1.0001369      8192000 
 1327000   0.77327459   -3.9619398   -3.9619398   -2.9620908  0.028886374   -3.9619398   0.99984897      8192000 
 1328000   0.77358076   -3.9620367   -3.9620367   -2.9617918  0.025930711   -3.9620367    1.0002449      8192000 
 1329000   0.77304561   -3.9616642   -3.9616642   -2.9621113   0.02432552   -3.9616642    0.9995529      8192000 
 1330000   0.77336704    -3.961822    -3.961822   -2.9618535  0.023932657    -3.961822   0.99996851      8192000 
 1331000   0.77279077   -3.9608196   -3.9608196   -2.9615962  0.027781688   -3.9608196   0.99922339      8192000 
 1332000   0.77316109   -3.9611608   -3.9611608   -2.9614586  0.026817779   -3.9611608   0.99970222      8192000 
 1333000   0.77338248   -3.9616071   -3.9616071   -2.9616187  0.023128803   -3.9616071   0.99998848      8192000 
 1334000   0.77267092   -3.9603936   -3.9603936   -2.9613251  0.027439763   -3.9603936   0.99906843      8192000 
 1335000   0.77317888    -3.961128    -3.961128   -2.9614028  0.024053471    -3.961128   0.99972522      8192000 
 1336000   0.77337547   -3.9610222   -3.9610222   -2.9610428  0.026659743   -3.9610222   0.99997942      8192000 
 1337000   0.77316978   -3.9607358   -3.9607358   -2.9610223  0.024917583   -3.9607358   0.99971345      8192000 
 1338000   0.77332631   -3.9610049   -3.9610049    -2.961089  0.025336868   -3.9610049   0.99991585      8192000 
 1339000   0.77324312    -3.960986    -3.960986   -2.9611777  0.023765665    -3.960986   0.99980829      8192000 
 1340000   0.77344813   -3.9609136   -3.9609136   -2.9608402  0.025921695   -3.9609136    1.0000734      8192000 
 1341000   0.77321961   -3.9608908   -3.9608908    -2.961113  0.026651314   -3.9608908   0.99977789      8192000 
 1342000   0.77335543   -3.9612122   -3.9612122   -2.9612587  0.027092819   -3.9612122    0.9999535      8192000 
 1343000   0.77316895   -3.9604993   -3.9604993   -2.9607869  0.026885357   -3.9604993   0.99971238      8192000 
 1344000   0.77363312   -3.9612083   -3.9612083   -2.9608957  0.024650181   -3.9612083    1.0003126      8192000 
 1345000   0.77332083    -3.960742    -3.960742   -2.9608332  0.027827032    -3.960742   0.99990876      8192000 
 1346000   0.77327606   -3.9606787   -3.9606787   -2.9608278  0.026770801   -3.9606787   0.99985088      8192000 
 1347000   0.77360218   -3.9606478   -3.9606478   -2.9603753  0.024707027   -3.9606478    1.0002725      8192000 
 1348000   0.77336823   -3.9604566   -3.9604566   -2.9604866  0.023727512   -3.9604566   0.99997005      8192000 
 1349000    0.7736308   -3.9605309   -3.9605309   -2.9602213  0.025573784   -3.9605309    1.0003096      8192000 
 1350000   0.77353667   -3.9605514   -3.9605514   -2.9603635  0.023365573   -3.9605514    1.0001878      8192000 
 1351000   0.77356182   -3.9601469   -3.9601469   -2.9599266  0.024979966   -3.9601469    1.0002204      8192000 
 1352000   0.77382508   -3.9609738   -3.9609738   -2.9604131  0.023907706   -3.9609738    1.0005608      8192000 
 1353000   0.77401518   -3.9603593   -3.9603593   -2.9595527  0.024853938   -3.9603593    1.0008066      8192000 
 1354000   0.77382392    -3.960348    -3.960348   -2.9597888  0.024635575    -3.960348    1.0005593      8192000 
 1355000   0.77330776    -3.959731    -3.959731   -2.9598392   0.02765636    -3.959731   0.99989186      8192000 
 1356000   0.77373371   -3.9601105   -3.9601105   -2.9596679  0.028187568   -3.9601105    1.0004426      8192000 
 1357000   0.77389133   -3.9603199   -3.9603199   -2.9596735  0.023894753   -3.9603199    1.0006464      8192000 
 1358000   0.77361873    -3.960095    -3.960095    -2.959801  0.026935093    -3.960095    1.0002939      8192000 
 1359000   0.77370716   -3.9600476   -3.9600476   -2.9596393  0.027214787   -3.9600476    1.0004083      8192000 
 1360000   0.77367511    -3.960158    -3.960158   -2.9597912   0.02774487    -3.960158    1.0003668      8192000 
 1361000   0.77381604    -3.959765    -3.959765   -2.9592159  0.028389943    -3.959765    1.0005491      8192000 
 1362000   0.77376869   -3.9598139   -3.9598139    -2.959326  0.029152952   -3.9598139    1.0004879      8192000 
 1363000   0.77394957   -3.9601309   -3.9601309   -2.9594092  0.026502622   -3.9601309    1.0007217      8192000 
 1364000   0.77381606   -3.9600086   -3.9600086   -2.9594595  0.027219457   -3.9600086    1.0005491      8192000 
 1365000   0.77413163   -3.9603854   -3.9603854   -2.9594283  0.025810866   -3.9603854    1.0009571      8192000 
 1366000   0.77414545   -3.9602321   -3.9602321   -2.9592571  0.025467414   -3.9602321     1.000975      8192000 
 1367000   0.77408576   -3.9598321   -3.9598321   -2.9589342  0.025738542   -3.9598321    1.0008978      8192000 
 1368000   0.77395087   -3.9596962   -3.9596962   -2.9589728  0.028404585   -3.9596962    1.0007234      8192000 
 1369000   0.77372833   -3.9595125   -3.9595125   -2.9590769  0.027889811   -3.9595125    1.0004357      8192000 
 1370000   0.77364854   -3.9592491   -3.9592491   -2.9589166  0.027700664   -3.9592491    1.0003325      8192000 
 1371000   0.77397572   -3.9589456   -3.9589456   -2.9581901  0.030152325   -3.9589456    1.0007555      8192000 
 1372000   0.77391288   -3.9591651   -3.9591651   -2.9584908  0.028690768   -3.9591651    1.0006743      8192000 
 1373000   0.77380011   -3.9589032   -3.9589032   -2.9583747  0.028246131   -3.9589032    1.0005285      8192000 
 1374000   0.77377687   -3.9589452   -3.9589452   -2.9584468   0.02713986   -3.9589452    1.0004984      8192000 
 1375000   0.77349822   -3.9589055   -3.9589055   -2.9587674  0.025973299   -3.9589055    1.0001381      8192000 
 1376000   0.77370448   -3.9592037   -3.9592037   -2.9587989  0.025996759   -3.9592037    1.0004048      8192000 
 1377000   0.77437989   -3.9595261   -3.9595261   -2.9582479  0.025326656   -3.9595261    1.0012781      8192000 
 1378000   0.77427733   -3.9596803   -3.9596803   -2.9585348   0.02691927   -3.9596803    1.0011455      8192000 
 1379000   0.77399395   -3.9596762   -3.9596762   -2.9588971  0.027160449   -3.9596762    1.0007791      8192000 
 1380000   0.77423756   -3.9597656   -3.9597656   -2.9586715   0.02749892   -3.9597656    1.0010941      8192000 
 1381000   0.77422148   -3.9594433   -3.9594433     -2.95837  0.026448809   -3.9594433    1.0010733      8192000 
 1382000   0.77459836   -3.9596907   -3.9596907   -2.9581301  0.027868299   -3.9596907    1.0015606      8192000 
 1383000   0.77422051    -3.959354    -3.959354   -2.9582819   0.02675315    -3.959354    1.0010721      8192000 
 1384000   0.77422349   -3.9592278   -3.9592278   -2.9581519  0.026080906   -3.9592278    1.0010759      8192000 
 1385000   0.77455642   -3.9597504   -3.9597504    -2.958244  0.025140214   -3.9597504    1.0015064      8192000 
 1386000   0.77397852   -3.9588982   -3.9588982   -2.9581391   0.03130633   -3.9588982    1.0007592      8192000 
 1387000   0.77454504   -3.9591557   -3.9591557    -2.957664  0.025837271   -3.9591557    1.0014917      8192000 
 1388000   0.77458424   -3.9592907   -3.9592907   -2.9577483  0.023316485   -3.9592907    1.0015424      8192000 
 1389000   0.77391173   -3.9584978   -3.9584978    -2.957825  0.025465825   -3.9584978    1.0006728      8192000 
 1390000   0.77449117   -3.9589638   -3.9589638   -2.9575417  0.027716141   -3.9589638     1.001422      8192000 
 1391000   0.77446292    -3.958891    -3.958891   -2.9575055  0.026267317    -3.958891    1.0013855      8192000 
 1392000   0.77430202   -3.9586471   -3.9586471   -2.9574697  0.025322169   -3.9586471    1.0011774      8192000 
 1393000   0.77431165    -3.958187    -3.958187   -2.9569971  0.024210232    -3.958187    1.0011899      8192000 
 1394000   0.77424818   -3.9586409   -3.9586409    -2.957533  0.024247041   -3.9586409    1.0011078      8192000 
 1395000   0.77389036   -3.9580149   -3.9580149   -2.9573698  0.026356598   -3.9580149    1.0006452      8192000 
 1396000   0.77433218   -3.9585227   -3.9585227   -2.9573062  0.026260996   -3.9585227    1.0012164      8192000 
 1397000   0.77403757   -3.9581563   -3.9581563   -2.9573208  0.026796014   -3.9581563    1.0008355      8192000 
 1398000   0.77408701   -3.9582099   -3.9582099   -2.9573105  0.024392042   -3.9582099    1.0008994      8192000 
 1399000   0.77426995   -3.9581945   -3.9581945   -2.9570585  0.025681914   -3.9581945     1.001136      8192000 
 1400000   0.77404522   -3.9581683   -3.9581683   -2.9573229  0.025501381   -3.9581683    1.0008454      8192000 
 1401000   0.77432559   -3.9584047   -3.9584047   -2.9571968  0.026043031   -3.9584047    1.0012079      8192000 
 1402000   0.77397815   -3.9579997   -3.9579997    -2.957241  0.026086289   -3.9579997    1.0007587      8192000 
 1403000   0.77464914   -3.9584257   -3.9584257   -2.9567995  0.025366796   -3.9584257    1.0016263      8192000 
 1404000   0.77438996   -3.9581591   -3.9581591   -2.9568679  0.025151424   -3.9581591    1.0012912      8192000 
 1405000   0.77425641   -3.9576805   -3.9576805    -2.956562  0.028021999   -3.9576805    1.0011185      8192000 
 1406000   0.77485876   -3.9585521   -3.9585521   -2.9566548   0.02479322   -3.9585521    1.0018973      8192000 
 1407000    0.7749048   -3.9583764   -3.9583764   -2.9564196   0.02640162   -3.9583764    1.0019568      8192000 
 1408000   0.77461686   -3.9583639   -3.9583639   -2.9567794  0.025562465   -3.9583639    1.0015845      8192000 
 1409000   0.77451923   -3.9575446   -3.9575446   -2.9560863  0.026923545   -3.9575446    1.0014583      8192000 
 1410000   0.77450435   -3.9576065   -3.9576065   -2.9561674  0.025828785   -3.9576065    1.0014391      8192000 
 1411000   0.77492624   -3.9577062   -3.9577062   -2.9557216  0.025944836   -3.9577062    1.0019846      8192000 
 1412000   0.77434442   -3.9574586   -3.9574586   -2.9562263  0.025143206   -3.9574586    1.0012323      8192000 
 1413000    0.7745623   -3.9577379   -3.9577379   -2.9562239  0.027842676   -3.9577379     1.001514      8192000 
 1414000   0.77391845   -3.9573294   -3.9573294   -2.9566479  0.024796724   -3.9573294    1.0006815      8192000 
 1415000   0.77440504   -3.9576855   -3.9576855   -2.9563749  0.024808283   -3.9576855    1.0013107      8192000 
 1416000   0.77498517   -3.9577366   -3.9577366   -2.9556759  0.024712791   -3.9577366    1.0020608      8192000 
 1417000   0.77487971   -3.9578416   -3.9578416   -2.9559171  0.025080752   -3.9578416    1.0019244      8192000 
 1418000   0.77497084   -3.9574164   -3.9574164   -2.9553741  0.026935007   -3.9574164    1.0020422      8192000 
 1419000   0.77407566   -3.9566159   -3.9566159   -2.9557311  0.027540478   -3.9566159    1.0008848      8192000 
 1420000   0.77479224   -3.9573912   -3.9573912   -2.9555799  0.025622734   -3.9573912    1.0018113      8192000 
 1421000   0.77463498   -3.9571132   -3.9571132   -2.9555053  0.025482523   -3.9571132     1.001608      8192000 
 1422000   0.77460983   -3.9571296   -3.9571296   -2.9555541  0.027455034   -3.9571296    1.0015754      8192000 
 1423000   0.77446788   -3.9568847   -3.9568847   -2.9554928  0.027804632   -3.9568847    1.0013919      8192000 
 1424000    0.7742745   -3.9567889   -3.9567889    -2.955647  0.025923659   -3.9567889    1.0011419      8192000 
 1425000   0.77439152   -3.9569337   -3.9569337   -2.9556405  0.026431625   -3.9569337    1.0012932      8192000 
 1426000   0.77393314   -3.9565077   -3.9565077   -2.9558072  0.026618268   -3.9565077    1.0007005      8192000 
 1427000    0.7743831   -3.9571861   -3.9571861   -2.9559038  0.026225873   -3.9571861    1.0012823      8192000 
 1428000   0.77513461   -3.9576865   -3.9576865   -2.9554325  0.024882431   -3.9576865     1.002254      8192000 
 1429000   0.77441763   -3.9569494   -3.9569494   -2.9556225  0.026529768   -3.9569494    1.0013269      8192000 
 1430000   0.77469732   -3.9568712   -3.9568712   -2.9551826  0.027611802   -3.9568712    1.0016886      8192000 
 1431000   0.77487035   -3.9570626   -3.9570626   -2.9551503  0.025387498   -3.9570626    1.0019123      8192000 
 1432000   0.77492667   -3.9570547   -3.9570547   -2.9550696  0.025087036   -3.9570547    1.0019851      8192000 
 1433000   0.77447447   -3.9566138   -3.9566138   -2.9552134  0.026756425   -3.9566138    1.0014004      8192000 
 1434000   0.77414961   -3.9562502   -3.9562502   -2.9552698   0.02813579   -3.9562502    1.0009804      8192000 
 1435000    0.7747872   -3.9568375   -3.9568375   -2.9550327  0.027816881   -3.9568375    1.0018048      8192000 
 1436000   0.77448105   -3.9562112   -3.9562112   -2.9548023   0.02752738   -3.9562112    1.0014089      8192000 
 1437000   0.77463212   -3.9566728   -3.9566728   -2.9550686  0.027876896   -3.9566728    1.0016043      8192000 
 1438000   0.77507821   -3.9574137   -3.9574137   -2.9552326  0.023043433   -3.9574137    1.0021811      8192000 
 1439000   0.77497922   -3.9565254   -3.9565254   -2.9544723  0.026106998   -3.9565254    1.0020531      8192000 
 1440000   0.77474082   -3.9565793   -3.9565793   -2.9548345  0.027255794   -3.9565793    1.0017448      8192000 
 1441000   0.77481768    -3.956635    -3.956635   -2.9547908  0.022593789    -3.956635    1.0018442      8192000 
 1442000   0.77505345   -3.9567278   -3.9567278   -2.9545787  0.026701409   -3.9567278    1.0021491      8192000 
 1443000   0.77501072   -3.9567747   -3.9567747   -2.9546809  0.026276785   -3.9567747    1.0020938      8192000 
 1444000   0.77547807   -3.9565472   -3.9565472   -2.9538491  0.027643677   -3.9565472    1.0026981      8192000 
 1445000   0.77489332    -3.956439    -3.956439    -2.954497  0.025569281    -3.956439     1.001942      8192000 
 1446000   0.77490245   -3.9566327   -3.9566327   -2.9546789  0.028032722   -3.9566327    1.0019538      8192000 
 1447000   0.77516791   -3.9565876   -3.9565876   -2.9542906  0.028240496   -3.9565876     1.002297      8192000 
 1448000    0.7751557   -3.9564195   -3.9564195   -2.9541383  0.026423777   -3.9564195    1.0022813      8192000 
 1449000   0.77530405   -3.9565154   -3.9565154   -2.9540423  0.027485228   -3.9565154    1.0024731      8192000 
 1450000   0.77512003   -3.9567038   -3.9567038   -2.9544686   0.02552492   -3.9567038    1.0022351      8192000 
 1451000   0.77491743   -3.9562561   -3.9562561    -2.954283  0.026244052   -3.9562561    1.0019732      8192000 
 1452000   0.77528665   -3.9568631   -3.9568631   -2.9544125  0.027056729   -3.9568631    1.0024506      8192000 
 1453000   0.77470539   -3.9559455   -3.9559455   -2.9542465  0.026957505   -3.9559455     1.001699      8192000 
 1454000   0.77457215   -3.9556362   -3.9556362   -2.9541095  0.027065781   -3.9556362    1.0015267      8192000 
 1455000   0.77530055   -3.9566404   -3.9566404   -2.9541719  0.025202363   -3.9566404    1.0024685      8192000 
 1456000   0.77527083   -3.9566748   -3.9566748   -2.9542446  0.025367463   -3.9566748    1.0024301      8192000 
 1457000   0.77483981   -3.9556288   -3.9556288    -2.953756  0.028317112   -3.9556288    1.0018728      8192000 
 1458000   0.77542208   -3.9563853   -3.9563853   -2.9537597  0.027357754   -3.9563853    1.0026257      8192000 
 1459000   0.77493949     -3.95594     -3.95594   -2.9539383  0.024913012     -3.95594    1.0020017      8192000 
 1460000   0.77529747   -3.9564235   -3.9564235    -2.953959  0.024979311   -3.9564235    1.0024646      8192000 
 1461000   0.77527196   -3.9562163   -3.9562163   -2.9537847  0.024885891   -3.9562163    1.0024316      8192000 
 1462000   0.77528724   -3.9561116   -3.9561116   -2.9536603   0.02656587   -3.9561116    1.0024513      8192000 
 1463000   0.77532947   -3.9562068   -3.9562068   -2.9537008  0.025430912   -3.9562068    1.0025059      8192000 
 1464000   0.77536074   -3.9561335   -3.9561335   -2.9535872   0.02849912   -3.9561335    1.0025464      8192000 
 1465000   0.77530735   -3.9558832   -3.9558832   -2.9534058  0.026028372   -3.9558832    1.0024773      8192000 
 1466000   0.77508146   -3.9557835   -3.9557835   -2.9535982  0.028118942   -3.9557835    1.0021853      8192000 
 1467000   0.77557365   -3.9559552   -3.9559552   -2.9531336  0.023701345   -3.9559552    1.0028217      8192000 
 1468000   0.77536263    -3.955837    -3.955837   -2.9532882   0.02680339    -3.955837    1.0025488      8192000 
 1469000   0.77546538   -3.9556065   -3.9556065   -2.9529248  0.026790983   -3.9556065    1.0026817      8192000 
 1470000   0.77510011   -3.9552874   -3.9552874    -2.953078  0.027129009   -3.9552874    1.0022094      8192000 
 1471000   0.77545265   -3.9556529   -3.9556529   -2.9529877  0.028132093   -3.9556529    1.0026652      8192000 
 1472000   0.77545022   -3.9556722   -3.9556722   -2.9530101  0.026315073   -3.9556722    1.0026621      8192000 
 1473000   0.77537762   -3.9555387   -3.9555387   -2.9529705  0.026664411   -3.9555387    1.0025682      8192000 
 1474000   0.77537039   -3.9554737   -3.9554737   -2.9529148  0.028805366   -3.9554737    1.0025589      8192000 
 1475000   0.77531797   -3.9554485   -3.9554485   -2.9529575  0.027811475   -3.9554485    1.0024911      8192000 
 1476000   0.77524562   -3.9553156   -3.9553156   -2.9529181  0.024899839   -3.9553156    1.0023975      8192000 
 1477000   0.77542039   -3.9550959   -3.9550959   -2.9524724  0.028389403   -3.9550959    1.0026235      8192000 
 1478000   0.77530616   -3.9552933   -3.9552933   -2.9528175  0.027190881   -3.9552933    1.0024758      8192000 
 1479000   0.77518652   -3.9548894   -3.9548894   -2.9525683  0.029549545   -3.9548894    1.0023211      8192000 
 1480000   0.77533684   -3.9550097   -3.9550097   -2.9524943  0.026482486   -3.9550097    1.0025155      8192000 
 1481000   0.77526965   -3.9546041   -3.9546041   -2.9521755  0.027036896   -3.9546041    1.0024286      8192000 
 1482000   0.77589579   -3.9553729   -3.9553729   -2.9521347  0.029111246   -3.9553729    1.0032382      8192000 
 1483000    0.7754862   -3.9548535   -3.9548535   -2.9521449  0.027234227   -3.9548535    1.0027086      8192000 
 1484000   0.77557063   -3.9549783   -3.9549783   -2.9521605  0.024343331   -3.9549783    1.0028178      8192000 
 1485000   0.77559304   -3.9551806   -3.9551806   -2.9523338  0.025137015   -3.9551806    1.0028467      8192000 
 1486000   0.77548675   -3.9547708   -3.9547708   -2.9520615  0.024917967   -3.9547708    1.0027093      8192000 
 1487000   0.77559009   -3.9545737   -3.9545737   -2.9517307  0.026315479   -3.9545737    1.0028429      8192000 
 1488000   0.77527423   -3.9543239   -3.9543239   -2.9518893  0.024623382   -3.9543239    1.0024345      8192000 
 1489000   0.77486508      -3.9541      -3.9541   -2.9521945  0.026290376      -3.9541    1.0019055      8192000 
 1490000   0.77531464   -3.9543191   -3.9543191   -2.9518323  0.026568902   -3.9543191    1.0024868      8192000 
 1491000   0.77528472   -3.9541202   -3.9541202   -2.9516721  0.025285676   -3.9541202    1.0024481      8192000 
 1492000   0.77513429   -3.9538654   -3.9538654   -2.9516118  0.027055789   -3.9538654    1.0022536      8192000 
 1493000   0.77542905   -3.9541911   -3.9541911   -2.9515564   0.02600008   -3.9541911    1.0026347      8192000 
 1494000   0.77550449    -3.954265    -3.954265   -2.9515327  0.027409337    -3.954265    1.0027322      8192000 
 1495000   0.77532064   -3.9537819   -3.9537819   -2.9512874  0.029517012   -3.9537819    1.0024945      8192000 
 1496000   0.77569821   -3.9542846   -3.9542846   -2.9513019  0.027322309   -3.9542846    1.0029827      8192000 
 1497000   0.77565992   -3.9541313   -3.9541313   -2.9511981  0.026952143   -3.9541313    1.0029332      8192000 
 1498000   0.77563468   -3.9538168   -3.9538168   -2.9509162  0.025054816   -3.9538168    1.0029006      8192000 
 1499000   0.77572336   -3.9541368   -3.9541368   -2.9511215  0.025576257   -3.9541368    1.0030153      8192000 
 1500000   0.77595976   -3.9540552   -3.9540552   -2.9507343  0.024694392   -3.9540552    1.0033209      8192000 
 1501000   0.77565244   -3.9538111   -3.9538111   -2.9508875  0.025902915   -3.9538111    1.0029236      8192000 
 1502000   0.77546889   -3.9540124   -3.9540124   -2.9513261  0.026708268   -3.9540124    1.0026862      8192000 
 1503000   0.77523701   -3.9532435   -3.9532435   -2.9508571    0.0259398   -3.9532435    1.0023864      8192000 
 1504000   0.77553068   -3.9537026   -3.9537026   -2.9509365  0.023754313   -3.9537026    1.0027661      8192000 
 1505000    0.7756077   -3.9536426   -3.9536426   -2.9507769   0.02511004   -3.9536426    1.0028657      8192000 
 1506000   0.77546631   -3.9532908   -3.9532908   -2.9506079  0.025035762   -3.9532908    1.0026829      8192000 
 1507000    0.7758329   -3.9539022   -3.9539022   -2.9507453  0.025186942   -3.9539022    1.0031569      8192000 
 1508000   0.77588509   -3.9538826   -3.9538826   -2.9506582  0.024217861   -3.9538826    1.0032244      8192000 
 1509000   0.77552486   -3.9533778   -3.9533778   -2.9506192  0.025497051   -3.9533778    1.0027586      8192000 
 1510000   0.77567449   -3.9535605   -3.9535605   -2.9506085   0.02434179   -3.9535605    1.0029521      8192000 
 1511000   0.77527931   -3.9530077   -3.9530077   -2.9505666   0.02600054   -3.9530077    1.0024411      8192000 
 1512000   0.77561819   -3.9531546   -3.9531546   -2.9502753  0.025241569   -3.9531546    1.0028793      8192000 
 1513000   0.77579839   -3.9536228   -3.9536228   -2.9505106  0.023365126   -3.9536228    1.0031123      8192000 
 1514000   0.77533721   -3.9528762   -3.9528762   -2.9503602  0.028926623   -3.9528762     1.002516      8192000 
 1515000   0.77551456   -3.9531497   -3.9531497   -2.9504044  0.024853889   -3.9531497    1.0027453      8192000 
 1516000   0.77571548   -3.9531683   -3.9531683   -2.9501632   0.02478534   -3.9531683    1.0030051      8192000 
 1517000   0.77628636   -3.9535826   -3.9535826   -2.9498394  0.026039787   -3.9535826    1.0037432      8192000 
 1518000   0.77565676   -3.9531742   -3.9531742   -2.9502451  0.026837381   -3.9531742    1.0029291      8192000 
 1519000     0.775915   -3.9532958   -3.9532958   -2.9500328  0.026691582   -3.9532958     1.003263      8192000 
 1520000   0.77609901   -3.9536205   -3.9536205   -2.9501195    0.0237041   -3.9536205     1.003501      8192000 
 1521000   0.77566764   -3.9531269   -3.9531269   -2.9501836  0.027674335   -3.9531269    1.0029432      8192000 
 1522000   0.77586336   -3.9532106   -3.9532106   -2.9500143   0.02824472   -3.9532106    1.0031963      8192000 
 1523000   0.77587881   -3.9533664   -3.9533664   -2.9501502  0.027896933   -3.9533664    1.0032162      8192000 
 1524000   0.77613051   -3.9535112   -3.9535112   -2.9499695  0.027854629   -3.9535112    1.0035417      8192000 
 1525000   0.77555927   -3.9530731   -3.9530731     -2.95027  0.024922159   -3.9530731    1.0028031      8192000 
 1526000   0.77536974   -3.9529652   -3.9529652   -2.9504072  0.027972531   -3.9529652     1.002558      8192000 
 1527000    0.7759119    -3.953315    -3.953315    -2.950056  0.026670115    -3.953315     1.003259      8192000 
 1528000   0.77551751   -3.9528824   -3.9528824   -2.9501333  0.026546286   -3.9528824    1.0027491      8192000 
 1529000   0.77538154    -3.952625    -3.952625   -2.9500517  0.026039233    -3.952625    1.0025733      8192000 
 1530000   0.77567057    -3.953114    -3.953114    -2.950167  0.024300103    -3.953114     1.002947      8192000 
 1531000   0.77562605    -3.953029    -3.953029   -2.9501395    0.0288127    -3.953029    1.0028894      8192000 
 1532000   0.77539782    -3.952716    -3.952716   -2.9501217  0.026392488    -3.952716    1.0025943      8192000 
 1533000   0.77631181   -3.9534655   -3.9534655   -2.9496894  0.024394974   -3.9534655    1.0037761      8192000 
 1534000   0.77590095   -3.9528261   -3.9528261   -2.9495812  0.025414254   -3.9528261    1.0032449      8192000 
 1535000   0.77565392   -3.9526591   -3.9526591   -2.9497336  0.028081938   -3.9526591    1.0029255      8192000 
 1536000   0.77630923   -3.9530776   -3.9530776   -2.9493048  0.028549906   -3.9530776    1.0037728      8192000 
 1537000   0.77621892   -3.9533814   -3.9533814   -2.9497254   0.02628402   -3.9533814     1.003656      8192000 
 1538000   0.77636976   -3.9533439   -3.9533439   -2.9494929   0.02803105   -3.9533439    1.0038511      8192000 
 1539000   0.77618069   -3.9528286   -3.9528286   -2.9492221  0.027563674   -3.9528286    1.0036066      8192000 
 1540000   0.77633739   -3.9532396   -3.9532396   -2.9494304  0.029971566   -3.9532396    1.0038092      8192000 
 1541000   0.77654885   -3.9530916   -3.9530916    -2.949009  0.031182993   -3.9530916    1.0040826      8192000 
 1542000   0.77669051   -3.9535662   -3.9535662   -2.9493004   0.02745418   -3.9535662    1.0042658      8192000 
 1543000   0.77648051   -3.9530845   -3.9530845   -2.9490903  0.027746026   -3.9530845    1.0039942      8192000 
 1544000   0.77632099   -3.9529565   -3.9529565   -2.9491685  0.030789411   -3.9529565     1.003788      8192000 
 1545000   0.77658055   -3.9530173   -3.9530173   -2.9488937  0.031265869   -3.9530173    1.0041236      8192000 
 1546000   0.77687412   -3.9527934   -3.9527934   -2.9482903  0.029096595   -3.9527934    1.0045032      8192000 
 1547000   0.77694478   -3.9531631   -3.9531631   -2.9485686  0.028046618   -3.9531631    1.0045945      8192000 
 1548000   0.77661783   -3.9526124   -3.9526124   -2.9484406  0.029511704   -3.9526124    1.0041718      8192000 
 1549000   0.77619691   -3.9520042   -3.9520042   -2.9483766  0.030197991   -3.9520042    1.0036275      8192000 
 1550000   0.77655974   -3.9528323   -3.9528323   -2.9487356  0.029663212   -3.9528323    1.0040967      8192000 
 1551000   0.77658851   -3.9526053   -3.9526053   -2.9484714  0.025366434   -3.9526053    1.0041339      8192000 
 1552000   0.77640582   -3.9523502   -3.9523502   -2.9484526  0.027068788   -3.9523502    1.0038977      8192000 
 1553000   0.77629378   -3.9524458   -3.9524458    -2.948693  0.027195431   -3.9524458    1.0037528      8192000 
 1554000   0.77621437    -3.952111    -3.952111   -2.9484608  0.027152169    -3.952111    1.0036501      8192000 
 1555000   0.77631681   -3.9519626   -3.9519626     -2.94818  0.028929794   -3.9519626    1.0037826      8192000 
 1556000   0.77636661   -3.9519962   -3.9519962   -2.9481492  0.027149926   -3.9519962     1.003847      8192000 
 1557000   0.77633625   -3.9520971   -3.9520971   -2.9482894  0.025855686   -3.9520971    1.0038077      8192000 
 1558000   0.77639343   -3.9521701   -3.9521701   -2.9482884   0.02554548   -3.9521701    1.0038817      8192000 
 1559000   0.77602879   -3.9518237   -3.9518237   -2.9484135   0.02340985   -3.9518237    1.0034102      8192000 
 1560000   0.77569125   -3.9513934   -3.9513934   -2.9484196  0.028465978   -3.9513934    1.0029737      8192000 
 1561000   0.77593629    -3.951398    -3.951398   -2.9481074   0.02751065    -3.951398    1.0032906      8192000 
 1562000   0.77565627   -3.9512278   -3.9512278   -2.9482993  0.029312692   -3.9512278    1.0029285      8192000 
 1563000   0.77623943   -3.9517337   -3.9517337   -2.9480512  0.026626968   -3.9517337    1.0036825      8192000 
 1564000   0.77627307   -3.9514606   -3.9514606   -2.9477345  0.024760586   -3.9514606     1.003726      8192000 
 1565000   0.77581881    -3.951256    -3.951256   -2.9481173  0.027048558    -3.951256    1.0031387      8192000 
 1566000   0.77593384   -3.9513864   -3.9513864    -2.948099  0.028609257   -3.9513864    1.0032874      8192000 
 1567000   0.77589745   -3.9512937   -3.9512937   -2.9480534  0.023146941   -3.9512937    1.0032403      8192000 
 1568000   0.77588904   -3.9511598   -3.9511598   -2.9479303  0.022687868   -3.9511598    1.0032295      8192000 
 1569000   0.77591036   -3.9509968   -3.9509968   -2.9477397  0.025972045   -3.9509968     1.003257      8192000 
 1570000   0.77618224   -3.9512928   -3.9512928   -2.9476842  0.025894896   -3.9512928    1.0036086      8192000 
 1571000   0.77599079   -3.9504381   -3.9504381   -2.9470771  0.025020958   -3.9504381     1.003361      8192000 
 1572000   0.77601631   -3.9508751   -3.9508751    -2.947481  0.023730104   -3.9508751     1.003394      8192000 
 1573000   0.77569684    -3.950497    -3.950497   -2.9475161  0.024126474    -3.950497     1.002981      8192000 
 1574000   0.77542779   -3.9503557   -3.9503557   -2.9477226   0.02225577   -3.9503557    1.0026331      8192000 
 1575000   0.77566843    -3.950415    -3.950415   -2.9474708  0.023154776    -3.950415    1.0029442      8192000 
 1576000   0.77594977   -3.9510736   -3.9510736   -2.9477656  0.022712764   -3.9510736     1.003308      8192000 
 1577000   0.77600754   -3.9506705   -3.9506705   -2.9472878  0.023543129   -3.9506705    1.0033827      8192000 
 1578000    0.7758245   -3.9506816   -3.9506816   -2.9475356  0.023105969   -3.9506816     1.003146      8192000 
 1579000   0.77580884   -3.9505688   -3.9505688    -2.947443  0.024803972   -3.9505688    1.0031258      8192000 
 1580000   0.77618317    -3.950708    -3.950708   -2.9470982  0.024233645    -3.950708    1.0036098      8192000 
 1581000   0.77614601   -3.9509984   -3.9509984   -2.9474367  0.021451086   -3.9509984    1.0035617      8192000 
 1582000   0.77635712   -3.9511347   -3.9511347      -2.9473   0.02419149   -3.9511347    1.0038347      8192000 
 1583000   0.77607421   -3.9505008   -3.9505008   -2.9470319  0.026855876   -3.9505008    1.0034689      8192000 
 1584000   0.77626731   -3.9506319   -3.9506319   -2.9469133  0.023208443   -3.9506319    1.0037186      8192000 
 1585000   0.77619596   -3.9504719   -3.9504719   -2.9468456  0.025590238   -3.9504719    1.0036263      8192000 
 1586000   0.77621305   -3.9501978   -3.9501978   -2.9465494   0.02661693   -3.9501978    1.0036484      8192000 
 1587000   0.77642008   -3.9505945   -3.9505945   -2.9466784  0.027278976   -3.9505945    1.0039161      8192000 
 1588000   0.77657108   -3.9508429   -3.9508429   -2.9467316  0.026570023   -3.9508429    1.0041114      8192000 
 1589000   0.77645701   -3.9506093   -3.9506093   -2.9466454  0.025605319   -3.9506093    1.0039639      8192000 
 1590000     0.776428    -3.950215    -3.950215   -2.9462887  0.029168218    -3.950215    1.0039264      8192000 
 1591000   0.77655815   -3.9502901   -3.9502901   -2.9461955  0.026109986   -3.9502901    1.0040946      8192000 
 1592000   0.77722385     -3.95118     -3.95118   -2.9462246  0.026650763     -3.95118    1.0049554      8192000 
 1593000   0.77674235   -3.9508302   -3.9508302   -2.9464973  0.025000332   -3.9508302    1.0043328      8192000 
 1594000   0.77688896   -3.9508239   -3.9508239   -2.9463015  0.028143203   -3.9508239    1.0045224      8192000 
 1595000   0.77639572   -3.9504544   -3.9504544   -2.9465698  0.027406974   -3.9504544    1.0038846      8192000 
 1596000   0.77684733   -3.9507718   -3.9507718   -2.9463033  0.025606447   -3.9507718    1.0044685      8192000 
 1597000   0.77687022    -3.950674    -3.950674   -2.9461758  0.027461309    -3.950674    1.0044981      8192000 
 1598000   0.77745585   -3.9514486   -3.9514486   -2.9461932  0.028429392   -3.9514486    1.0052554      8192000 
 1599000   0.77694831   -3.9506849   -3.9506849   -2.9460858   0.02811054   -3.9506849    1.0045991      8192000 
 1600000   0.77673925   -3.9504323   -3.9504323   -2.9461035   0.02607616   -3.9504323    1.0043288      8192000 
 1601000   0.77683638   -3.9506012   -3.9506012   -2.9461468  0.031962602   -3.9506012    1.0044544      8192000 
 1602000   0.77673947   -3.9503205   -3.9503205   -2.9459914  0.028888319   -3.9503205    1.0043291      8192000 
 1603000   0.77669666   -3.9504882   -3.9504882   -2.9462145  0.028388936   -3.9504882    1.0042737      8192000 
 1604000   0.77712928   -3.9506862   -3.9506862   -2.9458531  0.028189958   -3.9506862    1.0048331      8192000 
 1605000   0.77725256   -3.9507761   -3.9507761   -2.9457836  0.028836656   -3.9507761    1.0049925      8192000 
 1606000   0.77716774   -3.9509951   -3.9509951   -2.9461122  0.029178002   -3.9509951    1.0048828      8192000 
 1607000   0.77710434   -3.9507357   -3.9507357   -2.9459348  0.026877011   -3.9507357    1.0048009      8192000 
 1608000   0.77727961    -3.951081    -3.951081   -2.9460535  0.026063277    -3.951081    1.0050275      8192000 
 1609000   0.77737691    -3.950987    -3.950987   -2.9458337  0.025558564    -3.950987    1.0051533      8192000 
 1610000   0.77671248    -3.950287    -3.950287   -2.9459929  0.027746608    -3.950287    1.0042942      8192000 
 1611000    0.7771406   -3.9508833   -3.9508833   -2.9460356  0.028908402   -3.9508833    1.0048478      8192000 
 1612000   0.77741714   -3.9509225   -3.9509225   -2.9457171  0.028260633   -3.9509225    1.0052053      8192000 
 1613000   0.77737542   -3.9509799   -3.9509799   -2.9458285  0.025191997   -3.9509799    1.0051514      8192000 
 1614000   0.77684211   -3.9500404   -3.9500404   -2.9455786  0.029675246   -3.9500404    1.0044618      8192000 
 1615000   0.77701713   -3.9504475   -3.9504475   -2.9457594  0.026876647   -3.9504475    1.0046881      8192000 
 1616000   0.77733916   -3.9504392   -3.9504392   -2.9453347  0.028693929   -3.9504392    1.0051045      8192000 
 1617000   0.77693872   -3.9501512   -3.9501512   -2.9455645  0.025799588   -3.9501512    1.0045867      8192000 
 1618000   0.77655287   -3.9495653   -3.9495653   -2.9454775  0.026777129   -3.9495653    1.0040878      8192000 
 1619000   0.77721373   -3.9503019   -3.9503019   -2.9453596  0.024777204   -3.9503019    1.0049423      8192000 
 1620000   0.77733388   -3.9503628   -3.9503628   -2.9452651  0.026142029   -3.9503628    1.0050977      8192000 
 1621000   0.77675824   -3.9497558   -3.9497558   -2.9454025  0.027484767   -3.9497558    1.0043534      8192000 
 1622000   0.77716801    -3.949858    -3.949858   -2.9449749   0.02790179    -3.949858    1.0048832      8192000 
 1623000   0.77682803   -3.9499952   -3.9499952   -2.9455516  0.027641023   -3.9499952    1.0044436      8192000 
 1624000   0.77643064   -3.9496547   -3.9496547   -2.9457249   0.02613388   -3.9496547    1.0039298      8192000 
 1625000   0.77615995   -3.9490083   -3.9490083   -2.9454285  0.029004479   -3.9490083    1.0035798      8192000 
 1626000   0.77667204   -3.9494649   -3.9494649    -2.945223  0.024891487   -3.9494649    1.0042419      8192000 
 1627000   0.77647822   -3.9490325   -3.9490325   -2.9450412  0.026535958   -3.9490325    1.0039913      8192000 
 1628000   0.77636463   -3.9494362   -3.9494362   -2.9455918  0.023664992   -3.9494362    1.0038444      8192000 
 1629000   0.77687829   -3.9495662   -3.9495662   -2.9450577  0.024391912   -3.9495662    1.0045086      8192000 
 1630000   0.77623643   -3.9488544   -3.9488544   -2.9451758  0.024093826   -3.9488544    1.0036787      8192000 
 1631000   0.77637875   -3.9490385   -3.9490385   -2.9451758  0.026257025   -3.9490385    1.0038627      8192000 
 1632000   0.77669209   -3.9492588   -3.9492588    -2.944991  0.025482262   -3.9492588    1.0042678      8192000 
 1633000    0.7765758   -3.9488738   -3.9488738   -2.9447563  0.025575345   -3.9488738    1.0041175      8192000 
 1634000   0.77651304   -3.9488559   -3.9488559   -2.9448196  0.023763002   -3.9488559    1.0040363      8192000 
 1635000   0.77635285   -3.9488362   -3.9488362   -2.9450071  0.025277942   -3.9488362    1.0038292      8192000 
 1636000   0.77659098   -3.9490538   -3.9490538   -2.9449167  0.024512616   -3.9490538    1.0041371      8192000 
 1637000   0.77662541   -3.9486994   -3.9486994   -2.9445177  0.024623348   -3.9486994    1.0041816      8192000 
 1638000   0.77656132   -3.9490439   -3.9490439   -2.9449452  0.025575893   -3.9490439    1.0040987      8192000 
 1639000   0.77674358   -3.9490685   -3.9490685   -2.9447341  0.023475075   -3.9490685    1.0043344      8192000 
 1640000   0.77656493   -3.9486974   -3.9486974    -2.944594  0.026948303   -3.9486974    1.0041034      8192000 
 1641000    0.7763374   -3.9483365   -3.9483365   -2.9445273  0.025587372   -3.9483365    1.0038092      8192000 
 1642000   0.77668657   -3.9485237   -3.9485237    -2.944263   0.02532859   -3.9485237    1.0042607      8192000 
 1643000   0.77695479   -3.9488969   -3.9488969   -2.9442894  0.026023224   -3.9488969    1.0046075      8192000 
 1644000   0.77690987    -3.948883    -3.948883   -2.9443336  0.027996496    -3.948883    1.0045494      8192000 
 1645000    0.7771736   -3.9489732   -3.9489732   -2.9440828  0.024034482   -3.9489732    1.0048904      8192000 
 1646000   0.77713782   -3.9492282   -3.9492282    -2.944384  0.021744136   -3.9492282    1.0048442      8192000 
 1647000   0.77722302   -3.9489596   -3.9489596   -2.9440053  0.024769893   -3.9489596    1.0049543      8192000 
 1648000   0.77734608   -3.9490809   -3.9490809   -2.9439674  0.024006029   -3.9490809    1.0051134      8192000 
 1649000   0.77698367   -3.9488349   -3.9488349     -2.94419  0.024766366   -3.9488349    1.0046448      8192000 
 1650000   0.77687837   -3.9489615   -3.9489615   -2.9444528  0.028199934   -3.9489615    1.0045087      8192000 
 1651000   0.77700857   -3.9489598   -3.9489598   -2.9442828  0.024763446   -3.9489598     1.004677      8192000 
 1652000   0.77717618    -3.949452    -3.949452   -2.9445583  0.026770699    -3.949452    1.0048937      8192000 
 1653000   0.77729345    -3.949075    -3.949075   -2.9440297   0.02621238    -3.949075    1.0050454      8192000 
 1654000   0.77717152   -3.9488821   -3.9488821   -2.9439943  0.026913088   -3.9488821    1.0048877      8192000 
 1655000   0.77671069   -3.9484323   -3.9484323   -2.9441405  0.029669738   -3.9484323    1.0042919      8192000 
 1656000   0.77671728   -3.9485311   -3.9485311   -2.9442307  0.025483817   -3.9485311    1.0043004      8192000 
[...]
 1838000   0.77867595   -3.9440453   -3.9440453   -2.9372123  0.027721045   -3.9440453     1.006833      8192000 
 1839000   0.77891504   -3.9444019   -3.9444019   -2.9372598  0.026931351   -3.9444019    1.0071421      8192000 
 1840000   0.77884741    -3.944203    -3.944203   -2.9371483  0.029032272    -3.944203    1.0070547      8192000 
 1841000   0.77829894   -3.9438745   -3.9438745    -2.937529  0.029518416   -3.9438745    1.0063455      8192000 
 1842000     0.778741   -3.9440923   -3.9440923   -2.9371752  0.025190164   -3.9440923    1.0069171      8192000 
 1843000    0.7787734   -3.9443559   -3.9443559   -2.9373969  0.027117881   -3.9443559     1.006959      8192000 
 1844000   0.77845684     -3.94442     -3.94442   -2.9378703  0.022819846     -3.94442    1.0065497      8192000 
 1845000   0.77903293   -3.9446384   -3.9446384   -2.9373439  0.023685655   -3.9446384    1.0072945      8192000 
 1846000   0.77847429   -3.9436607   -3.9436607   -2.9370885  0.028348526   -3.9436607    1.0065722      8192000 
 1847000   0.77845023   -3.9440236   -3.9440236   -2.9374825  0.025271078   -3.9440236    1.0065411      8192000 
 1848000   0.77896827   -3.9441728   -3.9441728   -2.9369618  0.025923381   -3.9441728    1.0072109      8192000 
 1849000   0.77839738   -3.9435514   -3.9435514   -2.9370787  0.026104852   -3.9435514    1.0064728      8192000 
 1850000    0.7786063   -3.9435518   -3.9435518   -2.9368089   0.02568228   -3.9435518    1.0067429      8192000 
 1851000   0.77852233   -3.9434774   -3.9434774    -2.936843  0.027069494   -3.9434774    1.0066343      8192000 
 1852000   0.77853703    -3.943652    -3.943652   -2.9369987  0.026670485    -3.943652    1.0066533      8192000 
 1853000   0.77883262   -3.9438784   -3.9438784   -2.9368429   0.02696013   -3.9438784    1.0070355      8192000 
 1854000   0.77859423   -3.9436367   -3.9436367   -2.9369094  0.025833597   -3.9436367    1.0067273      8192000 
 1855000   0.77893081   -3.9441468   -3.9441468   -2.9369843  0.025494345   -3.9441468    1.0071625      8192000 
 1856000   0.77888436   -3.9437135   -3.9437135   -2.9366111  0.028798183   -3.9437135    1.0071024      8192000 
 1857000   0.77902091   -3.9439316   -3.9439316   -2.9366526  0.024537395   -3.9439316     1.007279      8192000 
 1858000   0.77918286   -3.9440506   -3.9440506   -2.9365622  0.024949408   -3.9440506    1.0074884      8192000 
 1859000   0.77910173   -3.9436768   -3.9436768   -2.9362933  0.028521585   -3.9436768    1.0073835      8192000 
 1860000   0.77906817   -3.9437608   -3.9437608   -2.9364207  0.026372912   -3.9437608    1.0073401      8192000 
 1861000   0.77885428   -3.9435816   -3.9435816   -2.9365181  0.027109215   -3.9435816    1.0070636      8192000 
 1862000   0.77863985   -3.9430156   -3.9430156   -2.9362293  0.028265311   -3.9430156    1.0067863      8192000 
 1863000   0.77911577   -3.9440528   -3.9440528   -2.9366511   0.02694325   -3.9440528    1.0074017      8192000 
 1864000   0.77888566   -3.9430702   -3.9430702   -2.9359661  0.026965227   -3.9430702    1.0071041      8192000 
 1865000   0.77896078   -3.9432586   -3.9432586   -2.9360574  0.026806562   -3.9432586    1.0072013      8192000 
 1866000   0.77893547   -3.9434735   -3.9434735    -2.936305  0.025995305   -3.9434735    1.0071685      8192000 
 1867000   0.77878378   -3.9431049   -3.9431049   -2.9361325  0.028947995   -3.9431049    1.0069724      8192000 
 1868000   0.77912337   -3.9436094   -3.9436094   -2.9361979  0.027349099   -3.9436094    1.0074115      8192000 
 1869000   0.77928832   -3.9434847   -3.9434847     -2.93586  0.026806735   -3.9434847    1.0076248      8192000 
 1870000    0.7787909   -3.9433228   -3.9433228   -2.9363412  0.027091949   -3.9433228    1.0069816      8192000 
 1871000   0.77888896   -3.9431295   -3.9431295   -2.9360211  0.026332427   -3.9431295    1.0071084      8192000 
 1872000   0.77916067   -3.9432329   -3.9432329   -2.9357732  0.026439272   -3.9432329    1.0074597      8192000 
 1873000   0.77881552   -3.9428367   -3.9428367   -2.9358233  0.028148973   -3.9428367    1.0070134      8192000 
 1874000   0.77896852   -3.9432752   -3.9432752    -2.936064  0.026850676   -3.9432752    1.0072113      8192000 
 1875000   0.77880592   -3.9432145   -3.9432145   -2.9362135  0.025357593   -3.9432145     1.007001      8192000 
 1876000   0.77905388   -3.9430954   -3.9430954   -2.9357738   0.02505222   -3.9430954    1.0073216      8192000 
 1877000   0.77883183   -3.9428702   -3.9428702   -2.9358357  0.023087176   -3.9428702    1.0070345      8192000 
 1878000   0.77895962   -3.9427365   -3.9427365   -2.9355368  0.025267389   -3.9427365    1.0071997      8192000 
 1879000   0.77936437   -3.9433151   -3.9433151    -2.935592  0.027399675   -3.9433151    1.0077231      8192000 
 1880000   0.77924626   -3.9430795   -3.9430795   -2.9355091  0.024821322   -3.9430795    1.0075704      8192000 
 1881000   0.77873464   -3.9426444   -3.9426444   -2.9357356  0.025697388   -3.9426444    1.0069088      8192000 
 1882000   0.77896751   -3.9427532   -3.9427532   -2.9355432  0.028601809   -3.9427532      1.00721      8192000 
 1883000   0.77891711   -3.9431527   -3.9431527   -2.9360079  0.024140256   -3.9431527    1.0071448      8192000 
 1884000   0.77902691   -3.9430911   -3.9430911   -2.9358043  0.027221524   -3.9430911    1.0072868      8192000 
 1885000   0.77919578   -3.9427886   -3.9427886   -2.9352835  0.026279183   -3.9427886    1.0075051      8192000 
 1886000   0.77867909   -3.9424814   -3.9424814   -2.9356443  0.025411793   -3.9424814     1.006837      8192000 
 1887000   0.77877024   -3.9422933   -3.9422933   -2.9353384  0.029310505   -3.9422933    1.0069549      8192000 
 1888000   0.77915323    -3.942798    -3.942798   -2.9353479   0.02621171    -3.942798    1.0074501      8192000 
 1889000   0.77895782   -3.9426458   -3.9426458   -2.9354484  0.026174858   -3.9426458    1.0071974      8192000 
 1890000    0.7788659   -3.9423213   -3.9423213   -2.9352427  0.027227277   -3.9423213    1.0070786      8192000 
 1891000   0.77917286   -3.9426757   -3.9426757   -2.9352002  0.026333553   -3.9426757    1.0074755      8192000 
 1892000   0.77880882   -3.9425389   -3.9425389   -2.9355341  0.026236241   -3.9425389    1.0070048      8192000 
 1893000   0.77915246    -3.942799    -3.942799   -2.9353499  0.024752298    -3.942799    1.0074491      8192000 
 1894000   0.77891511    -3.942228    -3.942228   -2.9350858  0.027210353    -3.942228    1.0071422      8192000 
 1895000   0.77852265   -3.9419203   -3.9419203   -2.9352856  0.025768172   -3.9419203    1.0066347      8192000 
 1896000   0.77881833   -3.9425538   -3.9425538   -2.9355368  0.023978348   -3.9425538    1.0070171      8192000 
 1897000    0.7785218   -3.9422229   -3.9422229   -2.9355893  0.024998792   -3.9422229    1.0066337      8192000 
 1898000   0.77875187     -3.94223     -3.94223   -2.9352989  0.026857552     -3.94223    1.0069311      8192000 
 1899000   0.77846037   -3.9421009   -3.9421009   -2.9355467   0.02674807   -3.9421009    1.0065542      8192000 
 1900000   0.77880692   -3.9425389   -3.9425389   -2.9355366  0.024895869   -3.9425389    1.0070023      8192000 
 1901000   0.77858991   -3.9420879   -3.9420879   -2.9353662  0.023693123   -3.9420879    1.0067217      8192000 
 1902000   0.77911514   -3.9423185   -3.9423185   -2.9349176  0.026377921   -3.9423185    1.0074008      8192000 
 1903000   0.77918687   -3.9426255   -3.9426255    -2.935132   0.02437214   -3.9426255    1.0074936      8192000 
 1904000   0.77828295   -3.9414739   -3.9414739   -2.9351491  0.027431616   -3.9414739    1.0063248      8192000 
 1905000   0.77926664   -3.9425165   -3.9425165   -2.9349198  0.024300398   -3.9425165    1.0075967      8192000 
 1906000   0.77922157   -3.9424784   -3.9424784   -2.9349399  0.023615527   -3.9424784    1.0075385      8192000 
 1907000   0.77925959    -3.942573    -3.942573   -2.9349854  0.023124088    -3.942573    1.0075876      8192000 
 1908000   0.77934589   -3.9426672   -3.9426672    -2.934968  0.025802298   -3.9426672    1.0076992      8192000 
 1909000   0.77908257   -3.9423812   -3.9423812   -2.9350224  0.021871659   -3.9423812    1.0073587      8192000 
 1910000   0.77919021    -3.942243    -3.942243   -2.9347451  0.027085824    -3.942243    1.0074979      8192000 
 1911000   0.77897668   -3.9422157   -3.9422157   -2.9349939  0.027546519   -3.9422157    1.0072218      8192000 
 1912000   0.77923948   -3.9423194   -3.9423194   -2.9347578  0.027484745   -3.9423194    1.0075616      8192000 
 1913000   0.77942493   -3.9428409   -3.9428409   -2.9350395  0.024267125   -3.9428409    1.0078014      8192000 
 1914000   0.77868587   -3.9419757   -3.9419757   -2.9351299  0.027317731   -3.9419757    1.0068458      8192000 
 1915000   0.77917452   -3.9421355   -3.9421355   -2.9346579  0.026512158   -3.9421355    1.0074776      8192000 
 1916000   0.77909581   -3.9421922   -3.9421922   -2.9348164   0.02485238   -3.9421922    1.0073758      8192000 
 1917000   0.77883874   -3.9420716   -3.9420716   -2.9350282  0.027368347   -3.9420716    1.0070435      8192000 
 1918000   0.77926097   -3.9424423   -3.9424423   -2.9348529  0.026750465   -3.9424423    1.0075894      8192000 
 1919000   0.77957665   -3.9427339   -3.9427339   -2.9347363  0.027318524   -3.9427339    1.0079976      8192000 
 1920000   0.77950496   -3.9425962   -3.9425962   -2.9346913  0.027924947   -3.9425962    1.0079049      8192000 
 1921000   0.77927912   -3.9424445   -3.9424445   -2.9348316  0.027414893   -3.9424445    1.0076129      8192000 
 1922000   0.78020954   -3.9433079   -3.9433079   -2.9344919  0.023623941   -3.9433079    1.0088159      8192000 
 1923000   0.77947888   -3.9427824   -3.9427824   -2.9349112   0.02885129   -3.9427824    1.0078712      8192000 
 1924000   0.77939318   -3.9425103   -3.9425103   -2.9347499  0.027714332   -3.9425103    1.0077604      8192000 
 1925000   0.77938369   -3.9424896   -3.9424896   -2.9347415  0.026757992   -3.9424896    1.0077481      8192000 
 1926000   0.77950411   -3.9421063   -3.9421063   -2.9342026   0.02778815   -3.9421063    1.0079038      8192000 
 1927000    0.7793711   -3.9422157   -3.9422157   -2.9344839  0.025208423   -3.9422157    1.0077318      8192000 
 1928000   0.77936411   -3.9419075   -3.9419075   -2.9341848   0.02876067   -3.9419075    1.0077228      8192000 
 1929000   0.77931412   -3.9420704   -3.9420704   -2.9344123  0.027654935   -3.9420704    1.0076581      8192000 
 1930000   0.77947979   -3.9421753   -3.9421753    -2.934303  0.026247842   -3.9421753    1.0078723      8192000 
 1931000    0.7797535   -3.9424694   -3.9424694   -2.9342432  0.025174042   -3.9424694    1.0082262      8192000 
 1932000   0.77973676   -3.9424609   -3.9424609   -2.9342563  0.027852517   -3.9424609    1.0082046      8192000 
 1933000   0.77993835   -3.9423902   -3.9423902   -2.9339249  0.025055716   -3.9423902    1.0084653      8192000 
 1934000   0.77968042   -3.9420567   -3.9420567   -2.9339249  0.029218951   -3.9420567    1.0081318      8192000 
 1935000   0.77960707   -3.9421148   -3.9421148   -2.9340779  0.027724641   -3.9421148    1.0080369      8192000 
 1936000   0.77964473   -3.9420155   -3.9420155   -2.9339299  0.027052533   -3.9420155    1.0080856      8192000 
 1937000   0.77957876   -3.9417545   -3.9417545   -2.9337542  0.028901499   -3.9417545    1.0080003      8192000 
 1938000   0.77969514   -3.9423857   -3.9423857   -2.9342349  0.027974083   -3.9423857    1.0081508      8192000 
 1939000   0.77957243   -3.9421181   -3.9421181    -2.934126  0.025984091   -3.9421181    1.0079921      8192000 
 1940000   0.77910021     -3.94152     -3.94152   -2.9341385  0.027852578     -3.94152    1.0073815      8192000 
 1941000   0.77950448    -3.941674    -3.941674   -2.9337697  0.029258332    -3.941674    1.0079043      8192000 
 1942000   0.77934439   -3.9417126   -3.9417126   -2.9340153  0.027598945   -3.9417126    1.0076973      8192000 
 1943000   0.78000598    -3.942215    -3.942215   -2.9336623  0.026716154    -3.942215    1.0085527      8192000 
 1944000   0.77917607   -3.9412007   -3.9412007   -2.9337211  0.030207881   -3.9412007    1.0074796      8192000 
 1945000   0.77930818   -3.9414815   -3.9414815    -2.933831  0.028393002   -3.9414815    1.0076504      8192000 
 1946000   0.77938892   -3.9413826   -3.9413826   -2.9336278  0.025605416   -3.9413826    1.0077548      8192000 
 1947000   0.77947941   -3.9412227   -3.9412227   -2.9333508   0.02646149   -3.9412227    1.0078718      8192000 
 1948000   0.77928764   -3.9413543   -3.9413543   -2.9337304  0.025402259   -3.9413543    1.0076239      8192000 
 1949000   0.77907914   -3.9411614   -3.9411614   -2.9338071  0.025903388   -3.9411614    1.0073543      8192000 
 1950000   0.77909731   -3.9412443   -3.9412443   -2.9338665  0.025475991   -3.9412443    1.0073778      8192000 
 1951000   0.77917956   -3.9410308   -3.9410308   -2.9335467  0.026605062   -3.9410308    1.0074841      8192000 
 1952000   0.77921351    -3.941258    -3.941258     -2.93373  0.023412803    -3.941258     1.007528      8192000 
 1953000   0.77885499   -3.9405588   -3.9405588   -2.9334944  0.024458233   -3.9405588    1.0070645      8192000 
 1954000   0.77943022   -3.9416163   -3.9416163    -2.933808  0.022885395   -3.9416163    1.0078082      8192000 
 1955000   0.77961632   -3.9413688   -3.9413688     -2.93332  0.023512244   -3.9413688    1.0080489      8192000 
 1956000   0.77909089   -3.9409344   -3.9409344   -2.9335649  0.022663989   -3.9409344    1.0073695      8192000 
 1957000   0.77929001   -3.9412861   -3.9412861   -2.9336592  0.023977998   -3.9412861    1.0076269      8192000 
 1958000   0.77925964   -3.9411712   -3.9411712   -2.9335835  0.024798526   -3.9411712    1.0075877      8192000 
 1959000   0.77912603   -3.9408826   -3.9408826   -2.9334677  0.026147116   -3.9408826    1.0074149      8192000 
 1960000   0.77916652   -3.9409604   -3.9409604   -2.9334931  0.024497993   -3.9409604    1.0074673      8192000 
 1961000   0.77939133   -3.9408685   -3.9408685   -2.9331105  0.024744868   -3.9408685     1.007758      8192000 
 1962000   0.77952559   -3.9408625   -3.9408625   -2.9329309  0.024423235   -3.9408625    1.0079316      8192000 
 1963000   0.77896682   -3.9402365   -3.9402365   -2.9330274   0.02441438   -3.9402365    1.0072091      8192000 
 1964000   0.77888458   -3.9405082   -3.9405082   -2.9334055  0.026610633   -3.9405082    1.0071027      8192000 
 1965000   0.77880501   -3.9401952   -3.9401952   -2.9331954  0.025584544   -3.9401952    1.0069998      8192000 
 1966000   0.77950382   -3.9406932   -3.9406932   -2.9327898  0.023963138   -3.9406932    1.0079034      8192000 
 1967000   0.77938002   -3.9408318   -3.9408318   -2.9330884  0.025185362   -3.9408318    1.0077433      8192000 
 1968000   0.77905881   -3.9404356   -3.9404356   -2.9331076  0.023858233   -3.9404356     1.007328      8192000 
 1969000   0.77924373   -3.9404197   -3.9404197   -2.9328526  0.024008265   -3.9404197    1.0075671      8192000 
 1970000   0.77943939   -3.9404555   -3.9404555   -2.9326354  0.024778795   -3.9404555    1.0078201      8192000 
 1971000   0.77932714   -3.9402501   -3.9402501   -2.9325751  0.024871668   -3.9402501     1.007675      8192000 
 1972000   0.77909809   -3.9405965   -3.9405965   -2.9332177  0.024106235   -3.9405965    1.0073788      8192000 
 1973000   0.77901673   -3.9402625   -3.9402625   -2.9329889  0.023561682   -3.9402625    1.0072736      8192000 
 1974000   0.77914436   -3.9402946   -3.9402946    -2.932856  0.023638558   -3.9402946    1.0074386      8192000 
 1975000   0.77973419   -3.9405673   -3.9405673    -2.932366  0.025068516   -3.9405673    1.0082013      8192000 
 1976000   0.77954283   -3.9406762   -3.9406762   -2.9327224  0.024885241   -3.9406762    1.0079538      8192000 
 1977000   0.77971283   -3.9405176   -3.9405176    -2.932344  0.027840554   -3.9405176    1.0081737      8192000 
 1978000   0.77944743   -3.9407396   -3.9407396   -2.9329091  0.028117571   -3.9407396    1.0078305      8192000 
 1979000   0.77940756   -3.9402941   -3.9402941   -2.9325152  0.030029871   -3.9402941    1.0077789      8192000 
 1980000   0.77974751   -3.9406137   -3.9406137   -2.9323952  0.027559005   -3.9406137    1.0082185      8192000 
 1981000    0.7794158   -3.9404141   -3.9404141   -2.9326245  0.028600815   -3.9404141    1.0077896      8192000 
 1982000   0.78019111    -3.941176    -3.941176   -2.9323839  0.026907036    -3.941176    1.0087921      8192000 
 1983000   0.77998095   -3.9407114   -3.9407114   -2.9321911  0.027955792   -3.9407114    1.0085203      8192000 
 1984000   0.77974475   -3.9402732   -3.9402732   -2.9320583  0.030774488   -3.9402732    1.0082149      8192000 
 1985000   0.78000896   -3.9405082   -3.9405082   -2.9319516  0.028058896   -3.9405082    1.0085566      8192000 
 1986000   0.77974678   -3.9404952   -3.9404952   -2.9322776  0.028848138   -3.9404952    1.0082176      8192000 
 1987000   0.78013651   -3.9405181   -3.9405181   -2.9317966  0.025196155   -3.9405181    1.0087215      8192000 
 1988000   0.77979675   -3.9403846   -3.9403846   -2.9321025  0.028711895   -3.9403846    1.0082822      8192000 
 1989000   0.77998006   -3.9405225   -3.9405225   -2.9320033  0.029250754   -3.9405225    1.0085192      8192000 
 1990000    0.7796056   -3.9402295   -3.9402295   -2.9321945  0.027007218   -3.9402295     1.008035      8192000 
 1991000   0.77990038   -3.9403983   -3.9403983   -2.9319821  0.026225004   -3.9403983    1.0084162      8192000 
 1992000   0.78000769   -3.9406229   -3.9406229    -2.932068  0.025008221   -3.9406229    1.0085549      8192000 
 1993000   0.77978445    -3.940567    -3.940567   -2.9323007  0.026358922    -3.940567    1.0082663      8192000 
 1994000   0.77936559   -3.9396475   -3.9396475   -2.9319229  0.031040185   -3.9396475    1.0077247      8192000 
 1995000    0.7796637   -3.9400465   -3.9400465   -2.9319363  0.026856606   -3.9400465    1.0081101      8192000 
 1996000    0.7803799   -3.9405909   -3.9405909   -2.9315547  0.028976576   -3.9405909    1.0090362      8192000 
 1997000   0.78014697   -3.9402822   -3.9402822   -2.9315472  0.026433114   -3.9402822     1.008735      8192000 
 1998000   0.77978636   -3.9401046   -3.9401046   -2.9318359  0.028664559   -3.9401046    1.0082687      8192000 
 1999000   0.77967776    -3.940175    -3.940175   -2.9320467  0.026082554    -3.940175    1.0081283      8192000 
 2000000   0.77972579   -3.9401798   -3.9401798   -2.9319894  0.027115731   -3.9401798    1.0081904      8192000 
Loop time of 16235.8 on 240 procs for 1000000 steps with 4233413 atoms

Performance: 13303.899 tau/day, 61.592 timesteps/s
98.5% CPU use with 240 MPI tasks x 1 OpenMP threads

MPI task timing breakdown:
Section |  min time  |  avg time  |  max time  |%varavg|  %CPU | %total
-----------------------------------------------------------------------
Pair    | 6712.7     | 7657.3     | 9062.6     | 602.2 |  99.5 | 47.16
Bond    | 0.79488    | 0.91928    | 1.0368     |   4.4 | 100.0 |  0.01
Neigh   | 2806.3     | 3756.5     | 4521.2     | 605.5 |  99.6 | 23.14
Comm    | 1476.8     | 2919.6     | 4939.8     |1343.2 |  95.9 | 17.98
Output  | 73.395     | 73.879     | 75.298     |   8.0 |  94.2 |  0.46
Modify  | 952.77     | 1491       | 2063.1     | 745.1 |  96.6 |  9.18
Other   |            | 336.7      |            |       |       |  2.07

Nlocal:        17639.2 ave       19442 max       16071 min
Histogram: 7 10 28 34 69 35 32 18 2 5
Nghost:        16212.6 ave       20379 max        9637 min
Histogram: 22 13 3 22 5 23 33 51 45 23
Neighs:        578262.0 ave      664406 max      483934 min
Histogram: 3 6 7 43 99 21 5 18 18 20

Total # of neighbors = 1.3878297e+08
Ave neighs/atom = 32.782761
Ave special neighs/atom = 0.0000000
Neighbor list builds = 62083
Dangerous builds = 0
Total wall time: 4:30:41
