LAMMPS (24 Dec 2020)
OMP_NUM_THREADS environment is not set. Defaulting to 1 thread. (src/comm.cpp:94)
  using 1 OpenMP thread(s) per MPI task
# Simple rigid body system
# needed variables: startTemp, temp

units		lj
atom_style	full
dimension 	3
boundary	p p f
pair_style	lj/cut/opt 2.5

variable 	gcmcdisplace	equal 0
variable 	sigma		equal 1.0
variable 	epsilon 	equal 1.0


read_restart	restart.dat.3000000
Reading restart file ...
  restart file = 24 Dec 2020, LAMMPS = 24 Dec 2020
WARNING: Restart file used different # of processors: 144 vs. 192 (src/read_restart.cpp:697)
  restoring atom style full from restart
  orthogonal box = (0.0000000 0.0000000 0.0000000) to (100.00000 100.00000 200.00000)
  4 by 4 by 12 MPI processor grid
  restoring pair style lj/cut/opt from restart
  878832 atoms
Finding 1-2 1-3 1-4 neighbors ...
  special bond factors lj:    0        0        0       
  special bond factors coul:  0        0        0       
     0 = max # of 1-2 neighbors
     0 = max # of 1-3 neighbors
     0 = max # of 1-4 neighbors
     1 = max # of special neighbors
  special bonds CPU = 1.407 seconds
  read_restart CPU = 1.882 seconds

mass		1 1.0
mass		2 1.0
mass		3 1.0


group		solvent type 1
878832 atoms in group solvent


neighbor 	0.4 bin

pair_coeff	1 1 1.0 1.0
pair_coeff	2 2 0.0 0.0
pair_coeff	3 3 0.0 0.0
pair_coeff	2 3 0.0 0.0
pair_coeff	1 2*3 0.0 0.0

pair_modify 	shift yes


balance 	1.05 shift z 10 1.05
Balancing ...
Neighbor list info ...
  update every 1 steps, delay 10 steps, check yes
  max neighbors/atom: 2000, page size: 100000
  master list distance cutoff = 2.9
  ghost atom cutoff = 2.9
  binsize = 1.45, bins = 69 69 138
  1 neighbor lists, perpetual/occasional/extra = 1 0 0
  (1) pair lj/cut/opt, perpetual
      attributes: half, newton on
      pair build: half/bin/newton
      stencil: half/bin/3d/newton
      bin: standard
 rebalancing time: 0.008 seconds
  iteration count = 4
  initial/final maximal load/proc = 6332.0000 5548.0000
  initial/final imbalance factor  = 1.3833634 1.2120815
  x cuts: 0.0000000 0.25000000 0.50000000 0.75000000 1.0000000
  y cuts: 0.0000000 0.25000000 0.50000000 0.75000000 1.0000000
  z cuts: 0.0000000 0.067708333 0.13020833 0.19270833 0.25520833 0.32291667 0.38541667 0.44791667 0.51041667 0.57812500 0.63020833 0.68229167 1.0000000


####################### WALLS ###########################


variable       epsilonWall equal 2*${epsilon}
variable       epsilonWall equal 2*1

variable       cutoffTop   equal   0.7147*${sigma}
variable       cutoffTop   equal   0.7147*1

variable       cutoffLow   equal   3*${sigma}
variable       cutoffLow   equal   3*1


fix            topWall all wall/lj93 zhi EDGE                ${epsilonWall} ${sigma} ${cutoffTop} units box
fix            topWall all wall/lj93 zhi EDGE                2 ${sigma} ${cutoffTop} units box
fix            topWall all wall/lj93 zhi EDGE                2 1 ${cutoffTop} units box
fix            topWall all wall/lj93 zhi EDGE                2 1 0.7147 units box

fix            lowWall all wall/lj93 zlo EDGE                ${epsilonWall} ${sigma} ${cutoffLow} units box
fix            lowWall all wall/lj93 zlo EDGE                2 ${sigma} ${cutoffLow} units box
fix            lowWall all wall/lj93 zlo EDGE                2 1 ${cutoffLow} units box
fix            lowWall all wall/lj93 zlo EDGE                2 1 3 units box


###################### COMPUTES ##########################

compute        bin1 solvent chunk/atom bin/1d z upper 1.0



######################	FIXES ############################


fix 		peclet solvent ave/chunk 1000 1 1000 bin1 density/number norm 		 none ave one file density.profile

fix 		 temp solvent ave/chunk 1000 1 1000 bin1 temp norm none ave one file temp.profile

fix 		2 solvent nve

## Thermostat


region		regthermo block EDGE EDGE EDGE EDGE 0 20

group 		thermo dynamic solvent region regthermo every 1000
dynamic group thermo defined

fix 		3 thermo langevin ${startTemp} ${temp} 10 156453
fix 		3 thermo langevin 1.0 ${temp} 10 156453
fix 		3 thermo langevin 1.0 1.0 10 156453


## Evaporation

region		regevap block EDGE EDGE EDGE EDGE 180 198
fix 		gcmc solvent gcmc 100 100 0 1 780493 ${temp} ${mu} ${gcmcdisplace} region regevap
fix 		gcmc solvent gcmc 100 100 0 1 780493 1.0 ${mu} ${gcmcdisplace} region regevap
fix 		gcmc solvent gcmc 100 100 0 1 780493 1.0 -.50 ${gcmcdisplace} region regevap
fix 		gcmc solvent gcmc 100 100 0 1 780493 1.0 -.50 0 region regevap


#### Load balancing

fix 		bal all balance 1000 1.05 shift z 10 1.05

############### Diagnostics and computes ###################
#compute 	com cube	  rigid/local	1 mol x y z
#compute 	quat cube	  rigid/local	1 mol quatw quati quatj quatk

thermo 		1000
thermo_style 	custom step temp epair etotal press pe ke atoms

dump		1 all custom 100000 dump.lammpstrj id mol type x y z
dump 		2 all image 10000 image.*.png type type
dump 		3 all movie 1000 movie.avi type type
#dump 		com cube local 1000 dump.*.xyz c_com[*]
#dump		quat cube      local 1000 dump.*.quat c_quat[*]


restart 	1000000 restart.dat
timestep 	0.005
timer 		full
New timer settings: style=full  mode=nosync  timeout=off


run		5000000
Per MPI rank memory allocation (min/avg/max) = 12.26 | 12.63 | 13.06 Mbytes
Step Temp E_pair TotEng Press PotEng KinEng Atoms 
 3000000   0.98378862   -3.3591705   -1.8834892  0.056035388   -3.3591705    1.4756812   878832 
 3001000   0.98576653   -3.3596124   -1.8815748  0.056595092   -3.3596124    1.4780376   879195 
 3002000   0.98562507   -3.3586498   -1.8814292  0.057891083   -3.3586498    1.4772206   879555 
 3003000   0.98636601   -3.3581171   -1.8804059  0.056076594   -3.3581171    1.4777112   879924 
 3004000   0.98641694   -3.3564685   -1.8792937  0.054458839   -3.3564685    1.4771747   880289 
 3005000   0.98750237    -3.355626   -1.8773951  0.056819938    -3.355626    1.4782309   880628 
 3006000   0.98820663   -3.3550185   -1.8762875  0.055062321   -3.3550185     1.478731   880958 
 3007000   0.98780705   -3.3521571   -1.8746043  0.059231694   -3.3521571    1.4775528   881304 
 3008000   0.98875812   -3.3520719   -1.8736434  0.058891001   -3.3520719    1.4784285   881630 
 3009000    0.9895496   -3.3512277   -1.8722079  0.059112075   -3.3512277    1.4790198   881983 
 3010000   0.99012523     -3.35042   -1.8711303  0.059705709     -3.35042    1.4792897   882335 
 3011000    0.9911387   -3.3493617   -1.8691566  0.055276521   -3.3493617     1.480205   882692 
 3012000   0.99187467   -3.3488561   -1.8681307  0.059206429   -3.3488561    1.4807254   883037 
 3013000   0.99256854   -3.3485612   -1.8674156  0.059358524   -3.3485612    1.4811457   883404 
 3014000   0.99275868   -3.3469508   -1.8661181   0.05849146   -3.3469508    1.4808326   883760 
 3015000    0.9931999   -3.3460331   -1.8651573  0.055339054   -3.3460331    1.4808758   884127 
 3016000   0.99392848   -3.3447145   -1.8633221  0.057905453   -3.3447145    1.4813924   884467 
 3017000   0.99472808    -3.344194   -1.8622096   0.05903499    -3.344194    1.4819844   884825 
 3018000   0.99496885   -3.3431757   -1.8613937  0.060406353   -3.3431757    1.4817821   885160 
 3019000   0.99479219   -3.3406215   -1.8597233  0.061885356   -3.3406215    1.4808983   885531 
 3020000   0.99632503   -3.3411287   -1.8585195  0.059323134   -3.3411287    1.4826092   885872 
 3021000   0.99788955   -3.3409834   -1.8565939   0.06039771   -3.3409834    1.4843894   886199 
 3022000   0.99859766    -3.339907    -1.855044   0.06265262    -3.339907     1.484863   886545 
 3023000   0.99936087   -3.3404097   -1.8550049   0.06146649   -3.3404097    1.4854047   886899 
 3024000    0.9989571    -3.338281   -1.8539969  0.063109683    -3.338281    1.4842841   887210 
 3025000   0.99951551   -3.3382262   -1.8537047  0.062664466   -3.3382262    1.4845215   887564 
 3026000    1.0003674   -3.3381829   -1.8529284  0.061096511   -3.3381829    1.4852545   887882 
 3027000    1.0023752   -3.3394784   -1.8517689  0.060019833   -3.3394784    1.4877095   888196 
 3028000    1.0020476   -3.3374035   -1.8507343  0.064677686   -3.3374035    1.4866692   888527 
 3029000    1.0025179    -3.336281   -1.8495013  0.065546284    -3.336281    1.4867797   888878 
 3030000    1.0029025   -3.3353982   -1.8486036  0.066438127   -3.3353982    1.4867947   889210 
 3031000    1.0042817    -3.336397   -1.8481201  0.064486434    -3.336397    1.4882769   889546 
 3032000    1.0041685   -3.3350972   -1.8475064   0.06629505   -3.3350972    1.4875908   889856 
 3033000    1.0053113   -3.3352836   -1.8465553  0.064733884   -3.3352836    1.4887283   890188 
 3034000    1.0058971    -3.335627   -1.8465631  0.062720927    -3.335627    1.4890639   890506 
 3035000    1.0064606   -3.3352058   -1.8458646  0.067050744   -3.3352058    1.4893412   890839 
 3036000    1.0061496   -3.3337413   -1.8454184  0.067070178   -3.3337413    1.4883229   891173 
 3037000    1.0054588   -3.3318342    -1.845032  0.068896068   -3.3318342    1.4868023   891472 
 3038000    1.0072026   -3.3330671   -1.8442374  0.065769581   -3.3330671    1.4888297   891802 
 3039000    1.0078659   -3.3319826   -1.8427035  0.065515065   -3.3319826    1.4892792   892120 
 3040000    1.0077694   -3.3309773   -1.8424014     0.067038   -3.3309773     1.488576   892456 
 3041000    1.0075462   -3.3298049    -1.842122  0.067219225   -3.3298049    1.4876828   892794 
 3042000    1.0091177   -3.3309919    -1.841556  0.064276546   -3.3309919    1.4894359   893134 
 3043000    1.0087021   -3.3294271   -1.8411662   0.06696462   -3.3294271    1.4882609   893471 
 3044000    1.0103296   -3.3301036    -1.839965  0.066625588   -3.3301036    1.4901386   893785 
 3045000     1.011343   -3.3304096   -1.8392919   0.06780246   -3.3304096    1.4911177   894094 
 3046000    1.0114545   -3.3289877   -1.8382175  0.071055367   -3.3289877    1.4907702   894401 
 3047000    1.0121391   -3.3290941   -1.8378668  0.071671897   -3.3290941    1.4912273   894732 
 3048000    1.0134955   -3.3293386     -1.83664  0.071993652   -3.3293386    1.4926986   895048 
 3049000    1.0129155    -3.327711   -1.8363898  0.071826603    -3.327711    1.4913212   895362 
 3050000    1.0137636   -3.3281412   -1.8361079  0.068337227   -3.3281412    1.4920333   895684 
 3051000    1.0147219   -3.3274175   -1.8345023  0.068696257   -3.3274175    1.4929152   896001 
 3052000    1.0149322   -3.3264422   -1.8337539   0.06995998   -3.3264422    1.4926883   896323 
 3053000    1.0157145   -3.3258844   -1.8325087  0.075511658   -3.3258844    1.4933757   896601 
 3054000    1.0168529    -3.327045   -1.8325173  0.072398023    -3.327045    1.4945277   896914 
 3055000    1.0161679   -3.3256852   -1.8327019  0.072432347   -3.3256852    1.4929833   897237 
 3056000    1.0176716   -3.3255776   -1.8309765  0.069975741   -3.3255776    1.4946011   897592 
 3057000    1.0177779   -3.3242035   -1.8299872  0.074589182   -3.3242035    1.4942163   897917 
 3058000    1.0175417   -3.3232375   -1.8298903    0.0717706   -3.3232375    1.4933472   898231 
 3059000    1.0180782    -3.322448   -1.8288355    0.0753809    -3.322448    1.4936125   898545 
 3060000    1.0201166   -3.3238343   -1.8277858  0.069997973   -3.3238343    1.4960485   898878 
 3061000    1.0193986   -3.3228295   -1.8283326  0.072987992   -3.3228295    1.4944968   899178 
 3062000    1.0203965   -3.3229357   -1.8274831  0.071375049   -3.3229357    1.4954526   899483 
 3063000    1.0201141   -3.3213811   -1.8268808  0.072816924   -3.3213811    1.4945003   899807 
 3064000    1.0209909   -3.3215282   -1.8262619  0.074732698   -3.3215282    1.4952663   900119 
 3065000    1.0211381   -3.3212805   -1.8263035  0.072684446   -3.3212805     1.494977   900423 
 3066000    1.0216944   -3.3202665   -1.8250114  0.070954902   -3.3202665    1.4952551   900746 
 3067000    1.0216358   -3.3189637   -1.8243137  0.075184738   -3.3189637    1.4946501   901059 
 3068000    1.0229943    -3.318826   -1.8226899   0.07539632    -3.318826     1.496136   901361 
 3069000    1.0238517   -3.3177976    -1.820939  0.072399123   -3.3177976    1.4968586   901681 
 3070000    1.0236687   -3.3172853   -1.8211804  0.075428998   -3.3172853    1.4961049   901974 
 3071000    1.0234672   -3.3156836   -1.8204319  0.072501185   -3.3156836    1.4952517   902311 
 3072000    1.0242175   -3.3156747    -1.819854  0.076945575   -3.3156747    1.4958207   902629 
 3073000     1.025489    -3.315808   -1.8186378  0.072931485    -3.315808    1.4971702   902935 
 3074000    1.0256397    -3.314662    -1.817784  0.077680597    -3.314662    1.4968779   903244 
 3075000    1.0281875   -3.3173095   -1.8172596   0.07156842   -3.3173095    1.5000498   903573 
 3076000    1.0268789   -3.3131365    -1.815503  0.075311829   -3.3131365    1.4976335   903879 
 3077000    1.0279077   -3.3137232   -1.8150916  0.074203784   -3.3137232    1.4986316   904182 
 3078000    1.0275619   -3.3130736    -1.815491  0.073887429   -3.3130736    1.4975826   904511 
 3079000    1.0276749   -3.3112249   -1.8139908  0.076250266   -3.3112249     1.497234   904821 
 3080000    1.0292603   -3.3112045   -1.8122057  0.077085677   -3.3112045    1.4989989   905150 
 3081000    1.0298291     -3.31026   -1.8109496  0.076956673     -3.31026    1.4993104   905462 
 3082000    1.0303934   -3.3104615   -1.8108297  0.076064519   -3.3104615    1.4996318   905764 
 3083000    1.0300798   -3.3089048   -1.8102489  0.079320372   -3.3089048    1.4986558   906078 
 3084000    1.0308298   -3.3095222   -1.8102831  0.076317756   -3.3095222    1.4992391   906385 
 3085000    1.0322799   -3.3090119   -1.8081772  0.073985247   -3.3090119    1.5008347   906695 
 3086000    1.0318886   -3.3076361   -1.8078665  0.075455557   -3.3076361    1.4997696   906995 
 3087000    1.0319858   -3.3068587   -1.8074107  0.075952744   -3.3068587    1.4994479   907275 
 3088000    1.0323768   -3.3058054   -1.8062702  0.072695993   -3.3058054    1.4995351   907566 
 3089000    1.0320228   -3.3033397   -1.8048174  0.076828239   -3.3033397    1.4985223   907868 
 3090000    1.0331729   -3.3038236   -1.8041384  0.075182059   -3.3038236    1.4996852   908175 
 3091000    1.0320369   -3.3022697   -1.8047447  0.078623199   -3.3022697    1.4975251   908485 
 3092000    1.0342796   -3.3035795   -1.8033122  0.075387851   -3.3035795    1.5002674   908795 
 3093000     1.034885    -3.303061   -1.8024025  0.075881866    -3.303061    1.5006585   909090 
 3094000    1.0349339   -3.3027065   -1.8024558  0.078533678   -3.3027065    1.5002507   909380 
 3095000    1.0359833    -3.303211   -1.8019426  0.076142692    -3.303211    1.5012684   909685 
 3096000    1.0353979   -3.3008901   -1.8009531  0.076211642   -3.3008901    1.4999369   909978 
 3097000     1.037574   -3.3026819   -1.8000928  0.071473351   -3.3026819    1.5025891   910281 
 3098000    1.0377233     -3.30148   -1.7991682  0.079911343     -3.30148    1.5023118   910580 
 3099000    1.0386504    -3.301291   -1.7981653  0.074695742    -3.301291    1.5031257   910900 
 3100000     1.038781   -3.2994377   -1.7966394   0.07465233   -3.2994377    1.5027983   911213 
 3101000    1.0388822    -3.299089   -1.7966158   0.08130172    -3.299089    1.5024732   911499 
 3102000    1.0396322   -3.2989573   -1.7958727  0.080554671   -3.2989573    1.5030846   911786 
 3103000    1.0403797   -3.2985214   -1.7948805  0.079319252   -3.2985214    1.5036409   912104 
 3104000     1.041975   -3.2990965   -1.7936154  0.079688483   -3.2990965    1.5054811   912386 
 3105000    1.0417386    -3.298113   -1.7934516  0.080009117    -3.298113    1.5046614   912676 
 3106000    1.0434567    -3.299512   -1.7928429  0.081728503    -3.299512     1.506669   912963 
 3107000    1.0430553   -3.2979011   -1.7923112  0.079730509   -3.2979011    1.5055899   913266 
 3108000    1.0433772   -3.2975948   -1.7920366  0.079582667   -3.2975948    1.5055582   913567 
 3109000    1.0434295    -3.296684   -1.7915412  0.080454798    -3.296684    1.5051428   913865 
 3110000    1.0431205   -3.2955682   -1.7913437  0.081506278   -3.2955682    1.5042246   914152 
 3111000    1.0455143   -3.2971206   -1.7899931  0.080759891   -3.2971206    1.5071276   914485 
 3112000    1.0447854   -3.2948676   -1.7892764  0.084275338   -3.2948676    1.5055912   914780 
 3113000     1.045325   -3.2939613   -1.7880552  0.086313299   -3.2939613    1.5059062   915061 
 3114000    1.0463433   -3.2941842   -1.7872607  0.081872042   -3.2941842    1.5069235   915334 
 3115000    1.0462464     -3.29361   -1.7872852  0.082028501     -3.29361    1.5063249   915613 
 3116000    1.0472198   -3.2939482   -1.7866811  0.084578487   -3.2939482     1.507267   915892 
 3117000    1.0473277   -3.2939472   -1.7869708  0.085017033   -3.2939472    1.5069764   916163 
 3118000     1.048137   -3.2937941   -1.7861205   0.08200709   -3.2937941    1.5076735   916447 
 3119000    1.0488621   -3.2930731   -1.7848075  0.084900827   -3.2930731    1.5082656   916721 
 3120000    1.0492477   -3.2922159   -1.7838877   0.08552012   -3.2922159    1.5083281   917020 
 3121000    1.0497837   -3.2917692   -1.7831329  0.083145392   -3.2917692    1.5086363   917301 
 3122000    1.0508567   -3.2932508   -1.7834872  0.083827165   -3.2932508    1.5097636   917553 
 3123000    1.0518921   -3.2929261   -1.7821195   0.08316776   -3.2929261    1.5108067   917823 
 3124000    1.0504419   -3.2896635   -1.7813423  0.087627929   -3.2896635    1.5083212   918068 
 3125000    1.0518247   -3.2909179   -1.7809977  0.084618697   -3.2909179    1.5099202   918303 
 3126000     1.050502   -3.2878072   -1.7802488  0.084720138   -3.2878072    1.5075584   918585 
 3127000    1.0514823   -3.2881448   -1.7796147  0.084765657   -3.2881448    1.5085301   918850 
 3128000    1.0523367   -3.2888914   -1.7795609  0.084459688   -3.2888914    1.5093304   919109 
 3129000    1.0519663   -3.2874391   -1.7790961  0.084893017   -3.2874391    1.5083429   919387 
 3130000    1.0535116   -3.2882425   -1.7781355  0.086085485   -3.2882425    1.5101069   919662 
 3131000    1.0535397    -3.287332   -1.7776477  0.083335672    -3.287332    1.5096843   919944 
 3132000    1.0547235   -3.2884992   -1.7775702   0.07974213   -3.2884992     1.510929   920219 
 3133000    1.0547594   -3.2874307   -1.7768804  0.082153149   -3.2874307    1.5105504   920481 
 3134000    1.0536393   -3.2848581   -1.7763708  0.086758702   -3.2848581    1.5084873   920761 
 3135000    1.0549352    -3.284929   -1.7750553  0.084058686    -3.284929    1.5098736   921047 
 3136000     1.056318   -3.2855428   -1.7741478  0.086962042   -3.2855428     1.511395   921326 
 3137000    1.0561205   -3.2839489   -1.7733612  0.081760406   -3.2839489    1.5105877   921646 
 3138000     1.055789   -3.2821837   -1.7725353  0.085432907   -3.2821837    1.5096484   921930 
 3139000    1.0579386   -3.2840028   -1.7717318  0.086947182   -3.2840028     1.512271   922205 
 3140000    1.0588122   -3.2832727   -1.7701764  0.088346618   -3.2832727    1.5130964   922463 
 3141000    1.0588912   -3.2830604   -1.7703069  0.085574724   -3.2830604    1.5127535   922741 
 3142000    1.0589087   -3.2822316   -1.7699186  0.084203083   -3.2822316     1.512313   923025 
 3143000    1.0600002     -3.28224   -1.7688223  0.089364467     -3.28224    1.5134177   923302 
 3144000    1.0601203   -3.2814814   -1.7683298   0.08380197   -3.2814814    1.5131516   923569 
 3145000    1.0589969   -3.2789803   -1.7679345  0.085699789   -3.2789803    1.5110458   923876 
 3146000    1.0600885   -3.2794756   -1.7672912  0.082537399   -3.2794756    1.5121844   924132 
 3147000    1.0621552   -3.2811235    -1.766463  0.083187291   -3.2811235    1.5146605   924420 
 3148000    1.0603228   -3.2791421   -1.7675215  0.087809305   -3.2791421    1.5116206   924681 
 3149000    1.0619025   -3.2810709   -1.7676517   0.08547488   -3.2810709    1.5134192   924958 
 3150000    1.0615336   -3.2789372    -1.766459  0.086480741   -3.2789372    1.5124782   925212 
 3151000    1.0618608   -3.2779788   -1.7654758  0.084851078   -3.2779788     1.512503   925482 
 3152000    1.0606591   -3.2757258   -1.7653849  0.088764428   -3.2757258    1.5103409   925758 
 3153000    1.0621985   -3.2768019   -1.7647019  0.085863382   -3.2768019       1.5121   926023 
 3154000      1.06367   -3.2775881   -1.7638297  0.085427131   -3.2775881    1.5137584   926290 
 3155000    1.0643081    -3.277968   -1.7637314  0.086896553    -3.277968    1.5142366   926553 
 3156000    1.0641202   -3.2774169    -1.763936  0.089100622   -3.2774169    1.5134808   926852 
 3157000    1.0649644   -3.2775205   -1.7632964  0.086963406   -3.2775205    1.5142241   927132 
 3158000    1.0664375   -3.2778309   -1.7619374  0.089160681   -3.2778309    1.5158935   927392 
 3159000    1.0663339   -3.2770737   -1.7617638  0.086142203   -3.2770737    1.5153099   927659 
 3160000    1.0669509   -3.2772934   -1.7615479  0.087502109   -3.2772934    1.5157456   927929 
 3161000    1.0683316   -3.2772896   -1.7600421  0.088968003   -3.2772896    1.5172476   928210 
 3162000     1.066452    -3.273909   -1.7597957  0.088040225    -3.273909    1.5141132   928495 
 3163000    1.0672049   -3.2746988   -1.7599358  0.091716202   -3.2746988     1.514763   928752 
 3164000    1.0684544    -3.274678   -1.7585398  0.089952116    -3.274678    1.5161382   928996 
 3165000    1.0679454   -3.2738978   -1.7588815  0.091033644   -3.2738978    1.5150163   929241 
 3166000    1.0690419   -3.2746112   -1.7585173  0.088963493   -3.2746112    1.5160938   929534 
 3167000    1.0687056   -3.2730499   -1.7578503  0.089884724   -3.2730499    1.5151996   929790 
 3168000    1.0690711   -3.2720534   -1.7567626  0.089013723   -3.2720534    1.5152907   930052 
 3169000    1.0694566   -3.2712941   -1.7558837  0.089788472   -3.2712941    1.5154103   930314 
 3170000    1.0709893   -3.2722315   -1.7550293    0.0910315   -3.2722315    1.5172022   930547 
 3171000    1.0708766    -3.271674   -1.7550226  0.090285965    -3.271674    1.5166514   930787 
 3172000    1.0713504   -3.2715188   -1.7546186  0.090717315   -3.2715188    1.5169002   931046 
 3173000    1.0714974   -3.2705593   -1.7539151   0.09133629   -3.2705593    1.5166442   931331 
 3174000    1.0734332   -3.2724692   -1.7535287  0.088523753   -3.2724692    1.5189405   931603 
 3175000    1.0728942   -3.2695311   -1.7517867   0.09419204   -3.2695311    1.5177445   931869 
 3176000    1.0736265   -3.2696032   -1.7512432    0.0954792   -3.2696032      1.51836   932127 
 3177000    1.0738477   -3.2693156     -1.75112  0.090100075   -3.2693156    1.5181956   932420 
 3178000    1.0743182   -3.2692915   -1.7508654  0.093183672   -3.2692915    1.5184261   932687 
 3179000    1.0749756   -3.2693437   -1.7504265  0.089519922   -3.2693437    1.5189171   932956 
 3180000    1.0753238   -3.2676585   -1.7486857  0.093040653   -3.2676585    1.5189727   933224 
 3181000    1.0757962   -3.2681951   -1.7489377  0.090487037   -3.2681951    1.5192575   933459 
 3182000    1.0755548   -3.2670802   -1.7486028   0.09117307   -3.2670802    1.5184773   933729 
 3183000    1.0768582   -3.2674142   -1.7475345  0.094485793   -3.2674142    1.5198797   933998 
 3184000    1.0771691   -3.2666703   -1.7468385  0.094625694   -3.2666703    1.5198319   934297 
 3185000    1.0781819    -3.266912   -1.7460807  0.095314452    -3.266912    1.5208313   934561 
 3186000    1.0783307   -3.2661788    -1.745582  0.089727925   -3.2661788    1.5205969   934834 
 3187000    1.0786149   -3.2653656   -1.7448233  0.093103461   -3.2653656    1.5205422   935114 
 3188000    1.0783004   -3.2640612   -1.7443459  0.093305227   -3.2640612    1.5197154   935350 
 3189000    1.0791704   -3.2635713   -1.7430427  0.093712976   -3.2635713    1.5205286   935604 
 3190000    1.0808601   -3.2652156   -1.7427489  0.093786205   -3.2652156    1.5224667   935876 
 3191000    1.0813639   -3.2643203   -1.7416093  0.092796268   -3.2643203     1.522711   936162 
 3192000    1.0803985   -3.2630526   -1.7420926  0.093250076   -3.2630526      1.52096   936403 
 3193000    1.0818192   -3.2638383   -1.7412913  0.095061686   -3.2638383     1.522547   936657 
 3194000    1.0819556   -3.2631923   -1.7408629  0.089098921   -3.2631923    1.5223294   936909 
 3195000    1.0827715    -3.263119   -1.7400415  0.097048906    -3.263119    1.5230775   937155 
 3196000    1.0832429   -3.2622293   -1.7389113  0.096603458   -3.2622293     1.523318   937415 
 3197000    1.0836097    -3.261652   -1.7382245  0.094321001    -3.261652    1.5234275   937665 
 3198000    1.0837276   -3.2605243   -1.7373469  0.093403443   -3.2605243    1.5231774   937921 
 3199000    1.0845859     -3.26109   -1.7371337  0.096382748     -3.26109    1.5239564   938184 
 3200000    1.0838779   -3.2601525   -1.7375885   0.09140152   -3.2601525    1.5225641   938429 
 3201000    1.0845483   -3.2598686   -1.7367476  0.092861301   -3.2598686    1.5231211   938666 
 3202000    1.0847864   -3.2597635   -1.7367251  0.095557926   -3.2597635    1.5230384   938923 
 3203000    1.0854688    -3.259482   -1.7358911  0.096107636    -3.259482    1.5235909   939173 
 3204000    1.0853276   -3.2575158   -1.7345739   0.09649947   -3.2575158    1.5229419   939451 
 3205000    1.0866995   -3.2595896   -1.7351299  0.094760026   -3.2595896    1.5244597   939702 
 3206000    1.0873587   -3.2590956   -1.7341412  0.097136181   -3.2590956    1.5249544   939967 
 3207000    1.0865369   -3.2578079   -1.7344097  0.094793882   -3.2578079    1.5233983   940216 
 3208000    1.0860169   -3.2567259   -1.7344776  0.095450965   -3.2567259    1.5222483   940476 
 3209000    1.0869098   -3.2564496   -1.7332995  0.093557504   -3.2564496    1.5231501   940692 
 3210000    1.0866747   -3.2560651   -1.7336233  0.096003123   -3.2560651    1.5224419   940926 
 3211000    1.0883655   -3.2572491   -1.7328774  0.093909671   -3.2572491    1.5243717   941197 
 3212000    1.0886347   -3.2564715   -1.7320807  0.094199165   -3.2564715    1.5243908   941418 
 3213000     1.088899   -3.2560338   -1.7316988  0.098120899   -3.2560338     1.524335   941681 
 3214000    1.0896681   -3.2573148   -1.7322901  0.093381734   -3.2573148    1.5250246   941920 
 3215000     1.089942   -3.2565467   -1.7315338  0.097697638   -3.2565467    1.5250129   942164 
 3216000    1.0912124   -3.2571181   -1.7307522  0.096802413   -3.2571181    1.5263659   942426 
 3217000    1.0908882   -3.2564995   -1.7309837  0.095013075   -3.2564995    1.5255159   942671 
 3218000    1.0923712   -3.2569188   -1.7297439  0.093561374   -3.2569188    1.5271749   942927 
 3219000    1.0923086   -3.2558068   -1.7291209  0.092679408   -3.2558068    1.5266859   943175 
 3220000    1.0922642   -3.2555523   -1.7292747  0.096344011   -3.2555523    1.5262776   943389 
 3221000    1.0932031   -3.2550391   -1.7278349   0.10272611   -3.2550391    1.5272043   943627 
 3222000    1.0934995   -3.2554974   -1.7282788  0.097579827   -3.2554974    1.5272186   943874 
 3223000     1.093208   -3.2545931   -1.7281974   0.09706509   -3.2545931    1.5263958   944131 
 3224000    1.0939593   -3.2555678   -1.7284967  0.097537936   -3.2555678    1.5270712   944362 
 3225000    1.0944168   -3.2566717   -1.7293225  0.094216767   -3.2566717    1.5273492   944585 
 3226000    1.0941793   -3.2547273   -1.7281249  0.097619021   -3.2547273    1.5266024   944842 
 3227000     1.095783   -3.2556671   -1.7272398  0.099177863   -3.2556671    1.5284273   945097 
 3228000     1.096157   -3.2555442   -1.7269899  0.098837186   -3.2555442    1.5285543   945341 
 3229000    1.0953632   -3.2543058    -1.727246   0.10139914   -3.2543058    1.5270597   945581 
 3230000    1.0969626   -3.2557763   -1.7268862  0.098106178   -3.2557763    1.5288901   945828 
 3231000    1.0978513   -3.2563732   -1.7266472  0.095421565   -3.2563732     1.529726   946077 
 3232000     1.097541   -3.2547288    -1.725844  0.099852697   -3.2547288    1.5288849   946330 
 3233000    1.0983751   -3.2553315   -1.7257067  0.097404067   -3.2553315    1.5296248   946591 
 3234000     1.097982   -3.2539552   -1.7252896   0.10106468   -3.2539552    1.5286656   946846 
 3235000    1.0975598   -3.2527035   -1.7249726   0.10195996   -3.2527035     1.527731   947061 
 3236000    1.0981104   -3.2527419   -1.7246205   0.10066157   -3.2527419    1.5281214   947294 
 3237000    1.0994002   -3.2534824   -1.7239665  0.099153201   -3.2534824    1.5295158   947542 
 3238000    1.1002915   -3.2538612    -1.723514  0.097001762   -3.2538612    1.5303472   947795 
 3239000    1.1000472   -3.2527328   -1.7231289   0.09979228   -3.2527328    1.5296039   948045 
 3240000     1.100425   -3.2519149   -1.7221665   0.10158088   -3.2519149    1.5297484   948281 
 3241000     1.100899   -3.2509646   -1.7209653   0.10152737   -3.2509646    1.5299992   948534 
 3242000    1.1017912   -3.2515221   -1.7206914   0.10237451   -3.2515221    1.5308308   948787 
 3243000     1.102503   -3.2515148   -1.7200533   0.10078092   -3.2515148    1.5314615   949009 
 3244000    1.1022747   -3.2509648   -1.7202139   0.10311632   -3.2509648    1.5307508   949253 
 3245000    1.1026994   -3.2501147    -1.719187    0.1014108   -3.2501147    1.5309276   949509 
 3246000    1.1024437   -3.2489053   -1.7186807   0.10240109   -3.2489053    1.5302245   949725 
 3247000    1.1035093   -3.2491938   -1.7178981   0.09782381   -3.2491938    1.5312958   949978 
 3248000    1.1033344    -3.248956   -1.7182477  0.099808598    -3.248956    1.5307083   950192 
 3249000    1.1038432   -3.2482073   -1.7171461   0.10143123   -3.2482073    1.5310612   950411 
 3250000    1.1045885   -3.2469852   -1.7152706   0.10275907   -3.2469852    1.5317146   950647 
 3251000    1.1043898   -3.2467941    -1.715727   0.10227214   -3.2467941    1.5310671   950878 
 3252000    1.1062571   -3.2481226   -1.7148716   0.10349504   -3.2481226     1.533251   951129 
 3253000    1.1051472   -3.2458835   -1.7145105   0.10186838   -3.2458835     1.531373   951340 
 3254000    1.1072609   -3.2472499   -1.7133027   0.10177502   -3.2472499    1.5339472   951560 
 3255000     1.106412   -3.2457447   -1.7133391   0.10141016   -3.2457447    1.5324056   951787 
 3256000    1.1071646   -3.2453648   -1.7122889   0.10137032   -3.2453648    1.5330759   952018 
 3257000    1.1069213   -3.2444874   -1.7121396   0.10100448   -3.2444874    1.5323478   952261 
 3258000    1.1079762   -3.2442887   -1.7108395   0.10391233   -3.2442887    1.5334492   952484 
 3259000    1.1082864   -3.2442978   -1.7107751   0.10513297   -3.2442978    1.5335226   952705 
 3260000    1.1072256   -3.2420946   -1.7104272    0.1010685   -3.2420946    1.5316674   952946 
 3261000     1.107842   -3.2425799    -1.710457   0.10234146   -3.2425799    1.5321229   953193 
 3262000    1.1092997    -3.243721    -1.709928   0.10527268    -3.243721     1.533793   953408 
 3263000    1.1088667   -3.2426597   -1.7098272   0.09813766   -3.2426597    1.5328326   953633 
 3264000    1.1101938   -3.2431371   -1.7088643  0.099291326   -3.2431371    1.5342728   953878 
 3265000    1.1083445   -3.2402572    -1.708911  0.099687562   -3.2402572    1.5313462   954109 
 3266000    1.1089802   -3.2400694   -1.7082093   0.10035501   -3.2400694    1.5318601   954336 
 3267000    1.1101125   -3.2407828   -1.7077571    0.0980694   -3.2407828    1.5330258   954584 
 3268000    1.1113449   -3.2420043   -1.7076302  0.099716696   -3.2420043    1.5343741   954804 
 3269000    1.1108609   -3.2404054   -1.7070464   0.10086034   -3.2404054     1.533359   955020 
 3270000    1.1109714   -3.2398583   -1.7067241   0.10076037   -3.2398583    1.5331343   955255 
 3271000    1.1118507   -3.2407345   -1.7067787   0.10219434   -3.2407345    1.5339558   955499 
 3272000    1.1111714   -3.2392385   -1.7065711  0.099686056   -3.2392385    1.5326674   955718 
 3273000    1.1131967   -3.2407915   -1.7056213  0.098981043   -3.2407915    1.5351702   955899 
 3274000    1.1125911   -3.2392196   -1.7052729   0.10265556   -3.2392196    1.5339467   956141 
 3275000    1.1130679   -3.2397482   -1.7055213   0.10004379   -3.2397482     1.534227   956376 
 3276000    1.1138612   -3.2398433   -1.7049081   0.10249091   -3.2398433    1.5349352   956616 
 3277000     1.114775   -3.2406257   -1.7047748   0.10191994   -3.2406257    1.5358509   956830 
 3278000    1.1148518   -3.2399888   -1.7043867   0.10319832   -3.2399888    1.5356021   957051 
 3279000    1.1167192   -3.2412566   -1.7035066   0.10357111   -3.2412566    1.5377501   957315 
 3280000    1.1159783   -3.2399784   -1.7036113   0.10009091   -3.2399784    1.5363671   957541 
 3281000    1.1158139   -3.2392867   -1.7035261    0.1049159   -3.2392867    1.5357606   957778 
 3282000    1.1171044   -3.2408478   -1.7036833   0.10394148   -3.2408478    1.5371645   958010 
 3283000    1.1183273    -3.241395   -1.7029092   0.10216662    -3.241395    1.5384859   958235 
 3284000    1.1181143   -3.2402042   -1.7023531   0.10844148   -3.2402042    1.5378511   958448 
 3285000    1.1176046   -3.2391644   -1.7023768    0.1108694   -3.2391644    1.5367876   958674 
 3286000     1.118532   -3.2398207   -1.7021364   0.10580151   -3.2398207    1.5376843   958910 
 3287000    1.1198786   -3.2416113   -1.7024547   0.10254856   -3.2416113    1.5391567   959146 
 3288000    1.1192584    -3.240372   -1.7024637   0.10439855    -3.240372    1.5379083   959393 
 3289000    1.1198091   -3.2400076    -1.701713    0.1081561   -3.2400076    1.5382945   959624 
 3290000    1.1211851   -3.2416139   -1.7018447   0.10688059   -3.2416139    1.5397693   959883 
 3291000    1.1216916   -3.2413042   -1.7012292    0.1042056   -3.2413042    1.5400749   960126 
 3292000    1.1202584   -3.2396351   -1.7018451   0.10871979   -3.2396351      1.53779   960324 
 3293000    1.1229171   -3.2418697   -1.7008055   0.10527333   -3.2418697    1.5410642   960558 
 3294000    1.1220503   -3.2395584     -1.70007   0.10737661   -3.2395584    1.5394884   960799 
 3295000    1.1224235   -3.2400498   -1.7004052   0.10584222   -3.2400498    1.5396446   961021 
 3296000    1.1222632   -3.2385225   -1.6994325   0.10512236   -3.2385225      1.53909   961230 
 3297000    1.1234061    -3.239671   -1.6993421   0.11192642    -3.239671    1.5403289   961435 
 3298000    1.1236294   -3.2394436   -1.6991897   0.10611155   -3.2394436    1.5402538   961673 
 3299000    1.1224325   -3.2372377   -1.6989924   0.10926444   -3.2372377    1.5382453   961903 
 3300000    1.1239508   -3.2397111    -1.699747   0.10646121   -3.2397111    1.5399642   962129 
 3301000    1.1248255   -3.2395783   -1.6987776   0.10576969   -3.2395783    1.5408007   962355 
 3302000    1.1243608   -3.2387127   -1.6989389   0.10889224   -3.2387127    1.5397738   962599 
 3303000    1.1247735   -3.2379357   -1.6979423   0.10612526   -3.2379357    1.5399934   962815 
 3304000    1.1250918   -3.2374609   -1.6974269   0.10553145   -3.2374609    1.5400341   963062 
 3305000     1.125393   -3.2380435   -1.6979105   0.10738331   -3.2380435     1.540133   963258 
 3306000    1.1251134   -3.2364927   -1.6970717   0.10740389   -3.2364927     1.539421   963464 
 3307000     1.126221   -3.2367517   -1.6961909   0.10516494   -3.2367517    1.5405608   963699 
 3308000    1.1261329   -3.2352016   -1.6951161   0.10882072   -3.2352016    1.5400855   963921 
 3309000    1.1263026   -3.2352549   -1.6952904   0.10481775   -3.2352549    1.5399645   964142 
 3310000    1.1266176   -3.2355306   -1.6955011     0.107805   -3.2355306    1.5400295   964371 
 3311000    1.1267096    -3.235097     -1.69529   0.10870338    -3.235097     1.539807   964589 
 3312000    1.1268903   -3.2352704   -1.6955772   0.10727938   -3.2352704    1.5396932   964815 
 3313000    1.1282977   -3.2354437   -1.6942044   0.10341343   -3.2354437    1.5412393   965051 
 3314000    1.1285286   -3.2354804   -1.6943122   0.10886435   -3.2354804    1.5411683   965293 
 3315000    1.1280931   -3.2334963   -1.6932611   0.10821223   -3.2334963    1.5402352   965505 
 3316000    1.1294454   -3.2341922   -1.6924524   0.11213434   -3.2341922    1.5417398   965719 
 3317000    1.1300908    -3.234477   -1.6921532   0.10751777    -3.234477    1.5423238   965905 
 3318000    1.1305385   -3.2340927    -1.691487   0.10836464   -3.2340927    1.5426058   966111 
 3319000    1.1304753   -3.2335078   -1.6913345   0.11124682   -3.2335078    1.5421732   966328 
 3320000    1.1309381   -3.2336379   -1.6911526    0.1080209   -3.2336379    1.5424853   966528 
 3321000    1.1322386   -3.2340887   -1.6901636   0.11095243   -3.2340887    1.5439251   966737 
 3322000    1.1326241   -3.2337858   -1.6896752   0.10999688   -3.2337858    1.5441106   966950 
 3323000    1.1328149   -3.2336002   -1.6895553   0.11360933   -3.2336002    1.5440449   967154 
 3324000    1.1333184   -3.2342011   -1.6898499   0.10950756   -3.2342011    1.5443512   967392 
 3325000    1.1334467   -3.2333518   -1.6891896   0.10970446   -3.2333518    1.5441622   967620 
 3326000    1.1337549   -3.2330758   -1.6888401   0.10660451   -3.2330758    1.5442357   967837 
 3327000    1.1332181   -3.2326048    -1.689443   0.10582383   -3.2326048    1.5431618   968052 
 3328000    1.1350172   -3.2334412   -1.6881727   0.10889464   -3.2334412    1.5452685   968267 
 3329000    1.1349969   -3.2319404    -1.687057    0.1066712   -3.2319404    1.5448834   968491 
 3330000    1.1346738   -3.2303766   -1.6862884   0.11048414   -3.2303766    1.5440882   968714 
 3331000    1.1346791   -3.2296201   -1.6858466   0.11628552   -3.2296201    1.5437734   968916 
 3332000    1.1355028    -3.230564   -1.6860062   0.11024099    -3.230564    1.5445577   969127 
 3333000    1.1348517   -3.2297128   -1.6863975   0.10963018   -3.2297128    1.5433154   969351 
 3334000    1.1363423   -3.2311783   -1.6862056   0.10933664   -3.2311783    1.5449727   969583 
 3335000    1.1351759   -3.2295372     -1.68644   0.11099081   -3.2295372    1.5430972   969765 
 3336000    1.1366794   -3.2312201   -1.6864344   0.10690825   -3.2312201    1.5447857   969988 
 3337000    1.1366076   -3.2317761   -1.6874016   0.11429948   -3.2317761    1.5443745   970185 
 3338000    1.1382327   -3.2328245   -1.6865956   0.11110377   -3.2328245    1.5462289   970407 
 3339000    1.1381855   -3.2319435   -1.6860975   0.10834775   -3.2319435     1.545846   970607 
 3340000    1.1392886   -3.2320852   -1.6850899   0.11046369   -3.2320852    1.5469953   970826 
 3341000    1.1388469   -3.2305927   -1.6845714   0.11488082   -3.2305927    1.5460212   971061 
 3342000    1.1388399   -3.2306502   -1.6849774   0.11249881   -3.2306502    1.5456727   971274 
 3343000    1.1397981   -3.2319253   -1.6852578   0.10950508   -3.2319253    1.5466675   971466 
 3344000    1.1397441   -3.2314761   -1.6851733   0.11633496   -3.2314761    1.5463028   971649 
 3345000    1.1408756   -3.2329512    -1.685427   0.11154344   -3.2329512    1.5475242   971846 
 3346000    1.1400992   -3.2321381   -1.6859565   0.11025825   -3.2321381    1.5461816   972028 
 3347000    1.1409574   -3.2323852    -1.685401   0.11099454   -3.2323852    1.5469842   972255 
 3348000      1.14106   -3.2315586   -1.6848059    0.1130012   -3.2315586    1.5467527   972488 
 3349000    1.1413319   -3.2322582   -1.6854965   0.10999033   -3.2322582    1.5467617   972714 
 3350000    1.1406778   -3.2300486   -1.6845451   0.11750819   -3.2300486    1.5455034   972948 
 3351000    1.1407736   -3.2298931    -1.684649   0.11256295   -3.2298931    1.5452441   973193 
 3352000    1.1417442   -3.2304432   -1.6842194   0.11152308   -3.2304432    1.5462237   973404 
 3353000    1.1423349   -3.2304367   -1.6837643   0.11027287   -3.2304367    1.5466724   973625 
 3354000    1.1424448   -3.2303609   -1.6838334   0.11391172   -3.2303609    1.5465275   973810 
 3355000    1.1443583   -3.2307229   -1.6819138   0.11144505   -3.2307229    1.5488092   974004 
 3356000    1.1436602   -3.2300422   -1.6824781   0.11441112   -3.2300422    1.5475641   974193 
 3357000    1.1435557   -3.2291158   -1.6819886   0.11590799   -3.2291158    1.5471272   974379 
 3358000    1.1439401   -3.2296417   -1.6823311   0.11282927   -3.2296417    1.5473106   974591 
 3359000    1.1450145    -3.230355   -1.6819215   0.11357903    -3.230355    1.5484335   974799 
 3360000    1.1451809   -3.2295644   -1.6812379   0.11510727   -3.2295644    1.5483265   975008 
 3361000    1.1448428   -3.2277328   -1.6801825   0.11549132   -3.2277328    1.5475503   975209 
 3362000    1.1465909   -3.2281775    -1.678636   0.11910317   -3.2281775    1.5495415   975443 
 3363000    1.1468283   -3.2278752   -1.6782971   0.11734691   -3.2278752     1.549578   975622 
 3364000    1.1464813   -3.2267811   -1.6780307   0.11788139   -3.2267811    1.5487504   975848 
 3365000    1.1469108   -3.2268156   -1.6778041   0.11656292   -3.2268156    1.5490115   976049 
 3366000    1.1481643   -3.2277038   -1.6773265   0.11541993   -3.2277038    1.5503772   976255 
 3367000    1.1467987   -3.2261526   -1.6779317   0.11238033   -3.2261526    1.5482208   976452 
 3368000    1.1481667    -3.228107    -1.678363   0.11313676    -3.228107     1.549744   976656 
 3369000    1.1485089   -3.2270703   -1.6772199   0.11524264   -3.2270703    1.5498504   976880 
 3370000    1.1484483   -3.2263916   -1.6769387   0.11321011   -3.2263916    1.5494529   977079 
 3371000    1.1494675   -3.2272067   -1.6767182   0.10990511   -3.2272067    1.5504884   977293 
 3372000    1.1493179   -3.2264076   -1.6764143   0.11613465   -3.2264076    1.5499932   977478 
 3373000    1.1492593   -3.2257615    -1.676185   0.10931115   -3.2257615    1.5495765   977691 
 3374000    1.1498996    -3.225478   -1.6753868   0.11263599    -3.225478    1.5500911   977911 
 3375000    1.1503117   -3.2253563   -1.6750316   0.11737071   -3.2253563    1.5503248   978114 
 3376000    1.1499489   -3.2243215   -1.6747898   0.11310285   -3.2243215    1.5495317   978306 
 3377000    1.1512541   -3.2248826   -1.6739727    0.1129632   -3.2248826    1.5509099   978546 
 3378000    1.1501144   -3.2234255   -1.6744039   0.11321509   -3.2234255    1.5490215   978769 
 3379000    1.1519899   -3.2241712   -1.6729439   0.11429289   -3.2241712    1.5512274   978971 
 3380000    1.1525599   -3.2245904   -1.6729441   0.11764926   -3.2245904    1.5516463   979191 
 3381000    1.1510684   -3.2224823   -1.6731463   0.11560632   -3.2224823     1.549336   979382 
 3382000     1.152674   -3.2237124   -1.6725192   0.11773188   -3.2237124    1.5511932   979574 
 3383000    1.1528649   -3.2236865    -1.672569   0.11589343   -3.2236865    1.5511175   979784 
 3384000    1.1532538   -3.2241361   -1.6728483   0.11714544   -3.2241361    1.5512877   980007 
 3385000    1.1526808    -3.222516   -1.6722791   0.11755093    -3.222516    1.5502369   980184 
 3386000    1.1544856   -3.2237292   -1.6713611   0.11465109   -3.2237292     1.552368   980371 
 3387000    1.1559353    -3.225098   -1.6711119   0.11562853    -3.225098     1.553986   980580 
 3388000    1.1552137   -3.2237739   -1.6710682   0.11954534   -3.2237739    1.5527057   980776 
 3389000    1.1554459   -3.2235669   -1.6708832   0.12308903   -3.2235669    1.5526837   980987 
 3390000    1.1566558   -3.2250767   -1.6710887   0.12212569   -3.2250767     1.553988   981190 
 3391000     1.156429   -3.2247501   -1.6713898   0.11651808   -3.2247501    1.5533603   981394 
 3392000    1.1563408   -3.2243021   -1.6713878   0.11351562   -3.2243021    1.5529143   981601 
 3393000    1.1569987   -3.2246559   -1.6711889   0.11825328   -3.2246559     1.553467   981810 
 3394000    1.1566995     -3.22393   -1.6711652   0.11886885     -3.22393    1.5527648   982000 
 3395000     1.156848   -3.2240871   -1.6714534   0.11664074   -3.2240871    1.5526337   982209 
 3396000    1.1574246   -3.2245072   -1.6713984   0.11824415   -3.2245072    1.5531088   982398 
 3397000    1.1582297   -3.2247546   -1.6709308   0.11880455   -3.2247546    1.5538238   982629 
 3398000      1.15981   -3.2261578   -1.6705417    0.1198777   -3.2261578    1.5556161   982836 
 3399000    1.1593907   -3.2252924   -1.6705314   0.11940921   -3.2252924     1.554761   983021 
 3400000    1.1593489   -3.2249499   -1.6705533   0.11830496   -3.2249499    1.5543967   983216 
 3401000    1.1598208    -3.224478   -1.6698044   0.11944526    -3.224478    1.5546736   983441 
 3402000    1.1590755   -3.2236536   -1.6702823   0.11924954   -3.2236536    1.5533713   983633 
 3403000    1.1606179   -3.2253596   -1.6702438   0.12175315   -3.2253596    1.5551158   983837 
 3404000    1.1603869   -3.2240529   -1.6695752    0.1206201   -3.2240529    1.5544777   984045 
 3405000    1.1613298   -3.2246115   -1.6691552   0.11786374   -3.2246115    1.5554563   984225 
 3406000    1.1609861   -3.2238949   -1.6692102    0.1195343   -3.2238949    1.5546847   984422 
 3407000    1.1623426   -3.2253053   -1.6691265   0.11942772   -3.2253053    1.5561788   984626 
 3408000    1.1612225   -3.2235207   -1.6691367   0.12221911   -3.2235207     1.554384   984813 
 3409000    1.1629505   -3.2262078   -1.6698079   0.11750439   -3.2262078    1.5563998   985001 
 3410000    1.1624348   -3.2245169   -1.6690583   0.12244622   -3.2245169    1.5554586   985160 
 3411000    1.1635771   -3.2251766    -1.668477   0.11684836   -3.2251766    1.5566996   985342 
 3412000    1.1633329   -3.2241995    -1.668111   0.12137153   -3.2241995    1.5560885   985522 
 3413000    1.1628485   -3.2226654   -1.6675482   0.12627856   -3.2226654    1.5551172   985727 
 3414000    1.1651846   -3.2249299   -1.6669873   0.11840672   -3.2249299    1.5579426   985916 
 3415000    1.1646816   -3.2237781   -1.6668365   0.12571829   -3.2237781    1.5569416   986124 
 3416000    1.1647167   -3.2239557   -1.6672545   0.12114905   -3.2239557    1.5567012   986306 
 3417000     1.165649   -3.2240994   -1.6664286   0.11725506   -3.2240994    1.5576709   986481 
 3418000      1.16554    -3.223124   -1.6659178   0.12322415    -3.223124    1.5572063   986683 
 3419000    1.1656907   -3.2226076   -1.6654809   0.12078086   -3.2226076    1.5571268   986861 
 3420000    1.1672901   -3.2232755   -1.6642981   0.12254464   -3.2232755    1.5589773   987042 
 3421000    1.1663897   -3.2221492   -1.6646915   0.12622905   -3.2221492    1.5574576   987243 
 3422000    1.1677359   -3.2236311   -1.6646822   0.11882882   -3.2236311    1.5589489   987437 
 3423000    1.1657376   -3.2206725   -1.6646814   0.12432377   -3.2206725    1.5559911   987621 
 3424000    1.1676879   -3.2215961   -1.6633252   0.12375973   -3.2215961    1.5582709   987826 
 3425000     1.167302   -3.2210529   -1.6635809   0.12031084   -3.2210529     1.557472   988006 
 3426000    1.1675891   -3.2203776   -1.6628473   0.12080351   -3.2203776    1.5575304   988212 
 3427000    1.1701619   -3.2228049   -1.6621646    0.1192482   -3.2228049    1.5606403   988416 
 3428000    1.1683063   -3.2198462   -1.6619754    0.1229182   -3.2198462    1.5578708   988603 
 3429000    1.1701855   -3.2213444   -1.6613023   0.11618043   -3.2213444    1.5600421   988815 
 3430000    1.1693258   -3.2197356   -1.6611439    0.1215013   -3.2197356    1.5585917   989008 
 3431000    1.1706074   -3.2202026   -1.6602039   0.11681811   -3.2202026    1.5599987   989199 
 3432000    1.1704497   -3.2197081   -1.6602176   0.11980944   -3.2197081    1.5594905   989388 
 3433000    1.1704098   -3.2202639   -1.6611212   0.12120998   -3.2202639    1.5591427   989575 
 3434000    1.1700645   -3.2191679   -1.6607703   0.11891685   -3.2191679    1.5583976   989756 
 3435000    1.1715536   -3.2198266   -1.6597293   0.11871959   -3.2198266    1.5600973   989936 
 3436000    1.1710437   -3.2180363   -1.6589126   0.12271037   -3.2180363    1.5591237   990123 
 3437000    1.1709389   -3.2182283   -1.6595401   0.12193635   -3.2182283    1.5586883   990311 
 3438000    1.1716853   -3.2196228   -1.6602291   0.12146896   -3.2196228    1.5593937   990494 
 3439000    1.1718154   -3.2191511   -1.6598503   0.11976084   -3.2191511    1.5593008   990663 
 3440000    1.1708512   -3.2179507   -1.6602254   0.12589535   -3.2179507    1.5577253   990849 
 3441000    1.1713763   -3.2189248   -1.6607761   0.11810871   -3.2189248    1.5581487   991024 
 3442000    1.1726054   -3.2198054   -1.6603303   0.11814402   -3.2198054    1.5594751   991220 
 3443000    1.1716506   -3.2183194   -1.6604048   0.12033385   -3.2183194    1.5579146   991405 
 3444000    1.1722855   -3.2189382   -1.6604404   0.12192144   -3.2189382    1.5584978   991571 
 3445000    1.1732578   -3.2199626   -1.6604789   0.11952085   -3.2199626    1.5594837   991766 
 3446000    1.1732823   -3.2191409   -1.6598934   0.12205958   -3.2191409    1.5592475   991937 
 3447000    1.1738153   -3.2195163   -1.6598371   0.12296687   -3.2195163    1.5596791   992113 
 3448000     1.175077   -3.2200662   -1.6589781   0.11977996   -3.2200662    1.5610881   992283 
 3449000    1.1757066   -3.2211249   -1.6594854    0.1221218   -3.2211249    1.5616396   992464 
 3450000    1.1763112   -3.2213418    -1.659195   0.12282738   -3.2213418    1.5621468   992652 
 3451000    1.1769275   -3.2218395   -1.6591388      0.12559   -3.2218395    1.5627007   992820 
 3452000    1.1779214   -3.2222939   -1.6585665   0.12585074   -3.2222939    1.5637274   993006 
 3453000    1.1772043   -3.2212991   -1.6588304   0.12423069   -3.2212991    1.5624687   993201 
 3454000    1.1775681   -3.2212656   -1.6586146   0.12672793   -3.2212656     1.562651   993392 
 3455000    1.1791651   -3.2230459   -1.6585449   0.12715612   -3.2230459     1.564501   993563 
 3456000     1.177999   -3.2205926    -1.657955   0.12864973   -3.2205926    1.5626376   993764 
 3457000    1.1787168   -3.2223121   -1.6590211   0.12424209   -3.2223121     1.563291   993954 
 3458000    1.1783148   -3.2213221   -1.6588521    0.1256142   -3.2213221    1.5624701   994137 
 3459000    1.1792894   -3.2216664   -1.6582013   0.12693197   -3.2216664    1.5634652   994326 
 3460000    1.1798228   -3.2214446   -1.6575742   0.12443709   -3.2214446    1.5638704   994518 
 3461000    1.1793848   -3.2208413   -1.6578296   0.12652835   -3.2208413    1.5630117   994695 
 3462000    1.1801948   -3.2214779    -1.657715   0.12790067   -3.2214779    1.5637629   994900 
 3463000    1.1809446   -3.2216333   -1.6571804    0.1266721   -3.2216333    1.5644529   995093 
 3464000     1.180789   -3.2213359   -1.6573941   0.12813942   -3.2213359    1.5639418   995287 
 3465000    1.1805615   -3.2206082   -1.6572725   0.12801214   -3.2206082    1.5633357   995481 
 3466000      1.18096    -3.220051   -1.6563964   0.12851501    -3.220051    1.5636545   995614 
 3467000    1.1802156   -3.2186484   -1.6562745   0.12451029   -3.2186484     1.562374   995802 
 3468000    1.1821026   -3.2202293   -1.6556386   0.12437702   -3.2202293    1.5645907   995981 
 3469000    1.1828337   -3.2207886   -1.6554817   0.12653876   -3.2207886    1.5653069   996141 
 3470000    1.1824559   -3.2206503   -1.6561166   0.12800992   -3.2206503    1.5645337   996315 
 3471000    1.1814119   -3.2188149    -1.655945   0.12880771   -3.2188149    1.5628699   996495 
 3472000     1.182294   -3.2194252   -1.6556897   0.12496963   -3.2194252    1.5637355   996687 
 3473000    1.1824948   -3.2195637   -1.6558543   0.12546663   -3.2195637    1.5637094   996873 
 3474000    1.1834372   -3.2203399    -1.655681   0.12272094   -3.2203399    1.5646589   997062 
 3475000    1.1828147   -3.2190063   -1.6554652   0.12370505   -3.2190063    1.5635411   997250 
 3476000    1.1840916   -3.2204134    -1.655448   0.12325628   -3.2204134    1.5649653   997418 
 3477000    1.1829836   -3.2187832   -1.6555267   0.12737038   -3.2187832    1.5632565   997574 
 3478000    1.1844427   -3.2206557   -1.6557252   0.12329457   -3.2206557    1.5649305   997736 
 3479000    1.1842524   -3.2190234    -1.654622   0.12621781   -3.2190234    1.5644015   997913 
 3480000      1.18496   -3.2192475   -1.6541654   0.12890135   -3.2192475    1.5650821   998075 
 3481000     1.186367   -3.2201133   -1.6534616   0.12610582   -3.2201133    1.5666517   998259 
 3482000    1.1853868   -3.2179978   -1.6529008   0.12705191   -3.2179978     1.565097   998425 
 3483000    1.1868254    -3.220029   -1.6533339      0.12526    -3.220029    1.5666952   998617 
 3484000     1.186403   -3.2191905   -1.6533493   0.12834804   -3.2191905    1.5658412   998806 
 3485000    1.1863627   -3.2189367   -1.6534261   0.13140748   -3.2189367    1.5655105   998983 
 3486000    1.1872029   -3.2196481   -1.6532468   0.12643898   -3.2196481    1.5664013   999122 
 3487000    1.1867895   -3.2194556    -1.653888   0.12682709   -3.2194556    1.5655676   999306 
 3488000    1.1873002   -3.2202009   -1.6542371   0.12742644   -3.2202009    1.5659639   999483 
 3489000    1.1871893   -3.2201445   -1.6546118   0.13047023   -3.2201445    1.5655326   999665 
 3490000    1.1881677   -3.2206899   -1.6541132   0.12753464   -3.2206899    1.5665767   999822 
 3491000    1.1879855   -3.2208699   -1.6547824   0.12843671   -3.2208699    1.5660875   999981 
 3492000    1.1882081   -3.2203247   -1.6542491   0.12604156   -3.2203247    1.5660756  1000176 
 3493000     1.188532   -3.2197467   -1.6535042    0.1297052   -3.2197467    1.5662425  1000342 
 3494000    1.1884436   -3.2204571   -1.6545815   0.13178581   -3.2204571    1.5658756  1000502 
 3495000    1.1896003    -3.221005   -1.6538639   0.12805452    -3.221005    1.5671411  1000667 
 3496000    1.1892066   -3.2201223   -1.6537863   0.13099516   -3.2201223     1.566336  1000850 
 3497000    1.1903239   -3.2209723   -1.6534418   0.12633068   -3.2209723    1.5675305  1001027 
 3498000    1.1910306   -3.2213024   -1.6530998   0.12918258   -3.2213024    1.5682026  1001192 
 3499000    1.1913918   -3.2212403    -1.652841    0.1326793   -3.2212403    1.5683993  1001370 
 3500000    1.1914492   -3.2210239   -1.6528356   0.13277493   -3.2210239    1.5681883  1001553 
 3501000    1.1925965   -3.2224677   -1.6530232   0.12867356   -3.2224677    1.5694445  1001715 
 3502000    1.1925275   -3.2219871   -1.6529184   0.12985924   -3.2219871    1.5690687  1001897 
 3503000    1.1932989   -3.2226706   -1.6528581    0.1287151   -3.2226706    1.5698126  1002070 
 3504000    1.1925108   -3.2214043   -1.6528883   0.13270859   -3.2214043     1.568516  1002236 
 3505000    1.1936234   -3.2219905   -1.6522946   0.13299944   -3.2219905    1.5696959  1002417 
 3506000    1.1932948   -3.2213957   -1.6524183   0.13460859   -3.2213957    1.5689774  1002600 
 3507000    1.1946241   -3.2223936     -1.65193   0.13069517   -3.2223936    1.5704636  1002767 
 3508000     1.194258   -3.2223298   -1.6526199   0.12941492   -3.2223298    1.5697099  1002941 
 3509000      1.19288   -3.2199976   -1.6523208   0.13276674   -3.2199976    1.5676768  1003083 
 3510000    1.1943826   -3.2209948   -1.6515906   0.13117991   -3.2209948    1.5694042  1003241 
 3511000    1.1953068   -3.2218917   -1.6515157   0.13091265   -3.2218917    1.5703761  1003396 
 3512000     1.195719   -3.2223285    -1.651663   0.12939674   -3.2223285    1.5706655  1003557 
 3513000    1.1949681   -3.2207475   -1.6513201   0.13181925   -3.2207475    1.5694274  1003718 
 3514000    1.1956455   -3.2219954   -1.6519396   0.13061127   -3.2219954    1.5700558  1003885 
 3515000    1.1951636   -3.2211854   -1.6520265   0.13267848   -3.2211854    1.5691589  1004054 
 3516000    1.1941427   -3.2194475   -1.6518898   0.13092849   -3.2194475    1.5675577  1004221 
 3517000    1.1956065   -3.2205761   -1.6513546   0.13163426   -3.2205761    1.5692215  1004386 
 3518000    1.1960113   -3.2201598   -1.6506727   0.12826859   -3.2201598    1.5694872  1004556 
 3519000     1.196542   -3.2196147   -1.6496734   0.13194711   -3.2196147    1.5699413  1004711 
 3520000    1.1980668   -3.2207668   -1.6490658    0.1315374   -3.2207668     1.571701  1004865 
 3521000    1.1970935    -3.219144   -1.6490151   0.13449335    -3.219144    1.5701289  1005054 
 3522000    1.1969094   -3.2195834   -1.6499411   0.12981595   -3.2195834    1.5696422  1005211 
 3523000    1.1974888   -3.2197377   -1.6496276   0.13249818   -3.2197377      1.57011  1005398 
 3524000    1.1963709   -3.2181142   -1.6497289   0.12985345   -3.2181142    1.5683853  1005564 
 3525000    1.1975118   -3.2199066   -1.6502645    0.1296838   -3.2199066    1.5696421  1005717 
 3526000    1.1972138   -3.2194019   -1.6504748   0.13025387   -3.2194019     1.568927  1005925 
 3527000    1.1977087   -3.2193633   -1.6500373   0.13065843   -3.2193633     1.569326  1006085 
 3528000    1.1980226   -3.2188576   -1.6494089   0.13097981   -3.2188576    1.5694487  1006270 
 3529000    1.1986577   -3.2198975   -1.6499164   0.12857091   -3.2198975    1.5699811  1006462 
 3530000    1.1989671   -3.2196547    -1.649518    0.1302836   -3.2196547    1.5701367  1006622 
 3531000     1.199336   -3.2200417   -1.6496605   0.12834783   -3.2200417    1.5703811  1006775 
 3532000     1.199225   -3.2188587   -1.6488911   0.13405322   -3.2188587    1.5699675  1006947 
 3533000    1.1999793     -3.21947   -1.6487957    0.1352759     -3.21947    1.5706743  1007127 
 3534000    1.1993275   -3.2186267   -1.6490472    0.1344336   -3.2186267    1.5695795  1007282 
 3535000     1.201234   -3.2206851   -1.6488584   0.13185352   -3.2206851    1.5718266  1007441 
 3536000    1.2011316   -3.2207996   -1.6493473   0.13377564   -3.2207996    1.5714523  1007595 
 3537000    1.2008892   -3.2207836   -1.6498808   0.13288812   -3.2207836    1.5709028  1007744 
 3538000    1.2010524   -3.2212383   -1.6503885   0.13450678   -3.2212383    1.5708498  1007915 
 3539000    1.2016781   -3.2215476   -1.6501429   0.13153146   -3.2215476    1.5714047  1008084 
 3540000    1.2029719   -3.2225875   -1.6497031     0.131183   -3.2225875    1.5728844  1008220 
 3541000    1.2015649   -3.2204878   -1.6496892   0.13445903   -3.2204878    1.5707986  1008378 
 3542000    1.2029959   -3.2218868   -1.6494623   0.13180029   -3.2218868    1.5724245  1008535 
 3543000    1.2025381   -3.2214957   -1.6499065   0.13286641   -3.2214957    1.5715892  1008687 
 3544000    1.2032637   -3.2214489   -1.6492059   0.13631961   -3.2214489    1.5722429  1008876 
 3545000    1.2034043   -3.2204726   -1.6482999   0.13715007   -3.2204726    1.5721727  1009039 
 3546000    1.2049208   -3.2221769   -1.6483132   0.13498443   -3.2221769    1.5738637  1009225 
 3547000    1.2037771   -3.2199565   -1.6478234   0.14147227   -3.2199565    1.5721331  1009377 
 3548000    1.2051399   -3.2217692   -1.6481244   0.13794927   -3.2217692    1.5736448  1009549 
 3549000    1.2044928   -3.2210633     -1.64853   0.13785833   -3.2210633    1.5725334  1009720 
 3550000    1.2061199   -3.2226324   -1.6482413   0.13488736   -3.2226324    1.5743911  1009891 
 3551000    1.2070631    -3.222991   -1.6476387   0.14059392    -3.222991    1.5753523  1010064 
 3552000    1.2079605   -3.2231553   -1.6468971   0.13590435   -3.2231553    1.5762582  1010234 
 3553000    1.2064269   -3.2208212   -1.6468118   0.13732141   -3.2208212    1.5740094  1010393 
 3554000    1.2075256   -3.2222133   -1.6470495    0.1373471   -3.2222133    1.5751638  1010572 
 3555000     1.207662   -3.2217883   -1.6466819   0.13654174   -3.2217883    1.5751064  1010723 
 3556000    1.2080833   -3.2220184   -1.6465995   0.13531108   -3.2220184    1.5754188  1010875 
 3557000    1.2080268   -3.2213827   -1.6462728   0.13723244   -3.2213827    1.5751099  1011026 
 3558000    1.2080964   -3.2212053   -1.6462616   0.13700927   -3.2212053    1.5749437  1011191 
 3559000    1.2072132   -3.2214739   -1.6479135   0.13101794   -3.2214739    1.5735604  1011340 
 3560000    1.2081966   -3.2219891   -1.6474022   0.13352162   -3.2219891    1.5745869  1011504 
 3561000    1.2083726   -3.2213399   -1.6467385    0.1355821   -3.2213399    1.5746014  1011642 
 3562000    1.2086768   -3.2211483   -1.6463685   0.13645702   -3.2211483    1.5747798  1011782 
 3563000    1.2094728   -3.2216794   -1.6460789   0.13635918   -3.2216794    1.5756006  1011921 
 3564000    1.2088387   -3.2197028   -1.6451866   0.13787538   -3.2197028    1.5745162  1012087 
 3565000    1.2104954   -3.2212636   -1.6448356     0.135348   -3.2212636     1.576428  1012245 
 3566000    1.2086493   -3.2197526   -1.6459993   0.13764109   -3.2197526    1.5737533  1012419 
 3567000    1.2101136    -3.221657   -1.6462647   0.14029168    -3.221657    1.5753923  1012591 
 3568000    1.2101877    -3.220794   -1.6455417   0.13355767    -3.220794    1.5752522  1012743 
 3569000     1.210489   -3.2206455   -1.6452453   0.13814376   -3.2206455    1.5754003  1012900 
 3570000    1.2111931   -3.2211547   -1.6450513   0.13608881   -3.2211547    1.5761033  1013037 
 3571000    1.2118466   -3.2206229    -1.643915   0.13791008   -3.2206229    1.5767079  1013195 
 3572000    1.2123403   -3.2204946   -1.6433981   0.13737594   -3.2204946    1.5770965  1013358 
 3573000    1.2143677   -3.2220153   -1.6425371   0.13599277   -3.2220153    1.5794782  1013522 
 3574000    1.2137662   -3.2206543   -1.6422123   0.13659758   -3.2206543     1.578442  1013685 
 3575000    1.2133157   -3.2198699    -1.642283   0.13784193   -3.2198699    1.5775869  1013858 
 3576000    1.2129748   -3.2184622   -1.6415564   0.14378416   -3.2184622    1.5769058  1014011 
 3577000    1.2133698   -3.2184635   -1.6412714   0.14288213   -3.2184635    1.5771922  1014157 
 3578000    1.2138758     -3.21897   -1.6413488   0.13656709     -3.21897    1.5776212  1014304 
 3579000    1.2145036   -3.2196346   -1.6414433   0.14146384   -3.2196346    1.5781914  1014462 
 3580000    1.2148597   -3.2198578   -1.6414635   0.14047273   -3.2198578    1.5783942  1014629 
 3581000    1.2156681   -3.2212989   -1.6420847   0.13825029   -3.2212989    1.5792142  1014777 
 3582000    1.2151718   -3.2208298    -1.642503   0.13639878   -3.2208298    1.5783268  1014933 
 3583000    1.2157778   -3.2205847   -1.6417524   0.13986499   -3.2205847    1.5788324  1015114 
 3584000    1.2155139   -3.2199061   -1.6416078   0.13698567   -3.2199061    1.5782984  1015237 
 3585000    1.2165134    -3.220982   -1.6416083   0.13843592    -3.220982    1.5793737  1015380 
 3586000    1.2161372   -3.2201638   -1.6414915   0.13983802   -3.2201638    1.5786723  1015517 
 3587000    1.2170304   -3.2210238   -1.6414377   0.13969115   -3.2210238    1.5795861  1015675 
 3588000    1.2168525   -3.2212044   -1.6420995   0.14152209   -3.2212044    1.5791049  1015836 
 3589000    1.2168774     -3.22137   -1.6424567   0.14009193     -3.22137    1.5789133  1015980 
 3590000    1.2171201   -3.2216002   -1.6426269   0.13876636   -3.2216002    1.5789733  1016144 
 3591000    1.2170124   -3.2210166   -1.6423865    0.1447685   -3.2210166    1.5786301  1016275 
 3592000    1.2187723   -3.2229323   -1.6422573   0.13630336   -3.2229323    1.5806751  1016428 
 3593000    1.2185716   -3.2233326   -1.6431465   0.13443916   -3.2233326    1.5801861  1016575 
 3594000    1.2172749   -3.2209578   -1.6426628   0.14504228   -3.2209578     1.578295  1016710 
 3595000    1.2174041   -3.2204459   -1.6422472   0.13913994   -3.2204459    1.5781987  1016880 
 3596000    1.2181821   -3.2214431    -1.642489   0.13906515   -3.2214431    1.5789542  1017043 
 3597000     1.216851   -3.2196225   -1.6426185   0.14311087   -3.2196225    1.5770041  1017188 
 3598000    1.2185618   -3.2213126   -1.6423755   0.14060542   -3.2213126    1.5789371  1017371 
 3599000    1.2187128    -3.221163   -1.6422723   0.14473865    -3.221163    1.5788907  1017527 
 3600000    1.2201267   -3.2226732    -1.642193   0.14399238   -3.2226732    1.5804802  1017683 
 3601000    1.2204592   -3.2228499   -1.6421814   0.13895229   -3.2228499    1.5806685  1017839 
 3602000     1.221163   -3.2227904   -1.6414543   0.14623794   -3.2227904    1.5813361  1017996 
 3603000    1.2205892    -3.221389   -1.6410288   0.14022059    -3.221389    1.5803603  1018146 
 3604000    1.2215362   -3.2222454   -1.6409184   0.14493002   -3.2222454     1.581327  1018313 
 3605000    1.2205101    -3.220248   -1.6404635    0.1488107    -3.220248    1.5797845  1018451 
 3606000     1.221488   -3.2210107   -1.6402072   0.14744497   -3.2210107    1.5808035  1018610 
 3607000    1.2221597   -3.2223817   -1.6409278   0.13862381   -3.2223817    1.5814539  1018751 
 3608000    1.2230983   -3.2235015   -1.6411266   0.14077372   -3.2235015    1.5823749  1018940 
 3609000    1.2224183   -3.2221114   -1.6408801   0.14108429   -3.2221114    1.5812313  1019110 
 3610000    1.2221997   -3.2207594   -1.6400373   0.14463675   -3.2207594    1.5807221  1019256 
 3611000    1.2233504   -3.2220295   -1.6400814   0.13970682   -3.2220295    1.5819481  1019425 
 3612000    1.2238067    -3.222478   -1.6401542   0.14181636    -3.222478    1.5823238  1019563 
 3613000    1.2239661   -3.2220958   -1.6397847   0.14407972   -3.2220958    1.5823111  1019704 
 3614000    1.2238157    -3.221652   -1.6397695   0.14386566    -3.221652    1.5818825  1019855 
 3615000    1.2240937   -3.2218632   -1.6398835   0.14404094   -3.2218632    1.5819797  1020024 
 3616000    1.2238339   -3.2204614   -1.6390439    0.1482127   -3.2204614    1.5814175  1020170 
 3617000    1.2253772   -3.2227693   -1.6395918   0.14397246   -3.2227693    1.5831775  1020321 
 3618000    1.2250102   -3.2223353   -1.6398801   0.14464779   -3.2223353    1.5824551  1020481 
 3619000    1.2250602   -3.2216427   -1.6393509   0.14235093   -3.2216427    1.5822918  1020628 
 3620000    1.2259491    -3.222293   -1.6390345   0.14195685    -3.222293    1.5832584  1020745 
 3621000    1.2259772   -3.2215983   -1.6384959   0.14444426   -3.2215983    1.5831024  1020869 
 3622000    1.2267077    -3.221251   -1.6374225   0.14514715    -3.221251    1.5838285  1021009 
 3623000    1.2270344   -3.2212907     -1.63727   0.14239163   -3.2212907    1.5840207  1021157 
 3624000    1.2273202   -3.2212102   -1.6370811    0.1436195   -3.2212102    1.5841291  1021325 
 3625000    1.2271548   -3.2212035   -1.6375391   0.14555938   -3.2212035    1.5836644  1021487 
 3626000    1.2271698    -3.221016   -1.6375664   0.14653123    -3.221016    1.5834496  1021638 
 3627000    1.2277282   -3.2213335   -1.6373727   0.14354651   -3.2213335    1.5839608  1021773 
 3628000    1.2288936   -3.2225356    -1.637293   0.14171545   -3.2225356    1.5852426  1021916 
 3629000    1.2281735   -3.2212229   -1.6371543   0.14408478   -3.2212229    1.5840687  1022074 
 3630000    1.2282931   -3.2210289   -1.6370198    0.1446226   -3.2210289    1.5840091  1022212 
 3631000    1.2280056    -3.220463   -1.6370647   0.14637304    -3.220463    1.5833983  1022367 
 3632000     1.229384   -3.2217608   -1.6368256   0.14501234   -3.2217608    1.5849353  1022522 
 3633000    1.2284448   -3.2207272   -1.6372289   0.14559806   -3.2207272    1.5834983  1022668 
 3634000    1.2293973   -3.2216437   -1.6371469   0.14213047   -3.2216437    1.5844968  1022816 
 3635000    1.2298741   -3.2223718   -1.6374913   0.14159769   -3.2223718    1.5848805  1022965 
 3636000    1.2290196   -3.2211463   -1.6376053   0.14208096   -3.2211463     1.583541  1023119 
 3637000    1.2301766   -3.2221948   -1.6373878   0.14575574   -3.2221948     1.584807  1023264 
 3638000    1.2293905   -3.2214503   -1.6378973   0.14445083   -3.2214503     1.583553  1023420 
 3639000    1.2290898   -3.2205498   -1.6376131   0.14651559   -3.2205498    1.5829367  1023568 
 3640000    1.2303443    -3.221532   -1.6372164    0.1458139    -3.221532    1.5843156  1023721 
 3641000    1.2309663   -3.2217226   -1.6368013    0.1443649   -3.2217226    1.5849214  1023847 
 3642000    1.2320222   -3.2232327   -1.6371594   0.14214143   -3.2232327    1.5860733  1023981 
 3643000    1.2321405   -3.2225171   -1.6364991   0.14455086   -3.2225171    1.5860181  1024115 
 3644000    1.2322691   -3.2221524    -1.636198   0.14746232   -3.2221524    1.5859544  1024263 
 3645000    1.2336325   -3.2237658   -1.6362953   0.14129449   -3.2237658    1.5874705  1024417 
 3646000     1.233141   -3.2230168   -1.6364126   0.14562921   -3.2230168    1.5866041  1024568 
 3647000    1.2326414   -3.2214468   -1.6357084   0.14882737   -3.2214468    1.5857384  1024712 
 3648000     1.234125   -3.2227954   -1.6353714   0.14848335   -3.2227954     1.587424  1024856 
 3649000    1.2346806   -3.2230551   -1.6351365   0.14810663   -3.2230551    1.5879186  1024998 
 3650000     1.233921   -3.2224232   -1.6356936   0.14649336   -3.2224232    1.5867296  1025135 
 3651000    1.2345538   -3.2231223   -1.6358329   0.14344556   -3.2231223    1.5872893  1025299 
 3652000    1.2357933   -3.2239348   -1.6352687   0.14638454   -3.2239348    1.5886661  1025439 
 3653000    1.2349028   -3.2229741   -1.6357005   0.14844317   -3.2229741    1.5872736  1025599 
 3654000    1.2362792   -3.2242391   -1.6354256    0.1450425   -3.2242391    1.5888136  1025747 
 3655000    1.2354485   -3.2227305    -1.635226   0.14654786   -3.2227305    1.5875045  1025903 
 3656000    1.2363313   -3.2234603   -1.6350382   0.14395032   -3.2234603    1.5884221  1026043 
 3657000    1.2356554   -3.2223758   -1.6350526   0.14810066   -3.2223758    1.5873232  1026192 
 3658000    1.2361684   -3.2231389    -1.635401   0.14532904   -3.2231389    1.5877378  1026350 
 3659000    1.2363025   -3.2232048   -1.6355067   0.14741331   -3.2232048    1.5876981  1026487 
 3660000    1.2360698   -3.2232508   -1.6360804   0.14267915   -3.2232508    1.5871704  1026635 
 3661000    1.2375656   -3.2237655   -1.6348757   0.14357156   -3.2237655    1.5888898  1026765 
 3662000     1.236362   -3.2231787    -1.636018   0.14784215   -3.2231787    1.5871606  1026884 
 3663000    1.2368827   -3.2227554   -1.6351536   0.14536811   -3.2227554    1.5876019  1027031 
 3664000    1.2369372   -3.2226272   -1.6351748   0.14836829   -3.2226272    1.5874524  1027173 
 3665000     1.235948   -3.2227434    -1.636769   0.14755643   -3.2227434    1.5859744  1027308 
 3666000    1.2369931   -3.2233448   -1.6362365   0.14517659   -3.2233448    1.5871084  1027442 
 3667000    1.2378181   -3.2240067    -1.636053   0.14290251   -3.2240067    1.5879536  1027580 
 3668000    1.2365653   -3.2217744   -1.6356272   0.14898266   -3.2217744    1.5861473  1027709 
 3669000    1.2384764   -3.2237612   -1.6353649   0.14775174   -3.2237612    1.5883963  1027840 
 3670000    1.2384996   -3.2232261   -1.6350165   0.14644736   -3.2232261    1.5882096  1027980 
 3671000    1.2378277   -3.2221982   -1.6350724   0.14839681   -3.2221982    1.5871257  1028124 
 3672000    1.2385666     -3.22272   -1.6348893   0.14644309     -3.22272    1.5878307  1028281 
 3673000     1.238055   -3.2220698   -1.6351019   0.14974114   -3.2220698     1.586968  1028415 
 3674000    1.2394293   -3.2237692   -1.6352528   0.14593051   -3.2237692    1.5885164  1028553 
 3675000    1.2385829   -3.2227772   -1.6355632   0.15288406   -3.2227772     1.587214  1028694 
 3676000    1.2395872   -3.2234472   -1.6351824   0.14943025   -3.2234472    1.5882648  1028847 
 3677000    1.2391047   -3.2221819   -1.6347883   0.15144156   -3.2221819    1.5873936  1029011 
 3678000    1.2399039   -3.2232233    -1.635042   0.14969404   -3.2232233    1.5881813  1029164 
 3679000    1.2413501   -3.2244779   -1.6347238   0.15308105   -3.2244779    1.5897541  1029345 
 3680000    1.2413874   -3.2245075   -1.6349188   0.15228754   -3.2245075    1.5895887  1029483 
 3681000     1.240963   -3.2240612   -1.6352596   0.15241282   -3.2240612    1.5888015  1029641 
 3682000    1.2420653   -3.2253981   -1.6354524   0.15030412   -3.2253981    1.5899456  1029814 
 3683000    1.2433288    -3.226319   -1.6349507    0.1540706    -3.226319    1.5913683  1029940 
 3684000     1.242702   -3.2263036    -1.635966   0.14944014   -3.2263036    1.5903375  1030088 
 3685000    1.2433144   -3.2260292   -1.6351473   0.15406321   -3.2260292    1.5908819  1030243 
 3686000    1.2424539   -3.2241564   -1.6346132   0.15823265   -3.2241564    1.5895432  1030397 
 3687000    1.2454021   -3.2279411   -1.6348241   0.15172159   -3.2279411     1.593117  1030525 
 3688000    1.2444534   -3.2266759   -1.6349979   0.15202991   -3.2266759     1.591678  1030671 
 3689000    1.2441393   -3.2261714   -1.6351097   0.15382726   -3.2261714    1.5910617  1030810 
 3690000    1.2438325   -3.2249176   -1.6344674   0.15318949   -3.2249176    1.5904503  1030952 
 3691000    1.2452838   -3.2265366    -1.634453   0.14945045   -3.2265366    1.5920836  1031096 
 3692000    1.2452994   -3.2266141    -1.634716   0.15008359   -3.2266141    1.5918981  1031229 
 3693000     1.244924   -3.2268712   -1.6356504    0.1505906   -3.2268712    1.5912208  1031357 
 3694000     1.244026   -3.2252846   -1.6354367   0.15397967   -3.2252846     1.589848  1031503 
 3695000    1.2449514   -3.2264495   -1.6356488   0.15162207   -3.2264495    1.5908007  1031652 
 3696000    1.2446586   -3.2258169   -1.6355614   0.15129163   -3.2258169    1.5902555  1031763 
 3697000    1.2459536   -3.2279209   -1.6362129   0.14729455   -3.2279209     1.591708  1031894 
 3698000     1.243591   -3.2253505   -1.6368654   0.15258447   -3.2253505    1.5884851  1032027 
 3699000    1.2452266   -3.2275251   -1.6371497   0.14702409   -3.2275251    1.5903755  1032156 
 3700000    1.2444452   -3.2260284   -1.6368572   0.14707618   -3.2260284    1.5891712  1032290 
 3701000    1.2453277   -3.2263689   -1.6362402   0.14892641   -3.2263689    1.5901287  1032400 
 3702000    1.2446373   -3.2250612   -1.6360112    0.1528816   -3.2250612    1.5890501  1032528 
 3703000     1.244986   -3.2254695   -1.6361711    0.1483413   -3.2254695    1.5892984  1032656 
 3704000    1.2461689   -3.2262973   -1.6356784   0.14887313   -3.2262973    1.5906189  1032779 
 3705000      1.24752   -3.2278713   -1.6357205   0.15376094   -3.2278713    1.5921508  1032904 
 3706000    1.2456825   -3.2245029   -1.6349065   0.15380814   -3.2245029    1.5895964  1033040 
 3707000    1.2469358   -3.2255341   -1.6345433   0.15164703   -3.2255341    1.5909908  1033173 
 3708000    1.2465514   -3.2254494   -1.6351476   0.15559483   -3.2254494    1.5903018  1033302 
 3709000    1.2480632   -3.2268555   -1.6348115   0.15198638   -3.2268555     1.592044  1033423 
 3710000    1.2474942   -3.2264385   -1.6353142   0.15039603   -3.2264385    1.5911243  1033549 
 3711000     1.248536   -3.2263093   -1.6340519   0.15385018   -3.2263093    1.5922574  1033676 
 3712000     1.249903   -3.2274733   -1.6336931   0.15122009   -3.2274733    1.5937802  1033819 
 3713000    1.2492547   -3.2267811   -1.6340479   0.14958656   -3.2267811    1.5927332  1033962 
 3714000    1.2494378   -3.2265911   -1.6337985   0.15188962   -3.2265911    1.5927926  1034075 
 3715000    1.2484467   -3.2254314   -1.6340777   0.15589196   -3.2254314    1.5913537  1034189 
 3716000    1.2488352   -3.2262397   -1.6346077   0.14944669   -3.2262397     1.591632  1034330 
 3717000    1.2491611   -3.2262422   -1.6344258   0.15336156   -3.2262422    1.5918164  1034480 
 3718000    1.2496032   -3.2267641   -1.6345921   0.15594335   -3.2267641     1.592172  1034615 
 3719000    1.2497926   -3.2274062   -1.6351699   0.15038939   -3.2274062    1.5922363  1034730 
 3720000    1.2505682   -3.2281429   -1.6351124   0.15326543   -3.2281429    1.5930305  1034856 
 3721000    1.2508621    -3.228058   -1.6348502   0.15474504    -3.228058    1.5932078  1034984 
 3722000    1.2503741   -3.2271571   -1.6347663   0.15271788   -3.2271571    1.5923908  1035111 
 3723000    1.2499014   -3.2261423   -1.6345795   0.15774745   -3.2261423    1.5915628  1035258 
 3724000    1.2530132   -3.2293431   -1.6340121   0.15444042   -3.2293431     1.595331  1035384 
 3725000     1.251911   -3.2278549   -1.6341334    0.1537764   -3.2278549    1.5937215  1035518 
 3726000    1.2514291   -3.2272503   -1.6343268   0.15474482   -3.2272503    1.5929235  1035638 
 3727000    1.2523233   -3.2277547   -1.6339163   0.15267699   -3.2277547    1.5938384  1035783 
 3728000    1.2526587   -3.2283035   -1.6342352   0.15466596   -3.2283035    1.5940683  1035911 
 3729000    1.2533972   -3.2283169   -1.6334827   0.15687524   -3.2283169    1.5948342  1036024 
 3730000    1.2536098   -3.2284343   -1.6335513   0.15403586   -3.2284343     1.594883  1036168 
 3731000    1.2528286   -3.2270964   -1.6334164   0.15485816   -3.2270964      1.59368  1036304 
 3732000    1.2540201   -3.2291002   -1.6341169   0.15394719   -3.2291002    1.5949832  1036442 
 3733000    1.2530288   -3.2285866   -1.6350733   0.14981209   -3.2285866    1.5935133  1036578 
 3734000    1.2535438   -3.2285358   -1.6345506   0.15583412   -3.2285358    1.5939852  1036697 
 3735000     1.253761   -3.2282705    -1.634212   0.15538672   -3.2282705    1.5940585  1036829 
 3736000    1.2543395    -3.228747   -1.6341283   0.15502204    -3.228747    1.5946187  1036943 
 3737000    1.2539357   -3.2286573   -1.6347318   0.15437549   -3.2286573    1.5939255  1037060 
 3738000    1.2538254   -3.2288402   -1.6352224    0.1584319   -3.2288402    1.5936178  1037169 
 3739000    1.2547144   -3.2293673   -1.6348226    0.1512792   -3.2293673    1.5945447  1037301 
 3740000    1.2537882   -3.2279236   -1.6347233   0.15261682   -3.2279236    1.5932003  1037410 
 3741000    1.2551889   -3.2292014   -1.6343858   0.15738369   -3.2292014    1.5948157  1037517 
 3742000     1.255608   -3.2295493   -1.6343978   0.14835268   -3.2295493    1.5951514  1037645 
 3743000     1.255092    -3.228783   -1.6344808   0.15791706    -3.228783    1.5943022  1037771 
 3744000    1.2565272   -3.2303679   -1.6344425   0.15813566   -3.2303679    1.5959254  1037901 
 3745000    1.2561479   -3.2292512    -1.633992   0.15620553   -3.2292512    1.5952592  1038021 
 3746000    1.2559513   -3.2297511   -1.6349413   0.15614092   -3.2297511    1.5948098  1038151 
 3747000    1.2559461   -3.2290471   -1.6344866   0.15657862   -3.2290471    1.5945605  1038309 
 3748000    1.2568563   -3.2300856   -1.6345862   0.15383901   -3.2300856    1.5954994  1038450 
 3749000    1.2570988   -3.2304538   -1.6348093   0.15741931   -3.2304538    1.5956445  1038556 
 3750000    1.2561838   -3.2290421   -1.6347618   0.15955353   -3.2290421    1.5942803  1038688 
 3751000    1.2574152   -3.2302006   -1.6345509   0.15382909   -3.2302006    1.5956496  1038814 
 3752000    1.2578527   -3.2306729   -1.6346617   0.15885273   -3.2306729    1.5960112  1038940 
 3753000     1.257657   -3.2301355   -1.6345723   0.15947912   -3.2301355    1.5955633  1039070 
 3754000    1.2589565   -3.2311974   -1.6341423   0.15930346   -3.2311974    1.5970551  1039172 
 3755000    1.2579224   -3.2296812   -1.6341129   0.16189897   -3.2296812    1.5955683  1039286 
 3756000    1.2585871   -3.2312076   -1.6349989   0.15712329   -3.2312076    1.5962087  1039418 
 3757000    1.2583715   -3.2305901   -1.6348361   0.15592551   -3.2305901     1.595754  1039536 
 3758000    1.2590269   -3.2309165   -1.6345616     0.157471   -3.2309165    1.5963549  1039686 
 3759000    1.2597931   -3.2317864   -1.6346475   0.15846669   -3.2317864    1.5971389  1039808 
 3760000     1.258798   -3.2308465   -1.6351609   0.15340786   -3.2308465    1.5956856  1039933 
 3761000    1.2591025   -3.2309369   -1.6350418    0.1552266   -3.2309369    1.5958951  1040048 
 3762000    1.2596972   -3.2310416   -1.6345678   0.15720258   -3.2310416    1.5964738  1040162 
 3763000    1.2604041    -3.231407   -1.6342293   0.15691965    -3.231407    1.5971778  1040287 
 3764000     1.259725   -3.2301312   -1.6339935   0.15833471   -3.2301312    1.5961377  1040404 
 3765000    1.2598384   -3.2303342   -1.6342431   0.16149875   -3.2303342    1.5960912  1040528 
 3766000    1.2605478   -3.2302674   -1.6334556   0.15865979   -3.2302674    1.5968119  1040644 
 3767000    1.2616125   -3.2319687   -1.6340139   0.15747072   -3.2319687    1.5979548  1040778 
 3768000    1.2611448   -3.2310645   -1.6338863   0.16110399   -3.2310645    1.5971783  1040898 
[...]
 7812000    1.4421603   -3.6100332   -2.0412235    0.2381905   -3.6100332    1.5688097  1211825 
 7813000    1.4430389   -3.6100696   -2.0403262   0.24148658   -3.6100696    1.5697434  1211842 
 7814000    1.4428029   -3.6102955   -2.0408335   0.23842313   -3.6102955    1.5694621  1211861 
 7815000    1.4424503   -3.6096603   -2.0406103   0.24025948   -3.6096603    1.5690501  1211883 
 7816000    1.4428917   -3.6102533    -2.040749   0.23758764   -3.6102533    1.5695043  1211903 
 7817000    1.4433483   -3.6105976   -2.0406239   0.23520283   -3.6105976    1.5699737  1211924 
 7818000    1.4426114   -3.6098443   -2.0407005    0.2422265   -3.6098443    1.5691437  1211946 
 7819000    1.4437571    -3.610349   -2.0399837   0.24122583    -3.610349    1.5703653  1211965 
 7820000    1.4439608   -3.6102281   -2.0396788   0.24344287   -3.6102281    1.5705493  1211994 
 7821000    1.4430285   -3.6086711   -2.0391709     0.244497   -3.6086711    1.5695002  1212021 
 7822000    1.4436349   -3.6089488   -2.0388189   0.24177006   -3.6089488      1.57013  1212044 
 7823000    1.4445394   -3.6103973   -2.0393082   0.24173359   -3.6103973    1.5710891  1212063 
 7824000    1.4430373   -3.6091415   -2.0397171   0.24200562   -3.6091415    1.5694244  1212087 
 7825000    1.4439205   -3.6100342   -2.0396829   0.23622739   -3.6100342    1.5703513  1212113 
 7826000    1.4430409   -3.6093258   -2.0399571   0.24440835   -3.6093258    1.5693687  1212133 
 7827000    1.4424581   -3.6091918   -2.0404776   0.24062505   -3.6091918    1.5687142  1212149 
 7828000    1.4432814   -3.6096426   -2.0400537   0.24189435   -3.6096426    1.5695888  1212165 
 7829000     1.443818   -3.6106579   -2.0405088   0.23665376   -3.6106579    1.5701491  1212183 
 7830000    1.4435784   -3.6105086   -2.0406498   0.23838937   -3.6105086    1.5698588  1212206 
 7831000    1.4444356   -3.6113785   -2.0406213   0.23900513   -3.6113785    1.5707572  1212232 
 7832000    1.4440581   -3.6101734    -2.039863   0.24187503   -3.6101734    1.5703104  1212260 
 7833000    1.4441341   -3.6099181   -2.0395548   0.24215634   -3.6099181    1.5703633  1212283 
 7834000    1.4441553   -3.6097757   -2.0394191   0.24394052   -3.6097757    1.5703566  1212306 
 7835000    1.4457704   -3.6119866    -2.039901   0.23396294   -3.6119866    1.5720856  1212327 
 7836000    1.4443864   -3.6107801    -2.040215   0.23859833   -3.6107801    1.5705651  1212339 
 7837000      1.44376   -3.6099484    -2.040089    0.2443279   -3.6099484    1.5698594  1212358 
 7838000    1.4440097   -3.6112164   -2.0411153   0.24189511   -3.6112164    1.5701011  1212381 
 7839000    1.4429641   -3.6107741   -2.0418385   0.24400056   -3.6107741    1.5689357  1212403 
 7840000    1.4433827   -3.6112132   -2.0418586   0.24541441   -3.6112132    1.5693546  1212431 
 7841000    1.4414406   -3.6096875   -2.0424574   0.24491879   -3.6096875    1.5672301  1212441 
 7842000    1.4431579   -3.6117125   -2.0426463   0.24079674   -3.6117125    1.5690662  1212465 
 7843000    1.4431247    -3.611649   -2.0426422   0.24139932    -3.611649    1.5690068  1212483 
 7844000    1.4431631    -3.611775    -2.042751   0.24251823    -3.611775     1.569024  1212502 
 7845000    1.4431503   -3.6118111   -2.0428359    0.2413015   -3.6118111    1.5689751  1212529 
 7846000    1.4434186   -3.6110287   -2.0417917   0.24219547   -3.6110287     1.569237  1212552 
 7847000    1.4433097   -3.6109853   -2.0418861   0.24317625   -3.6109853    1.5690992  1212567 
 7848000    1.4446419   -3.6119565   -2.0414439    0.2423583   -3.6119565    1.5705126  1212594 
 7849000    1.4438503   -3.6115167   -2.0418984   0.24618827   -3.6115167    1.5696183  1212620 
 7850000    1.4433437   -3.6119906   -2.0429592   0.24345359   -3.6119906    1.5690314  1212648 
 7851000    1.4439724   -3.6117211   -2.0420476   0.24379187   -3.6117211    1.5696735  1212680 
 7852000     1.443049   -3.6108122   -2.0421685   0.24719883   -3.6108122    1.5686438  1212700 
 7853000     1.444455   -3.6133979   -2.0432542   0.23957082   -3.6133979    1.5701437  1212722 
 7854000     1.442682   -3.6119086   -2.0437181   0.24266896   -3.6119086    1.5681905  1212742 
 7855000    1.4424301   -3.6112178   -2.0433269   0.24572998   -3.6112178    1.5678909  1212762 
 7856000    1.4432341    -3.612546     -2.04382   0.23935155    -3.612546     1.568726  1212792 
 7857000    1.4421575   -3.6122801    -2.044754   0.23842424   -3.6122801     1.567526  1212815 
 7858000    1.4409691   -3.6112581   -2.0450406   0.24015669   -3.6112581    1.5662175  1212828 
 7859000    1.4422441   -3.6122718    -2.044702   0.24058824   -3.6122718    1.5675698  1212854 
 7860000    1.4429785   -3.6124759   -2.0441377   0.23565089   -3.6124759    1.5683382  1212877 
 7861000    1.4428468   -3.6120969   -2.0439329   0.24194608   -3.6120969     1.568164  1212901 
 7862000    1.4437883   -3.6128176   -2.0436535   0.24048268   -3.6128176    1.5691641  1212919 
 7863000    1.4445998   -3.6138095    -2.043792   0.23984897   -3.6138095    1.5700175  1212941 
 7864000     1.444265   -3.6132336   -2.0436006   0.24077049   -3.6132336    1.5696329  1212957 
 7865000    1.4437707   -3.6135073   -2.0444465   0.24046133   -3.6135073    1.5690608  1212984 
 7866000    1.4438204   -3.6129657   -2.0438781   0.24570081   -3.6129657    1.5690876  1213005 
 7867000    1.4435959   -3.6130397   -2.0442257   0.23741681   -3.6130397    1.5688139  1213028 
 7868000    1.4444318   -3.6131487   -2.0434484   0.24170627   -3.6131487    1.5697003  1213045 
 7869000    1.4447216   -3.6130465   -2.0430545   0.24397625   -3.6130465     1.569992  1213063 
 7870000    1.4450906   -3.6136801   -2.0433143    0.2447455   -3.6136801    1.5703658  1213084 
 7871000    1.4441756   -3.6128155   -2.0434777   0.24540897   -3.6128155    1.5693378  1213110 
 7872000    1.4457779   -3.6141146   -2.0430692    0.2392626   -3.6141146    1.5710454  1213136 
 7873000    1.4445768   -3.6128972   -2.0431829   0.24144122   -3.6128972    1.5697142  1213156 
 7874000    1.4444834   -3.6126966   -2.0431149     0.241503   -3.6126966    1.5695818  1213180 
 7875000     1.443062   -3.6120518   -2.0440326   0.24484555   -3.6120518    1.5680191  1213194 
 7876000    1.4441503   -3.6135885   -2.0444217   0.24114469   -3.6135885    1.5691668  1213221 
 7877000    1.4437782   -3.6140626   -2.0453324    0.2371914   -3.6140626    1.5687302  1213246 
 7878000    1.4440633    -3.614112   -2.0450966    0.2426319    -3.614112    1.5690154  1213265 
 7879000    1.4432604    -3.613594   -2.0454808    0.2384322    -3.613594    1.5681133  1213288 
 7880000    1.4429602   -3.6138739   -2.0461308   0.24382174   -3.6138739    1.5677431  1213322 
 7881000    1.4426983   -3.6133773   -2.0459497   0.24112803   -3.6133773    1.5674276  1213346 
 7882000    1.4438355   -3.6136735   -2.0450298   0.24332136   -3.6136735    1.5686438  1213361 
 7883000    1.4434442   -3.6129532   -2.0447669   0.24319306   -3.6129532    1.5681863  1213386 
 7884000    1.4443374   -3.6149632   -2.0458401   0.23916293   -3.6149632    1.5691231  1213412 
 7885000     1.444872   -3.6147829   -2.0451153    0.2434108   -3.6147829    1.5696676  1213440 
 7886000    1.4435019   -3.6139847   -2.0458352   0.24158476   -3.6139847    1.5681494  1213463 
 7887000    1.4432523      -3.6147   -2.0468501   0.23768196      -3.6147    1.5678499  1213485 
 7888000    1.4429114   -3.6142555   -2.0467993   0.24635504   -3.6142555    1.5674562  1213503 
 7889000     1.443601    -3.614928   -2.0467549   0.24176695    -3.614928    1.5681731  1213528 
 7890000    1.4441906   -3.6154751     -2.04669   0.23835164   -3.6154751    1.5687852  1213550 
 7891000    1.4431627   -3.6145958   -2.0469453   0.23798054   -3.6145958    1.5676505  1213564 
 7892000    1.4433653   -3.6151069   -2.0472699   0.24321723   -3.6151069     1.567837  1213590 
 7893000    1.4425657     -3.61434   -2.0473987   0.24037226     -3.61434    1.5669413  1213611 
 7894000      1.44399   -3.6158008   -2.0473447   0.24135067   -3.6158008    1.5684561  1213636 
 7895000    1.4447919   -3.6164551   -2.0471591   0.23839003   -3.6164551    1.5692961  1213660 
 7896000    1.4438403   -3.6156005   -2.0473639   0.23900871   -3.6156005    1.5682366  1213680 
 7897000    1.4424401   -3.6149089   -2.0482151   0.24572155   -3.6149089    1.5666938  1213697 
 7898000     1.443328   -3.6160732   -2.0484472   0.23899213   -3.6160732     1.567626  1213722 
 7899000    1.4433231   -3.6155556   -2.0479647   0.24470591   -3.6155556    1.5675909  1213745 
 7900000    1.4429705   -3.6153697   -2.0482005   0.23961617   -3.6153697    1.5671692  1213775 
 7901000    1.4440835   -3.6161233   -2.0477659   0.24323475   -3.6161233    1.5683574  1213791 
 7902000     1.443878   -3.6160597   -2.0479604   0.23906086   -3.6160597    1.5680993  1213818 
 7903000     1.443572   -3.6156293   -2.0478907   0.24368395   -3.6156293    1.5677386  1213840 
 7904000    1.4434138   -3.6154044   -2.0478648   0.24623971   -3.6154044    1.5675397  1213861 
 7905000    1.4431473   -3.6150952    -2.047867   0.24607329   -3.6150952    1.5672282  1213878 
 7906000    1.4438025   -3.6162933   -2.0483794   0.24235485   -3.6162933     1.567914  1213898 
 7907000    1.4435319   -3.6153619   -2.0477702     0.243805   -3.6153619    1.5675917  1213920 
 7908000    1.4441661    -3.615821   -2.0475703   0.24247084    -3.615821    1.5682507  1213943 
 7909000    1.4438668   -3.6154791   -2.0475781   0.24219395   -3.6154791    1.5679011  1213962 
 7910000    1.4449922   -3.6163636    -2.047278   0.24238655   -3.6163636    1.5690857  1213991 
 7911000    1.4447348   -3.6156649   -2.0468859   0.24416755   -3.6156649     1.568779  1214012 
 7912000    1.4441689   -3.6157381   -2.0476045   0.24523851   -3.6157381    1.5681335  1214036 
 7913000    1.4439892   -3.6157894   -2.0478884   0.24530554   -3.6157894     1.567901  1214065 
 7914000    1.4451999   -3.6168002   -2.0476105   0.23754156   -3.6168002    1.5691897  1214085 
 7915000    1.4446546   -3.6166835   -2.0481079   0.23829142   -3.6166835    1.5685757  1214102 
 7916000    1.4447031   -3.6160463   -2.0474477   0.24069169   -3.6160463    1.5685986  1214125 
 7917000    1.4443993   -3.6157421   -2.0475018   0.24334153   -3.6157421    1.5682403  1214147 
 7918000    1.4448643   -3.6158958    -2.047179   0.24464212   -3.6158958    1.5687168  1214169 
 7919000    1.4448096   -3.6160954   -2.0474728   0.24337998   -3.6160954    1.5686226  1214196 
 7920000    1.4450721   -3.6168518   -2.0479623   0.24375945   -3.6168518    1.5688895  1214210 
 7921000    1.4455181   -3.6168049   -2.0474494   0.24003128   -3.6168049    1.5693555  1214224 
 7922000    1.4453339   -3.6169419   -2.0478238   0.24412502   -3.6169419    1.5691181  1214253 
 7923000    1.4454039   -3.6167568   -2.0475964   0.23733377   -3.6167568    1.5691605  1214279 
 7924000     1.445429   -3.6167678   -2.0476071   0.24471604   -3.6167678    1.5691607  1214300 
 7925000     1.445527   -3.6169222   -2.0476772   0.24249057   -3.6169222     1.569245  1214317 
 7926000    1.4446865   -3.6163855   -2.0480801   0.24399123   -3.6163855    1.5683054  1214338 
 7927000     1.445854   -3.6181227    -2.048586    0.2402663   -3.6181227    1.5695367  1214366 
 7928000    1.4449582   -3.6170184   -2.0484839   0.24346306   -3.6170184    1.5685345  1214389 
 7929000    1.4444208   -3.6161429   -2.0482214   0.24088197   -3.6161429    1.5679214  1214412 
 7930000    1.4438636   -3.6162343   -2.0489358   0.24404267   -3.6162343    1.5672985  1214426 
 7931000    1.4441433   -3.6167833   -2.0492121   0.24311286   -3.6167833    1.5675712  1214450 
 7932000    1.4448803   -3.6172259   -2.0488702    0.2444331   -3.6172259    1.5683557  1214462 
 7933000    1.4455006   -3.6184639   -2.0494659   0.24055288   -3.6184639     1.568998  1214486 
 7934000    1.4440734   -3.6169179   -2.0494871   0.24448149   -3.6169179    1.5674308  1214500 
 7935000    1.4437059   -3.6167807   -2.0497759   0.24037123   -3.6167807    1.5670048  1214521 
 7936000    1.4439999   -3.6176616   -2.0503739   0.23902448   -3.6176616    1.5672878  1214549 
 7937000    1.4436772   -3.6176773   -2.0507655   0.24277409   -3.6176773    1.5669117  1214569 
 7938000    1.4436242   -3.6173175   -2.0504878   0.24460362   -3.6173175    1.5668297  1214588 
 7939000    1.4449322   -3.6183345   -2.0501149   0.24086892   -3.6183345    1.5682196  1214611 
 7940000    1.4439914   -3.6172155   -2.0500389   0.23949012   -3.6172155    1.5671766  1214628 
 7941000    1.4443072   -3.6175987   -2.0501038   0.24113037   -3.6175987    1.5674949  1214647 
 7942000    1.4457441   -3.6196496   -2.0506134    0.2376634   -3.6196496    1.5690362  1214661 
 7943000    1.4430424   -3.6167226   -2.0506391   0.24416642   -3.6167226    1.5660835  1214677 
 7944000    1.4427881     -3.61736   -2.0515706   0.24225168     -3.61736    1.5657894  1214691 
 7945000    1.4440096   -3.6188436   -2.0517685   0.24194588   -3.6188436    1.5670752  1214722 
 7946000    1.4437217   -3.6182417   -2.0515035   0.23876427   -3.6182417    1.5667381  1214741 
 7947000    1.4440254   -3.6188122   -2.0517831   0.24436738   -3.6188122     1.567029  1214771 
 7948000    1.4445847   -3.6191761   -2.0515685   0.23719199   -3.6191761    1.5676075  1214793 
 7949000    1.4452401   -3.6193494   -2.0510513   0.23757633   -3.6193494    1.5682981  1214809 
 7950000    1.4436335   -3.6182906   -2.0517604   0.24306312   -3.6182906    1.5665302  1214828 
 7951000    1.4444541   -3.6187664   -2.0513779   0.24224009   -3.6187664    1.5673884  1214853 
 7952000    1.4438996   -3.6188431   -2.0520783   0.24289859   -3.6188431    1.5667649  1214870 
 7953000    1.4429589   -3.6178128   -2.0521035   0.24254841   -3.6178128    1.5657093  1214897 
 7954000    1.4432349    -3.618293   -2.0523152   0.24401922    -3.618293    1.5659778  1214921 
 7955000    1.4445943   -3.6194291    -2.052006   0.23983443   -3.6194291    1.5674231  1214944 
 7956000    1.4437582   -3.6190023   -2.0525121   0.24354288   -3.6190023    1.5664902  1214964 
 7957000    1.4439541   -3.6190118   -2.0523297   0.24027992   -3.6190118    1.5666821  1214980 
 7958000    1.4449686   -3.6195026   -2.0517443    0.2437542   -3.6195026    1.5677583  1214999 
 7959000    1.4435981   -3.6182623   -2.0520193   0.24370741   -3.6182623     1.566243  1215021 
 7960000    1.4453187   -3.6198875    -2.051801   0.24316004   -3.6198875    1.5680865  1215039 
 7961000    1.4434514    -3.618052   -2.0520056   0.24314612    -3.618052    1.5660464  1215050 
 7962000    1.4444362   -3.6193776   -2.0522821   0.24156296   -3.6193776    1.5670956  1215065 
 7963000    1.4434796    -3.618468   -2.0524374   0.24186334    -3.618468    1.5660306  1215086 
 7964000    1.4441229   -3.6192582   -2.0525515   0.24285159   -3.6192582    1.5667067  1215103 
 7965000    1.4426873   -3.6183613   -2.0532328   0.23635697   -3.6183613    1.5651286  1215119 
 7966000    1.4427886   -3.6184387   -2.0532389   0.24236974   -3.6184387    1.5651999  1215149 
 7967000    1.4444623   -3.6204082   -2.0534236   0.23591555   -3.6204082    1.5669846  1215173 
 7968000    1.4438316    -3.619289   -2.0530183   0.24107846    -3.619289    1.5662708  1215196 
 7969000    1.4453228   -3.6201866   -2.0523163   0.24046852   -3.6201866    1.5678703  1215210 
 7970000     1.444695   -3.6192321   -2.0520763   0.24232087   -3.6192321    1.5671558  1215236 
 7971000    1.4447124   -3.6195544   -2.0524081   0.24168999   -3.6195544    1.5671463  1215258 
 7972000     1.445126   -3.6195491   -2.0519903   0.24133996   -3.6195491    1.5675588  1215286 
 7973000    1.4462429   -3.6198363   -2.0510957   0.24274284   -3.6198363    1.5687406  1215309 
 7974000      1.44405    -3.617853   -2.0515219   0.24494443    -3.617853    1.5663311  1215333 
 7975000    1.4449647   -3.6196081    -2.052312   0.24658988   -3.6196081    1.5672962  1215354 
 7976000    1.4474421   -3.6217463   -2.0517952   0.24074339   -3.6217463     1.569951  1215379 
 7977000    1.4464465   -3.6209448   -2.0520982    0.2456246   -3.6209448    1.5688466  1215398 
 7978000    1.4456988   -3.6197962   -2.0517774   0.24615657   -3.6197962    1.5680189  1215411 
 7979000    1.4464051   -3.6207183   -2.0519643    0.2414304   -3.6207183     1.568754  1215435 
 7980000    1.4465004   -3.6212261   -2.0523959   0.24325447   -3.6212261    1.5688302  1215456 
 7981000    1.4455191   -3.6204552   -2.0527126   0.24269579   -3.6204552    1.5677427  1215474 
 7982000    1.4454491   -3.6198081   -2.0521619   0.24437346   -3.6198081    1.5676461  1215490 
 7983000    1.4450905   -3.6203822   -2.0531572   0.24525177   -3.6203822     1.567225  1215515 
 7984000    1.4454937   -3.6212344   -2.0535953   0.24255687   -3.6212344    1.5676391  1215533 
 7985000    1.4449332   -3.6205855   -2.0535891   0.24221297   -3.6205855    1.5669964  1215560 
 7986000    1.4439978   -3.6187736   -2.0528226   0.24515896   -3.6187736    1.5659511  1215584 
 7987000    1.4441513   -3.6192241   -2.0531285   0.24434971   -3.6192241    1.5660956  1215601 
 7988000    1.4451333   -3.6195439   -2.0524156   0.24723925   -3.6195439    1.5671283  1215626 
 7989000    1.4462051   -3.6206202   -2.0523451    0.2467511   -3.6206202    1.5682752  1215638 
 7990000    1.4464829   -3.6205831     -2.05203    0.2459079   -3.6205831    1.5685531  1215656 
 7991000    1.4453664   -3.6198671   -2.0525505   0.24659127   -3.6198671    1.5673166  1215676 
 7992000    1.4459439   -3.6207047   -2.0527877   0.24195594   -3.6207047     1.567917  1215696 
 7993000    1.4460027   -3.6201527   -2.0521978   0.24418531   -3.6201527     1.567955  1215716 
 7994000    1.4454831   -3.6203958   -2.0530338   0.24326402   -3.6203958     1.567362  1215739 
 7995000    1.4456716   -3.6206957   -2.0531578   0.24797189   -3.6206957     1.567538  1215761 
 7996000    1.4466285   -3.6217514   -2.0531965   0.23999772   -3.6217514    1.5685548  1215777 
 7997000    1.4450642   -3.6207602   -2.0539247   0.24032251   -3.6207602    1.5668356  1215795 
 7998000    1.4448471   -3.6216236   -2.0550582   0.24331485   -3.6216236    1.5665654  1215822 
 7999000    1.4441107   -3.6207421   -2.0550073   0.24333887   -3.6207421    1.5657348  1215847 
 8000000    1.4452528   -3.6211756   -2.0542297   0.24534529   -3.6211756    1.5669459  1215868 
Loop time of 19087.5 on 192 procs for 5000000 steps with 1215868 atoms

Performance: 113163.128 tau/day, 261.952 timesteps/s
99.4% CPU use with 192 MPI tasks x 1 OpenMP threads

MPI task timing breakdown:
Section |  min time  |  avg time  |  max time  |%varavg|  %CPU | %total
-----------------------------------------------------------------------
Pair    | 7056.8     | 8849.6     | 9820.1     | 719.2 |  99.3 | 46.36
Bond    | 3.5982     | 3.7861     | 4.1513     |   5.7 | 100.0 |  0.02
Neigh   | 3669       | 4240.4     | 4525.5     | 288.4 |  99.6 | 22.22
Comm    | 1807.7     | 3750.2     | 5726.4     |1250.9 |  99.2 | 19.65
Output  | 281.08     | 282.23     | 282.25     |   0.5 |  99.3 |  1.48
Modify  | 1272.9     | 1452.3     | 2531.8     | 848.3 |  99.4 |  7.61
Other   |            | 509        |            |       |       |  2.67

Nlocal:        6332.65 ave        6470 max        6196 min
Histogram: 2 10 19 31 38 34 24 16 13 5
Nghost:        6377.15 ave        6880 max        4863 min
Histogram: 29 3 0 0 0 0 0 0 92 68
Neighs:        194419.0 ave      208604 max      169775 min
Histogram: 8 6 2 3 22 33 33 40 34 11

Total # of neighbors = 37328408
Ave neighs/atom = 30.701037
Ave special neighs/atom = 0.0000000
Neighbor list builds = 505000
Dangerous builds = 450000

write_restart   restart_write.dat
System init for write_restart ...
write_data	data.write
System init for write_data ...
WARNING: Not all mixed pair coeffs generated from mixing. Use write_data with 'pair ij' option to store all pair coeffs. (src/write_data.cpp:312)

Total wall time: 5:18:12
