LAMMPS (29 Oct 2020)
  using 1 OpenMP thread(s) per MPI task
Reading data file ...
  orthogonal box = (0.0000000 0.0000000 0.0000000) to (20.000000 20.000000 20.000000)
  4 by 4 by 4 MPI processor grid
  reading atoms ...
  1143 atoms
Finding 1-2 1-3 1-4 neighbors ...
  special bond factors lj:    0.0      0.0      0.0     
  special bond factors coul:  0.0      0.0      0.0     
     0 = max # of 1-2 neighbors
     0 = max # of 1-3 neighbors
     0 = max # of 1-4 neighbors
     1 = max # of special neighbors
  special bonds CPU = 0.688 seconds
  read_data CPU = 0.750 seconds
Replicating atoms ...
WARNING: Replicating in a non-periodic dimension (src/replicate.cpp:75)
  orthogonal box = (0.0000000 0.0000000 0.0000000) to (160.00000 160.00000 160.00000)
  4 by 4 by 4 MPI processor grid
  585216 atoms
Finding 1-2 1-3 1-4 neighbors ...
  special bond factors lj:    0.0      0.0      0.0     
  special bond factors coul:  0.0      0.0      0.0     
     0 = max # of 1-2 neighbors
     0 = max # of 1-3 neighbors
     0 = max # of 1-4 neighbors
     1 = max # of special neighbors
  special bonds CPU = 0.021 seconds
  replicate CPU = 0.044 seconds
585216 atoms in group cubes
Neighbor list info ...
  update every 1 steps, delay 0 steps, check yes
  max neighbors/atom: 2000, page size: 100000
  master list distance cutoff = 1.42
  ghost atom cutoff = 1.42
  binsize = 0.71, bins = 226 226 226
  1 neighbor lists, perpetual/occasional/extra = 1 0 0
  (1) pair soft, perpetual
      attributes: half, newton on
      pair build: half/bin/newton
      stencil: half/bin/3d/newton
      bin: standard
Per MPI rank memory allocation (min/avg/max) = 9.893 | 9.893 | 9.893 Mbytes
Step Temp E_pair E_mol TotEng Press 
       0           10            0            0    14.999974    1.4287476 
     100           10   0.90670399            0    15.906678    2.1416359 
     200           10     1.813408            0    16.813382    2.8545243 
     300           10     2.720112            0    17.720086    3.5674126 
     400           10    3.6268159            0     18.62679     4.280301 
     500           10    4.5335199            0    19.533494    4.9931893 
     600           10    5.4402239            0    20.440198    5.7060776 
     700           10    6.3469279            0    21.346902     6.418966 
     800           10    7.2536319            0    22.253606    7.1318543 
     900           10    8.1603359            0     23.16031    7.8447427 
    1000           10    9.0670399            0    24.067014     8.557631 
Loop time of 2.28782 on 64 procs for 1000 steps with 585216 atoms

Performance: 188826.281 tau/day, 437.098 timesteps/s
99.9% CPU use with 64 MPI tasks x 1 OpenMP threads

MPI task timing breakdown:
Section |  min time  |  avg time  |  max time  |%varavg| %total
---------------------------------------------------------------
Pair    | 0.87587    | 1.1978     | 1.7573     |  26.7 | 52.36
Bond    | 8.3313e-05 | 0.000119   | 0.00016642 |   0.0 |  0.01
Neigh   | 0          | 0          | 0          |   0.0 |  0.00
Comm    | 0.00036811 | 0.00056092 | 0.00090341 |   0.0 |  0.02
Output  | 0.39884    | 0.40712    | 0.41142    |   0.7 | 17.80
Modify  | 0.0016057  | 0.0024571  | 0.0045775  |   1.9 |  0.11
Other   |            | 0.6798     |            |       | 29.71

Nlocal:        9144.00 ave        9144 max        9144 min
Histogram: 64 0 0 0 0 0 0 0 0 0
Nghost:        0.00000 ave           0 max           0 min
Histogram: 64 0 0 0 0 0 0 0 0 0
Neighs:        70416.0 ave       70416 max       70416 min
Histogram: 64 0 0 0 0 0 0 0 0 0

Total # of neighbors = 4506624
Ave neighs/atom = 7.7007874
Ave special neighs/atom = 0.0000000
Neighbor list builds = 0
Dangerous builds = 0
  create bodies CPU = 0.017 seconds
  512 rigid bodies with 585216 atoms
  6.9282032 = max distance from body owner to body atom
WARNING: Ignoring 'compress yes' for molecular system (src/delete_atoms.cpp:125)
Deleted 0 atoms, new total = 585216
WARNING: Changing velocities of atoms in rigid bodies. This has no effect unless rigid bodies are rebuild (src/velocity.cpp:71)
WARNING: Cannot count rigid body degrees-of-freedom before bodies are fully initialized (src/RIGID/fix_rigid_small.cpp:1166)
Neighbor list info ...
  update every 1 steps, delay 0 steps, check yes
  max neighbors/atom: 2000, page size: 100000
  master list distance cutoff = 2.8
  ghost atom cutoff = 6.93
  binsize = 1.4, bins = 115 115 115
  1 neighbor lists, perpetual/occasional/extra = 1 0 0
  (1) pair lj/cut/opt, perpetual
      attributes: half, newton on
      pair build: half/bin/newton
      stencil: half/bin/3d/newton
      bin: standard
Per MPI rank memory allocation (min/avg/max) = 15.72 | 15.73 | 15.73 Mbytes
Step Temp E_pair E_mol TotEng Press 
       0    10.302639  -0.36619638            0  -0.33918174   0.76174645 
     100    10.302639  -0.36619638            0  -0.33918174 0.0013200696 
     200    10.302639  -0.36619638            0  -0.33918174 0.0013200696 
     300    10.302639  -0.36619638            0  -0.33918174 0.0013200696 
     400    10.302639  -0.36619638            0  -0.33918174 0.0013200696 
     500    10.302639  -0.36619638            0  -0.33918174 0.0013200696 
     600    10.302639  -0.36619638            0  -0.33918174 0.0013200696 
     700    10.302639  -0.36619638            0  -0.33918174 0.0013200696 
     800    10.302639  -0.36619638            0  -0.33918174 0.0013200696 
     900    10.302639  -0.36619638            0  -0.33918174 0.0013200696 
    1000    10.302639  -0.36619638            0  -0.33918174 0.0013200696 
    1100    10.302639  -0.36619638            0  -0.33918174 0.0013200696 
    1200    10.302639  -0.36619638            0  -0.33918174 0.0013200696 
    1300    10.302639  -0.36619638            0  -0.33918174 0.0013200696 
    1400    10.302644  -0.36619638            0  -0.33918173  0.001320026 
    1500    10.302666  -0.36619638            0  -0.33918167 0.0013197943 
    1600    10.302729  -0.36619638            0  -0.33918151  0.001319545 
    1700    10.302851  -0.36619638            0  -0.33918119 0.0013189597 
    1800    10.303063  -0.36619638            0  -0.33918063 0.0013183467 
    1900    10.303369  -0.36619638            0  -0.33917983 0.0013175593 
    2000    10.303818  -0.36619638            0  -0.33917865 0.0013162316 
    2100    10.304464  -0.36619638            0  -0.33917696 0.0013148962 
    2200    10.305316  -0.36619638            0  -0.33917472 0.0013132259 
    2300    10.306448  -0.36619638            0  -0.33917176 0.0013108166 
    2400    10.305761  -0.36619638            0  -0.33917356 0.0013620076 
    2500     10.28012  -0.36619641            0  -0.33924082 0.0017980031 
    2600    10.308779  -0.36619673            0    -0.339166 0.0014030388 
    2700    10.316313  -0.36619801            0  -0.33914752 0.0012918071 
    2800    10.322054   -0.3662017            0  -0.33913616 0.0012755362 
    2900    10.331332  -0.36621094            0  -0.33912106 0.0012479259 
    3000    10.344754  -0.36622573            0  -0.33910066 0.0012640425 
    3100     10.32789  -0.36615697            0  -0.33907612 0.0022149452 
    3200    10.353936  -0.36624551            0  -0.33909637 0.0017159755 
    3300    10.325714  -0.36616395            0   -0.3390888 0.0025304989 
    3400    10.377144  -0.36622609            0  -0.33901609 0.0016596539 
    3500    10.391461  -0.36626415            0  -0.33901661  0.001278516 
    3600    10.360785  -0.36624541            0  -0.33907831  0.002112869 
    3700    10.329087  -0.36618069            0   -0.3390967  0.003196033 
    3800    10.410568  -0.36629278            0  -0.33899514 0.0016815111 
    3900    10.438601  -0.36630322            0  -0.33893207 0.0013204671 
    4000    10.374608  -0.36625832            0  -0.33905497 0.0026025401 
    4100    10.408738  -0.36627911            0  -0.33898626   0.00234832 
    4200    10.453725  -0.36637394            0  -0.33896313 0.0015487708 
    4300     10.43949  -0.36630622            0  -0.33893275 0.0021138779 
    4400    10.477568  -0.36640133            0  -0.33892801 0.0013971528 
    4500    10.460496  -0.36634998            0  -0.33892142 0.0021905563 
    4600    10.510925  -0.36645699            0   -0.3388962 0.0017947081 
    4700     10.48007  -0.36634944            0  -0.33886956 0.0034261272 
    4800    10.458068  -0.36639137            0  -0.33896918 0.0043551986 
    4900    10.523353  -0.36656571            0  -0.33897233 0.0034356142 
    5000    10.569042  -0.36657015            0  -0.33885698 0.0030884102 
    5100    10.639989   -0.3666892            0  -0.33878999 0.0018460136 
    5200    10.682474   -0.3667902            0   -0.3387796 0.0016064773 
    5300    10.600637  -0.36660893            0  -0.33881291 0.0048441347 
    5400    10.638429  -0.36679021            0  -0.33889509 0.0036164628 
    5500     10.70394  -0.36690701            0  -0.33884012 0.0023340568 
    5600    10.704257  -0.36685443            0  -0.33878671 0.0026928757 
    5700     10.74023  -0.36693071            0  -0.33876866  0.002089245 
    5800    10.722933  -0.36695648            0  -0.33883978 0.0024530144 
    5900    10.766481  -0.36706859            0   -0.3388377 0.0018195071 
    6000      10.7793  -0.36710449            0  -0.33883999 0.0022457996 
    6100    10.843683  -0.36722685            0  -0.33879354 0.0019409862 
    6200    10.945999  -0.36753131            0  -0.33882971 0.0020535747 
    6300    10.992814  -0.36770749            0  -0.33888313 0.0028060147 
    6400    10.972497  -0.36763796            0  -0.33886688 0.0041551556 
    6500    10.927035   -0.3675147            0  -0.33886283 0.0050429896 
    6600    10.916215  -0.36751646            0  -0.33889296 0.0042506809 
    6700    10.953124  -0.36756967            0  -0.33884938 0.0023601703 
    6800    10.969516  -0.36764248            0  -0.33887922 0.0011465151 
    6900    10.951516  -0.36761968            0  -0.33890361 0.0016657252 
    7000    11.019925  -0.36773815            0  -0.33884271 0.0011898943 
    7100    10.985913  -0.36763053            0  -0.33882427  0.003898119 
    7200    11.039819  -0.36783472            0  -0.33888711 0.0033261747 
    7300    10.945537  -0.36760822            0  -0.33890784 0.0051375657 
    7400    11.037414   -0.3677854            0   -0.3388441 0.0026306226 
    7500    11.101636  -0.36791447            0  -0.33880477 0.0007641284 
    7600    11.066119  -0.36783472            0  -0.33881815 0.0016817539 
    7700    11.044102  -0.36779202            0  -0.33883319 0.0028049656 
    7800    11.048266  -0.36786328            0  -0.33889353  0.003128281 
    7900    11.119596  -0.36807737            0  -0.33892058 0.0017589081 
    8000    11.156355  -0.36811443            0  -0.33886125  0.001679133 
    8100     11.15258  -0.36812094            0  -0.33887766 0.0019041378 
    8200    11.147837  -0.36811247            0  -0.33888163 0.0019751071 
    8300    11.157158  -0.36810451            0  -0.33884923 0.0028341358 
    8400    11.231562  -0.36827336            0  -0.33882298 0.0022236686 
    8500    11.173143  -0.36811046            0  -0.33881327 0.0040466428 
    8600    11.149681   -0.3680675            0  -0.33883182 0.0037531184 
    8700    11.205142   -0.3682099            0   -0.3388288 0.0019343056 
    8800    11.195492  -0.36806952            0  -0.33871373 0.0025873009 
    8900      11.1648  -0.36796435            0  -0.33868903 0.0026397459 
    9000    11.104503  -0.36789406            0  -0.33877685 0.0029301453 
    9100    11.110777  -0.36784588            0  -0.33871221  0.002533061 
    9200    11.111138  -0.36785976            0  -0.33872515 0.0023433336 
    9300    11.178328  -0.36794504            0  -0.33863424 0.00091764002 
    9400    11.197161  -0.36803103            0  -0.33867086 0.00062753404 
    9500     11.13221   -0.3678044            0  -0.33861453 0.0033111757 
    9600    11.095972  -0.36774049            0  -0.33864564 0.0024665739 
    9700    11.077058  -0.36780727            0  -0.33876202 0.0014190059 
    9800    11.071393  -0.36777151            0  -0.33874111 0.0014265825 
    9900    11.062384  -0.36777557            0   -0.3387688 0.0017008584 
   10000     11.09364  -0.36786442            0  -0.33877568 0.0010061058 
   10100    10.981254  -0.36771599            0  -0.33892194 0.0036571539 
   10200    11.011802  -0.36769587            0  -0.33882173 0.0034184872 
   10300    11.038425  -0.36777952            0  -0.33883557 0.0021658793 
   10400     11.03655  -0.36782609            0  -0.33888705 0.0023879279 
   10500    11.090899  -0.36795293            0  -0.33887139 0.0019487318 
   10600    11.133735  -0.36807436            0   -0.3388805 0.0013758801 
   10700    11.162503  -0.36816316            0  -0.33889386 0.00097180968 
   10800    11.154187  -0.36816254            0  -0.33891505 0.0018574448 
   10900    11.210744  -0.36833841            0  -0.33894262 0.0011064871 
   11000    11.178582  -0.36819288            0  -0.33888143  0.002741827 
   11100    11.182836  -0.36819162            0    -0.338869 0.0041321599 
   11200    11.328531  -0.36857713            0  -0.33887249 0.0022013849 
   11300    11.306848  -0.36849848            0   -0.3388507 0.0040420032 
   11400     11.32889  -0.36865268            0   -0.3389471 0.0017845286 
   11500    11.215505  -0.36841271            0  -0.33900443 0.0028349045 
   11600    11.333649  -0.36859212            0  -0.33887407 0.0002392485 
   11700    11.316956  -0.36856888            0  -0.33889459 0.0014886208 
   11800    11.316061  -0.36859793            0  -0.33892598 0.0016932636 
   11900     11.24317   -0.3684283            0  -0.33894748 0.0050593347 
   12000    11.424425  -0.36891482            0  -0.33895873 0.0015315164 
   12100    11.302472  -0.36859744            0  -0.33896113 0.0053095174 
   12200    11.449597  -0.36898024            0  -0.33895816 0.0012905381 
   12300    11.328486  -0.36866713            0  -0.33896261 0.0045346302 
   12400    11.305316  -0.36860779            0  -0.33896402 0.0036682715 
   12500     11.32451  -0.36863112            0  -0.33893703 0.0020898191 
   12600    11.375804  -0.36878393            0  -0.33895533 0.0010929103 
   12700    11.346625   -0.3687052            0  -0.33895311 0.0023148304 
   12800    11.403004  -0.36883461            0  -0.33893469 0.00060440071 
   12900    11.364754  -0.36873233            0  -0.33893271 0.0019915484 
   13000    11.261387     -0.36847            0  -0.33894142 0.0031531241 
   13100    11.228794  -0.36842163            0  -0.33897851 0.0015736188 
   13200    11.259526  -0.36845391            0   -0.3389302 0.00056085019 
   13300    11.280219  -0.36849415            0  -0.33891619 0.00056371593 
   13400    11.233334  -0.36837263            0  -0.33891761 0.0028647114 
   13500    11.229861  -0.36838534            0  -0.33893942 0.0032704015 
   13600     11.24022  -0.36839091            0  -0.33891783 0.0027228321 
   13700    11.326597  -0.36861218            0  -0.33891261 0.00084981441 
   13800    11.298179  -0.36857929            0  -0.33895423 0.0020667848 
   13900    11.424847  -0.36885141            0  -0.33889421 0.00023710931 
   14000    11.394892  -0.36874378            0  -0.33886513 0.0027269065 
   14100    11.400318  -0.36871252            0  -0.33881964 0.0044230832 
   14200    11.501654  -0.36889786            0  -0.33873927 0.0021397469 
   14300    11.425067  -0.36883045            0  -0.33887268  0.002247586 
   14400    11.524851  -0.36887452            0   -0.3386551 0.00051426317 
   14500    11.434892  -0.36868228            0  -0.33869875 0.0038151931 
   14600    11.512818  -0.36892906            0   -0.3387412 0.0013962471 
   14700    11.470082  -0.36880477            0  -0.33872897 0.0027127305 
   14800    11.517479  -0.36893331            0  -0.33873323 0.0018261601 
   14900    11.403436  -0.36866372            0  -0.33876267 0.0065435257 
   15000    11.547708  -0.36903077            0  -0.33875143 0.0027339258 
   15100    11.514598  -0.36892571            0  -0.33873318  0.002071294 
   15200    11.469193  -0.36876449            0  -0.33869102 0.0028199896 
   15300    11.579037  -0.36898702            0  -0.33862552 0.00042508248 
   15400    11.502371  -0.36874706            0  -0.33858659 0.0033011118 
   15500    11.517439  -0.36896757            0  -0.33876759 0.0022152357 
   15600    11.538848  -0.36883408            0  -0.33857796 0.0021052749 
   15700     11.58892   -0.3689833            0  -0.33859589 0.0011413784 
   15800    11.576765  -0.36893787            0  -0.33858233 0.0019476482 
   15900    11.472039  -0.36868784            0  -0.33860691 0.0043932345 
   16000    11.579249  -0.36890486            0  -0.33854281 0.0014718365 
   16100    11.517035  -0.36883004            0  -0.33863112 0.0034394168 
   16200    11.566442  -0.36901821            0  -0.33868974 0.0024108011 
   16300    11.625304  -0.36922762            0  -0.33874481 3.5069548e-05 
   16400    11.547208  -0.36897629            0  -0.33869825 0.0034754488 
   16500    11.558981   -0.3690551            0  -0.33874619 0.0041077171 
   16600    11.591273  -0.36918657            0  -0.33879299 0.0023037725 
   16700    11.624601  -0.36931209            0  -0.33883113 0.0012247718 
   16800    11.609945  -0.36931382            0  -0.33887128  0.002676864 
   16900    11.712151  -0.36955142            0  -0.33884089 0.0012457018 
   17000    11.767516  -0.36966818            0  -0.33881247 0.0015261257 
   17100    11.656164  -0.36935214            0  -0.33878841 0.0051895912 
   17200    11.761486  -0.36957637            0  -0.33873648 0.0028717319 
   17300    11.740472  -0.36956807            0  -0.33878328 0.0027577087 
   17400    11.834595  -0.36969335            0  -0.33866176 0.00047946796 
   17500    11.794743  -0.36963319            0  -0.33870609 0.0034081729 
   17600    11.813392  -0.36966146            0  -0.33868546 0.0025692594 
   17700     11.74572  -0.36952823            0  -0.33872967 0.0020669424 
   17800    11.761156  -0.36961732            0  -0.33877828 0.0016403231 
   17900    11.806566  -0.36976429            0  -0.33880619 0.0011054067 
   18000    11.812344  -0.36977054            0  -0.33879729 0.0015844839 
   18100    11.805441  -0.36977663            0  -0.33882148 0.0014753768 
   18200    11.768521  -0.36965422            0  -0.33879588 0.0025143131 
   18300    11.704371  -0.36947381            0  -0.33878368 0.0040550531 
   18400    11.790322   -0.3697415            0  -0.33882599 0.0015791975 
   18500     11.76589  -0.36968477            0  -0.33883333 0.0022437799 
   18600    11.798029  -0.36977578            0  -0.33884006 0.0010835342 
   18700    11.784274  -0.36969334            0   -0.3387937 0.0015679888 
   18800    11.833373  -0.36982027            0  -0.33879188  0.001987579 
   18900    11.818145  -0.36987717            0  -0.33888871 0.0044655798 
   19000    11.897265  -0.37001948            0  -0.33882355 0.0036478359 
   19100    11.877205  -0.36993227            0  -0.33878894 0.0035884157 
   19200    11.835701   -0.3698305            0    -0.338796 0.0035268298 
   19300    11.906453  -0.37002675            0  -0.33880674 0.00044427963 
   19400    11.817981  -0.36983502            0  -0.33884699 0.0012542944 
   19500    11.840753  -0.36989921            0  -0.33885146 -0.00044184902 
   19600     11.79821  -0.36973702            0  -0.33880083 0.0029017557 
   19700    11.914517  -0.37004286            0   -0.3388017 0.0014178363 
   19800    11.866499  -0.36995109            0  -0.33883583 0.0019397763 
   19900    11.850858  -0.36988879            0  -0.33881456 0.0029371587 
   20000    11.936277  -0.37009325            0  -0.33879503 0.0035310779 
   20100    12.032861   -0.3703352            0  -0.33878373 0.0032859077 
   20200    12.159991  -0.37065696            0  -0.33877214 0.0016937502 
   20300    11.965616  -0.37014908            0  -0.33877393 0.0072746486 
   20400    12.062169  -0.37040896            0  -0.33878065 0.0023103614 
   20500     11.99117  -0.37021159            0  -0.33876944 0.0015759647 
   20600    11.955385  -0.37008756            0  -0.33873924 0.0034946539 
   20700     12.04279  -0.37027774            0  -0.33870024 0.0015527563 
   20800    12.079763  -0.37036255            0  -0.33868809  0.001765457 
   20900     11.98753  -0.37012409            0  -0.33869149 0.0043363488 
   21000    11.986844  -0.37013533            0  -0.33870453 0.0021207765 
   21100    12.012372  -0.37017319            0  -0.33867545 0.0018076797 
   21200    11.950687  -0.37003214            0  -0.33869614 0.0033973974 
   21300    11.966933  -0.37009092            0  -0.33871232 0.0032946009 
   21400    11.955264  -0.36996514            0  -0.33861714 0.0027315092 
   21500    12.069405  -0.37026649            0   -0.3386192 -0.00030300923 
   21600    11.911304   -0.3697963            0  -0.33856357 0.0046437726 
   21700    11.967606   -0.3700275            0  -0.33864714  0.001216455 
   21800    11.945551  -0.36994965            0  -0.33862711 0.0020235048 
   21900    11.911366  -0.36989105            0  -0.33865815 0.0031032311 
   22000    11.945698  -0.36995034            0  -0.33862742 0.00096051995 
   22100    11.876172  -0.36973838            0  -0.33859777 0.0023388199 
   22200     11.84998  -0.36970638            0  -0.33863445 0.0031414214 
   22300     11.94328  -0.36988681            0  -0.33857023 0.00093515214 
   22400    11.912003  -0.36982565            0  -0.33859109 0.0027073081 
   22500    11.988009  -0.37008782            0  -0.33865396 0.0024929144 
   22600    11.975327  -0.37006547            0  -0.33866486 0.0043970489 
   22700     12.01872  -0.37015006            0  -0.33863567 0.0047135054 
   22800    12.003622  -0.37012966            0  -0.33865485 0.0022970875 
   22900    11.862175  -0.36979184            0  -0.33868792 0.0011993043 
   23000    11.837823  -0.36973626            0  -0.33869621 5.6353451e-05 
   23100    11.824035  -0.36967049            0  -0.33866658 0.00061240672 
   23200    11.728062  -0.36941756            0  -0.33866531 0.0029153719 
   23300    11.840206  -0.36965926            0  -0.33861295 0.00099615101 
   23400    11.831473  -0.36959853            0  -0.33857512 0.0028117513 
   23500    11.877947  -0.36969107            0   -0.3385458 0.0015615898 
   23600    11.817406   -0.3695892            0  -0.33860268 0.0026863558 
   23700    11.802338  -0.36963724            0  -0.33869023 0.0029528803 
   23800     11.73005  -0.36935362            0  -0.33859615 0.0038914777 
   23900    11.791809  -0.36952519            0  -0.33860578 -0.00021670063 
   24000    11.691252  -0.36927393            0  -0.33861819 0.0013637795 
   24100     11.78912  -0.36954809            0  -0.33863574 -0.00038548109 
   24200     11.83006  -0.36963939            0  -0.33861968 0.0022346122 
   24300     11.92936  -0.36988035            0  -0.33860027  0.001145077 
   24400    11.886265  -0.36977021            0  -0.33860313 0.0012489305 
   24500     11.87649  -0.36972086            0  -0.33857941 0.0031108885 
   24600    11.974456  -0.36992905            0  -0.33853073 0.0027370306 
   24700    11.972892  -0.37000416            0  -0.33860993 0.0030453421 
   24800    12.054943  -0.37007469            0  -0.33846532 0.0016192597 
   24900    12.110453  -0.37023144            0  -0.33847651 0.0014373915 
   25000    12.019315  -0.37001999            0  -0.33850404 0.0041334271 
   25100    12.259615  -0.37058585            0   -0.3384398 -0.00086811167 
   25200    12.159712  -0.37029266            0  -0.33840857 0.0032763995 
   25300    12.133377  -0.37024179            0  -0.33842675 0.0048814182 
   25400    12.164528  -0.37022163            0  -0.33832491 0.0043091529 
   25500    12.254272  -0.37039773            0   -0.3382657 0.00031845827 
   25600    12.220407  -0.37025138            0  -0.33820814 0.00083122679 
   25700    12.108956   -0.3701488            0   -0.3383978 0.0031417195 
   25800    12.142442  -0.37004989            0  -0.33821109 0.0019295778 
   25900    12.016051  -0.36980524            0  -0.33829785 0.0031450067 
   26000    12.061748  -0.36998634            0  -0.33835912 0.0016576513 
   26100     12.02122  -0.36979764            0  -0.33827669 0.0034240988 
   26200    12.184893  -0.37018668            0  -0.33823657 0.00057506809 
   26300    12.156661   -0.3701976            0  -0.33832151 0.0028224092 
   26400    12.112009  -0.37000523            0  -0.33824622 0.0066362519 
   26500    12.186821  -0.37030047            0   -0.3383453  0.003648379 
   26600    12.270901  -0.37058122            0  -0.33840558 0.0015651304 
   26700    12.348478  -0.37074768            0  -0.33836863 0.0010748413 
   26800    12.388334  -0.37091484            0  -0.33843128 0.0028250165 
   26900    12.362828  -0.37084178            0   -0.3384251 0.0059678198 
   27000    12.471603   -0.3711507            0   -0.3384488 0.0040836583 
   27100    12.489454  -0.37124509            0  -0.33849638  0.002598726 
   27200    12.398273    -0.370985            0  -0.33847538 0.0048880801 
   27300    12.460002  -0.37117406            0  -0.33850258 0.0014119096 
   27400    12.341258  -0.37084737            0  -0.33848725 0.0026378986 
   27500    12.414672  -0.37101015            0  -0.33845753 -0.00019530086 
   27600    12.391319  -0.37092639            0    -0.338435 0.0016209141 
   27700     12.42899   -0.3710479            0  -0.33845774 0.0036693984 
   27800     12.53671  -0.37125162            0    -0.338379 0.0038046857 
   27900    12.514391  -0.37125017            0  -0.33843608 0.0036268094 
   28000    12.554364   -0.3713571            0  -0.33843819 0.0024572946 
   28100    12.449473   -0.3711687            0  -0.33852483 0.0055971884 
   28200    12.574599  -0.37156123            0  -0.33858926 0.0016532485 
   28300    12.507509  -0.37132737            0  -0.33853132 0.0045875034 
   28400    12.531091  -0.37144728            0   -0.3385894 0.0027457794 
   28500    12.482798  -0.37133222            0  -0.33860096 0.0017585519 
   28600    12.398778  -0.37111027            0  -0.33859933 0.0026095778 
   28700    12.464194  -0.37130663            0  -0.33862416 0.0019728834 
   28800    12.453778  -0.37128271            0  -0.33862756 0.0030399042 
   28900    12.547914  -0.37150793            0  -0.33860594 0.0003129875 
   29000    12.464568  -0.37130592            0  -0.33862247 0.0033504351 
   29100    12.500833  -0.37141723            0  -0.33863868 0.0038796518 
   29200    12.610646  -0.37167818            0  -0.33861169 0.0042068149 
   29300    12.672581  -0.37181303            0  -0.33858414 0.0050411258 
   29400     12.72583  -0.37192983            0  -0.33856132 0.0028280373 
   29500    12.787581  -0.37210119            0  -0.33857076 0.00021274144 
   29600    12.613867  -0.37163559            0  -0.33856065 0.0056599999 
   29700    12.655678  -0.37174514            0  -0.33856058  0.002691653 
   29800    12.524071  -0.37147018            0  -0.33863071 0.0027671644 
   29900    12.603747  -0.37163574            0  -0.33858734 -0.0011900328 
   30000    12.600136   -0.3716112            0  -0.33857227 0.00065666996 
   30100    12.554992  -0.37147715            0   -0.3385566 0.0057733446 
   30200    12.692527   -0.3718461            0  -0.33856491 0.0028319031 
   30300    12.628807  -0.37172304            0  -0.33860893 0.0033404218 
   30400    12.585441  -0.37162168            0  -0.33862129  0.002195729 
   30500    12.618201  -0.37166111            0  -0.33857482 0.00038484395 
   30600    12.593706  -0.37156237            0   -0.3385403 0.0014240123 
   30700    12.659193  -0.37172173            0  -0.33852794 0.0013750148 
   30800    12.635587  -0.37172505            0  -0.33859316 0.0048890998 
   30900    12.793286  -0.37205942            0  -0.33851403   0.00294091 
   31000    12.859878  -0.37209358            0  -0.33837359 0.00099055674 
   31100    12.570631  -0.37153051            0  -0.33856894 0.0063940023 
   31200     12.73553  -0.37184889            0  -0.33845495 0.0017551146 
   31300    12.635214  -0.37160783            0  -0.33847693 0.0064742924 
   31400    12.741761  -0.37195187            0  -0.33854158 0.0012838292 
   31500     12.49873  -0.37134669            0  -0.33857366 0.0039154253 
   31600    12.533953  -0.37147881            0  -0.33861342  0.001372231 
   31700    12.441716  -0.37129718            0  -0.33867365 0.0024934399 
   31800    12.407957  -0.37126168            0  -0.33872667 0.0016741977 
   31900    12.469132  -0.37144263            0  -0.33874721 0.00032087121 
   32000    12.425871  -0.37132961            0  -0.33874762 0.0016530533 
   32100    12.376024  -0.37119984            0  -0.33874855 0.0020463027 
   32200    12.424502  -0.37132865            0  -0.33875025 0.0015493078 
   32300     12.37317  -0.37121106            0  -0.33876727 0.0027788645 
   32400    12.507811  -0.37153999            0  -0.33874315 0.00010807903 
   32500    12.540543  -0.37161435            0  -0.33873168  0.001698937 
   32600    12.604832  -0.37177625            0  -0.33872501 0.0021534435 
   32700    12.668169   -0.3719333            0  -0.33871598  0.002603068 
   32800    12.575823  -0.37170384            0  -0.33872867 0.0032808325 
   32900    12.580479  -0.37167117            0  -0.33868379 0.00046364614 
   33000    12.474564  -0.37139827            0  -0.33868861 0.0025582789 
   33100    12.482294  -0.37145204            0  -0.33872211 0.00081780242 
   33200    12.479016  -0.37142007            0  -0.33869874 0.0010268388 
   33300    12.482532  -0.37140756            0    -0.338677 0.0045122181 
   33400    12.558099  -0.37161451            0  -0.33868581 0.0033091248 
   33500    12.553406   -0.3716336            0   -0.3387172 0.0020536733 
   33600    12.503915  -0.37150686            0  -0.33872024 0.0024991036 
   33700    12.520484  -0.37152972            0  -0.33869965  0.001335124 
   33800    12.505344  -0.37149644            0  -0.33870607 0.0022109886 
   33900    12.529312  -0.37154264            0  -0.33868942 0.0021585804 
   34000    12.622736  -0.37178242            0  -0.33868423 0.00029255511 
   34100    12.640935  -0.37181145            0  -0.33866554  0.001682437 
   34200    12.685247   -0.3719062            0   -0.3386441 0.0033636768 
   34300    12.694761  -0.37190652            0  -0.33861948 0.0031384294 
   34400    12.667661   -0.3717901            0  -0.33857411 0.0024344532 
   34500    12.744165  -0.37190423            0  -0.33848764 -0.00058707962 
   34600    12.692018  -0.37176155            0  -0.33848169 0.0014217276 
   34700    12.801542  -0.37197943            0  -0.33841239 5.2840378e-05 
   34800    12.700686  -0.37176527            0  -0.33846269 0.0034985509 
   34900    12.784122  -0.37196116            0   -0.3384398  0.001241468 
   35000    12.756066  -0.37190124            0  -0.33845345 0.0019994173 
   35100    12.895835  -0.37222637            0  -0.33841209 0.00071700443 
   35200    12.799901  -0.37201702            0  -0.33845429 0.0055756338 
   35300    12.845035  -0.37212099            0  -0.33843991 0.0049162684 
   35400    12.906505  -0.37232579            0  -0.33848353 0.0017809888 
   35500    12.802568   -0.3720633            0  -0.33849357 0.0034911207 
   35600    12.793119  -0.37203747            0  -0.33849252 0.0023153328 
   35700     12.79591  -0.37201533            0  -0.33846306 0.0010731422 
   35800    12.797887  -0.37204316            0  -0.33848571 0.0020960595 
   35900    12.899116  -0.37219767            0  -0.33837479   0.00392914 
   36000    12.991823  -0.37242379            0  -0.33835782 0.0023563556 
   36100      12.9844  -0.37248318            0  -0.33843667 0.0010447504 
   36200    12.849992  -0.37213978            0   -0.3384457 0.0031915836 
   36300    12.896445  -0.37228212            0  -0.33846624 0.0011196554 
   36400     12.86256  -0.37222961            0  -0.33850258 0.0027933504 
   36500    12.958019  -0.37245927            0  -0.33848194 0.0030447418 
   36600    12.965964  -0.37243244            0  -0.33843428 0.0039453128 
   36700     13.08336  -0.37277401            0  -0.33846802 0.00012137905 
   36800    12.944884  -0.37244063            0  -0.33849773 0.0039603764 
   36900     13.01877  -0.37257794            0  -0.33844131 0.0016569257 
   37000    13.112892  -0.37279241            0  -0.33840898 -0.00012816569 
   37100    13.060317   -0.3726767            0  -0.33843113 0.0059287127 
   37200    13.146049  -0.37294442            0  -0.33847405 0.0050741874 
   37300    13.206021  -0.37305129            0  -0.33842367 0.0017577984 
   37400    13.110184  -0.37281006            0  -0.33843373 0.0020411601 
   37500    12.959881   -0.3723873            0  -0.33840508 0.0054691515 
   37600    12.949712  -0.37231963            0  -0.33836407  0.004270449 
   37700    12.848101  -0.37225045            0  -0.33856134 0.0033138538 
   37800    12.951388  -0.37233393            0  -0.33837398 -0.0015407106 
   37900    12.862281  -0.37212316            0  -0.33839686 0.0031184393 
   38000    12.866826  -0.37219056            0  -0.33845235 0.0049173783 
   38100    12.975238   -0.3724849            0  -0.33846242 0.0032841145 
   38200      13.0565  -0.37277906            0   -0.3385435  0.002524147 
   38300    13.078939  -0.37281887            0  -0.33852447  0.001929055 
   38400    12.931032  -0.37242477            0   -0.3385182 0.0032875842 
   38500    12.838422  -0.37218191            0  -0.33851818  0.002963005 
   38600    12.880474  -0.37230231            0  -0.33852831 0.0011901746 
   38700    12.915685   -0.3724327            0  -0.33856637 0.0013059529 
   38800    12.958432  -0.37252022            0   -0.3385418  0.001020389 
   38900     12.89303  -0.37234649            0  -0.33853956 0.0019311641 
   39000    12.824366  -0.37214819            0  -0.33852131 0.0017719477 
   39100    12.878572  -0.37223981            0  -0.33847079 -0.0012045217 
   39200    12.950758  -0.37247482            0  -0.33851652 -0.0014610447 
   39300    12.933633  -0.37238203            0  -0.33846864 0.0059760479 
   39400    13.056072  -0.37275839            0  -0.33852395 0.0038519315 
   39500    12.822213  -0.37218296            0  -0.33856173 0.0064882446 
   39600    12.784692  -0.37204693            0  -0.33852408 0.0033210924 
   39700    12.816864  -0.37216376            0  -0.33855655 0.0030079178 
   39800    12.697894  -0.37187619            0  -0.33858093 0.0070427107 
   39900    12.844114  -0.37227209            0  -0.33859343 0.00068512047 
   40000    12.791791  -0.37215747            0    -0.338616 0.0019385726 
   40100    12.746312  -0.37206837            0  -0.33864616 0.0042826001 
   40200    12.779221  -0.37217077            0  -0.33866227 0.0017096756 
   40300    12.889037  -0.37243905            0  -0.33864259 0.00023202475 
   40400    12.854266  -0.37233054            0  -0.33862526 0.0035870202 
   40500    12.800049  -0.37220222            0   -0.3386391  0.003299474 
   40600    12.825432  -0.37228411            0  -0.33865443 0.0012350733 
   40700    12.836493  -0.37223375            0  -0.33857507 0.0016421616 
   40800     12.83423   -0.3722461            0  -0.33859335 0.0037034063 
   40900    12.941661   -0.3725018            0  -0.33856736 0.0030550556 
   41000    12.961917  -0.37262438            0  -0.33863683 0.0028835414 
   41100     13.08734  -0.37292346            0  -0.33860703 0.0029373771 
   41200    13.149892  -0.37305906            0  -0.33857861 0.0038657802 
   41300    13.145409  -0.37307589            0   -0.3386072 0.0042640449 
   41400    13.164533  -0.37312729            0  -0.33860845 -0.00075172636 
   41500    12.884663   -0.3723684            0  -0.33858341 0.0037748035 
   41600     12.97982  -0.37255719            0  -0.33852269 -4.4279236e-05 
   41700    12.966041  -0.37258627            0   -0.3385879 0.0010938689 
   41800    12.933036  -0.37240635            0  -0.33849452 0.0033301472 
   41900    13.077849  -0.37280205            0  -0.33851051 -0.00016104053 
   42000    12.969384  -0.37256718            0  -0.33856005 0.0038063335 
   42100    13.050892  -0.37276734            0  -0.33854648 0.0010172655 
   42200    13.087684  -0.37288316            0  -0.33856583  0.001864077 
   42300    13.270475  -0.37339636            0  -0.33859974  0.002465671 
   42400    13.249797  -0.37337737            0  -0.33863497 0.0057656513 
   42500    13.255587  -0.37337524            0  -0.33861765 0.00086076964 
   42600    13.131184  -0.37302366            0  -0.33859227 0.0014225935 
   42700    13.244463  -0.37328964            0  -0.33856121 0.0017726586 
   42800    13.249597  -0.37330635            0  -0.33856447 0.0051948249 
   42900    13.269713  -0.37335068            0  -0.33855604 0.0033770283 
   43000    13.163973  -0.37310041            0  -0.33858304 0.0062799763 
   43100    13.243987  -0.37320923            0  -0.33848205 0.0054523317 
   43200    13.281046  -0.37333599            0  -0.33851165 0.0023986571 
   43300    13.278596  -0.37325414            0  -0.33843622 -0.0010523233 
   43400    13.218317  -0.37304333            0  -0.33838346 0.0028139832 
   43500    13.294497  -0.37320864            0  -0.33834902 0.0039861197 
   43600     13.25008  -0.37322676            0  -0.33848361 0.0033417806 
   43700    13.193454  -0.37296322            0  -0.33836855 0.0051466721 
   43800     13.13011  -0.37275404            0  -0.33832546 0.0036835876 
   43900    13.134446  -0.37281568            0  -0.33837574 0.0011610439 
   44000    13.157346   -0.3728446            0  -0.33834461 0.0024717228 
   44100    13.272494  -0.37309985            0  -0.33829793 0.0012233867 
   44200    13.224655  -0.37291942            0  -0.33824293 0.0033652357 
   44300    13.343223  -0.37322029            0  -0.33823291 0.00055267063 
   44400    13.185565  -0.37281587            0  -0.33824188 0.0037197511 
   44500    13.217106  -0.37282921            0  -0.33817252 0.00078894727 
   44600    13.123884  -0.37268058            0  -0.33826833 0.0045347935 
   44700    13.181095  -0.37280894            0  -0.33824668 0.0034696502 
   44800    13.113371   -0.3726966            0  -0.33831191 0.0016982591 
   44900    13.130996  -0.37279931            0  -0.33836841 0.0010026122 
   45000    13.048516  -0.37264947            0  -0.33843484 0.0021347552 
   45100    13.109412  -0.37281218            0  -0.33843788 -0.0016685532 
   45200    13.097966  -0.37281343            0  -0.33846914 0.00082440629 
   45300    13.135356  -0.37293335            0  -0.33849102 0.0039597985 
   45400    13.198524   -0.3730951            0  -0.33848713  0.002611399 
   45500    13.107684  -0.37283547            0   -0.3384657 0.0027425446 
   45600    13.152398  -0.37292755            0  -0.33844053 0.0018593097 
   45700    13.237369  -0.37309807            0  -0.33838825  0.001571128 
   45800    13.196182  -0.37290591            0  -0.33830408 0.0032949593 
   45900    13.033633  -0.37246499            0  -0.33828939 0.0057075528 
   46000    13.099443   -0.3726247            0  -0.33827654 0.0013870814 
   46100    13.081247  -0.37250389            0  -0.33820343 0.0011793218 
   46200    13.080052  -0.37252388            0  -0.33822656 0.0013209007 
   46300    13.101866   -0.3725776            0  -0.33822308 0.0042054958 
   46400    13.159028  -0.37283293            0  -0.33832853 0.0063197517 
   46500    13.321508  -0.37315399            0  -0.33822355 0.0011265309 
   46600    13.309428  -0.37315235            0  -0.33825358 0.00032624726 
   46700    13.206613  -0.37300129            0  -0.33837212 0.0038208799 
   46800    13.385372  -0.37340119            0  -0.33830329 0.00043150354 
   46900    13.257476  -0.37309732            0  -0.33833477 0.0028545204 
   47000    13.249808  -0.37311186            0  -0.33836943 0.0016102406 
   47100    13.312558  -0.37325466            0  -0.33834768 0.0023367789 
   47200    13.172191  -0.37305513            0  -0.33851621  0.006843775 
   47300    13.266355  -0.37315251            0  -0.33836669 0.0044787212 
   47400    13.326636  -0.37334702            0  -0.33840313 0.00063839392 
   47500    13.240745  -0.37308692            0  -0.33836825 0.0064717616 
   47600    13.355069  -0.37341083            0  -0.33839239 0.0048870754 
   47700    13.356801  -0.37348624            0  -0.33846326 0.0029448401 
   47800    13.300158  -0.37338009            0  -0.33850563 0.0016694086 
   47900    13.417865  -0.37366621            0  -0.33848311 -0.0022702537 
   48000    13.371159   -0.3735583            0  -0.33849767 0.00064698331 
   48100    13.407298  -0.37370418            0  -0.33854878 0.0030825343 
   48200    13.617476  -0.37427091            0   -0.3385644 0.00085194984 
   48300    13.673205  -0.37443384            0  -0.33858121 0.0021987946 
   48400    13.678204   -0.3744509            0  -0.33858516 0.0051168905 
   48500    13.657943  -0.37438557            0  -0.33857295 0.0035148054 
   48600    13.583874  -0.37418484            0  -0.33856644 0.0018586338 
   48700    13.579905  -0.37419241            0  -0.33858442 -0.00069993411 
   48800    13.436721  -0.37384178            0  -0.33860924 0.0036086321 
   48900    13.360958  -0.37360517            0  -0.33857128 0.0043605051 
   49000    13.439641  -0.37377073            0  -0.33853053 0.00027570082 
   49100     13.34675  -0.37351206            0  -0.33851543 0.0052441317 
   49200    13.448545   -0.3737568            0  -0.33849326 0.0015428048 
   49300     13.49709  -0.37390161            0  -0.33851077 0.0021324401 
   49400    13.513514  -0.37390646            0  -0.33847256 0.0050626199 
   49500    13.494332  -0.37385704            0  -0.33847343 0.0034614539 
   49600    13.558122  -0.37395214            0  -0.33840127 8.7352255e-05 
   49700    13.466604  -0.37372853            0  -0.33841763 0.0024835439 
   49800    13.573368  -0.37403294            0   -0.3384421 0.00041431124 
   49900    13.640848    -0.374329            0  -0.33856121 0.0017124885 
   50000     13.59945  -0.37412382            0  -0.33846459 0.0029966949 
   50100    13.521384  -0.37396051            0  -0.33850597 0.0016261788 
   50200    13.419766  -0.37365603            0  -0.33846795  0.001909802 
   50300    13.365643  -0.37346904            0  -0.33842287 0.0035475017 
   50400    13.502931  -0.37377331            0  -0.33836715 -0.00032924291 
   50500    13.352097  -0.37332572            0  -0.33831507 0.0055587095 
   50600    13.432842  -0.37368892            0  -0.33846655 0.0021360703 
   50700    13.458069  -0.37355867            0  -0.33827015 0.0020323138 
   50800    13.630038  -0.37404746            0  -0.33830801 0.0011016771 
   50900    13.534399  -0.37378268            0  -0.33829401 0.0058696659 
   51000    13.577178  -0.37384406            0  -0.33824323 0.0013066745 
   51100    13.326271  -0.37324858            0  -0.33830565 0.0043139881 
   51200    13.392221   -0.3733652            0  -0.33824933 0.00022061158 
   51300    13.310857  -0.37320665            0  -0.33830414 0.00029844174 
   51400    13.266233  -0.37309437            0  -0.33830886 0.0028928721 
   51500     13.39838  -0.37352808            0  -0.33839607 -0.00037399936 
   51600    13.347822  -0.37335071            0  -0.33835127 0.0042313457 
   51700    13.463248  -0.37364235            0  -0.33834025 0.0013746276 
   51800    13.455156  -0.37371076            0  -0.33842988 0.0024583174 
   51900    13.465056  -0.37374027            0  -0.33843343 0.0036049177 
   52000    13.430675  -0.37361238            0  -0.33839569 0.0039938644 
   52100    13.395558  -0.37350616            0  -0.33838155 0.00067812423 
   52200     13.38031  -0.37343915            0  -0.33835452 0.0021665622 
   52300    13.327588  -0.37330255            0  -0.33835616 0.0022780427 
   52400    13.328513  -0.37331347            0  -0.33836466 0.00024880918 
   52500    13.280646  -0.37314694            0  -0.33832364 0.0041270531 
   52600    13.374154  -0.37331113            0  -0.33824264 0.0028417923 
   52700    13.388925  -0.37326917            0  -0.33816195 0.0026469927 
   52800      13.4985  -0.37370282            0  -0.33830828 0.0002023603 
   52900    13.635055  -0.37405808            0  -0.33830548 0.00028281544 
   53000    13.507248  -0.37369211            0  -0.33827464 0.0086362224 
   53100    13.735787  -0.37437189            0  -0.33835516 -0.001280131 
   53200    13.636745  -0.37413263            0   -0.3383756 0.00019908701 
   53300    13.682443  -0.37426966            0   -0.3383928 0.0018285183 
   53400    13.578881  -0.37401083            0  -0.33840553 0.0037667632 
   53500    13.553309  -0.37405984            0  -0.33852159 0.00071137586 
   53600     13.61227   -0.3740578            0  -0.33836494 0.0019878564 
   53700    13.740877  -0.37441065            0  -0.33838058 0.0056189474 
   53800    13.730495  -0.37442549            0  -0.33842264 0.0060733637 
   53900     13.65694  -0.37427017            0  -0.33846018 0.00084261442 
   54000      13.5662  -0.37403281            0  -0.33846075 0.0010394403 
   54100    13.554784  -0.37394386            0  -0.33840174 0.0055575309 
   54200    13.714042  -0.37440474            0  -0.33844503 0.0036343565 
   54300    13.741678   -0.3745135            0  -0.33848132 0.00064139009 
   54400    13.654694  -0.37432154            0  -0.33851745 0.0015394508 
   54500    13.532883  -0.37394816            0  -0.33846347 0.0059060901 
   54600    13.636462  -0.37423274            0  -0.33847646 0.0013516663 
   54700    13.483126  -0.37377652            0   -0.3384223 0.0025622695 
   54800    13.534421  -0.37386439            0  -0.33837567 -0.00018952707 
   54900     13.46001  -0.37362941            0   -0.3383358 0.0041029885 
   55000    13.579796  -0.37394049            0  -0.33833278 0.0038418296 
   55100    13.625193  -0.37393225            0  -0.33820551 0.0031044587 
   55200    13.706331  -0.37430904            0  -0.33836955 -0.00052185537 
   55300    13.567267  -0.37389476            0  -0.33831991  0.004485913 
   55400    13.540897  -0.37386113            0  -0.33835542 0.0016946751 
   55500    13.506563  -0.37380137            0  -0.33838569 -0.00048143465 
   55600    13.412131  -0.37360311            0  -0.33843504 0.0039571555 
   55700    13.397392    -0.373613            0  -0.33848358 0.0032852172 
   55800    13.446341  -0.37371595            0  -0.33845818 0.0035579079 
   55900    13.493154  -0.37385749            0  -0.33847697 0.0034717431 
   56000    13.471899  -0.37379828            0  -0.33847349 0.0025690058 
   56100    13.426458  -0.37368101            0  -0.33847537 0.0029022981 
   56200    13.573561  -0.37408111            0  -0.33848976 -0.00014621486 
   56300    13.587712  -0.37410089            0  -0.33847244 0.0015127562 
   56400     13.70935   -0.3744243            0   -0.3384769 0.0024778989 
   56500    13.617535  -0.37414921            0  -0.33844255   0.01040388 
   56600    13.753404  -0.37444485            0  -0.33838193  0.003491236 
   56700    13.821941   -0.3746622            0  -0.33841956 -0.00065117667 
   56800    13.748277  -0.37439046            0  -0.33834098 0.0041093083 
   56900    13.851194  -0.37462444            0   -0.3383051 0.0032438784 
   57000    14.015434  -0.37500303            0  -0.33825304 -0.00085268732 
   57100     13.96875  -0.37480529            0  -0.33817771 0.0018287981 
   57200    13.885681  -0.37445555            0  -0.33804579 0.0043271249 
   57300     13.90778  -0.37459061            0  -0.33812289 0.0010418062 
   57400    13.907835  -0.37439963            0  -0.33793177 0.0042385542 
   57500    14.057841  -0.37488197            0  -0.33802079 0.0018301446 
   57600    13.907997  -0.37467765            0  -0.33820937 0.0045829158 
   57700    14.126569  -0.37517639            0  -0.33813499 -0.00053622168 
   57800    14.020798  -0.37487692            0  -0.33811286 0.0046968753 
   57900    14.121963   -0.3751955            0  -0.33816618 0.0020229599 
   58000    14.109129  -0.37516979            0  -0.33817412 0.0023172753 
   58100    14.108872  -0.37524849            0  -0.33825349 0.0042856623 
   58200    14.177823  -0.37534602            0  -0.33817023 0.0039529246 
   58300    14.147681  -0.37536975            0  -0.33827299 0.0032661869 
   58400    13.946105  -0.37471833            0  -0.33815013 0.0031994296 
   58500    13.851874  -0.37434862            0   -0.3380275 0.0024876586 
   58600    13.940193  -0.37471981            0  -0.33816711 0.0004893327 
   58700    13.995744  -0.37483789            0  -0.33813953 0.0020855565 
   58800    14.084127  -0.37502561            0   -0.3380955 0.0041013562 
   58900     14.18706  -0.37538964            0  -0.33818963 0.0036304125 
   59000    14.206248   -0.3754459            0  -0.33819557 0.0027972642 
   59100    14.158449  -0.37531782            0  -0.33819283 0.0047437032 
   59200    14.349131  -0.37581242            0  -0.33818744 0.0023796702 
   59300    14.314682  -0.37581591            0  -0.33828125  0.004718369 
   59400    14.356677  -0.37585671            0  -0.33821194 0.0018245954 
   59500    14.238397  -0.37549155            0  -0.33815693 0.0012525094 
   59600    14.218315  -0.37556364            0  -0.33828167 -0.00018291371 
   59700    14.292516  -0.37571493            0   -0.3382384 0.0027932897 
   59800    14.439133  -0.37611953            0  -0.33825855 0.0060521193 
   59900    14.550367  -0.37644164            0    -0.338289 0.0045232981 
   60000    14.672483  -0.37683544            0   -0.3383626 0.0016617627 
   60100    14.722951  -0.37693992            0  -0.33833474  0.004279386 
   60200    14.831564  -0.37725547            0   -0.3383655 0.0050416472 
   60300    14.707064  -0.37692421            0  -0.33836068 0.0071666742 
   60400    14.763102  -0.37700366            0   -0.3382932  0.001576928 
   60500    14.561061  -0.37643304            0  -0.33825235 0.0045925744 
   60600    14.518678  -0.37630457            0  -0.33823502 0.0028682559 
   60700    14.268861  -0.37566613            0  -0.33825163  0.003977378 
   60800    14.269711  -0.37564754            0  -0.33823081 0.00038406434 
   60900    14.214984    -0.375416            0  -0.33814277 0.0014688422 
   61000    14.286559  -0.37568996            0  -0.33822905 0.0015385797 
   61100    14.391154  -0.37597584            0  -0.33824066 0.0009873516 
   61200    14.429147  -0.37604152            0  -0.33820673 0.0047471952 
   61300    14.340193  -0.37586904            0  -0.33826749 0.0065447711 
   61400     14.22341  -0.37552443            0   -0.3382291 0.0030416114 
   61500    14.178001  -0.37528895            0  -0.33811269 0.0037264095 
   61600    14.265645  -0.37544888            0  -0.33804281 0.0021811794 
   61700    14.248269  -0.37561843            0  -0.33825792 0.0010490743 
   61800    14.218096  -0.37525636            0  -0.33797497 0.0043009182 
   61900    14.196701  -0.37541248            0  -0.33818719 0.0037119331 
   62000    14.191132  -0.37533347            0  -0.33812278 0.0014859252 
   62100    14.193013  -0.37541308            0  -0.33819746 -0.00083242346 
   62200    14.118399   -0.3752459            0  -0.33822592 0.0033239581 
   62300    14.267699  -0.37563489            0  -0.33822344 0.0033383832 
   62400    14.505797  -0.37631137            0  -0.33827559 0.00065579132 
   62500    14.438271  -0.37613485            0  -0.33827613 0.0052377423 
   62600    14.349732   -0.3759328            0  -0.33830624 0.0045960826 
   62700    14.560434  -0.37651096            0  -0.33833192 0.00048966306 
   62800    14.451397   -0.3761986            0  -0.33830547 0.0056501183 
   62900    14.413867  -0.37603394            0  -0.33823921 0.0015059137 
   63000      14.3876  -0.37597466            0   -0.3382488 0.00079245825 
   63100    14.436494   -0.3761176            0  -0.33826354 0.0038641604 
   63200    14.657501   -0.3765249            0  -0.33809134 0.0015777615 
   63300    14.699787  -0.37678878            0  -0.33824434 0.0038022957 
   63400    14.746344  -0.37700738            0  -0.33834086 0.0043411576 
   63500    14.668087  -0.37675459            0  -0.33829327 0.0036837766 
   63600    14.824682  -0.37714414            0  -0.33827221 0.0018144684 
   63700    14.709646  -0.37692052            0  -0.33835023  0.011184607 
   63800    14.829028  -0.37728037            0  -0.33839705 0.0030878671 
   63900    14.747644  -0.37698562            0  -0.33831569 0.00064161238 
   64000     14.65136  -0.37673852            0  -0.33832106 0.0028881086 
   64100    14.575955  -0.37657777            0  -0.33835804 0.0049462622 
   64200    14.638111  -0.37668166            0  -0.33829894 0.0033957033 
   64300    14.551172  -0.37640977            0  -0.33825501 0.0051349145 
   64400     14.54143  -0.37629322            0  -0.33816401  0.003918403 
   64500    14.591446   -0.3765072            0  -0.33824685 0.0002462188 
   64600     14.69291  -0.37679854            0  -0.33827214  0.003188086 
   64700    14.734035  -0.37675848            0  -0.33812424  0.005751675 
   64800    14.779112  -0.37695723            0  -0.33820479 -0.0013076553 
   64900     14.67242  -0.37671451            0  -0.33824183 -0.00010698315 
   65000    14.644071  -0.37660701            0  -0.33820867 0.0013742505 
   65100    14.736984  -0.37683816            0  -0.33819618 0.0023837309 
   65200    14.790767  -0.37712444            0  -0.33834144 0.0053039447 
   65300    14.762213  -0.37693339            0  -0.33822526  0.008345577 
   65400    14.931508  -0.37743923            0  -0.33828719 6.6733962e-05 
   65500    14.720144  -0.37687972            0   -0.3382819 0.0031800294 
   65600    14.784568  -0.37696877            0  -0.33820202 0.0016549912 
   65700    14.742291  -0.37684105            0  -0.33818516 0.0012792913 
   65800    14.738379  -0.37687132            0  -0.33822569 0.0031609711 
   65900    14.628524  -0.37651868            0  -0.33816109 0.0081058348 
   66000    14.627728  -0.37645331            0  -0.33809781 0.0055424888 
   66100     14.71198  -0.37669708            0  -0.33812067 0.0012146139 
   66200    14.797779  -0.37687005            0  -0.33806866 0.0010764219 
   66300      14.7209  -0.37671846            0  -0.33811866 0.0055271537 
   66400    14.856337  -0.37699906            0  -0.33804413 0.0046215611 
   66500    14.834427  -0.37698565            0  -0.33808817 0.0015054676 
   66600    14.505246  -0.37628783            0   -0.3382535 0.0061308716 
   66700    14.641162   -0.3765445            0  -0.33815378 5.2436989e-05 
   66800      14.5675  -0.37637933            0  -0.33818176 -0.00077007405 
   66900    14.580163  -0.37636813            0  -0.33813736 0.0020472784 
   67000    14.678939  -0.37656582            0  -0.33807604  0.006514988 
   67100    14.827629  -0.37690462            0  -0.33802497 0.0066692679 
   67200    14.873659  -0.37708875            0   -0.3380884 0.0055657118 
   67300    15.040629  -0.37738896            0  -0.33795079 0.0034092674 
   67400    15.041354   -0.3774169            0  -0.33797684 0.0020763242 
   67500    14.892518  -0.37713051            0  -0.33808071 0.0048398308 
   67600    14.942319  -0.37719316            0  -0.33801277 0.0035302727 
   67700    14.791657  -0.37678807            0  -0.33800274 0.0060503365 
   67800    14.808679  -0.37687869            0  -0.33804873 0.0020738834 
   67900    14.627528  -0.37661368            0  -0.33825871 0.00017011144 
   68000    14.360108   -0.3757976            0  -0.33814383 0.0043108503 
   68100    14.441854  -0.37606583            0  -0.33819772 -0.0013732483 
   68200    14.459897   -0.3760777            0  -0.33816228  0.001309654 
   68300    14.510809  -0.37623006            0  -0.33818114 0.0017619772 
   68400    14.546083  -0.37630407            0  -0.33816266 0.0015323567 
   68500    14.481699  -0.37611712            0  -0.33814453  0.001157867 
   68600     14.42815  -0.37605577            0   -0.3382236 -0.00032539686 
   68700    14.443651  -0.37607999            0  -0.33820717 0.0032317211 
   68800    14.516775  -0.37623227            0  -0.33816771 0.0060155488 
   68900    14.472532  -0.37616136            0   -0.3382128 0.0062266621 
   69000    14.568497  -0.37631365            0  -0.33811347 0.0002977837 
   69100    14.310097  -0.37585639            0  -0.33833376 0.0055562283 
   69200    14.326208  -0.37572916            0  -0.33816429 0.0049594451 
   69300    14.261616  -0.37555865            0  -0.33816314 0.0020642412 
   69400    14.357625    -0.375866            0  -0.33821875 -0.0037160732 
   69500    14.312223  -0.37572223            0  -0.33819402 0.0042847388 
   69600    14.573293  -0.37640648            0  -0.33819372 0.0028222913 
   69700    14.724134    -0.376725            0  -0.33811671 0.0036229911 
   69800    14.859139  -0.37706093            0  -0.33809865 0.0042671947 
   69900    14.984893  -0.37730064            0  -0.33800862 0.0020970536 
   70000    14.808741  -0.37701695            0  -0.33818682 0.0033964268 
   70100    14.723524  -0.37671944            0  -0.33811276 0.0049814596 
   70200    14.839877  -0.37704011            0  -0.33812834  0.002816979 
   70300    14.746613  -0.37687621            0  -0.33820898 0.0047936118 
   70400    14.747408  -0.37689856            0  -0.33822925 0.0032723313 
   70500    14.529073  -0.37628737            0  -0.33819056 0.0058824011 
   70600     14.51488  -0.37623726            0  -0.33817766 0.00081010861 
   70700    14.487986  -0.37607461            0  -0.33808553   0.00100122 
   70800    14.495024  -0.37594405            0  -0.33793652 0.0053505021 
   70900    14.444497  -0.37611918            0  -0.33824414 0.0041518749 
   71000    14.413588  -0.37583866            0  -0.33804467 0.0032027956 
   71100    14.551071  -0.37617921            0  -0.33802472 -1.4963516e-05 
   71200    14.366847   -0.3758732            0  -0.33820177 0.0076761484 
   71300    14.547676   -0.3763153            0  -0.33816971 0.0030887114 
   71400    14.573043  -0.37648738            0  -0.33827528 0.0026342929 
   71500    14.661113  -0.37679316            0  -0.33835013 0.0020980069 
   71600    14.750439    -0.377062            0  -0.33838474 -0.00018771521 
   71700     14.64547  -0.37677245            0  -0.33837043 0.0028239556 
   71800    14.768553  -0.37704666            0  -0.33832191 -7.9128221e-05 
   71900    14.575826  -0.37648454            0  -0.33826514 0.0051084523 
   72000     14.67614  -0.37680096            0  -0.33831852 0.00072523653 
   72100    14.813826  -0.37704261            0  -0.33819915 0.0041154246 
   72200    14.869964  -0.37723134            0  -0.33824068  0.007611244 
   72300    14.829369  -0.37708296            0  -0.33819874 0.0060989789 
   72400    14.972924     -0.37748            0  -0.33821936 0.0013190212 
   72500    14.885807  -0.37714791            0  -0.33811571  0.005098143 
   72600    14.922426  -0.37723348            0  -0.33810526 0.0043112297 
   72700    14.936152  -0.37740865            0  -0.33824444 0.0013859045 
   72800    14.950728  -0.37731944            0    -0.338117 0.0037802385 
   72900    14.895512  -0.37720702            0  -0.33814937 0.0039888356 
   73000    14.785784  -0.37692222            0  -0.33815228 0.0013725854 
   73100    14.785499  -0.37700924            0  -0.33824005 0.00081624717 
   73200    14.856355  -0.37708968            0   -0.3381347 0.0020708999 
   73300     14.86594  -0.37716101            0   -0.3381809 0.0027944688 
   73400    14.825169  -0.37696353            0  -0.33809032 0.0067705467 
   73500    15.014997  -0.37750551            0  -0.33813456 0.0013474753 
   73600    14.948343  -0.37723991            0  -0.33804373 0.0040894869 
   73700    14.934387  -0.37717382            0  -0.33801424 0.0052414525 
   73800    14.833334  -0.37695357            0  -0.33805895 0.0088212135 
   73900    14.858314  -0.37711873            0  -0.33815861 0.00016932335 
   74000     14.72189  -0.37684067            0  -0.33823828 0.0020087485 
   74100    14.769567  -0.37694515            0  -0.33821774 0.0036643294 
   74200    14.778931  -0.37699657            0   -0.3382446 0.0063645072 
   74300    14.762805  -0.37701642            0  -0.33830674 0.0031823286 
   74400    14.723093   -0.3768672            0  -0.33826165 0.0010584755 
   74500    14.556256  -0.37643654            0  -0.33826845 0.0028545515 
   74600    14.566237   -0.3765182            0  -0.33832395 -6.2682001e-05 
   74700    14.595805  -0.37659286            0  -0.33832107 0.00058488829 
   74800    14.753529  -0.37699598            0  -0.33831062 0.0033900444 
   74900    14.587396  -0.37660231            0  -0.33835257 0.0075271249 
   75000    14.627688  -0.37671573            0  -0.33836034 0.00033584462 
   75100    14.653849  -0.37674681            0  -0.33832282 0.0010782493 
   75200     14.57525  -0.37658795            0  -0.33837006 0.0036074855 
   75300    14.658792  -0.37670506            0  -0.33826812  0.002080134 
   75400    14.741607  -0.37692106            0  -0.33826696 0.0026729394 
   75500      14.7455  -0.37683835            0  -0.33817405 0.0035491108 
   75600    14.839534  -0.37702763            0  -0.33811676   0.00160398 
   75700    14.788442   -0.3769673            0  -0.33819039 0.0049764602 
   75800    14.831655   -0.3772339            0  -0.33834369 0.0013707939 
   75900    14.940071  -0.37742886            0  -0.33825437 -0.00071447797 
   76000    14.857903  -0.37727908            0  -0.33832004 0.0034641352 
   76100    14.809169  -0.37719654            0  -0.33836529 0.0034307105 
   76200    14.896582  -0.37744193            0  -0.33838147 0.00022114834 
   76300    14.844174  -0.37729283            0  -0.33836979 0.0036776858 
   76400     14.97169   -0.3775676            0   -0.3383102 0.00081806486 
   76500    14.835893  -0.37711777            0  -0.33821645 0.0071391816 
   76600    14.907091  -0.37729339            0  -0.33820538 0.0054377671 
   76700     14.96723   -0.3773777            0    -0.338132 0.0031610712 
   76800    15.004957   -0.3773826            0  -0.33803797 0.0025333471 
   76900    14.798215  -0.37689669            0  -0.33809416 0.0052742694 
   77000    14.701711  -0.37663601            0  -0.33808653  0.002546704 
   77100    14.717362  -0.37678297            0  -0.33819244 0.00048614099 
   77200    14.937491  -0.37722926            0  -0.33806154 -0.0019735213 
   77300    15.012815  -0.37748276            0  -0.33811753 0.0029934329 
   77400    15.124247  -0.37781105            0  -0.33815363  0.005310103 
   77500    15.122716  -0.37772421            0   -0.3380708 0.0042444037 
   77600    15.083838  -0.37756641            0  -0.33801494 0.00017319466 
   77700    14.975712   -0.3772224            0  -0.33795445 0.0039723745 
   77800    14.864209  -0.37724605            0  -0.33827048 0.0059973188 
   77900    14.981422  -0.37718885            0  -0.33790593 0.0021747969 
   78000    15.008756   -0.3773193            0  -0.33796471 0.0031363251 
   78100    14.991698  -0.37738032            0  -0.33807046 0.0064759462 
   78200    15.110045  -0.37788224            0  -0.33826206 0.00065896504 
   78300    14.842107  -0.37703625            0  -0.33811863 0.0065878205 
   78400    14.955008   -0.3774318            0  -0.33821814 0.0010421124 
   78500    14.962843  -0.37761195            0  -0.33837775 0.0011249184 
   78600    14.828712  -0.37715709            0   -0.3382746  0.006135768 
   78700    14.941767  -0.37737489            0  -0.33819596 0.0019393919 
   78800    14.933555  -0.37742352            0  -0.33826612 0.0045901529 
   78900    14.955612  -0.37747627            0  -0.33826103 0.0027644403 
   79000    14.887617  -0.37727838            0  -0.33824143 0.00063317288 
   79100    14.909365  -0.37733048            0   -0.3382365 0.0011247499 
   79200    14.884262  -0.37736804            0  -0.33833989 0.0017030417 
   79300    14.774071  -0.37716927            0  -0.33843005 0.0028404293 
   79400    14.719652  -0.37703573            0   -0.3384392 0.0023344457 
   79500    14.757377  -0.37722583            0  -0.33853038 0.00012097657 
   79600    14.763588  -0.37720848            0  -0.33849675 0.0031649789 
   79700    14.878294  -0.37749842            0  -0.33848592 0.0029350106 
   79800    14.943653  -0.37766786            0  -0.33848398 0.0004921504 
   79900    14.674123  -0.37697126            0  -0.33849411 0.0061560912 
   80000    14.905758  -0.37749119            0  -0.33840667 0.0013822293 
   80100    14.920084  -0.37760385            0  -0.33848176 0.0010455927 
   80200    14.939817  -0.37750054            0  -0.33832672 0.0023219081 
   80300    15.099734  -0.37792533            0  -0.33833219 0.0017051202 
   80400    15.236559  -0.37836723            0  -0.33841532  0.002831146 
   80500    15.131012  -0.37802391            0  -0.33834875 0.0073387571 
   80600    15.214313  -0.37833994            0  -0.33844636 0.0010942053 
   80700    15.435312  -0.37887235            0  -0.33839928 -0.00053152396 
   80800    15.256364  -0.37845432            0  -0.33845047 0.0062413677 
   80900     15.27571  -0.37848764            0  -0.33843306 0.0014671997 
   81000     15.21186  -0.37827489            0  -0.33838774 0.0034526888 
   81100    15.235652  -0.37832323            0  -0.33837369 0.0027777421 
   81200    15.161365   -0.3781558            0  -0.33840105 0.0036276207 
   81300    15.182761  -0.37818819            0  -0.33837734 0.00062400618 
   81400    15.179067  -0.37811549            0  -0.33831433 0.0010506709 
   81500    15.207496  -0.37825353            0  -0.33837782 0.0019541131 
   81600    15.148736  -0.37821229            0  -0.33849066 0.0049783771 
   81700    15.196105  -0.37832007            0  -0.33847423 0.00096535906 
   81800    15.105703  -0.37813706            0  -0.33852827 0.0058851652 
   81900    15.122586  -0.37823773            0  -0.33858467 0.0046600786 
   82000    15.092876  -0.37814099            0  -0.33856582 -3.1283838e-05 
   82100      15.1587  -0.37834612            0  -0.33859836 0.00047548269 
   82200    15.150994   -0.3782435            0  -0.33851595  0.006920762 
   82300    15.178285  -0.37832768            0  -0.33852856 0.0072223559 
   82400    15.242988  -0.37846003            0  -0.33849125 0.00027004018 
   82500    15.200796  -0.37825894            0   -0.3384008 -0.0014948558 
   82600    15.119622  -0.37801788            0  -0.33837259 0.0060230505 
   82700    15.200474  -0.37817215            0  -0.33831486 0.0052951678 
   82800    15.200178  -0.37829651            0  -0.33843999 0.0030096119 
   82900      15.2356  -0.37832503            0  -0.33837563 0.0049444645 
   83000    15.339237  -0.37852831            0  -0.33830716 0.0025149297 
   83100    15.204761  -0.37822736            0  -0.33835882 0.0056853007 
   83200    15.308502   -0.3784863            0  -0.33834574 -0.00040675008 
   83300    15.325297  -0.37848498            0  -0.33830038 0.0018112267 
   83400    15.227854  -0.37841152            0  -0.33848243 0.0068318327 
   83500    15.192566  -0.37818026            0   -0.3383437  0.002451317 
   83600    15.109053  -0.37787347            0  -0.33825588 0.0016554713 
   83700    15.058912  -0.37772206            0  -0.33823596 0.0053980371 
   83800    15.238317  -0.37820728            0  -0.33825076 0.0012253624 
   83900    15.183915  -0.37806603            0  -0.33825216 0.0036423046 
   84000    15.417329  -0.37842979            0  -0.33800388 0.0015172117 
   84100    15.359217  -0.37824766            0  -0.33797412 0.0071865563 
   84200    15.425468   -0.3784802            0  -0.33803295  0.005423227 
   84300    15.505296  -0.37853737            0   -0.3378808  0.003160367 
   84400    15.363195  -0.37836778            0  -0.33808381 0.00081472187 
   84500    15.262652  -0.37797875            0  -0.33795841 0.0031710441 
   84600    15.294414  -0.37820227            0  -0.33809865  0.001893295 
   84700    15.198434  -0.37804411            0  -0.33819216 0.0028231408 
   84800    15.283932  -0.37829029            0  -0.33821416 0.00060892887 
   84900    15.269091  -0.37833345            0  -0.33829623 0.0041346995 
   85000    15.288736  -0.37843373            0    -0.338345 0.0040385316 
   85100    15.386679  -0.37871243            0  -0.33836689 0.00044704135 
   85200    15.406178  -0.37882369            0  -0.33842702 0.0025704148 
   85300    15.403011  -0.37875956            0  -0.33837119   0.00520909 
   85400     15.39505  -0.37872266            0  -0.33835517 0.0054366527 
   85500    15.397929  -0.37872773            0  -0.33835268 0.0050413639 
   85600    15.280471  -0.37836331            0  -0.33829626 0.0026738442 
   85700    15.301403  -0.37840355            0  -0.33828161 0.0013841619 
   85800    15.335908  -0.37848114            0  -0.33826872 0.0031981104 
   85900    15.409294   -0.3785856            0  -0.33818075 0.0044586447 
   86000    15.414511  -0.37868988            0  -0.33827135 0.0033848433 
   86100    15.333311  -0.37844858            0  -0.33824297 0.0020188409 
   86200    15.153261  -0.37804848            0  -0.33831498 0.0046708611 
   86300    15.158851  -0.37812185            0  -0.33837369 0.0019489638 
   86400    15.112308  -0.37801474            0  -0.33838862 0.0041900852 
   86500    15.019051  -0.37780717            0  -0.33842559 0.0040804909 
   86600    15.045062  -0.37786622            0  -0.33841643 0.0010181093 
   86700    14.953131  -0.37767129            0  -0.33846256 0.0066447537 
   86800    15.075656  -0.37801782            0  -0.33848781 0.0030987087 
   86900    15.027494  -0.37784737            0  -0.33844365 0.0021233572 
   87000    15.071682  -0.37792746            0  -0.33840787 0.00060452099 
   87100    15.147026  -0.37807278            0  -0.33835562  0.002012269 
   87200    15.288676   -0.3783717            0  -0.33828313 0.0022552963 
   87300    15.375751   -0.3785371            0   -0.3382202  0.002330875 
   87400    15.263321   -0.3781935            0  -0.33817142 0.0039827809 
   87500    15.202095  -0.37809806            0  -0.33823651 0.0049455751 
   87600    15.201916  -0.37798286            0  -0.33812179 0.0058023892 
   87700    15.242671  -0.37815251            0  -0.33818457 0.0035051869 
   87800    15.365287  -0.37837156            0  -0.33808211 0.0012484828 
   87900    15.423643  -0.37842494            0  -0.33798247 0.0034703094 
   88000    15.467246  -0.37856406            0  -0.33800726 0.0055262781 
   88100    15.509787  -0.37887142            0  -0.33820307 0.0012719638 
   88200    15.349646  -0.37848947            0  -0.33824103 0.0053464647 
   88300    15.217743  -0.37827323            0  -0.33837066  0.002337426 
   88400    15.162411  -0.37820733            0  -0.33844984 -0.0015477724 
   88500    15.094271  -0.37806205            0  -0.33848323 0.00022970291 
   88600    15.125946  -0.37813697            0  -0.33847509 0.0047152221 
   88700    15.240855  -0.37840989            0  -0.33844671 0.0027796405 
   88800    15.341579  -0.37864466            0  -0.33841737 0.0031169933 
   88900    15.411375  -0.37876875            0  -0.33835845 0.0047504535 
   89000    15.315209  -0.37848248            0  -0.33832434 0.0028387978 
   89100    15.383507  -0.37866285            0  -0.33832563 -0.00092798082 
   89200    15.414578  -0.37862787            0  -0.33820917 0.0037114692 
   89300    15.426003  -0.37888233            0  -0.33843367 0.0080204627 
   89400    15.467429  -0.37885889            0  -0.33830161 0.0055365093 
   89500    15.375152  -0.37874374            0  -0.33842842 0.0051541038 
   89600    15.330657   -0.3786322            0  -0.33843355 0.0043044915 
   89700    15.411363  -0.37876891            0  -0.33835864 0.0026523248 
   89800    15.539225  -0.37900347            0  -0.33825793 0.0014025358 
   89900    15.597229  -0.37906334            0  -0.33816571 0.0038216916 
   90000    15.681379  -0.37942384            0  -0.33830556 0.0050999626 
   90100    15.683551  -0.37922866            0  -0.33810468 0.0059724036 
   90200    15.687132  -0.37928714            0  -0.33815377 -0.00087635275 
   90300    15.314346  -0.37849701            0  -0.33834113 0.0049205713 
   90400    15.397537  -0.37879755            0  -0.33842354 -0.00039451901 
   90500    15.278025  -0.37852655            0   -0.3384659 0.0040488511 
   90600    15.335438  -0.37868828            0  -0.33847709 -0.00025331634 
   90700    15.200745  -0.37836231            0   -0.3385043 0.0024865164 
   90800    15.126987  -0.37818543            0  -0.33852082 0.0047357262 
   90900    15.338874  -0.37873894            0  -0.33851875 -0.0022444395 
   91000    15.192579  -0.37834864            0  -0.33851204 0.0062830275 
   91100    15.183614  -0.37830674            0  -0.33849365 0.0053139992 
   91200    15.254135  -0.37843683            0  -0.33843883 0.0009263271 
   91300    15.294657   -0.3785356            0  -0.33843135 0.0020132043 
   91400    15.267108  -0.37840554            0  -0.33837353 0.0035789907 
   91500    15.314096  -0.37843382            0   -0.3382786 0.0027009601 
   91600    15.426376  -0.37868817            0  -0.33823853 0.0021672223 
   91700     15.27937  -0.37824566            0  -0.33818149 0.0065035095 
   91800    15.145978  -0.37797755            0  -0.33826314 0.0048799263 
   91900    15.082018  -0.37769929            0  -0.33815259 0.0015323505 
   92000    15.171098  -0.37798233            0  -0.33820207 0.00053527341 
   92100    15.186526  -0.37802572            0    -0.338205 0.0033884363 
   92200    15.402506   -0.3785252            0  -0.33813815 0.0036453595 
   92300    15.460893  -0.37871505            0   -0.3381749 0.0058239239 
   92400    15.503499  -0.37871301            0  -0.33806115 0.0008802271 
   92500    15.387739  -0.37842667            0  -0.33807835 0.00076750708 
   92600     15.29427  -0.37824295            0  -0.33813971  0.005952936 
   92700    15.610675  -0.37890029            0   -0.3379674 0.0001648808 
   92800    15.593788  -0.37886304            0  -0.33797444 0.0066915101 
   92900    15.732332   -0.3791574            0  -0.33790552 0.0025023084 
   93000    15.665723  -0.37889914            0  -0.33782191 0.00049511637 
   93100     15.58656   -0.3787202            0  -0.33785055 0.0049025197 
   93200    15.553226  -0.37874955            0   -0.3379673 0.0064181981 
   93300    15.600639  -0.37890184            0  -0.33799527 0.0018383795 
   93400    15.580182   -0.3788178            0  -0.33796487 0.0029111915 
   93500    15.509834  -0.37870626            0  -0.33803779 0.0046450416 
   93600    15.240314  -0.37813363            0  -0.33817187 0.0045563416 
   93700    15.293169   -0.3782732            0  -0.33817284 0.0010309874 
   93800    15.396357  -0.37864981            0  -0.33827889 0.0022923312 
   93900    15.423887  -0.37870269            0  -0.33825958 0.0066076157 
   94000    15.365014  -0.37866724            0   -0.3383785 0.0045799874 
   94100    15.390158   -0.3787154            0  -0.33836073  0.000785875 
   94200    15.305767  -0.37852396            0  -0.33839058 0.00080477072 
   94300    15.235343  -0.37835113            0   -0.3384024 0.0046974708 
   94400    15.361886  -0.37869335            0  -0.33841282 0.0044583585 
   94500    15.403888   -0.3788586            0  -0.33846793 0.00063110038 
   94600    15.450236  -0.37887384            0  -0.33836164 0.0014512405 
   94700    15.550498  -0.37908294            0  -0.33830785  0.004925859 
   94800    15.486451  -0.37897092            0  -0.33836376 0.0054751364 
   94900      15.5767  -0.37919868            0  -0.33835488 0.0011330692 
   95000    15.498819  -0.37897753            0  -0.33833794 0.0037124797 
   95100    15.642944  -0.37935974            0  -0.33834224 0.0021341952 
   95200    15.690108  -0.37949897            0   -0.3383578 0.0046552974 
   95300    15.687879  -0.37938397            0  -0.33824864 0.0086610972 
   95400    15.597812  -0.37923306            0   -0.3383339 0.0083968188 
   95500    15.795676  -0.37958598            0    -0.338168 -0.00066683243 
   95600    15.661826  -0.37910688            0  -0.33803987 0.0046008314 
   95700    15.833187  -0.37972279            0  -0.33820646 0.0026943898 
   95800    15.891466  -0.37971985            0   -0.3380507 0.0084150963 
   95900    15.958974  -0.38005944            0  -0.33821327 0.0054168388 
   96000     15.83435  -0.37975829            0   -0.3382389 0.0019737665 
   96100     15.61966  -0.37923487            0  -0.33827843 0.0036016098 
   96200    15.683641   -0.3794652            0  -0.33834098 0.00041681161 
   96300    15.697455  -0.37954374            0   -0.3383833 0.0036838377 
   96400    15.822154  -0.37986419            0  -0.33837678 0.0021730126 
   96500    15.591522  -0.37941045            0  -0.33852778 0.0074563366 
   96600    15.641841  -0.37943204            0  -0.33841743  0.003054724 
   96700    15.705339  -0.37959205            0  -0.33841094 9.9627342e-05 
   96800    15.613756  -0.37933604            0  -0.33839507 0.0050213804 
   96900    15.718181  -0.37964597            0   -0.3384312 0.0018857062 
   97000    15.740946  -0.37961429            0  -0.33833982 0.00021320348 
   97100    15.644767  -0.37938296            0  -0.33836068 0.0031033623 
   97200    15.676121  -0.37948484            0  -0.33838034 0.0042350401 
   97300     15.71807  -0.37951503            0  -0.33830054 0.00028568631 
   97400    15.560167  -0.37909455            0   -0.3382941 0.0027691666 
   97500    15.574781  -0.37926138            0  -0.33842261 0.0022823324 
   97600    15.605986  -0.37920022            0  -0.33827963 0.0014259949 
   97700    15.755802  -0.37955719            0  -0.33824376 5.4835449e-05 
   97800    15.721416  -0.37945459            0  -0.33823132  0.005871945 
   97900    15.763163  -0.37957094            0  -0.33823821 0.0059431184 
   98000    15.830281  -0.37970462            0   -0.3381959 0.0034860051 
   98100    15.869358   -0.3797927            0  -0.33818152 0.0028482134 
   98200    15.858324  -0.37979893            0  -0.33821668 0.0035988417 
   98300    15.744608  -0.37952517            0   -0.3382411 0.0061302931 
   98400    15.820597  -0.37983855            0  -0.33835522 -0.00062238833 
   98500    15.701994  -0.37950156            0  -0.33832922 0.0050337633 
   98600    15.586789   -0.3792567            0  -0.33838644   0.00545838 
   98700     15.51659  -0.37920692            0  -0.33852073 0.0032052938 
   98800    15.654874  -0.37952871            0  -0.33847993 6.5190451e-05 
   98900    15.567261  -0.37924682            0  -0.33842777 0.0065804693 
   99000    15.823851  -0.37988471            0  -0.33839286 0.0010962832 
   99100    15.821918  -0.37990025            0  -0.33841346 0.0043752937 
   99200    15.880044  -0.37997102            0  -0.33833181 0.0035235416 
   99300    15.838084  -0.37982474            0  -0.33829557 0.0031351094 
   99400    15.858561  -0.37982978            0  -0.33824691 0.0013944623 
   99500     15.73477  -0.37941346            0  -0.33815518 0.0060517993 
   99600    15.840451  -0.37971812            0  -0.33818273 0.0018253186 
   99700    15.962001  -0.38002552            0  -0.33817142 0.0014414007 
   99800    15.932327  -0.38001699            0   -0.3382407  0.006374846 
   99900    15.846989  -0.37987208            0  -0.33831955 0.0017717874 
[...]
  475400    18.242382  -0.38465503            0  -0.33682152 0.00048710187 
  475500     18.15877  -0.38445218            0  -0.33683791 0.0063221949 
  475600    18.303988  -0.38469548            0  -0.33670043 0.0045499413 
  475700    18.202864  -0.38449851            0  -0.33676862 0.0042340448 
  475800    18.293536  -0.38442595            0  -0.33645831 0.0028371896 
  475900    18.254813  -0.38449868            0  -0.33663257 0.0032209094 
  476000    18.439383   -0.3847584            0  -0.33640833 0.0013992099 
  476100    18.384425   -0.3845582            0  -0.33635224   0.00551954 
  476200    18.425355  -0.38488462            0  -0.33657134 0.0012828632 
  476300    18.348002  -0.38451077            0  -0.33640031 0.0024571054 
  476400     18.22722  -0.38425946            0   -0.3364657 0.0033329631 
  476500    18.210319   -0.3841414            0  -0.33639197 0.0027118931 
  476600    18.294398  -0.38440425            0  -0.33643435 0.0048666578 
  476700    18.209706  -0.38432222            0  -0.33657439 0.0075256855 
  476800    18.109527  -0.38406373            0  -0.33657858 0.0026659436 
  476900    18.161322  -0.38399218            0  -0.33637122 0.0024851735 
  477000    18.267978  -0.38443212            0  -0.33653149 0.0020135811 
  477100    18.423067  -0.38478991            0  -0.33648263 0.0046814926 
  477200    18.480103  -0.38489761            0  -0.33644077 0.0045756254 
  477300    18.391062  -0.38474812            0  -0.33652476 0.0037112472 
  477400    18.301256  -0.38453012            0  -0.33654223 0.0033275845 
  477500    18.364098  -0.38456247            0  -0.33640981 0.0033053236 
  477600    18.351678  -0.38458075            0  -0.33646066 0.0072054238 
  477700    18.514922  -0.38496146            0  -0.33641332 0.0044707793 
  477800    18.512184  -0.38493352            0  -0.33639256 0.0022716463 
  477900    18.453487  -0.38475883            0  -0.33637178 0.0011671747 
  478000    18.442058  -0.38473908            0  -0.33638199 0.0064033077 
  478100    18.601102  -0.38527963            0  -0.33650552 0.0046408104 
  478200    18.574521  -0.38509824            0  -0.33639382  0.002704074 
  478300    18.308176  -0.38456357            0  -0.33655754  0.003810797 
  478400    18.286835  -0.38445202            0  -0.33650194 -0.00037239026 
  478500    18.128227  -0.38407721            0  -0.33654303 0.00062339576 
  478600    18.199515  -0.38408586            0  -0.33636475 0.0019701624 
  478700    18.342312  -0.38427952            0  -0.33618398 0.0029455563 
  478800    18.366961  -0.38428774            0  -0.33612757 0.0058497107 
  478900     18.24089  -0.38400905            0  -0.33617945 0.0074297025 
  479000    18.107993  -0.38364272            0  -0.33616159 0.0069993584 
  479100    18.329938  -0.38416083            0  -0.33609774 -0.0018161436 
  479200    18.411175  -0.38457214            0  -0.33629604 0.00098110538 
  479300    18.383867    -0.384464            0   -0.3362595 0.0059123956 
  479400    18.378678  -0.38454201            0  -0.33635112  0.003733751 
  479500    18.438239  -0.38480076            0  -0.33645369 0.0031776821 
  479600     18.44872  -0.38477007            0  -0.33639552 0.0054200055 
  479700    18.329148  -0.38445903            0  -0.33639801  0.002784277 
  479800    18.174899  -0.38410365            0  -0.33644709 0.0027209985 
  479900    18.226554  -0.38437904            0  -0.33658704   0.00342912 
  480000    18.421363  -0.38468843            0  -0.33638561 0.0021065468 
  480100    18.484896  -0.38499754            0  -0.33652813 0.0049722521 
  480200    18.503016  -0.38488336            0  -0.33636644  0.011745716 
  480300    18.740451  -0.38540371            0  -0.33626421 0.00038696523 
  480400    18.556629  -0.38495689            0  -0.33629939 0.0042812557 
  480500    18.673288   -0.3850536            0  -0.33609021 0.0048491676 
  480600    18.716628  -0.38516086            0  -0.33608382 0.0019567846 
  480700    18.663468  -0.38514168            0  -0.33620404 0.0038673072 
  480800    18.562535   -0.3848336            0  -0.33616061 0.0051305634 
  480900    18.541932  -0.38500773            0  -0.33638877 -0.00084172531 
  481000    18.624626  -0.38508782            0  -0.33625203 0.0026849152 
  481100    18.702358  -0.38542353            0  -0.33638392 0.0046109597 
  481200    18.649242  -0.38533144            0   -0.3364311 0.0041153817 
  481300    18.684768  -0.38551833            0  -0.33652483 0.0020882728 
  481400    18.520655  -0.38512316            0  -0.33655999 0.0053868105 
  481500    18.505405  -0.38519307            0  -0.33666989 0.0063509678 
  481600    18.446126  -0.38496204            0  -0.33659429  0.009072903 
  481700    18.508855  -0.38511338            0  -0.33658115 0.00031518333 
  481800    18.433729  -0.38487948            0  -0.33654424 0.0020198112 
  481900    18.427201   -0.3846905            0  -0.33637238 0.0061722542 
  482000    18.351808  -0.38450466            0  -0.33638423 0.0036402908 
  482100    18.259309  -0.38430851            0  -0.33643062 0.00076276878 
  482200    18.167439  -0.38404629            0  -0.33640929 0.0036143025 
  482300    18.280868  -0.38439302            0   -0.3364586 0.0026279737 
  482400    18.537508  -0.38501245            0  -0.33640509 -0.0013378974 
  482500    18.373939  -0.38457367            0   -0.3363952 0.0066498314 
  482600    18.291905  -0.38427315            0  -0.33630979 0.0043544508 
  482700    18.375921  -0.38462381            0  -0.33644014 0.0020104264 
  482800    18.565208  -0.38495713            0  -0.33627713 0.0040205102 
  482900     18.55114  -0.38489946            0  -0.33625636 0.0073017568 
  483000    18.624615  -0.38521478            0  -0.33637902 0.0022100582 
  483100    18.383913  -0.38445842            0   -0.3362538 0.0059956845 
  483200      18.3868  -0.38460506            0  -0.33639288 0.0026062008 
  483300    18.267226  -0.38432968            0  -0.33643102 0.0071061338 
  483400    18.315679  -0.38435198            0  -0.33632628   0.00666149 
  483500    18.290227  -0.38437981            0  -0.33642084 0.0055698842 
  483600    18.271436  -0.38441659            0   -0.3365069 0.0054318743 
  483700    18.234444  -0.38413841            0  -0.33632572 0.0060062482 
  483800    18.430903  -0.38475586            0  -0.33642803 1.563902e-05 
  483900    18.501352   -0.3848263            0  -0.33631374 0.0037710383 
  484000    18.583081  -0.38492573            0  -0.33619887 0.0051925966 
  484100    18.512544  -0.38481728            0  -0.33627537 0.0050390836 
  484200     18.38314  -0.38453237            0  -0.33632977 0.0012643791 
  484300    18.247894  -0.38425485            0  -0.33640688 0.0017540871 
  484400    18.168639  -0.38423879            0  -0.33659864    0.0026211 
  484500    18.006247   -0.3837936            0  -0.33657926 0.0066525952 
  484600    18.066221  -0.38409592            0  -0.33672432 0.0049497674 
  484700    18.235658  -0.38441854            0  -0.33660266   0.00334536 
  484800    17.989546  -0.38374925            0   -0.3365787 0.0056572866 
  484900    17.903417  -0.38361966            0  -0.33667496 -0.0025740051 
  485000    17.894111  -0.38352049            0  -0.33660019 0.0018054438 
  485100    18.051857  -0.38399686            0  -0.33666293 0.0061341342 
  485200    18.084457  -0.38412598            0  -0.33670657 0.0062549015 
  485300     18.06053  -0.38406624            0  -0.33670957  0.002957853 
  485400    17.949975  -0.38385317            0  -0.33678639 0.0023094369 
  485500    18.001256  -0.38398483            0  -0.33678358 0.0035589734 
  485600    18.017297  -0.38394365            0  -0.33670034 0.0062387838 
  485700     18.02824  -0.38401892            0  -0.33674692 0.0014949025 
  485800    17.994973   -0.3838655            0  -0.33668073 0.0015746562 
  485900    18.173286  -0.38425574            0  -0.33660341 0.0037406338 
  486000    18.379785  -0.38475073            0  -0.33655693 0.0055898476 
  486100    18.424637  -0.38504429            0  -0.33673289 0.0059197766 
  486200     18.58695  -0.38512741            0  -0.33639041 0.0048862983 
  486300    18.600331  -0.38514143            0  -0.33636934 -0.00031585199 
  486400    18.131154  -0.38413439            0  -0.33659253 0.0058456793 
  486500    18.197638  -0.38455827            0  -0.33684208 0.0012815239 
  486600    18.328928  -0.38490181            0  -0.33684137 0.0061647518 
  486700    18.371804  -0.38497982            0  -0.33680695 0.0083537585 
  486800    18.170641  -0.38457358            0  -0.33692819 0.0041730904 
  486900    18.205183  -0.38461018            0  -0.33687421 -0.0028296627 
  487000    18.205016  -0.38448265            0  -0.33674712 0.0051329522 
  487100    18.300188  -0.38479504            0  -0.33680996 0.0073869417 
  487200    18.297616  -0.38479406            0  -0.33681572 0.0025567776 
  487300    18.065537  -0.38413458            0  -0.33676478 0.0035514788 
  487400    18.238155  -0.38460036            0  -0.33677794 -0.00033264961 
  487500    18.272039  -0.38461369            0  -0.33670241 0.0062470139 
  487600    18.482833  -0.38523136            0  -0.33676736 0.00094172506 
  487700    18.384582  -0.38494135            0  -0.33673498 0.0008479148 
  487800    18.365973  -0.38494162            0  -0.33678404 0.0032227668 
  487900    18.251884  -0.38476435            0  -0.33690593 0.0054348838 
  488000    18.350957  -0.38501692            0  -0.33689871 0.0053427309 
  488100    18.463327  -0.38522464            0  -0.33681179 0.0034272933 
  488200    18.388657  -0.38498313            0  -0.33676607 0.0039665413 
  488300    18.522077  -0.38525721            0  -0.33669031 0.0044557048 
  488400    18.717467  -0.38566024            0  -0.33658101 0.0036779594 
  488500    18.778952  -0.38596214            0  -0.33672169 0.0044764312 
  488600    18.675846  -0.38565262            0  -0.33668253 0.0053251521 
  488700    18.834359  -0.38615427            0  -0.33676853 6.4192806e-05 
  488800    18.571668  -0.38555509            0  -0.33685816 0.0078221932 
  488900    18.715522  -0.38594707            0  -0.33687294 0.0034257965 
  489000    18.584681  -0.38550355            0   -0.3367725 0.0077745625 
  489100      18.4128  -0.38516118            0  -0.33688081 0.0026037881 
  489200    18.408668  -0.38519884            0  -0.33692931 -0.00046733782 
  489300    18.506893   -0.3854022            0  -0.33687512 0.0021083595 
  489400    18.506344  -0.38547626            0  -0.33695061 0.0032222676 
  489500    18.288633  -0.38495502            0  -0.33700024 0.0070666629 
  489600    18.243789  -0.38480222            0  -0.33696502 0.0050208904 
  489700    18.476454  -0.38531364            0  -0.33686637 -0.00073575555 
  489800    18.390158  -0.38506391            0  -0.33684292  0.006232556 
  489900    18.518702  -0.38549373            0  -0.33693568 0.0049492727 
  490000    18.572955  -0.38546372            0  -0.33676341 0.0045733675 
  490100    18.479847  -0.38533066            0  -0.33687449 0.0053988028 
  490200    18.503707  -0.38524916            0  -0.33673043 0.0050849505 
  490300    18.422196  -0.38500371            0  -0.33669871 0.0062843851 
  490400    18.301258  -0.38473462            0  -0.33674673 0.0023209371 
  490500    18.218666  -0.38448681            0  -0.33671549 -0.00096155906 
  490600    18.080421  -0.38415329            0  -0.33674446 0.0056872548 
  490700     18.22283  -0.38464959            0  -0.33686735 0.0054572257 
  490800    18.369266  -0.38506493            0  -0.33689872 0.0042587138 
  490900    18.457039  -0.38531299            0  -0.33691663 0.0051925634 
  491000    18.403063  -0.38519646            0  -0.33694163  0.003630489 
  491100    18.281806  -0.38480399            0  -0.33686711 0.0065823431 
  491200    18.278396  -0.38468729            0  -0.33675935  0.012274113 
  491300    18.548989  -0.38527832            0  -0.33664086 -0.0005651274 
  491400    18.498036  -0.38513524            0  -0.33663138 0.0020327083 
  491500    18.531923  -0.38511669            0  -0.33652397 0.0066814328 
  491600    18.508884  -0.38510714            0  -0.33657483 0.0042492281 
  491700    18.413943  -0.38506145            0  -0.33677809 0.00054957956 
  491800    18.373589  -0.38489146            0  -0.33671391 0.0038439202 
  491900    18.526603  -0.38535532            0  -0.33677655 0.0042613691 
  492000    18.628823   -0.3858172            0   -0.3369704 0.0038979428 
  492100    18.524965    -0.385392            0  -0.33681753 0.0079826426 
  492200    18.664619  -0.38572273            0  -0.33678207 0.0016878445 
  492300    18.507176  -0.38520111            0  -0.33667328 0.0037690937 
  492400    18.397533  -0.38495695            0  -0.33671662 0.0028004983 
  492500    18.511059  -0.38505867            0  -0.33652066 -0.00057911126 
  492600    18.458847  -0.38493565            0  -0.33653454 0.0074409128 
  492700    18.644891  -0.38523564            0  -0.33634671 0.0064812363 
  492800    18.646465  -0.38549237            0  -0.33659931 0.0029532852 
  492900    18.576862  -0.38519267            0  -0.33648211 0.0051855268 
  493000    18.586932   -0.3853135            0  -0.33657654 0.0013428365 
  493100    18.613498   -0.3854581            0  -0.33665149 0.0023292923 
  493200    18.678504  -0.38556347            0   -0.3365864 0.0025275011 
  493300    18.696638  -0.38557202            0   -0.3365474 0.0036907815 
  493400    18.694835  -0.38563047            0  -0.33661057  0.008463806 
  493500    18.640165  -0.38539374            0   -0.3365172  0.003528382 
  493600    18.535505  -0.38502551            0   -0.3364234 -0.00033361651 
  493700    18.472717   -0.3850605            0  -0.33662303 0.0040391483 
  493800    18.771721  -0.38572899            0   -0.3365075 0.0044697532 
  493900     18.74998  -0.38570147            0  -0.33653699 0.0085903226 
  494000    18.535696  -0.38513738            0  -0.33653476 0.0076745901 
  494100    18.553843  -0.38517042            0  -0.33652023 0.0031485359 
  494200     18.63475  -0.38536824            0   -0.3365059 0.0033862162 
  494300    18.711699  -0.38558911            0    -0.336525 0.0034111176 
  494400    18.786332  -0.38585558            0  -0.33659577 0.0010036001 
  494500    18.818795  -0.38582695            0  -0.33648202 0.0065130491 
  494600     18.85327  -0.38597396            0  -0.33653864 0.0029701844 
  494700    18.629631  -0.38533654            0  -0.33648762 0.0036487303 
  494800    18.462627  -0.38494837            0  -0.33653735 0.0061310223 
  494900    18.676987  -0.38535216            0  -0.33637907 0.00067456822 
  495000    18.564563   -0.3850495            0   -0.3363712 0.0052405176 
  495100    18.722105  -0.38538005            0  -0.33628865 0.0019765306 
  495200     18.58262  -0.38507058            0  -0.33634493  0.007286297 
  495300    18.610817  -0.38517675            0  -0.33637716 0.0017447265 
  495400    18.311813  -0.38441745            0  -0.33640189 0.0033275538 
  495500    18.401439  -0.38473269            0  -0.33648212 -0.0015180482 
  495600    18.396563  -0.38471259            0   -0.3364748 0.0057817071 
  495700    18.568506  -0.38520131            0  -0.33651267 0.0057861865 
  495800    18.514455  -0.38504429            0  -0.33649738 0.0026033313 
  495900    18.478246  -0.38491478            0  -0.33646281 -0.0016076226 
  496000    18.345503  -0.38452514            0  -0.33642124 0.0030106125 
  496100    18.660937  -0.38537228            0  -0.33644128 0.00018225637 
  496200    18.570073  -0.38517711            0  -0.33648435   0.00850947 
  496300    18.579698  -0.38520447            0  -0.33648648 0.0068925531 
  496400    18.433763  -0.38494998            0  -0.33661464 0.0043750455 
  496500    18.407463  -0.38499074            0  -0.33672437 0.0033159301 
  496600    18.410746  -0.38488434            0  -0.33660936 0.0045905266 
  496700    18.443094  -0.38506029            0  -0.33670049  0.002769011 
  496800    18.452398  -0.38503762            0  -0.33665343 0.0058066173 
  496900    18.559985  -0.38530484            0  -0.33663854 0.00077340807 
  497000    18.564666  -0.38521289            0  -0.33653432 9.9821911e-07 
  497100    18.401441  -0.38490786            0  -0.33665728 0.0053527516 
  497200    18.509518  -0.38517968            0  -0.33664571 0.0011050266 
  497300    18.547575  -0.38516423            0  -0.33653048 0.0033202287 
  497400    18.511406  -0.38512907            0  -0.33659015 0.0067232891 
  497500     18.43245  -0.38484952            0  -0.33651763 0.0022807921 
  497600    18.288227  -0.38462584            0  -0.33667212 0.00040460089 
  497700    18.263584  -0.38448509            0  -0.33659599 0.0018025903 
  497800    18.351756  -0.38477067            0  -0.33665037 0.0027563173 
  497900    18.374027  -0.38485723            0  -0.33667853  0.006985252 
  498000    18.460801  -0.38494349            0  -0.33653727   0.00232742 
  498100    18.145134   -0.3841109            0  -0.33653239 0.0065195027 
  498200    18.276574   -0.3843254            0  -0.33640223 4.4453707e-05 
  498300    18.145564  -0.38404992            0  -0.33647028 0.0020253698 
  498400    18.130392  -0.38410722            0  -0.33656736  0.005196359 
  498500    18.377189  -0.38462838            0  -0.33644139 0.0013942894 
  498600    18.439158  -0.38479113            0  -0.33644166 0.0035854793 
  498700    18.423331  -0.38471209            0  -0.33640411 0.0043282328 
  498800    18.528651  -0.38488981            0  -0.33630567 -0.00067911647 
  498900    18.326277  -0.38462282            0  -0.33656932 0.0042607386 
  499000    18.431776  -0.38474334            0  -0.33641322 0.0034759862 
  499100    18.447622  -0.38473118            0  -0.33635951 0.0020496391 
  499200    18.208019  -0.38426182            0  -0.33651841 0.0071553556 
  499300    18.314655  -0.38443996            0  -0.33641694 0.0076645621 
  499400    18.224539  -0.38415572            0    -0.336369 0.0068146874 
  499500    18.328767   -0.3844059            0  -0.33634588 -0.002850352 
  499600    18.236357  -0.38401261            0   -0.3361949 0.0030267945 
  499700    18.353224  -0.38426544            0  -0.33614129 0.0049268155 
  499800    18.424275  -0.38444118            0  -0.33613073 0.0040546479 
  499900    18.412847  -0.38453367            0  -0.33625319 0.0032841271 
  500000    18.589656  -0.38477388            0  -0.33602978 0.0020756783 
Loop time of 6095.84 on 64 procs for 500000 steps with 585216 atoms

Performance: 35433.992 tau/day, 82.023 timesteps/s
99.1% CPU use with 64 MPI tasks x 1 OpenMP threads

MPI task timing breakdown:
Section |  min time  |  avg time  |  max time  |%varavg| %total
---------------------------------------------------------------
Pair    | 1291.7     | 1846.1     | 3296.5     |1052.5 | 30.29
Bond    | 0.063695   | 0.10468    | 0.17469    |   7.0 |  0.00
Neigh   | 194.02     | 270.4      | 437.68     | 333.6 |  4.44
Comm    | 1471.4     | 3047.6     | 3711.4     | 865.1 | 49.99
Output  | 235.98     | 236.76     | 237.26     |   1.9 |  3.88
Modify  | 445.57     | 516.83     | 666.4      | 301.1 |  8.48
Other   |            | 178        |            |       |  2.92

Nlocal:        9144.00 ave       15782 max        4654 min
Histogram: 3 7 10 13 13 10 3 3 1 1
Nghost:        12378.9 ave       19008 max        6564 min
Histogram: 3 3 14 7 10 3 13 6 2 3
Neighs:       282322.0 ave      500078 max      137921 min
Histogram: 2 8 10 12 16 9 2 4 0 1

Total # of neighbors = 18068578
Ave neighs/atom = 30.875058
Ave special neighs/atom = 0.0000000
Neighbor list builds = 16469
Dangerous builds = 0
System init for write_data ...
WARNING: Not all mixed pair coeffs generated from mixing. Use write_data with 'pair ij' option to store all pair coeffs. (src/write_data.cpp:312)
Total wall time: 1:41:41
