LAMMPS (29 Oct 2020)
  using 1 OpenMP thread(s) per MPI task
# Simple rigid body system
# needed variables:

#variable	startTemp equal 0.5
#variable 	temp 	  equal 0.8

units		lj
atom_style	full
dimension 	3
boundary	p p f
pair_style	lj/cut/opt 2.5


variable 	sigma		equal 1.0
variable 	epsilon 	equal 1.0

region		box block 0 100 0 100 0 200
create_box 	3 box
Created orthogonal box = (0.0000000 0.0000000 0.0000000) to (100.00000 100.00000 200.00000)
  4 by 5 by 12 MPI processor grid
lattice 	sc 1.0
Lattice spacing in x,y,z = 1.0000000 1.0000000 1.0000000

region		create block EDGE EDGE EDGE EDGE 2 102
create_atoms 	1 region create
Created 1010000 atoms
  create_atoms CPU = 0.062 seconds

mass		1 1.0
mass		2 1.0
mass		3 1.0

group		solvent type 1
1010000 atoms in group solvent

velocity 	solvent create ${startTemp} 563435 loop geom
velocity 	solvent create 0.8 563435 loop geom


neighbor 	0.4 bin

pair_coeff	1 1 1.0 1.0
pair_coeff	2 2 0.0 0.0
pair_coeff	3 3 0.0 0.0
pair_coeff	2 3 0.0 0.0
pair_coeff	1 2*3 0.0 0.0

pair_modify 	shift yes


balance 	1.05 shift z 10 1.05
Balancing ...
Neighbor list info ...
  update every 1 steps, delay 10 steps, check yes
  max neighbors/atom: 2000, page size: 100000
  master list distance cutoff = 2.9
  ghost atom cutoff = 2.9
  binsize = 1.45, bins = 69 69 138
  1 neighbor lists, perpetual/occasional/extra = 1 0 0
  (1) pair lj/cut/opt, perpetual
      attributes: half, newton on
      pair build: half/bin/newton
      stencil: half/bin/3d/newton
      bin: standard
 rebalancing time: 0.253 seconds
  iteration count = 5
  initial/final maximal load/proc = 8925.0000 5775.0000
  initial/final imbalance factor  = 2.1207921 1.3722772
  x cuts: 0.0000000 0.25 0.5 0.75 1.0000000
  y cuts: 0.0000000 0.2 0.4 0.6 0.8 1.0000000
  z cuts: 0.0000000 0.049479167 0.091145833 0.13020833 0.171875 0.22135417 0.2578125 0.30208333 0.34375 0.37239583 0.4296875 0.46354167 1.0000000


####################### WALLS ###########################


variable       epsilonWall equal 2*${epsilon}
variable       epsilonWall equal 2*1

variable       cutoffTop   equal   0.7147*${sigma}
variable       cutoffTop   equal   0.7147*1

variable       cutoffLow   equal   3*${sigma}
variable       cutoffLow   equal   3*1


fix            topWall all wall/lj93 zhi EDGE                ${epsilonWall} ${sigma} ${cutoffTop} units box
fix            topWall all wall/lj93 zhi EDGE                2 ${sigma} ${cutoffTop} units box
fix            topWall all wall/lj93 zhi EDGE                2 1 ${cutoffTop} units box
fix            topWall all wall/lj93 zhi EDGE                2 1 0.7147 units box

fix            lowWall all wall/lj93 zlo EDGE                ${epsilonWall} ${sigma} ${cutoffLow} units box
fix            lowWall all wall/lj93 zlo EDGE                2 ${sigma} ${cutoffLow} units box
fix            lowWall all wall/lj93 zlo EDGE                2 1 ${cutoffLow} units box
fix            lowWall all wall/lj93 zlo EDGE                2 1 3 units box


###################### COMPUTES ##########################

compute        bin1 solvent chunk/atom bin/1d z upper 1.0


######################	FIXES ############################


fix 		peclet solvent ave/chunk 1000 1 1000 bin1 density/number norm 		 none ave one file density.profile

fix 		 temp solvent ave/chunk 1000 1 1000 bin1 temp norm 		 none ave one file temp.profile

fix 		2 solvent nve


## Thermostat


region		regthermo block EDGE EDGE EDGE EDGE 0 20

group 		thermo dynamic solvent region regthermo every 1000
dynamic group thermo defined

fix 		3 thermo langevin ${startTemp} ${temp} 10 156453
fix 		3 thermo langevin 0.8 ${temp} 10 156453
fix 		3 thermo langevin 0.8 1.0 10 156453



#### Load balancing


fix 		bal all balance 1000 1.05 shift z 10 1.05


############### Diagnostics and computes ###################
#compute 	com cube	  rigid/local	1 mol x y z
#compute 	quat cube	  rigid/local	1 mol quatw quati quatj quatk

thermo 		1000
thermo_style 	custom step temp epair evdwl etotal press pe ke atoms

dump		1 all custom 100000 dump.lammpstrj id mol type x y z
dump 		2 all image 10000 image.*.png type type
dump 		3 all movie 1000 movie.avi type type

#dump 		com cube local 1000 dump.*.xyz c_com[*]
#dump		quat cube      local 1000 dump.*.quat c_quat[*]


restart 	1000000 restart.dat
timestep 	0.005
timer 		full
New timer settings: style=full  mode=nosync  timeout=off

run		3000000
Per MPI rank memory allocation (min/avg/max) = 9.581 | 9.852 | 10.35 Mbytes
Step Temp E_pair E_vdwl TotEng Press PotEng KinEng Atoms 
       0          0.8   -3.3050748   -3.3050748    -2.105076    8.8982699   -3.3050748    1.1999988  1010000 
    1000    1.5956229   -4.6767849   -4.6767849   -2.2833529    3.9600061   -4.6767849     2.393432  1010000 
    2000    1.5384404   -4.7425179   -4.7425179   -2.4348597    2.0519537   -4.7425179    2.3076583  1010000 
    3000    1.4753859   -4.6975062   -4.6975062   -2.4844295    0.5157511   -4.6975062    2.2130767  1010000 
    4000    1.3545172   -4.4919516   -4.4919516   -2.4601778 -0.081080636   -4.4919516    2.0317738  1010000 
    5000    1.3066489   -4.3832738   -4.3832738   -2.4233023 -0.036761464   -4.3832738    1.9599714  1010000 
    6000    1.3173317   -4.3738612   -4.3738612   -2.3978655   0.10085802   -4.3738612    1.9759956  1010000 
    7000    1.3211593   -4.3657457   -4.3657457   -2.3840088   0.14951435   -4.3657457    1.9817369  1010000 
    8000    1.3250494   -4.3639695   -4.3639695   -2.3763975   0.18416909   -4.3639695    1.9875721  1010000 
    9000    1.3320287   -4.3701758   -4.3701758   -2.3721347    0.2452237   -4.3701758    1.9980411  1010000 
   10000    1.3354011   -4.3717135   -4.3717135   -2.3686138   0.28150554   -4.3717135    2.0030997  1010000 
   11000    1.3342165   -4.3681693   -4.3681693   -2.3668466   0.29946291   -4.3681693    2.0013227  1010000 
   12000    1.3232833   -4.3522243   -4.3522243   -2.3673013    1.0714812   -4.3522243    1.9849231  1010000 
   13000    1.3152519    -4.339435    -4.339435   -2.3665592    2.3337318    -4.339435    1.9728759  1010000 
   14000    1.3272902   -4.3565836   -4.3565836   -2.3656503    2.2569679   -4.3565836    1.9909333  1010000 
   15000    1.3181937   -4.3408757   -4.3408757    -2.363587    1.3726158   -4.3408757    1.9772887  1010000 
   16000    1.2537862   -4.2435058   -4.2435058   -2.3628284   0.79673948   -4.2435058    1.8806775  1010000 
   17000    1.1686099    -4.116793    -4.116793   -2.3638798   0.38667909    -4.116793    1.7529131  1010000 
   18000    1.0855517   -3.9932531   -3.9932531   -2.3649271   0.12708367   -3.9932531    1.6283259  1010000 
   19000    1.0295049   -3.9106876   -3.9106876   -2.3664318  0.031313052   -3.9106876    1.5442558  1010000 
   20000   0.99957458    -3.867724    -3.867724   -2.3683636 -0.0025895271    -3.867724    1.4993604  1010000 
   21000   0.99120298   -3.8568871   -3.8568871   -2.3700841  0.011677538   -3.8568871     1.486803  1010000 
   22000   0.99309335   -3.8629599   -3.8629599   -2.3733214  0.042063636   -3.8629599    1.4896386  1010000 
   23000    1.0012785   -3.8810857   -3.8810857   -2.3791694   0.10418867   -3.8810857    1.5019163  1010000 
   24000     1.009445   -3.9018542   -3.9018542   -2.3876882    0.1605482   -3.9018542     1.514166  1010000 
   25000    1.0158571   -3.9207885   -3.9207885   -2.3970045   0.22775243   -3.9207885    1.5237841  1010000 
   26000    1.0203246   -3.9379858   -3.9379858   -2.4075004   0.25348199   -3.9379858    1.5304854  1010000 
   27000    1.0133315    -3.941209    -3.941209   -2.4212133   0.21524387    -3.941209    1.5199958  1010000 
   28000    0.9955422   -3.9313824   -3.9313824   -2.4380706    0.1515657   -3.9313824    1.4933118  1010000 
   29000   0.97620485   -3.9199877   -3.9199877   -2.4556818  0.092552356   -3.9199877    1.4643058  1010000 
   30000   0.96264992   -3.9214326   -3.9214326   -2.4774591  0.066056665   -3.9214326    1.4439735  1010000 
   31000   0.95481987   -3.9310786   -3.9310786   -2.4988502  0.060928509   -3.9310786    1.4322284  1010000 
   32000   0.95598683   -3.9509959   -3.9509959   -2.5170171  0.081481616   -3.9509959    1.4339788  1010000 
   33000   0.96523723   -3.9793454   -3.9793454    -2.531491   0.12030117   -3.9793454    1.4478544  1010000 
   34000    0.9796716   -4.0138443   -4.0138443   -2.5443384   0.17278362   -4.0138443    1.4695059  1010000 
   35000   0.99423601   -4.0478103   -4.0478103   -2.5564578   0.24078746   -4.0478103    1.4913525  1010000 
   36000    1.0130187   -4.0858642   -4.0858642   -2.5663377   0.33100468   -4.0858642    1.5195265  1010000 
   37000    1.0319323   -4.1214635   -4.1214635   -2.5735666   0.42350925   -4.1214635    1.5478969  1010000 
   38000    1.0437838    -4.148599    -4.148599   -2.5829249   0.50512399    -4.148599    1.5656741  1010000 
   39000    1.0450193   -4.1678622   -4.1678622   -2.6003347   0.53014711   -4.1678622    1.5675275  1010000 
   40000    1.0309193   -4.1736819   -4.1736819   -2.6273044   0.52938311   -4.1736819    1.5463775  1010000 
   41000    1.0172507    -4.181305    -4.181305   -2.6554306   0.50646899    -4.181305    1.5258745  1010000 
   42000    1.0102547   -4.1922438   -4.1922438   -2.6768632   0.48721785   -4.1922438    1.5153806  1010000 
   43000    1.0035155   -4.1976908   -4.1976908    -2.692419   0.48223725   -4.1976908    1.5052717  1010000 
   44000   0.99844917   -4.1991303   -4.1991303   -2.7014581   0.45628246   -4.1991303    1.4976723  1010000 
   45000   0.98655833   -4.1846991   -4.1846991   -2.7048631   0.40282291   -4.1846991     1.479836  1010000 
   46000   0.96663169   -4.1541892   -4.1541892   -2.7042431   0.29364904   -4.1541892    1.4499461  1010000 
   47000   0.94238622   -4.1159067   -4.1159067   -2.7023288   0.19183131   -4.1159067    1.4135779  1010000 
   48000   0.92078832   -4.0805278   -4.0805278   -2.6993467   0.11109914   -4.0805278    1.3811811  1010000 
   49000   0.90141726    -4.049492    -4.049492   -2.6973675  0.052901129    -4.049492    1.3521245  1010000 
   50000   0.88650933   -4.0256625   -4.0256625   -2.6958998 0.0020091519   -4.0256625    1.3297627  1010000 
   51000   0.87422696   -4.0049544   -4.0049544   -2.6936152 -0.025265918   -4.0049544    1.3113391  1010000 
   52000   0.86695694   -3.9892506   -3.9892506   -2.6888165 -0.037868104   -3.9892506    1.3004341  1010000 
   53000   0.86654773   -3.9824038   -3.9824038   -2.6825835 -0.038428512   -3.9824038    1.2998203  1010000 
   54000    0.8667893   -3.9779628   -3.9779628   -2.6777802 -0.027960443   -3.9779628    1.3001827  1010000 
   55000   0.87169465      -3.9793      -3.9793   -2.6717593 -0.014999286      -3.9793    1.3075407  1010000 
   56000   0.87674924   -3.9822393   -3.9822393   -2.6671167 0.00093788012   -3.9822393    1.3151226  1010000 
   57000   0.88174558   -3.9875612   -3.9875612   -2.6649441 0.0070317343   -3.9875612    1.3226171  1010000 
   58000   0.88306456   -3.9895375   -3.9895375    -2.664942  0.019101943   -3.9895375    1.3245955  1010000 
   59000   0.88306468   -3.9908022   -3.9908022   -2.6662064   0.02140046   -3.9908022    1.3245957  1010000 
   60000   0.88187645   -3.9924598   -3.9924598   -2.6696464  0.016339669   -3.9924598    1.3228134  1010000 
   61000   0.87985877    -3.992513    -3.992513   -2.6727262  0.016960046    -3.992513    1.3197868  1010000 
   62000    0.8797091   -3.9954756   -3.9954756   -2.6759133  0.014941942   -3.9954756    1.3195623  1010000 
   63000   0.88109661   -3.9987318   -3.9987318   -2.6770882  0.022817719   -3.9987318    1.3216436  1010000 
   64000   0.88187813   -4.0017444   -4.0017444   -2.6789285   0.02891847   -4.0017444    1.3228159  1010000 
   65000   0.88302861    -4.005356    -4.005356   -2.6808144  0.030107231    -4.005356    1.3245416  1010000 
   66000    0.8842631   -4.0084568   -4.0084568   -2.6820635  0.035684847   -4.0084568    1.3263933  1010000 
   67000   0.88238792   -4.0067942   -4.0067942   -2.6832136  0.032398268   -4.0067942    1.3235806  1010000 
   68000   0.88041394   -4.0051142   -4.0051142   -2.6844946  0.030387253   -4.0051142    1.3206196  1010000 
   69000   0.87968888    -4.005034    -4.005034    -2.685502  0.027931762    -4.005034     1.319532  1010000 
   70000   0.87839746   -4.0048122   -4.0048122   -2.6872173  0.022143066   -4.0048122    1.3175949  1010000 
   71000   0.87815725   -4.0058381   -4.0058381   -2.6886035  0.030288758   -4.0058381    1.3172346  1010000 
   72000   0.87801794    -4.006759    -4.006759   -2.6897334  0.031524838    -4.006759    1.3170256  1010000 
   73000   0.87965248   -4.0104505   -4.0104505   -2.6909731  0.031405373   -4.0104505    1.3194774  1010000 
   74000    0.8802054    -4.012595    -4.012595   -2.6922882  0.040305326    -4.012595    1.3203068  1010000 
   75000   0.88079847   -4.0144884   -4.0144884    -2.693292  0.040252407   -4.0144884    1.3211964  1010000 
   76000   0.88006545   -4.0153084   -4.0153084   -2.6952115  0.036250014   -4.0153084    1.3200969  1010000 
   77000   0.87860364   -4.0144005   -4.0144005   -2.6964964  0.031109702   -4.0144005    1.3179042  1010000 
   78000   0.87823695   -4.0148283   -4.0148283   -2.6974741  0.031452193   -4.0148283    1.3173541  1010000 
   79000   0.87811297   -4.0156294   -4.0156294   -2.6984613   0.03018737   -4.0156294    1.3171681  1010000 
   80000   0.87855271   -4.0173658   -4.0173658    -2.699538  0.032592558   -4.0173658    1.3178278  1010000 
   81000   0.88114881   -4.0217905   -4.0217905   -2.7000686  0.046630001   -4.0217905    1.3217219  1010000 
   82000   0.88765885   -4.0324996   -4.0324996   -2.7010126   0.08259037   -4.0324996     1.331487  1010000 
   83000    0.8999659   -4.0514639   -4.0514639   -2.7015164    0.1359125   -4.0514639    1.3499475  1010000 
   84000   0.91154537   -4.0695071   -4.0695071   -2.7021904   0.20787623   -4.0695071    1.3673167  1010000 
   85000   0.92171934   -4.0861474   -4.0861474   -2.7035697    0.2495461   -4.0861474    1.3825776  1010000 
   86000   0.92359426   -4.0901155   -4.0901155   -2.7047255   0.25378786   -4.0901155      1.38539  1010000 
   87000   0.91669751   -4.0798825   -4.0798825   -2.7048376   0.21646414   -4.0798825    1.3750449  1010000 
   88000   0.90377752   -4.0607015   -4.0607015   -2.7050365   0.15177606   -4.0607015    1.3556649  1010000 
   89000   0.88980555   -4.0406975   -4.0406975   -2.7059905  0.094713036   -4.0406975     1.334707  1010000 
   90000   0.87988606   -4.0259582   -4.0259582   -2.7061304  0.047231684   -4.0259582    1.3198278  1010000 
   91000   0.87188901    -4.015412    -4.015412   -2.7075798  0.018860257    -4.015412    1.3078322  1010000 
   92000   0.86756375   -4.0092597   -4.0092597   -2.7079154 0.0077551821   -4.0092597    1.3013443  1010000 
   93000   0.86738884   -4.0098534   -4.0098534   -2.7087714 0.0084903362   -4.0098534     1.301082  1010000 
   94000   0.86939358   -4.0141856   -4.0141856   -2.7100965   0.02071828   -4.0141856    1.3040891  1010000 
   95000   0.87232696   -4.0203493   -4.0203493   -2.7118601  0.033237443   -4.0203493    1.3084891  1010000 
   96000   0.87504582   -4.0251427   -4.0251427   -2.7125753  0.045501072   -4.0251427    1.3125674  1010000 
   97000   0.87686477   -4.0292308   -4.0292308   -2.7139349  0.051868648   -4.0292308    1.3152959  1010000 
   98000   0.87674272   -4.0300338   -4.0300338   -2.7149211  0.052615477   -4.0300338    1.3151128  1010000 
   99000   0.87506029   -4.0286519   -4.0286519   -2.7160628  0.045294765   -4.0286519    1.3125891  1010000 
  100000   0.87217777   -4.0245575   -4.0245575   -2.7162922  0.035127698   -4.0245575    1.3082654  1010000 
  101000   0.86803722   -4.0198883   -4.0198883   -2.7178338  0.023757644   -4.0198883    1.3020545  1010000 
  102000   0.86729608   -4.0199362   -4.0199362   -2.7189934   0.01074479   -4.0199362    1.3009428  1010000 
  103000   0.86631005    -4.019825    -4.019825   -2.7203612  0.013009876    -4.019825    1.2994638  1010000 
  104000     0.866573   -4.0202628   -4.0202628   -2.7204046   0.02031574   -4.0202628    1.2998582  1010000 
  105000   0.86882632   -4.0245395   -4.0245395   -2.7213014  0.032262154   -4.0245395    1.3032382  1010000 
  106000   0.87116418   -4.0288254   -4.0288254   -2.7220805  0.036842506   -4.0288254     1.306745  1010000 
  107000   0.87256412   -4.0315286   -4.0315286   -2.7226837  0.043021329   -4.0315286    1.3088449  1010000 
  108000   0.87343371    -4.033666    -4.033666   -2.7235167   0.04469032    -4.033666    1.3101493  1010000 
  109000   0.87321127   -4.0332469   -4.0332469   -2.7234313  0.045978426   -4.0332469    1.3098156  1010000 
  110000   0.87119678   -4.0313529   -4.0313529    -2.724559  0.038535216   -4.0313529    1.3067939  1010000 
  111000   0.86868182   -4.0281734   -4.0281734    -2.725152  0.030105632   -4.0281734    1.3030214  1010000 
  112000   0.86720788   -4.0265826   -4.0265826    -2.725772  0.025056298   -4.0265826    1.3008105  1010000 
  113000   0.86597903   -4.0256867   -4.0256867   -2.7267195  0.021018654   -4.0256867    1.2989673  1010000 
  114000   0.86633347   -4.0269598   -4.0269598   -2.7274609  0.018726383   -4.0269598    1.2994989  1010000 
  115000   0.86644524   -4.0281546   -4.0281546    -2.728488  0.026640078   -4.0281546    1.2996666  1010000 
  116000   0.86929418   -4.0324685   -4.0324685   -2.7285285  0.026567059   -4.0324685      1.30394  1010000 
  117000    0.8695923   -4.0338519   -4.0338519   -2.7294648  0.034449973   -4.0338519    1.3043872  1010000 
  118000   0.87143228   -4.0378875   -4.0378875   -2.7307404  0.039757121   -4.0378875    1.3071471  1010000 
  119000   0.87173619   -4.0386275   -4.0386275   -2.7310245   0.04350703   -4.0386275     1.307603  1010000 
  120000   0.87157008    -4.038668    -4.038668   -2.7313142  0.043429786    -4.038668    1.3073538  1010000 
  121000   0.87060421   -4.0380569   -4.0380569   -2.7321519  0.035540784   -4.0380569     1.305905  1010000 
  122000   0.86887254   -4.0373015   -4.0373015    -2.733994  0.031294759   -4.0373015    1.3033075  1010000 
  123000   0.86594409   -4.0337591   -4.0337591   -2.7348442  0.024271496   -4.0337591    1.2989149  1010000 
  124000   0.86474787   -4.0324554   -4.0324554   -2.7353349  0.022628535   -4.0324554    1.2971205  1010000 
  125000   0.86626151   -4.0350689   -4.0350689   -2.7356779  0.023197388   -4.0350689     1.299391  1010000 
  126000   0.86649148    -4.035681    -4.035681   -2.7359451  0.026817433    -4.035681    1.2997359  1010000 
  127000   0.86821735   -4.0389352   -4.0389352   -2.7366104  0.030267667   -4.0389352    1.3023247  1010000 
  128000    0.8686548   -4.0409331   -4.0409331   -2.7379522  0.035230765   -4.0409331    1.3029809  1010000 
  129000   0.87017625   -4.0446464   -4.0446464   -2.7393833  0.035634818   -4.0446464    1.3052631  1010000 
  130000   0.86943833   -4.0442866   -4.0442866   -2.7401304  0.037221161   -4.0442866    1.3041562  1010000 
  131000   0.86860571   -4.0435679   -4.0435679   -2.7406606  0.037339763   -4.0435679    1.3029073  1010000 
  132000    0.8674631   -4.0430387   -4.0430387   -2.7418453   0.03715871   -4.0430387    1.3011934  1010000 
  133000   0.86661294   -4.0426457   -4.0426457   -2.7427276  0.028808628   -4.0426457    1.2999181  1010000 
  134000   0.86573438   -4.0420115   -4.0420115   -2.7434113  0.023410996   -4.0420115    1.2986003  1010000 
  135000   0.86574654   -4.0435806   -4.0435806   -2.7449621  0.020025384   -4.0435806    1.2986185  1010000 
  136000   0.86737689   -4.0461138   -4.0461138   -2.7450498   0.02602781   -4.0461138    1.3010641  1010000 
  137000   0.86660661   -4.0459259   -4.0459259   -2.7460172  0.028288625   -4.0459259    1.2999086  1010000 
  138000   0.86738744   -4.0481557   -4.0481557   -2.7470758  0.032257257   -4.0481557    1.3010799  1010000 
  139000   0.86820472    -4.050401    -4.050401   -2.7480952  0.028783623    -4.050401    1.3023058  1010000 
  140000   0.86820435   -4.0510591   -4.0510591   -2.7487539  0.032014823   -4.0510591    1.3023052  1010000 
  141000   0.86798125   -4.0511559   -4.0511559   -2.7491853  0.035801359   -4.0511559    1.3019706  1010000 
  142000    0.8670256   -4.0499417   -4.0499417   -2.7494046   0.03418539   -4.0499417    1.3005371  1010000 
  143000   0.86682164   -4.0502967   -4.0502967   -2.7500655  0.029467087   -4.0502967    1.3002312  1010000 
  144000   0.86595936   -4.0496349   -4.0496349   -2.7506971  0.024630938   -4.0496349    1.2989377  1010000 
  145000   0.86549588   -4.0499893   -4.0499893   -2.7517468  0.027051699   -4.0499893    1.2982425  1010000 
  146000   0.86495489   -4.0494285   -4.0494285   -2.7519974  0.029886445   -4.0494285    1.2974311  1010000 
  147000   0.86580791   -4.0514441   -4.0514441   -2.7527336  0.026210096   -4.0514441    1.2987106  1010000 
  148000   0.86647951   -4.0528422   -4.0528422   -2.7531242  0.029109449   -4.0528422     1.299718  1010000 
  149000   0.86638343    -4.053579    -4.053579   -2.7540051  0.027681727    -4.053579    1.2995739  1010000 
  150000   0.86701823   -4.0554738   -4.0554738   -2.7549478  0.032304947   -4.0554738    1.3005261  1010000 
  151000    0.8662734   -4.0551243   -4.0551243   -2.7557155  0.033451155   -4.0551243    1.2994088  1010000 
  152000   0.86658117   -4.0562782   -4.0562782   -2.7564077  0.030365558   -4.0562782    1.2998705  1010000 
  153000   0.86730559   -4.0576595   -4.0576595   -2.7567024  0.028789627   -4.0576595    1.3009571  1010000 
  154000   0.86673975   -4.0576579   -4.0576579   -2.7575495   0.03061059   -4.0576579    1.3001083  1010000 
  155000   0.86601803    -4.056958    -4.056958   -2.7579323  0.029197121    -4.056958    1.2990258  1010000 
  156000   0.86589964   -4.0573171   -4.0573171   -2.7584689  0.025581187   -4.0573171    1.2988482  1010000 
  157000   0.86479289   -4.0568943   -4.0568943   -2.7597063  0.021354888   -4.0568943     1.297188  1010000 
  158000   0.86455689   -4.0571989   -4.0571989   -2.7603648  0.022375637   -4.0571989    1.2968341  1010000 
  159000    0.8653489   -4.0589008   -4.0589008   -2.7608788  0.023493862   -4.0589008    1.2980221  1010000 
  160000   0.86553363   -4.0602849   -4.0602849   -2.7619858  0.027522816   -4.0602849    1.2982992  1010000 
  161000   0.86514136    -4.060718    -4.060718   -2.7630072  0.028535828    -4.060718    1.2977107  1010000 
  162000   0.86607369   -4.0630717   -4.0630717   -2.7639624  0.028010324   -4.0630717    1.2991092  1010000 
  163000   0.86562899   -4.0630884   -4.0630884   -2.7646462  0.027287377   -4.0630884    1.2984422  1010000 
  164000   0.86415612   -4.0620666   -4.0620666   -2.7658337  0.029824791   -4.0620666    1.2962329  1010000 
  165000   0.86482143   -4.0631341   -4.0631341   -2.7659033  0.028407298   -4.0631341    1.2972309  1010000 
  166000   0.86457138    -4.063359    -4.063359   -2.7665032  0.027387996    -4.063359    1.2968558  1010000 
  167000   0.86363603   -4.0629027   -4.0629027   -2.7674499  0.021609783   -4.0629027    1.2954528  1010000 
  168000   0.86279502   -4.0620841   -4.0620841   -2.7678929   0.02386774   -4.0620841    1.2941912  1010000 
  169000   0.86327289    -4.063916    -4.063916   -2.7690079  0.024082471    -4.063916    1.2949081  1010000 
  170000   0.86450117   -4.0659559   -4.0659559   -2.7692054  0.020051464   -4.0659559    1.2967505  1010000 
  171000   0.86429896   -4.0663038   -4.0663038   -2.7698566  0.022913716   -4.0663038    1.2964472  1010000 
  172000   0.86361995   -4.0663419   -4.0663419   -2.7709132  0.025263813   -4.0663419    1.2954286  1010000 
  173000   0.86337414   -4.0672075   -4.0672075   -2.7721476  0.025695721   -4.0672075    1.2950599  1010000 
  174000   0.86316632   -4.0665013   -4.0665013   -2.7717531  0.028520401   -4.0665013    1.2947482  1010000 
  175000   0.86385582    -4.067972    -4.067972   -2.7721895  0.028680069    -4.067972    1.2957825  1010000 
  176000   0.86356803   -4.0680305   -4.0680305   -2.7726798  0.024073063   -4.0680305    1.2953508  1010000 
  177000   0.86311791   -4.0678563   -4.0678563   -2.7731807  0.024265535   -4.0678563    1.2946756  1010000 
  178000    0.8633853   -4.0684155   -4.0684155   -2.7733388  0.023245317   -4.0684155    1.2950767  1010000 
  179000   0.86284423   -4.0679593   -4.0679593   -2.7736943  0.020347435   -4.0679593    1.2942651  1010000 
  180000   0.86208901   -4.0672079   -4.0672079   -2.7740756  0.019997138   -4.0672079    1.2931322  1010000 
  181000   0.86212558   -4.0675901   -4.0675901   -2.7744031  0.021390907   -4.0675901    1.2931871  1010000 
  182000    0.8623708   -4.0692613   -4.0692613   -2.7757064  0.020853081   -4.0692613    1.2935549  1010000 
  183000   0.86306498   -4.0702912   -4.0702912    -2.775695   0.02270426   -4.0702912    1.2945962  1010000 
  184000   0.86347832   -4.0715269   -4.0715269   -2.7763107  0.024034677   -4.0715269    1.2952162  1010000 
  185000   0.86360291   -4.0728474   -4.0728474   -2.7774443  0.028912498   -4.0728474    1.2954031  1010000 
  186000   0.86292801   -4.0724422   -4.0724422   -2.7780515  0.025448214   -4.0724422    1.2943907  1010000 
  187000   0.86237596   -4.0723837   -4.0723837   -2.7788211  0.024193506   -4.0723837    1.2935627  1010000 
  188000   0.86225403   -4.0725314   -4.0725314   -2.7791517  0.021713598   -4.0725314    1.2933798  1010000 
  189000   0.86172376   -4.0721063   -4.0721063    -2.779522  0.024848093   -4.0721063    1.2925844  1010000 
  190000   0.86235488   -4.0733597   -4.0733597   -2.7798286  0.020778215   -4.0733597     1.293531  1010000 
  191000   0.86083202    -4.072237    -4.072237   -2.7809903  0.016919742    -4.072237    1.2912468  1010000 
  192000   0.86066329   -4.0728215   -4.0728215   -2.7818278  0.016488951   -4.0728215    1.2909937  1010000 
  193000   0.86205281   -4.0751095   -4.0751095   -2.7820316  0.016442809   -4.0751095    1.2930779  1010000 
  194000   0.86185315   -4.0747122   -4.0747122   -2.7819337  0.021961721   -4.0747122    1.2927784  1010000 
  195000   0.86241981   -4.0756464   -4.0756464    -2.782018  0.022706329   -4.0756464    1.2936284  1010000 
  196000   0.86183411   -4.0759869   -4.0759869    -2.783237  0.025025612   -4.0759869    1.2927499  1010000 
  197000   0.86167471   -4.0765891   -4.0765891   -2.7840783  0.019771346   -4.0765891    1.2925108  1010000 
  198000   0.86175185   -4.0770632   -4.0770632   -2.7844367  0.023074203   -4.0770632    1.2926265  1010000 
  199000   0.86206041   -4.0775973   -4.0775973   -2.7845079  0.021096989   -4.0775973    1.2930893  1010000 
  200000   0.86124735   -4.0777136   -4.0777136   -2.7858439  0.014994638   -4.0777136    1.2918697  1010000 
  201000   0.86055544   -4.0774551   -4.0774551   -2.7866233  0.015780379   -4.0774551    1.2908319  1010000 
  202000   0.85969811   -4.0767918   -4.0767918   -2.7872459  0.016378992   -4.0767918    1.2895459  1010000 
  203000   0.86063068   -4.0783309   -4.0783309   -2.7873862  0.015132694   -4.0783309    1.2909447  1010000 
  204000    0.8600019   -4.0789956   -4.0789956    -2.788994  0.018635118   -4.0789956    1.2900016  1010000 
  205000   0.86111436   -4.0809785   -4.0809785   -2.7893082  0.018526582   -4.0809785    1.2916703  1010000 
  206000   0.86087991   -4.0812852   -4.0812852   -2.7899666   0.02045754   -4.0812852    1.2913186  1010000 
  207000    0.8610354   -4.0817678   -4.0817678   -2.7902159  0.022761726   -4.0817678    1.2915518  1010000 
  208000   0.86135609   -4.0826752   -4.0826752   -2.7906423  0.019610968   -4.0826752    1.2920329  1010000 
  209000   0.86081089    -4.082464    -4.082464    -2.791249    0.0169217    -4.082464    1.2912151  1010000 
  210000   0.85942526   -4.0815173   -4.0815173   -2.7923807  0.016579524   -4.0815173    1.2891366  1010000 
  211000    0.8587072   -4.0808996   -4.0808996   -2.7928401  0.016455884   -4.0808996    1.2880595  1010000 
  212000   0.85803288   -4.0797231   -4.0797231    -2.792675  0.017099731   -4.0797231    1.2870481  1010000 
  213000   0.85899041   -4.0819081   -4.0819081   -2.7934238  0.014901112   -4.0819081    1.2884843  1010000 
  214000   0.85913206   -4.0825738   -4.0825738    -2.793877  0.019567079   -4.0825738    1.2886968  1010000 
  215000    0.8591214   -4.0827146   -4.0827146   -2.7940338  0.019670052   -4.0827146    1.2886808  1010000 
  216000   0.85942809   -4.0843427   -4.0843427   -2.7952019  0.019150783   -4.0843427    1.2891409  1010000 
  217000   0.85897377   -4.0839709   -4.0839709   -2.7955115  0.020362626   -4.0839709    1.2884594  1010000 
  218000   0.85914625   -4.0843314   -4.0843314   -2.7956133  0.021268128   -4.0843314    1.2887181  1010000 
  219000   0.85812335   -4.0833484   -4.0833484   -2.7961647  0.021612506   -4.0833484    1.2871838  1010000 
  220000   0.85802043   -4.0834133   -4.0834133   -2.7963839  0.017702373   -4.0834133    1.2870294  1010000 
  221000   0.85760116   -4.0835801   -4.0835801   -2.7971796   0.01661214   -4.0835801    1.2864005  1010000 
  222000   0.85782797   -4.0838625   -4.0838625   -2.7971218   0.01380293   -4.0838625    1.2867407  1010000 
  223000    0.8578257   -4.0844945   -4.0844945   -2.7977572  0.014441092   -4.0844945    1.2867373  1010000 
  224000    0.8582048   -4.0855355   -4.0855355   -2.7982295  0.017270881   -4.0855355    1.2873059  1010000 
  225000   0.85765069   -4.0853232   -4.0853232   -2.7988485  0.013158686   -4.0853232    1.2864748  1010000 
  226000   0.85825339    -4.087162    -4.087162   -2.7997832  0.013926969    -4.087162    1.2873788  1010000 
  227000   0.85807254   -4.0869657   -4.0869657   -2.7998581  0.016255207   -4.0869657    1.2871075  1010000 
  228000   0.85848566   -4.0887975   -4.0887975   -2.8010702   0.01666834   -4.0887975    1.2877272  1010000 
  229000   0.85880582   -4.0899308   -4.0899308   -2.8017233  0.013561595   -4.0899308    1.2882075  1010000 
  230000   0.85802414   -4.0885899   -4.0885899    -2.801555  0.019863937   -4.0885899    1.2870349  1010000 
  231000   0.85760357   -4.0889544   -4.0889544   -2.8025503  0.015008429   -4.0889544    1.2864041  1010000 
  232000   0.85640334   -4.0879058   -4.0879058   -2.8033021  0.014500898   -4.0879058    1.2846037  1010000 
  233000    0.8570718   -4.0888571   -4.0888571   -2.8032506   0.01664189   -4.0888571    1.2856064  1010000 
  234000   0.85710475   -4.0897775   -4.0897775   -2.8041216  0.014968406   -4.0897775    1.2856559  1010000 
  235000   0.85702595   -4.0901505   -4.0901505   -2.8046129  0.014705481   -4.0901505    1.2855377  1010000 
  236000   0.85656114   -4.0899576   -4.0899576   -2.8051172  0.018774479   -4.0899576    1.2848404  1010000 
  237000   0.85680448   -4.0903559   -4.0903559   -2.8051504  0.017179616   -4.0903559    1.2852054  1010000 
  238000   0.85646476   -4.0904169   -4.0904169   -2.8057211  0.019257997   -4.0904169    1.2846959  1010000 
  239000   0.85775961   -4.0925227   -4.0925227   -2.8058846  0.020151173   -4.0925227    1.2866381  1010000 
  240000   0.85751206   -4.0925982   -4.0925982   -2.8063313  0.016483781   -4.0925982    1.2862668  1010000 
  241000   0.85709987   -4.0924364   -4.0924364   -2.8067878  0.017801827   -4.0924364    1.2856485  1010000 
  242000   0.85769267   -4.0933856   -4.0933856   -2.8068479  0.016720941   -4.0933856    1.2865377  1010000 
  243000   0.85701742   -4.0933661   -4.0933661   -2.8078412  0.016253081   -4.0933661    1.2855249  1010000 
  244000   0.85655185   -4.0934465   -4.0934465     -2.80862  0.013737906   -4.0934465    1.2848265  1010000 
  245000   0.85642166   -4.0937046   -4.0937046   -2.8090734  0.016275146   -4.0937046    1.2846312  1010000 
  246000   0.85618529   -4.0942544   -4.0942544   -2.8099777  0.015287163   -4.0942544    1.2842767  1010000 
  247000   0.85643539   -4.0949509   -4.0949509   -2.8102991  0.014930354   -4.0949509    1.2846518  1010000 
  248000   0.85748394   -4.0966155   -4.0966155   -2.8103909  0.017824994   -4.0966155    1.2862246  1010000 
  249000     0.856725   -4.0968915   -4.0968915   -2.8118053  0.015698617   -4.0968915    1.2850862  1010000 
  250000   0.85708821   -4.0976867   -4.0976867   -2.8120557  0.016955269   -4.0976867     1.285631  1010000 
  251000   0.85693754   -4.0972783   -4.0972783   -2.8118732  0.015093347   -4.0972783     1.285405  1010000 
  252000    0.8564814   -4.0968735   -4.0968735   -2.8121526  0.016192031   -4.0968735    1.2847208  1010000 
  253000   0.85614937   -4.0970187   -4.0970187   -2.8127959  0.016286604   -4.0970187    1.2842228  1010000 
  254000   0.85702228   -4.0980705   -4.0980705   -2.8125383  0.014475541   -4.0980705    1.2855321  1010000 
  255000   0.85495729   -4.0965238   -4.0965238   -2.8140892  0.014778545   -4.0965238    1.2824347  1010000 
  256000   0.85577829   -4.0977827   -4.0977827   -2.8141166  0.011124699   -4.0977827    1.2836662  1010000 
  257000   0.85528237   -4.0968222   -4.0968222   -2.8138999   0.01729585   -4.0968222    1.2829223  1010000 
  258000   0.85684186   -4.0994977   -4.0994977   -2.8142362  0.018403778   -4.0994977    1.2852615  1010000 
  259000   0.85758373   -4.1006128   -4.1006128   -2.8142385  0.016600677   -4.1006128    1.2863743  1010000 
  260000   0.85597942   -4.0992859   -4.0992859   -2.8153181  0.016004885   -4.0992859    1.2839679  1010000 
  261000   0.85609403   -4.0993656   -4.0993656   -2.8152258   0.01864954   -4.0993656    1.2841398  1010000 
  262000   0.85541572   -4.0990054   -4.0990054    -2.815883  0.020318464   -4.0990054    1.2831223  1010000 
  263000   0.85531776   -4.0990882   -4.0990882   -2.8161129  0.016444217   -4.0990882    1.2829754  1010000 
  264000    0.8554875   -4.0997179   -4.0997179   -2.8164879  0.012831533   -4.0997179      1.28323  1010000 
  265000    0.8551175   -4.0996357   -4.0996357   -2.8169607  0.014885952   -4.0996357     1.282675  1010000 
  266000   0.85529259   -4.1004243   -4.1004243   -2.8174866  0.011461649   -4.1004243    1.2829376  1010000 
  267000   0.85520187   -4.1007223   -4.1007223   -2.8179208  0.017498353   -4.1007223    1.2828015  1010000 
  268000   0.85586894   -4.1014775   -4.1014775   -2.8176753  0.017330576   -4.1014775    1.2838021  1010000 
  269000   0.85584739   -4.1025076   -4.1025076   -2.8187377   0.01769524   -4.1025076    1.2837698  1010000 
  270000   0.85529533   -4.1017558   -4.1017558   -2.8188141  0.017635272   -4.1017558    1.2829417  1010000 
  271000      0.85603   -4.1037207   -4.1037207    -2.819677  0.013372135   -4.1037207    1.2840437  1010000 
  272000   0.85568585   -4.1034641   -4.1034641   -2.8199366  0.016612711   -4.1034641    1.2835275  1010000 
  273000   0.85627331    -4.103357    -4.103357   -2.8189483  0.016942546    -4.103357    1.2844087  1010000 
  274000   0.85589421   -4.1033358   -4.1033358   -2.8194957  0.014732798   -4.1033358      1.28384  1010000 
  275000     0.854374   -4.1023972   -4.1023972   -2.8208375  0.015018279   -4.1023972    1.2815597  1010000 
  276000   0.85572535   -4.1044232   -4.1044232   -2.8208365  0.014993084   -4.1044232    1.2835868  1010000 
  277000   0.85477849   -4.1030847   -4.1030847   -2.8209182  0.013292463   -4.1030847    1.2821665  1010000 
  278000   0.85463788   -4.1027797   -4.1027797   -2.8208241  0.012235581   -4.1027797    1.2819556  1010000 
  279000   0.85426413   -4.1025544   -4.1025544   -2.8211595  0.017221724   -4.1025544    1.2813949  1010000 
  280000     0.854795   -4.1036252   -4.1036252    -2.821434  0.018044943   -4.1036252    1.2821912  1010000 
  281000   0.85478928   -4.1049948   -4.1049948   -2.8228122  0.014405158   -4.1049948    1.2821827  1010000 
  282000   0.85599788   -4.1070471   -4.1070471   -2.8230515  0.015655445   -4.1070471    1.2839955  1010000 
  283000   0.85598428   -4.1070063   -4.1070063   -2.8230311  0.021291606   -4.1070063    1.2839751  1010000 
  284000   0.85569173   -4.1071138   -4.1071138   -2.8235775  0.019563173   -4.1071138    1.2835363  1010000 
  285000    0.8559745   -4.1070979   -4.1070979   -2.8231374  0.024052993   -4.1070979    1.2839605  1010000 
  286000    0.8564207   -4.1086222   -4.1086222   -2.8239925  0.016785406   -4.1086222    1.2846298  1010000 
  287000   0.85509307   -4.1075149   -4.1075149   -2.8248766  0.017594635   -4.1075149    1.2826383  1010000 
  288000   0.85547546   -4.1087814   -4.1087814   -2.8255695  0.015951921   -4.1087814    1.2832119  1010000 
  289000   0.85519632   -4.1084573   -4.1084573   -2.8256641  0.021080735   -4.1084573    1.2827932  1010000 
  290000   0.85617307   -4.1094121   -4.1094121   -2.8251538  0.016546415   -4.1094121    1.2842583  1010000 
  291000   0.85603463   -4.1098563   -4.1098563   -2.8258056  0.014336018   -4.1098563    1.2840507  1010000 
  292000   0.85553831   -4.1096645   -4.1096645   -2.8263583  0.018966385   -4.1096645    1.2833062  1010000 
  293000   0.85594031   -4.1105052   -4.1105052   -2.8265961  0.016263128   -4.1105052    1.2839092  1010000 
  294000   0.85631965   -4.1111783   -4.1111783   -2.8267001  0.016153464   -4.1111783    1.2844782  1010000 
  295000   0.85601404   -4.1114761   -4.1114761   -2.8274564  0.017696722   -4.1114761    1.2840198  1010000 
  296000   0.85616085   -4.1122302   -4.1122302   -2.8279902  0.014651967   -4.1122302      1.28424  1010000 
  297000   0.85417552   -4.1099011   -4.1099011   -2.8286391  0.015074945   -4.1099011     1.281262  1010000 
  298000   0.85601357    -4.113233    -4.113233   -2.8292139 0.0068308574    -4.113233    1.2840191  1010000 
  299000   0.85530172   -4.1116469   -4.1116469   -2.8286956   0.01707519   -4.1116469    1.2829513  1010000 
  300000   0.85561887   -4.1127779   -4.1127779   -2.8293508  0.019028352   -4.1127779     1.283427  1010000 
  301000   0.85726334   -4.1153529   -4.1153529   -2.8294592  0.014592488   -4.1153529    1.2858937  1010000 
  302000   0.85552184   -4.1136344   -4.1136344   -2.8303529  0.022933481   -4.1136344    1.2832815  1010000 
  303000   0.85676983   -4.1161579   -4.1161579   -2.8310045  0.018008365   -4.1161579    1.2851535  1010000 
  304000   0.85672788   -4.1165433   -4.1165433   -2.8314527  0.018541515   -4.1165433    1.2850905  1010000 
  305000   0.85705367   -4.1172899   -4.1172899   -2.8317107  0.019776448   -4.1172899    1.2855792  1010000 
  306000    0.8557467   -4.1160662   -4.1160662   -2.8324474   0.02005513   -4.1160662    1.2836188  1010000 
  307000      0.85644   -4.1166965   -4.1166965   -2.8320378  0.019817077   -4.1166965    1.2846587  1010000 
  308000   0.85485747   -4.1149557   -4.1149557   -2.8326707  0.018606696   -4.1149557    1.2822849  1010000 
  309000   0.85548951   -4.1163678   -4.1163678   -2.8331348  0.015204255   -4.1163678     1.283233  1010000 
  310000   0.85504114   -4.1154095   -4.1154095    -2.832849  0.017007695   -4.1154095    1.2825604  1010000 
  311000   0.85533156   -4.1159981   -4.1159981   -2.8330021  0.015741482   -4.1159981    1.2829961  1010000 
  312000   0.85590055   -4.1161632   -4.1161632   -2.8323136  0.018386014   -4.1161632    1.2838496  1010000 
  313000   0.85645807   -4.1166338   -4.1166338    -2.831948   0.02606619   -4.1166338    1.2846858  1010000 
  314000   0.85721062   -4.1183677   -4.1183677   -2.8325531  0.021295549   -4.1183677    1.2858147  1010000 
  315000   0.85700001   -4.1189372   -4.1189372   -2.8334385  0.019420312   -4.1189372    1.2854987  1010000 
  316000    0.8572873   -4.1196932   -4.1196932   -2.8337635  0.019578202   -4.1196932    1.2859297  1010000 
  317000   0.85670305    -4.119667    -4.119667   -2.8346137  0.022983657    -4.119667    1.2850533  1010000 
  318000   0.85736678   -4.1211109   -4.1211109    -2.835062  0.021898355   -4.1211109    1.2860489  1010000 
  319000   0.85715769    -4.121535    -4.121535   -2.8357998  0.019060677    -4.121535    1.2857353  1010000 
  320000   0.85739877   -4.1221738   -4.1221738   -2.8360769  0.023993626   -4.1221738    1.2860969  1010000 
  321000   0.85706711   -4.1226301   -4.1226301   -2.8370307   0.02507252   -4.1226301    1.2855994  1010000 
  322000   0.85753985   -4.1243821   -4.1243821   -2.8380736  0.023337772   -4.1243821    1.2863085  1010000 
  323000   0.85768549    -4.124609    -4.124609    -2.838082  0.019477004    -4.124609     1.286527  1010000 
  324000   0.85739231   -4.1252272   -4.1252272   -2.8391401  0.022343059   -4.1252272    1.2860872  1010000 
  325000   0.85765895   -4.1261377   -4.1261377   -2.8396506  0.022241469   -4.1261377    1.2864871  1010000 
  326000   0.85693966   -4.1254197   -4.1254197   -2.8400115   0.02640092   -4.1254197    1.2854082  1010000 
  327000   0.85765817   -4.1271527   -4.1271527   -2.8406667  0.025097029   -4.1271527     1.286486  1010000 
  328000   0.85723773   -4.1272539   -4.1272539   -2.8413986  0.027254116   -4.1272539    1.2858553  1010000 
  329000   0.85800652   -4.1286108   -4.1286108   -2.8416023  0.026734141   -4.1286108    1.2870085  1010000 
  330000   0.85767273   -4.1281751   -4.1281751   -2.8416673  0.022944121   -4.1281751    1.2865078  1010000 
  331000    0.8568114   -4.1276639   -4.1276639   -2.8424481  0.027221207   -4.1276639    1.2852158  1010000 
  332000   0.85701506   -4.1280668   -4.1280668   -2.8425455  0.027925185   -4.1280668    1.2855213  1010000 
  333000   0.85646441   -4.1277155   -4.1277155   -2.8430202  0.024625583   -4.1277155    1.2846953  1010000 
  334000   0.85655394   -4.1277772   -4.1277772   -2.8429476    0.0271988   -4.1277772    1.2848296  1010000 
  335000   0.85701925   -4.1292765   -4.1292765   -2.8437489  0.026245023   -4.1292765    1.2855276  1010000 
  336000   0.85713685    -4.129464    -4.129464     -2.84376  0.025035761    -4.129464     1.285704  1010000 
  337000   0.85685289   -4.1285959   -4.1285959   -2.8433179  0.024417609   -4.1285959    1.2852781  1010000 
  338000   0.85758014   -4.1300497   -4.1300497   -2.8436807  0.026093284   -4.1300497    1.2863689  1010000 
  339000   0.85750388   -4.1300473   -4.1300473   -2.8437928  0.026532562   -4.1300473    1.2862545  1010000 
  340000   0.85683721   -4.1298373   -4.1298373   -2.8445828  0.029508382   -4.1298373    1.2852545  1010000 
  341000   0.85719378    -4.131247    -4.131247   -2.8454576  0.028086261    -4.131247    1.2857894  1010000 
  342000   0.85731233   -4.1320196   -4.1320196   -2.8460524  0.027497214   -4.1320196    1.2859672  1010000 
  343000   0.85647581   -4.1313927   -4.1313927   -2.8466803  0.025045237   -4.1313927    1.2847124  1010000 
  344000   0.85682319   -4.1312541   -4.1312541   -2.8460206  0.025434983   -4.1312541    1.2852335  1010000 
  345000   0.85641488   -4.1308694   -4.1308694   -2.8462483  0.021302885   -4.1308694    1.2846211  1010000 
  346000   0.85633595   -4.1309392   -4.1309392   -2.8464366  0.022137424   -4.1309392    1.2845027  1010000 
  347000   0.85668951   -4.1319533   -4.1319533   -2.8469203  0.024171235   -4.1319533     1.285033  1010000 
  348000   0.85584473   -4.1310168   -4.1310168    -2.847251  0.025203752   -4.1310168    1.2837658  1010000 
  349000   0.85553489    -4.131262    -4.131262    -2.847961  0.022031876    -4.131262    1.2833011  1010000 
  350000   0.85609335   -4.1321307   -4.1321307   -2.8479919  0.023939739   -4.1321307    1.2841388  1010000 
  351000   0.85643957   -4.1320752   -4.1320752   -2.8474171  0.023418397   -4.1320752    1.2846581  1010000 
  352000   0.85531726   -4.1303533   -4.1303533   -2.8473786   0.02102937   -4.1303533    1.2829746  1010000 
  353000   0.85642028   -4.1324371   -4.1324371    -2.847808  0.021280048   -4.1324371    1.2846291  1010000 
  354000   0.85487736   -4.1312491   -4.1312491   -2.8489344  0.022329548   -4.1312491    1.2823148  1010000 
  355000   0.85499077   -4.1312172   -4.1312172   -2.8487323  0.019339182   -4.1312172    1.2824849  1010000 
  356000   0.85440061   -4.1311038   -4.1311038   -2.8495042  0.015237161   -4.1311038    1.2815996  1010000 
  357000   0.85399539   -4.1307029   -4.1307029   -2.8497111  0.016811643   -4.1307029    1.2809918  1010000 
  358000   0.85476586   -4.1320634   -4.1320634   -2.8499158  0.017248234   -4.1320634    1.2821475  1010000 
  359000   0.85508452   -4.1321502   -4.1321502   -2.8495247  0.015344098   -4.1321502    1.2826255  1010000 
  360000   0.85463165   -4.1322633   -4.1322633   -2.8503171  0.017647167   -4.1322633    1.2819462  1010000 
  361000   0.85397906   -4.1312082   -4.1312082   -2.8502409  0.020053303   -4.1312082    1.2809673  1010000 
  362000    0.8543099   -4.1326972   -4.1326972   -2.8512336  0.016056419   -4.1326972    1.2814636  1010000 
  363000   0.85435179   -4.1323486   -4.1323486   -2.8508222  0.017055192   -4.1323486    1.2815264  1010000 
  364000   0.85364999   -4.1322844   -4.1322844   -2.8518107  0.017986957   -4.1322844    1.2804737  1010000 
  365000   0.85409395   -4.1330988   -4.1330988   -2.8519591   0.01837942   -4.1330988    1.2811397  1010000 
  366000   0.85521481   -4.1351117   -4.1351117   -2.8522908  0.015087783   -4.1351117    1.2828209  1010000 
  367000   0.85379911   -4.1326442   -4.1326442   -2.8519468  0.023097511   -4.1326442    1.2806974  1010000 
  368000   0.85432602   -4.1339945   -4.1339945   -2.8525067  0.015629275   -4.1339945    1.2814878  1010000 
  369000   0.85495455   -4.1350914   -4.1350914   -2.8526609  0.020742479   -4.1350914    1.2824306  1010000 
  370000   0.85363535   -4.1338102   -4.1338102   -2.8533584  0.023499175   -4.1338102    1.2804518  1010000 
  371000   0.85464955   -4.1351902   -4.1351902   -2.8532171  0.023396607   -4.1351902     1.281973  1010000 
  372000   0.85476128   -4.1355066   -4.1355066   -2.8533659  0.022123725   -4.1355066    1.2821406  1010000 
  373000   0.85504021   -4.1359678   -4.1359678   -2.8534087   0.02412865   -4.1359678     1.282559  1010000 
  374000   0.85557911   -4.1373384   -4.1373384    -2.853971  0.021135969   -4.1373384    1.2833674  1010000 
  375000   0.85516945   -4.1374558   -4.1374558   -2.8547028  0.017040861   -4.1374558    1.2827529  1010000 
  376000   0.85437644   -4.1369827   -4.1369827   -2.8554193   0.02204937   -4.1369827    1.2815634  1010000 
  377000   0.85557847    -4.138396    -4.138396   -2.8550295  0.022478626    -4.138396    1.2833664  1010000 
  378000   0.85507303   -4.1374008   -4.1374008   -2.8547925  0.022264039   -4.1374008    1.2826083  1010000 
  379000   0.85507932   -4.1377133   -4.1377133   -2.8550956  0.022470497   -4.1377133    1.2826177  1010000 
  380000    0.8555601   -4.1386679   -4.1386679    -2.855329  0.018302569   -4.1386679    1.2833389  1010000 
  381000   0.85518079   -4.1380624   -4.1380624   -2.8552925  0.019141208   -4.1380624    1.2827699  1010000 
  382000    0.8545615   -4.1376432   -4.1376432   -2.8558023  0.023412013   -4.1376432     1.281841  1010000 
  383000   0.85501659    -4.138418    -4.138418   -2.8558944  0.024228066    -4.138418    1.2825236  1010000 
  384000   0.85484695   -4.1385926   -4.1385926   -2.8563234  0.020498829   -4.1385926    1.2822692  1010000 
  385000   0.85334219   -4.1369112   -4.1369112   -2.8568992  0.019873578   -4.1369112     1.280012  1010000 
  386000   0.85303571   -4.1368914   -4.1368914   -2.8573391  0.020022335   -4.1368914    1.2795523  1010000 
  387000   0.85332843   -4.1371142   -4.1371142   -2.8571229  0.019805568   -4.1371142    1.2799914  1010000 
  388000    0.8533024   -4.1378372   -4.1378372   -2.8578848   0.01709875   -4.1378372    1.2799523  1010000 
  389000   0.85316808   -4.1373959   -4.1373959    -2.857645  0.014954898   -4.1373959    1.2797509  1010000 
  390000   0.85291823   -4.1369707   -4.1369707   -2.8575946  0.023566765   -4.1369707    1.2793761  1010000 
  391000   0.85351066   -4.1379405   -4.1379405   -2.8576758  0.018802912   -4.1379405    1.2802647  1010000 
  392000   0.85407176   -4.1387114   -4.1387114   -2.8576051  0.019239115   -4.1387114    1.2811064  1010000 
  393000    0.8545898   -4.1388972   -4.1388972   -2.8570138  0.022438496   -4.1388972    1.2818834  1010000 
  394000   0.85394482   -4.1389358   -4.1389358   -2.8580198  0.022140573   -4.1389358     1.280916  1010000 
  395000   0.85406608   -4.1393006   -4.1393006   -2.8582028   0.02263083   -4.1393006    1.2810979  1010000 
  396000   0.85358458   -4.1388759   -4.1388759   -2.8585003  0.022236329   -4.1388759    1.2803756  1010000 
  397000   0.85336597   -4.1385521   -4.1385521   -2.8585044  0.021051347   -4.1385521    1.2800477  1010000 
  398000   0.85348749   -4.1384648   -4.1384648   -2.8582348  0.020555868   -4.1384648      1.28023  1010000 
  399000    0.8534433    -4.138331    -4.138331   -2.8581674  0.021053467    -4.138331    1.2801637  1010000 
  400000   0.85388714   -4.1396763   -4.1396763   -2.8588469  0.017911302   -4.1396763    1.2808294  1010000 
  401000   0.85369003   -4.1393484   -4.1393484   -2.8588146   0.02341983   -4.1393484    1.2805338  1010000 
  402000   0.85417107   -4.1399896   -4.1399896   -2.8587343  0.021422145   -4.1399896    1.2812553  1010000 
  403000   0.85462665   -4.1409904   -4.1409904   -2.8590517  0.021409304   -4.1409904    1.2819387  1010000 
  404000   0.85439026   -4.1417426   -4.1417426   -2.8601585    0.0170668   -4.1417426    1.2815841  1010000 
  405000   0.85322935   -4.1404017   -4.1404017   -2.8605589  0.022145384   -4.1404017    1.2798428  1010000 
  406000    0.8535383   -4.1414137   -4.1414137   -2.8611075   0.01932751   -4.1414137    1.2803062  1010000 
  407000    0.8534595   -4.1408174   -4.1408174   -2.8606294  0.025136827   -4.1408174     1.280188  1010000 
  408000   0.85281481   -4.1401947   -4.1401947   -2.8609737  0.021487228   -4.1401947     1.279221  1010000 
  409000   0.85265302   -4.1404906   -4.1404906   -2.8615123  0.018151299   -4.1404906    1.2789783  1010000 
  410000   0.85320523   -4.1416096   -4.1416096    -2.861803  0.015837088   -4.1416096    1.2798066  1010000 
  411000   0.85203359   -4.1401143   -4.1401143   -2.8620652  0.019815835   -4.1401143    1.2780491  1010000 
  412000   0.85206202   -4.1407358   -4.1407358   -2.8626441  0.021581118   -4.1407358    1.2780918  1010000 
  413000   0.85278909   -4.1416827   -4.1416827   -2.8625004  0.024545698   -4.1416827    1.2791824  1010000 
  414000   0.85370874   -4.1430263   -4.1430263   -2.8624644  0.022589596   -4.1430263    1.2805618  1010000 
  415000   0.85426962   -4.1442259   -4.1442259   -2.8628227  0.022705954   -4.1442259    1.2814032  1010000 
  416000   0.85313931   -4.1420802   -4.1420802   -2.8623725  0.022256825   -4.1420802    1.2797077  1010000 
  417000   0.85287486   -4.1419816   -4.1419816   -2.8626706  0.019710978   -4.1419816     1.279311  1010000 
  418000   0.85222221   -4.1413789   -4.1413789   -2.8630468  0.022214038   -4.1413789    1.2783321  1010000 
  419000   0.85362763   -4.1433044   -4.1433044   -2.8628642  0.019661017   -4.1433044    1.2804402  1010000 
  420000   0.85290665    -4.142625    -4.142625   -2.8632663  0.023983221    -4.142625    1.2793587  1010000 
  421000   0.85270693   -4.1424706   -4.1424706   -2.8634114  0.021019672   -4.1424706    1.2790591  1010000 
  422000   0.85281002   -4.1432269   -4.1432269   -2.8640132  0.017466076   -4.1432269    1.2792138  1010000 
  423000   0.85313902    -4.143316    -4.143316   -2.8636088  0.018406305    -4.143316    1.2797073  1010000 
  424000   0.85310298   -4.1427103   -4.1427103   -2.8630571  0.024830247   -4.1427103    1.2796532  1010000 
  425000   0.85340409   -4.1433118   -4.1433118   -2.8632069  0.021572927   -4.1433118    1.2801049  1010000 
  426000   0.85363237   -4.1437444   -4.1437444   -2.8632971   0.02640208   -4.1437444    1.2804473  1010000 
  427000   0.85301659   -4.1432818   -4.1432818   -2.8637582  0.022442885   -4.1432818    1.2795236  1010000 
  428000    0.8527645   -4.1428726   -4.1428726   -2.8637271  0.019109623   -4.1428726    1.2791455  1010000 
  429000   0.85268834   -4.1428895   -4.1428895   -2.8638583  0.022111101   -4.1428895    1.2790312  1010000 
  430000   0.85254029   -4.1432216   -4.1432216   -2.8644124  0.020210189   -4.1432216    1.2788092  1010000 
  431000   0.85218421   -4.1431644   -4.1431644   -2.8648893  0.019945926   -4.1431644    1.2782751  1010000 
  432000   0.85201832   -4.1434749   -4.1434749   -2.8654487  0.018892253   -4.1434749    1.2780262  1010000 
  433000    0.8515335   -4.1429302   -4.1429302   -2.8656312  0.017478546   -4.1429302     1.277299  1010000 
  434000   0.85273755   -4.1452034   -4.1452034   -2.8660984     0.016487   -4.1452034    1.2791051  1010000 
  435000   0.85222987   -4.1444861   -4.1444861   -2.8661425  0.018686943   -4.1444861    1.2783435  1010000 
  436000     0.852096   -4.1444428   -4.1444428   -2.8663001  0.020039885   -4.1444428    1.2781427  1010000 
  437000   0.85188313   -4.1442836   -4.1442836   -2.8664602  0.023222346   -4.1442836    1.2778234  1010000 
  438000   0.85297519   -4.1460542   -4.1460542   -2.8665927  0.017771673   -4.1460542    1.2794615  1010000 
  439000    0.8517117   -4.1444135   -4.1444135   -2.8668473  0.020734907   -4.1444135    1.2775663  1010000 
  440000   0.85255419   -4.1454384   -4.1454384   -2.8666084  0.018704999   -4.1454384      1.27883  1010000 
  441000   0.85269173   -4.1455701   -4.1455701   -2.8665338  0.018660796   -4.1455701    1.2790363  1010000 
  442000   0.85274475    -4.145853    -4.145853   -2.8667372  0.020543481    -4.145853    1.2791159  1010000 
  443000   0.85243024   -4.1454623   -4.1454623   -2.8668182  0.022372252   -4.1454623    1.2786441  1010000 
  444000   0.85376614   -4.1473893   -4.1473893   -2.8667413  0.022650489   -4.1473893    1.2806479  1010000 
  445000   0.85281384    -4.146828    -4.146828   -2.8676085  0.028811569    -4.146828    1.2792195  1010000 
  446000   0.85283967   -4.1462969   -4.1462969   -2.8670387   0.02384867   -4.1462969    1.2792582  1010000 
  447000   0.85281541   -4.1459531   -4.1459531   -2.8667312  0.026040801   -4.1459531    1.2792218  1010000 
  448000   0.85333054   -4.1467721   -4.1467721   -2.8667776  0.024578698   -4.1467721    1.2799945  1010000 
  449000    0.8525739   -4.1460935   -4.1460935   -2.8672339  0.021062732   -4.1460935    1.2788596  1010000 
  450000   0.85279022   -4.1462025   -4.1462025   -2.8670185  0.023212711   -4.1462025    1.2791841  1010000 
  451000   0.85220339   -4.1465351   -4.1465351   -2.8682313  0.022675441   -4.1465351    1.2783038  1010000 
  452000   0.85257893   -4.1480936   -4.1480936   -2.8692265  0.021973012   -4.1480936    1.2788671  1010000 
  453000   0.85228329   -4.1474537   -4.1474537     -2.86903  0.021178538   -4.1474537    1.2784237  1010000 
  454000   0.85167413   -4.1471204   -4.1471204   -2.8696105  0.021648157   -4.1471204    1.2775099  1010000 
  455000   0.85130312   -4.1465021   -4.1465021   -2.8695487  0.023511919   -4.1465021    1.2769534  1010000 
  456000   0.85184744     -4.14693     -4.14693   -2.8691601  0.021637979     -4.14693    1.2777699  1010000 
  457000   0.85083115   -4.1459183   -4.1459183   -2.8696728  0.020403978   -4.1459183    1.2762455  1010000 
  458000   0.85079144   -4.1454641   -4.1454641   -2.8692782  0.020613212   -4.1454641    1.2761859  1010000 
  459000   0.85096984   -4.1456733   -4.1456733   -2.8692198  0.021118972   -4.1456733    1.2764535  1010000 
  460000    0.8513892   -4.1463017   -4.1463017   -2.8692192  0.023886459   -4.1463017    1.2770825  1010000 
  461000   0.85178227   -4.1469882   -4.1469882   -2.8693161   0.02103702   -4.1469882    1.2776721  1010000 
  462000   0.85163344   -4.1465378   -4.1465378   -2.8690889  0.023449467   -4.1465378    1.2774489  1010000 
  463000   0.85231246   -4.1477003   -4.1477003   -2.8692329   0.02217036   -4.1477003    1.2784674  1010000 
  464000   0.85260863   -4.1480185   -4.1480185   -2.8691068   0.02153219   -4.1480185    1.2789117  1010000 
  465000   0.85295527   -4.1479455   -4.1479455   -2.8685138  0.021799548   -4.1479455    1.2794316  1010000 
  466000   0.85214223   -4.1465545   -4.1465545   -2.8683425  0.023503607   -4.1465545    1.2782121  1010000 
  467000   0.85258715   -4.1480565   -4.1480565    -2.869177  0.020106605   -4.1480565    1.2788795  1010000 
  468000   0.85180448   -4.1468245   -4.1468245   -2.8691191  0.024380003   -4.1468245    1.2777055  1010000 
  469000   0.85200415   -4.1471427   -4.1471427   -2.8691377  0.018865291   -4.1471427     1.278005  1010000 
  470000   0.85132806   -4.1469516   -4.1469516   -2.8699607  0.019586855   -4.1469516    1.2769908  1010000 
  471000   0.85038936   -4.1459065   -4.1459065   -2.8703237   0.01868153   -4.1459065    1.2755828  1010000 
  472000   0.85254732   -4.1483569   -4.1483569   -2.8695372  0.019461643   -4.1483569    1.2788197  1010000 
  473000   0.85266162   -4.1480844   -4.1480844   -2.8690933  0.019259532   -4.1480844    1.2789912  1010000 
  474000   0.85273674   -4.1486938   -4.1486938     -2.86959  0.020915525   -4.1486938    1.2791038  1010000 
  475000   0.85164839   -4.1467492   -4.1467492   -2.8692779  0.022665488   -4.1467492    1.2774713  1010000 
  476000   0.85183187   -4.1470891   -4.1470891   -2.8693426  0.023760396   -4.1470891    1.2777465  1010000 
  477000   0.85232497   -4.1482758   -4.1482758   -2.8697896  0.017435959   -4.1482758    1.2784862  1010000 
  478000   0.85144276   -4.1470877   -4.1470877   -2.8699248  0.019234372   -4.1470877    1.2771629  1010000 
  479000   0.85159045   -4.1471182   -4.1471182   -2.8697338  0.022003714   -4.1471182    1.2773844  1010000 
  480000   0.85142081   -4.1468041   -4.1468041   -2.8696741  0.021022246   -4.1468041      1.27713  1010000 
  481000   0.85143341   -4.1469633   -4.1469633   -2.8698145  0.018838041   -4.1469633    1.2771489  1010000 
  482000   0.85171304   -4.1475547   -4.1475547   -2.8699864   0.01923654   -4.1475547    1.2775683  1010000 
  483000   0.85167828   -4.1475172   -4.1475172   -2.8700011   0.01956712   -4.1475172    1.2775162  1010000 
  484000   0.85290719    -4.149088    -4.149088   -2.8697285  0.017359182    -4.149088    1.2793595  1010000 
  485000   0.85196046   -4.1474114   -4.1474114    -2.869472  0.024544609   -4.1474114    1.2779394  1010000 
  486000   0.85214395   -4.1476331   -4.1476331   -2.8694185   0.02236292   -4.1476331    1.2782147  1010000 
  487000    0.8523579   -4.1480541   -4.1480541   -2.8695185  0.022192685   -4.1480541    1.2785356  1010000 
  488000   0.85171169   -4.1473427   -4.1473427   -2.8697764  0.022754294   -4.1473427    1.2775663  1010000 
  489000   0.85148505   -4.1475757   -4.1475757   -2.8703494  0.016888539   -4.1475757    1.2772263  1010000 
  490000   0.85178042   -4.1484003   -4.1484003   -2.8707309  0.021520983   -4.1484003    1.2776694  1010000 
  491000   0.85121881   -4.1475578   -4.1475578   -2.8707309  0.024652647   -4.1475578     1.276827  1010000 
  492000   0.85081578   -4.1473594   -4.1473594    -2.871137  0.019784974   -4.1473594    1.2762224  1010000 
  493000   0.85137098   -4.1485837   -4.1485837   -2.8715285  0.020667398   -4.1485837    1.2770552  1010000 
  494000   0.85051785    -4.147974    -4.147974   -2.8721984  0.021932877    -4.147974    1.2757755  1010000 
  495000   0.85078321   -4.1480085   -4.1480085    -2.871835  0.022953784   -4.1480085    1.2761736  1010000 
  496000   0.85187216   -4.1496149   -4.1496149   -2.8718079  0.018607334   -4.1496149     1.277807  1010000 
  497000   0.85236432   -4.1503225   -4.1503225   -2.8717773  0.019055177   -4.1503225    1.2785452  1010000 
  498000   0.85144655   -4.1488019   -4.1488019   -2.8716333  0.025666008   -4.1488019    1.2771686  1010000 
  499000   0.85215985   -4.1498953   -4.1498953   -2.8716567  0.022298433   -4.1498953    1.2782385  1010000 
  500000   0.85191193   -4.1500872   -4.1500872   -2.8722206  0.019349384   -4.1500872    1.2778666  1010000 
  501000   0.85172449   -4.1498598   -4.1498598   -2.8722744  0.024906296   -4.1498598    1.2775855  1010000 
  502000   0.85083144   -4.1484092   -4.1484092   -2.8721633  0.025964079   -4.1484092    1.2762459  1010000 
  503000    0.8521485   -4.1501885   -4.1501885   -2.8719671  0.023413055   -4.1501885    1.2782215  1010000 
  504000   0.85175874    -4.149579    -4.149579   -2.8719421   0.02411243    -4.149579    1.2776368  1010000 
  505000   0.85109014   -4.1489607   -4.1489607   -2.8723267   0.02420505   -4.1489607    1.2766339  1010000 
  506000   0.85150109   -4.1504329   -4.1504329   -2.8731826  0.019325527   -4.1504329    1.2772504  1010000 
  507000   0.85114225   -4.1497537   -4.1497537   -2.8730416     0.025217   -4.1497537    1.2767121  1010000 
  508000   0.85097535   -4.1497479   -4.1497479   -2.8732861  0.022221055   -4.1497479    1.2764618  1010000 
  509000   0.85121067   -4.1510478   -4.1510478   -2.8742331  0.024405221   -4.1510478    1.2768147  1010000 
  510000   0.85107917   -4.1501849   -4.1501849   -2.8735674  0.023900465   -4.1501849    1.2766175  1010000 
  511000   0.85086239   -4.1495253   -4.1495253   -2.8732329  0.019871661   -4.1495253    1.2762923  1010000 
  512000   0.85102239   -4.1496723   -4.1496723     -2.87314  0.019031498   -4.1496723    1.2765323  1010000 
  513000   0.85141463   -4.1505083   -4.1505083   -2.8733876  0.023800107   -4.1505083    1.2771207  1010000 
  514000   0.85189994    -4.150855    -4.150855   -2.8730063  0.021593183    -4.150855    1.2778486  1010000 
  515000   0.85097886   -4.1501006   -4.1501006   -2.8736336  0.021643686   -4.1501006     1.276467  1010000 
  516000     0.850889   -4.1498337   -4.1498337   -2.8735015  0.021097713   -4.1498337    1.2763322  1010000 
  517000   0.85054592   -4.1495482   -4.1495482   -2.8737306  0.023617842   -4.1495482    1.2758176  1010000 
  518000   0.85058128   -4.1501478   -4.1501478   -2.8742771  0.021084347   -4.1501478    1.2758707  1010000 
  519000    0.8500834   -4.1487057   -4.1487057   -2.8735819   0.02416995   -4.1487057    1.2751238  1010000 
  520000   0.85027516   -4.1492834   -4.1492834    -2.873872  0.022862078   -4.1492834    1.2754115  1010000 
  521000   0.84994335   -4.1487282   -4.1487282   -2.8738144   0.02489724   -4.1487282    1.2749138  1010000 
  522000    0.8515156   -4.1511971   -4.1511971    -2.873925  0.018368658   -4.1511971    1.2772721  1010000 
  523000   0.85078308   -4.1494393   -4.1494393    -2.873266  0.024635588   -4.1494393    1.2761734  1010000 
  524000   0.85066245   -4.1489969   -4.1489969   -2.8730045  0.022830802   -4.1489969    1.2759924  1010000 
  525000    0.8514188   -4.1506924   -4.1506924   -2.8735654  0.021636584   -4.1506924    1.2771269  1010000 
  526000   0.85127911   -4.1499414   -4.1499414    -2.873024  0.019913147   -4.1499414    1.2769174  1010000 
  527000   0.85046686   -4.1493176   -4.1493176   -2.8736185  0.024695596   -4.1493176     1.275699  1010000 
  528000   0.85073404   -4.1501925   -4.1501925   -2.8740927  0.021468147   -4.1501925    1.2760998  1010000 
  529000   0.85165456   -4.1516911   -4.1516911   -2.8742105  0.020758683   -4.1516911    1.2774806  1010000 
  530000   0.85048296   -4.1504717   -4.1504717   -2.8747485  0.023043358   -4.1504717    1.2757232  1010000 
  531000   0.85030573   -4.1503165   -4.1503165   -2.8748591  0.018890273   -4.1503165    1.2754573  1010000 
  532000   0.85049904   -4.1511188   -4.1511188   -2.8753715  0.021958698   -4.1511188    1.2757473  1010000 
  533000   0.85033038   -4.1508321   -4.1508321   -2.8753378  0.023662649   -4.1508321    1.2754943  1010000 
  534000   0.85139225   -4.1513405   -4.1513405   -2.8742534  0.023981514   -4.1513405    1.2770871  1010000 
  535000   0.85084087   -4.1505054   -4.1505054   -2.8742454  0.026665343   -4.1505054      1.27626  1010000 
  536000   0.85216667    -4.152036    -4.152036   -2.8737873  0.022155268    -4.152036    1.2782487  1010000 
  537000   0.85102099   -4.1500274   -4.1500274   -2.8734972  0.027275167   -4.1500274    1.2765302  1010000 
  538000   0.85145554   -4.1512166   -4.1512166   -2.8740346  0.024285992   -4.1512166     1.277182  1010000 
  539000   0.85243561   -4.1521097   -4.1521097   -2.8734575  0.022376895   -4.1521097    1.2786522  1010000 
  540000   0.85138791   -4.1506366   -4.1506366    -2.873556   0.02463161   -4.1506366    1.2770806  1010000 
  541000   0.85163526   -4.1518644   -4.1518644   -2.8744128  0.024455536   -4.1518644    1.2774516  1010000 
  542000   0.85113804   -4.1514375   -4.1514375   -2.8747317  0.024157402   -4.1514375    1.2767058  1010000 
  543000   0.85062083   -4.1507711   -4.1507711   -2.8748411  0.024108655   -4.1507711      1.27593  1010000 
  544000   0.84996059   -4.1503014   -4.1503014   -2.8753618  0.022985344   -4.1503014    1.2749396  1010000 
  545000   0.84990705   -4.1505527   -4.1505527   -2.8756934  0.018593202   -4.1505527    1.2748593  1010000 
  546000   0.85000676   -4.1507181   -4.1507181   -2.8757092  0.022237314   -4.1507181    1.2750089  1010000 
  547000   0.85010325   -4.1506186   -4.1506186    -2.875465  0.021170368   -4.1506186    1.2751536  1010000 
  548000   0.85062002   -4.1521277   -4.1521277   -2.8761989   0.01571246   -4.1521277    1.2759288  1010000 
  549000   0.84975411   -4.1503735   -4.1503735   -2.8757436  0.021948955   -4.1503735    1.2746299  1010000 
  550000   0.85060725   -4.1513229   -4.1513229   -2.8754133  0.018490861   -4.1513229    1.2759096  1010000 
  551000   0.85067157   -4.1511238   -4.1511238   -2.8751177  0.024040026   -4.1511238    1.2760061  1010000 
  552000   0.85072399   -4.1510723   -4.1510723   -2.8749875  0.020378104   -4.1510723    1.2760847  1010000 
  553000   0.85115985   -4.1509357   -4.1509357   -2.8741972   0.02177471   -4.1509357    1.2767385  1010000 
  554000   0.85082399   -4.1509027   -4.1509027    -2.874668  0.024498825   -4.1509027    1.2762347  1010000 
  555000   0.85056683   -4.1511043   -4.1511043   -2.8752553  0.024126343   -4.1511043     1.275849  1010000 
  556000   0.85092112    -4.151769    -4.151769   -2.8753886  0.021502156    -4.151769    1.2763804  1010000 
  557000   0.85064194   -4.1517938   -4.1517938   -2.8758322  0.021871568   -4.1517938    1.2759617  1010000 
  558000   0.85039572   -4.1514234   -4.1514234   -2.8758311  0.022544048   -4.1514234    1.2755923  1010000 
  559000   0.85093631   -4.1519889   -4.1519889   -2.8755857  0.020674923   -4.1519889    1.2764032  1010000 
  560000   0.85076641   -4.1512901   -4.1512901   -2.8751418  0.022964223   -4.1512901    1.2761484  1010000 
  561000   0.85061476   -4.1510436   -4.1510436   -2.8751227  0.022637408   -4.1510436    1.2759209  1010000 
  562000   0.85025842   -4.1507434   -4.1507434    -2.875357  0.023618193   -4.1507434    1.2753864  1010000 
  563000   0.85008193   -4.1509245   -4.1509245   -2.8758029  0.027374258   -4.1509245    1.2751216  1010000 
  564000   0.85018089   -4.1503794   -4.1503794   -2.8751093  0.027961916   -4.1503794    1.2752701  1010000 
  565000   0.85057638   -4.1513976   -4.1513976   -2.8755343  0.024895854   -4.1513976    1.2758633  1010000 
  566000   0.85125326   -4.1518931   -4.1518931   -2.8750144  0.022229334   -4.1518931    1.2768786  1010000 
  567000   0.85175581   -4.1523377   -4.1523377   -2.8747053   0.02233093   -4.1523377    1.2776325  1010000 
  568000   0.85105919   -4.1508988   -4.1508988   -2.8743113  0.026748905   -4.1508988    1.2765875  1010000 
  569000   0.85061381   -4.1506219   -4.1506219   -2.8747024  0.021845089   -4.1506219    1.2759195  1010000 
  570000   0.85098581   -4.1514532   -4.1514532   -2.8749757  0.020423862   -4.1514532    1.2764775  1010000 
  571000   0.85016115   -4.1500616   -4.1500616   -2.8748211  0.022413938   -4.1500616    1.2752405  1010000 
  572000   0.85122605   -4.1520315   -4.1520315   -2.8751937  0.021444985   -4.1520315    1.2768378  1010000 
  573000   0.85033779    -4.151223    -4.151223   -2.8757176   0.02394018    -4.151223    1.2755054  1010000 
  574000   0.85062662   -4.1512211   -4.1512211   -2.8752824  0.021834964   -4.1512211    1.2759387  1010000 
  575000   0.85085593   -4.1511934   -4.1511934   -2.8749108  0.022375808   -4.1511934    1.2762826  1010000 
  576000   0.85100128   -4.1511402   -4.1511402   -2.8746395  0.023730058   -4.1511402    1.2765007  1010000 
  577000   0.85058173   -4.1503555   -4.1503555   -2.8744842  0.024797565   -4.1503555    1.2758713  1010000 
  578000   0.85046851   -4.1500146   -4.1500146   -2.8743131  0.023834982   -4.1500146    1.2757015  1010000 
  579000   0.85039971   -4.1497236   -4.1497236   -2.8741253  0.023263833   -4.1497236    1.2755983  1010000 
  580000   0.85128312   -4.1508174   -4.1508174    -2.873894  0.021675861   -4.1508174    1.2769234  1010000 
  581000   0.85051975   -4.1495059   -4.1495059   -2.8737276   0.02445078   -4.1495059    1.2757784  1010000 
  582000   0.85074436   -4.1498779   -4.1498779   -2.8737626  0.023429916   -4.1498779    1.2761153  1010000 
  583000   0.85109605   -4.1505924   -4.1505924   -2.8739496  0.022236117   -4.1505924    1.2766428  1010000 
  584000   0.85064241   -4.1502106   -4.1502106   -2.8742483  0.024879828   -4.1502106    1.2759623  1010000 
  585000   0.85104551    -4.151187    -4.151187     -2.87462  0.021397009    -4.151187     1.276567  1010000 
  586000   0.85101245   -4.1506212   -4.1506212   -2.8741038  0.019262671   -4.1506212    1.2765174  1010000 
  587000     0.849768   -4.1495293   -4.1495293   -2.8748786  0.024565273   -4.1495293    1.2746507  1010000 
  588000   0.85024897   -4.1498728   -4.1498728   -2.8745006  0.022715625   -4.1498728    1.2753722  1010000 
  589000   0.85024189   -4.1503948   -4.1503948   -2.8750332  0.022941003   -4.1503948    1.2753616  1010000 
  590000   0.85034251   -4.1507505   -4.1507505    -2.875238  0.020617343   -4.1507505    1.2755125  1010000 
  591000   0.85060543   -4.1508693   -4.1508693   -2.8749624  0.022085606   -4.1508693    1.2759069  1010000 
  592000   0.85059041   -4.1512396   -4.1512396   -2.8753553  0.023897593   -4.1512396    1.2758844  1010000 
  593000   0.85121209    -4.151954    -4.151954   -2.8751371  0.022911451    -4.151954    1.2768169  1010000 
  594000   0.85103214   -4.1518067   -4.1518067   -2.8752598  0.023712286   -4.1518067     1.276547  1010000 
  595000   0.85137657    -4.152378    -4.152378   -2.8753144  0.023241063    -4.152378    1.2770636  1010000 
  596000    0.8510722    -4.151656    -4.151656    -2.875049  0.021696662    -4.151656     1.276607  1010000 
  597000   0.85083257   -4.1512771   -4.1512771   -2.8750295  0.024079829   -4.1512771    1.2762476  1010000 
  598000   0.85082017   -4.1520793   -4.1520793   -2.8758503  0.022394106   -4.1520793     1.276229  1010000 
  599000   0.85070738   -4.1514701   -4.1514701   -2.8754103  0.025368074   -4.1514701    1.2760598  1010000 
  600000   0.85066145   -4.1517977   -4.1517977   -2.8758068  0.021688972   -4.1517977    1.2759909  1010000 
  601000   0.85061134   -4.1516867   -4.1516867    -2.875771  0.024488066   -4.1516867    1.2759157  1010000 
  602000   0.85142742   -4.1525142   -4.1525142   -2.8753743  0.022712826   -4.1525142    1.2771399  1010000 
  603000   0.85113576   -4.1514283   -4.1514283   -2.8747259  0.021072186   -4.1514283    1.2767024  1010000 
  604000   0.85129163   -4.1516919   -4.1516919   -2.8747557  0.025936599   -4.1516919    1.2769362  1010000 
  605000   0.85163987   -4.1516982   -4.1516982   -2.8742397  0.027333635   -4.1516982    1.2774585  1010000 
  606000   0.85152088   -4.1516425   -4.1516425   -2.8743624   0.02294578   -4.1516425    1.2772801  1010000 
  607000   0.85146281   -4.1516986   -4.1516986   -2.8745057  0.024039831   -4.1516986     1.277193  1010000 
  608000   0.85174789   -4.1516639   -4.1516639   -2.8740434  0.022833776   -4.1516639    1.2776206  1010000 
  609000   0.85092095   -4.1504671   -4.1504671    -2.874087  0.025780084   -4.1504671    1.2763802  1010000 
  610000   0.85232074   -4.1528846   -4.1528846   -2.8744047  0.020625239   -4.1528846    1.2784798  1010000 
  611000   0.85088037   -4.1508408   -4.1508408   -2.8745215  0.024882161   -4.1508408    1.2763193  1010000 
  612000   0.85088757   -4.1510006   -4.1510006   -2.8746705  0.023091855   -4.1510006    1.2763301  1010000 
  613000   0.85023717   -4.1507368   -4.1507368   -2.8753823  0.018347278   -4.1507368    1.2753545  1010000 
  614000   0.84886922   -4.1478834   -4.1478834   -2.8745808  0.025475055   -4.1478834    1.2733026  1010000 
  615000    0.8503839   -4.1502116   -4.1502116    -2.874637  0.023391852   -4.1502116    1.2755746  1010000 
  616000   0.85039738   -4.1502506   -4.1502506   -2.8746558  0.021668752   -4.1502506    1.2755948  1010000 
  617000   0.85047669   -4.1502601   -4.1502601   -2.8745463  0.019422746   -4.1502601    1.2757138  1010000 
  618000   0.84997875    -4.149685    -4.149685   -2.8747182  0.018446871    -4.149685    1.2749669  1010000 
  619000   0.85017965   -4.1504238   -4.1504238   -2.8751556  0.019840069   -4.1504238    1.2752682  1010000 
  620000   0.85035882   -4.1500508   -4.1500508   -2.8745138  0.024340293   -4.1500508     1.275537  1010000 
  621000   0.85137621   -4.1507569   -4.1507569   -2.8736939  0.024091901   -4.1507569     1.277063  1010000 
  622000   0.85128787   -4.1507911   -4.1507911   -2.8738605  0.020457657   -4.1507911    1.2769305  1010000 
  623000   0.85098422   -4.1512082   -4.1512082   -2.8747331  0.023053916   -4.1512082    1.2764751  1010000 
  624000   0.85016593   -4.1495221   -4.1495221   -2.8742745  0.028401549   -4.1495221    1.2752476  1010000 
  625000   0.85145754   -4.1510528   -4.1510528   -2.8738677  0.021936291   -4.1510528     1.277185  1010000 
  626000   0.85038008   -4.1498064   -4.1498064   -2.8742376  0.023158116   -4.1498064    1.2755689  1010000 
  627000   0.85104241   -4.1504119   -4.1504119   -2.8738496   0.02144305   -4.1504119    1.2765623  1010000 
  628000   0.85062108   -4.1494341   -4.1494341   -2.8735037  0.022281539   -4.1494341    1.2759304  1010000 
  629000   0.85163582   -4.1510637   -4.1510637   -2.8736113  0.021918135   -4.1510637    1.2774525  1010000 
  630000   0.85076327   -4.1498671   -4.1498671   -2.8737235  0.025282275   -4.1498671    1.2761436  1010000 
  631000   0.85149388   -4.1506696   -4.1506696     -2.87343  0.022761771   -4.1506696    1.2772396  1010000 
  632000   0.85132203   -4.1504538   -4.1504538    -2.873472  0.023925497   -4.1504538    1.2769818  1010000 
  633000   0.85074048   -4.1493138   -4.1493138   -2.8732043  0.027980916   -4.1493138    1.2761095  1010000 
  634000   0.85101664   -4.1490077   -4.1490077    -2.872484  0.031012175   -4.1490077    1.2765237  1010000 
  635000   0.85199513   -4.1499738   -4.1499738   -2.8719824  0.027580642   -4.1499738    1.2779914  1010000 
  636000   0.85185372   -4.1511312   -4.1511312   -2.8733519  0.024824322   -4.1511312    1.2777793  1010000 
  637000   0.85119308   -4.1500554   -4.1500554   -2.8732671  0.022771548   -4.1500554    1.2767884  1010000 
  638000   0.85101989   -4.1493313   -4.1493313   -2.8728028  0.022027042   -4.1493313    1.2765286  1010000 
  639000   0.85095874   -4.1497659   -4.1497659   -2.8733291  0.021930678   -4.1497659    1.2764368  1010000 
  640000   0.85021342   -4.1486887   -4.1486887   -2.8733698  0.021290623   -4.1486887    1.2753189  1010000 
  641000   0.85158161   -4.1501509   -4.1501509   -2.8727797  0.022445698   -4.1501509    1.2773712  1010000 
  642000   0.85072137    -4.149284    -4.149284   -2.8732032  0.018763664    -4.149284    1.2760808  1010000 
  643000   0.85063529   -4.1491891   -4.1491891   -2.8732374  0.019554956   -4.1491891    1.2759517  1010000 
  644000   0.84981818   -4.1478427   -4.1478427   -2.8731167  0.025779253   -4.1478427     1.274726  1010000 
  645000    0.8503217   -4.1491616   -4.1491616   -2.8736803  0.020937689   -4.1491616    1.2754813  1010000 
  646000   0.85026486    -4.148606    -4.148606     -2.87321  0.019495058    -4.148606     1.275396  1010000 
  647000   0.85014009   -4.1489212   -4.1489212   -2.8737124  0.021087935   -4.1489212    1.2752089  1010000 
  648000   0.85059998   -4.1487919   -4.1487919   -2.8728932  0.022670089   -4.1487919    1.2758987  1010000 
  649000   0.84919822   -4.1468528   -4.1468528   -2.8730567  0.026915654   -4.1468528    1.2737961  1010000 
  650000   0.85147596   -4.1508312   -4.1508312   -2.8736185  0.018279303   -4.1508312    1.2772127  1010000 
  651000   0.85018039   -4.1486074   -4.1486074   -2.8733381  0.022842346   -4.1486074    1.2752693  1010000 
  652000   0.85133414   -4.1502867   -4.1502867   -2.8732867  0.026318572   -4.1502867    1.2769999  1010000 
  653000   0.85055006   -4.1484872   -4.1484872   -2.8726634  0.022089213   -4.1484872    1.2758238  1010000 
  654000   0.85157428   -4.1506437   -4.1506437   -2.8732835  0.021628679   -4.1506437    1.2773602  1010000 
  655000   0.85123522   -4.1505484   -4.1505484   -2.8736968  0.026299599   -4.1505484    1.2768516  1010000 
  656000   0.85096624   -4.1499027   -4.1499027   -2.8734546  0.030380556   -4.1499027    1.2764481  1010000 
  657000   0.85119793    -4.150349    -4.150349   -2.8735534  0.026506572    -4.150349    1.2767956  1010000 
  658000   0.85227882   -4.1512531   -4.1512531   -2.8728362   0.02220379   -4.1512531     1.278417  1010000 
  659000   0.85207515   -4.1509669   -4.1509669   -2.8728554  0.024227565   -4.1509669    1.2781115  1010000 
  660000   0.85193215   -4.1505783   -4.1505783   -2.8726813  0.027141299   -4.1505783     1.277897  1010000 
  661000   0.85230597     -4.15116     -4.15116   -2.8727023  0.023545043     -4.15116    1.2784577  1010000 
  662000   0.85192299   -4.1504648   -4.1504648   -2.8725816  0.025469074   -4.1504648    1.2778832  1010000 
  663000   0.85139158   -4.1502853   -4.1502853   -2.8731992  0.024790385   -4.1502853    1.2770861  1010000 
  664000   0.85228631   -4.1516337   -4.1516337   -2.8732055  0.026899577   -4.1516337    1.2784282  1010000 
  665000   0.85081006   -4.1492773   -4.1492773   -2.8730634  0.024363772   -4.1492773    1.2762138  1010000 
  666000   0.85061319   -4.1490604   -4.1490604   -2.8731419  0.024044881   -4.1490604    1.2759185  1010000 
  667000   0.85089328   -4.1503372   -4.1503372   -2.8739986  0.024887711   -4.1503372    1.2763387  1010000 
  668000   0.85072756   -4.1496329   -4.1496329   -2.8735428  0.024517243   -4.1496329    1.2760901  1010000 
  669000   0.85084825   -4.1494781   -4.1494781    -2.873207  0.020575813   -4.1494781    1.2762711  1010000 
  670000   0.85087178   -4.1492571   -4.1492571   -2.8729506  0.020605351   -4.1492571    1.2763064  1010000 
  671000   0.85125479    -4.149494    -4.149494   -2.8726131  0.019921227    -4.149494    1.2768809  1010000 
  672000   0.85125761   -4.1490776   -4.1490776   -2.8721925  0.021405302   -4.1490776    1.2768852  1010000 
  673000   0.85065422   -4.1483732   -4.1483732   -2.8723931  0.021161403   -4.1483732    1.2759801  1010000 
  674000   0.85015874   -4.1476016   -4.1476016   -2.8723647  0.023624497   -4.1476016    1.2752368  1010000 
  675000   0.85062292   -4.1484138   -4.1484138   -2.8724807   0.02372767   -4.1484138    1.2759331  1010000 
  676000   0.84988451   -4.1477197   -4.1477197   -2.8728942   0.02470912   -4.1477197    1.2748255  1010000 
  677000   0.85024868   -4.1478625   -4.1478625   -2.8724907  0.023419098   -4.1478625    1.2753718  1010000 
  678000   0.84996643   -4.1482777   -4.1482777   -2.8733293  0.020796719   -4.1482777    1.2749484  1010000 
  679000   0.85039537   -4.1484621   -4.1484621   -2.8728703  0.021608162   -4.1484621    1.2755918  1010000 
  680000   0.85167139   -4.1499361   -4.1499361   -2.8724303  0.020341586   -4.1499361    1.2775058  1010000 
  681000   0.85128094   -4.1496832   -4.1496832    -2.872763  0.017919632   -4.1496832    1.2769201  1010000 
  682000   0.85165814   -4.1495209   -4.1495209   -2.8720349  0.025063823   -4.1495209    1.2774859  1010000 
  683000   0.85137528   -4.1487577   -4.1487577   -2.8716961  0.024669265   -4.1487577    1.2770616  1010000 
  684000   0.85159073   -4.1486972   -4.1486972   -2.8713123  0.023577511   -4.1486972    1.2773848  1010000 
[...]
 2833000   0.92616797   -3.7507148   -3.7507148   -2.3614642  0.036852244   -3.7507148    1.3892506  1010000 
 2834000    0.9271773   -3.7520397   -3.7520397   -2.3612752  0.034645576   -3.7520397    1.3907646  1010000 
 2835000   0.92705272   -3.7516045   -3.7516045   -2.3610268  0.034585646   -3.7516045    1.3905777  1010000 
 2836000   0.92627163   -3.7505031   -3.7505031   -2.3610971  0.032645689   -3.7505031    1.3894061  1010000 
 2837000   0.92561969   -3.7495466   -3.7495466   -2.3611184  0.031715995   -3.7495466    1.3884282  1010000 
 2838000   0.92594649   -3.7499683   -3.7499683   -2.3610499  0.032936079   -3.7499683    1.3889184  1010000 
 2839000   0.92647868   -3.7501566   -3.7501566   -2.3604399  0.027910115   -3.7501566    1.3897166  1010000 
 2840000   0.92626024   -3.7495582   -3.7495582   -2.3601692  0.028923107   -3.7495582     1.389389  1010000 
 2841000   0.92618001   -3.7492581   -3.7492581   -2.3599895  0.030947522   -3.7492581    1.3892686  1010000 
 2842000    0.9268832   -3.7497962   -3.7497962   -2.3594728  0.031063494   -3.7497962    1.3903234  1010000 
 2843000   0.92696392   -3.7493456   -3.7493456   -2.3589011   0.03531929   -3.7493456    1.3904445  1010000 
 2844000   0.92781798   -3.7499049   -3.7499049   -2.3581793  0.035264031   -3.7499049    1.3917256  1010000 
 2845000   0.92757255    -3.749315    -3.749315   -2.3579575  0.036397858    -3.749315    1.3913574  1010000 
 2846000   0.92805757   -3.7487901   -3.7487901   -2.3567051  0.034841725   -3.7487901     1.392085  1010000 
 2847000   0.92848642   -3.7486751   -3.7486751   -2.3559468  0.035793138   -3.7486751    1.3927282  1010000 
 2848000   0.92825349   -3.7478502   -3.7478502   -2.3554714  0.036026658   -3.7478502    1.3923789  1010000 
 2849000   0.92870995   -3.7481308   -3.7481308   -2.3550672  0.034557292   -3.7481308    1.3930636  1010000 
 2850000   0.92837165   -3.7475813   -3.7475813   -2.3550252  0.032394583   -3.7475813    1.3925561  1010000 
 2851000   0.92888758   -3.7480776   -3.7480776   -2.3547476  0.034055656   -3.7480776      1.39333  1010000 
 2852000   0.92815912   -3.7471713   -3.7471713    -2.354934  0.032012857   -3.7471713    1.3922373  1010000 
 2853000   0.92828403   -3.7474814   -3.7474814   -2.3550567   0.03502604   -3.7474814    1.3924247  1010000 
 2854000   0.92648751   -3.7444419   -3.7444419    -2.354712  0.032478803   -3.7444419    1.3897299  1010000 
 2855000   0.92662385   -3.7443845   -3.7443845   -2.3544501  0.030869265   -3.7443845    1.3899344  1010000 
 2856000   0.92692477   -3.7450935   -3.7450935   -2.3547077  0.027848622   -3.7450935    1.3903858  1010000 
 2857000   0.92733507   -3.7452792   -3.7452792   -2.3542779  0.024199713   -3.7452792    1.3910012  1010000 
 2858000   0.92721245   -3.7437282   -3.7437282   -2.3529109  0.028201541   -3.7437282    1.3908173  1010000 
 2859000   0.92725215   -3.7444877   -3.7444877   -2.3536109  0.025314058   -3.7444877    1.3908769  1010000 
 2860000   0.92646382     -3.74246     -3.74246   -2.3527656  0.030935253     -3.74246    1.3896944  1010000 
 2861000   0.92700139    -3.743185    -3.743185   -2.3526843  0.030743304    -3.743185    1.3905007  1010000 
 2862000   0.92723755   -3.7425489   -3.7425489   -2.3516939  0.026929295   -3.7425489     1.390855  1010000 
 2863000   0.92703192   -3.7423434   -3.7423434   -2.3517969  0.030805201   -3.7423434    1.3905465  1010000 
 2864000   0.92634944   -3.7416096   -3.7416096   -2.3520868  0.028751062   -3.7416096    1.3895228  1010000 
 2865000   0.92781413    -3.742247    -3.742247   -2.3505272  0.027415227    -3.742247    1.3917198  1010000 
 2866000   0.92778555   -3.7412319   -3.7412319    -2.349555  0.035219215   -3.7412319     1.391677  1010000 
 2867000   0.92789206   -3.7418656   -3.7418656   -2.3500289  0.032138201   -3.7418656    1.3918367  1010000 
 2868000   0.92775606   -3.7411006   -3.7411006   -2.3494679  0.033429569   -3.7411006    1.3916327  1010000 
 2869000   0.92713093   -3.7402295   -3.7402295   -2.3495345  0.035510537   -3.7402295     1.390695  1010000 
 2870000   0.92712753   -3.7402629   -3.7402629    -2.349573  0.034154599   -3.7402629    1.3906899  1010000 
 2871000   0.92754503   -3.7409017   -3.7409017   -2.3495855  0.032094351   -3.7409017    1.3913162  1010000 
 2872000   0.92838014   -3.7413678   -3.7413678    -2.348799  0.027893677   -3.7413678    1.3925688  1010000 
 2873000   0.92771807   -3.7399385   -3.7399385   -2.3483627  0.031039582   -3.7399385    1.3915757  1010000 
 2874000   0.92900874   -3.7408937   -3.7408937    -2.347382  0.031130813   -3.7408937    1.3935117  1010000 
 2875000   0.92842576    -3.741251    -3.741251   -2.3486137  0.030136917    -3.741251    1.3926373  1010000 
 2876000   0.92859087    -3.740908    -3.740908   -2.3480231  0.033001621    -3.740908    1.3928849  1010000 
 2877000   0.92881877   -3.7407362   -3.7407362   -2.3475094  0.030746952   -3.7407362    1.3932268  1010000 
 2878000   0.92854866   -3.7397489   -3.7397489   -2.3469273  0.032219094   -3.7397489    1.3928216  1010000 
 2879000   0.92847996   -3.7396157   -3.7396157   -2.3468971  0.038233627   -3.7396157    1.3927186  1010000 
 2880000    0.9290631    -3.740462    -3.740462   -2.3468688  0.034621379    -3.740462    1.3935933  1010000 
 2881000    0.9281924   -3.7385357   -3.7385357   -2.3462485  0.036405106   -3.7385357    1.3922872  1010000 
 2882000   0.93020302    -3.740688    -3.740688   -2.3453849  0.034011629    -3.740688    1.3953032  1010000 
 2883000   0.92968409   -3.7391484   -3.7391484   -2.3446236  0.037024466   -3.7391484    1.3945248  1010000 
 2884000   0.93009517   -3.7395864   -3.7395864   -2.3444451  0.037545354   -3.7395864    1.3951414  1010000 
 2885000   0.92915485   -3.7381917   -3.7381917   -2.3444608  0.036723368   -3.7381917    1.3937309  1010000 
 2886000   0.92995353   -3.7392355   -3.7392355   -2.3443065  0.034875914   -3.7392355    1.3949289  1010000 
 2887000   0.93018809   -3.7398198   -3.7398198   -2.3445391  0.034743638   -3.7398198    1.3952808  1010000 
 2888000   0.92989385   -3.7391658   -3.7391658   -2.3443264  0.035538447   -3.7391658    1.3948394  1010000 
 2889000    0.9298985   -3.7386655   -3.7386655   -2.3438191  0.037443944   -3.7386655    1.3948464  1010000 
 2890000   0.93015874   -3.7389371   -3.7389371   -2.3437004  0.031203119   -3.7389371    1.3952367  1010000 
 2891000   0.92891454   -3.7369888   -3.7369888   -2.3436183  0.034098905   -3.7369888    1.3933704  1010000 
 2892000    0.9295654   -3.7369819   -3.7369819   -2.3426351  0.032966489   -3.7369819    1.3943467  1010000 
 2893000    0.9294372   -3.7362882   -3.7362882   -2.3421338  0.031846101   -3.7362882    1.3941544  1010000 
 2894000   0.93021367    -3.737025    -3.737025   -2.3417059  0.031641212    -3.737025    1.3953191  1010000 
 2895000   0.93059109   -3.7371322   -3.7371322   -2.3412469  0.030939815   -3.7371322    1.3958853  1010000 
 2896000   0.93065585   -3.7365649   -3.7365649   -2.3405825  0.033630086   -3.7365649    1.3959824  1010000 
 2897000   0.93023157   -3.7360886   -3.7360886   -2.3407426   0.03244245   -3.7360886     1.395346  1010000 
 2898000   0.93097064   -3.7368681   -3.7368681   -2.3404136  0.032733655   -3.7368681    1.3964546  1010000 
 2899000   0.93055494   -3.7356618   -3.7356618   -2.3398307   0.03438427   -3.7356618     1.395831  1010000 
 2900000    0.9294988   -3.7329373   -3.7329373   -2.3386905  0.037070103   -3.7329373    1.3942468  1010000 
 2901000   0.93064672   -3.7345069   -3.7345069   -2.3385382  0.032436182   -3.7345069    1.3959687  1010000 
 2902000   0.93004276   -3.7329701   -3.7329701   -2.3379074  0.034496863   -3.7329701    1.3950628  1010000 
 2903000   0.92994336   -3.7330025   -3.7330025   -2.3380889  0.032836519   -3.7330025    1.3949137  1010000 
 2904000   0.92940279   -3.7323337   -3.7323337   -2.3382309  0.031968398   -3.7323337    1.3941028  1010000 
 2905000    0.9289029   -3.7324078   -3.7324078   -2.3390548  0.030880544   -3.7324078     1.393353  1010000 
 2906000   0.92881712   -3.7321131   -3.7321131   -2.3388888  0.034523827   -3.7321131    1.3932243  1010000 
 2907000   0.92813591   -3.7309989   -3.7309989   -2.3387964  0.031020921   -3.7309989    1.3922025  1010000 
 2908000   0.92866091   -3.7317021   -3.7317021   -2.3387121  0.027622279   -3.7317021      1.39299  1010000 
 2909000   0.92930339   -3.7317309   -3.7317309   -2.3377771  0.028553052   -3.7317309    1.3939537  1010000 
 2910000   0.92895983   -3.7299607   -3.7299607   -2.3365223  0.028339013   -3.7299607    1.3934384  1010000 
 2911000   0.92917665   -3.7296781   -3.7296781   -2.3359145  0.030692068   -3.7296781    1.3937636  1010000 
 2912000   0.92897706   -3.7284824   -3.7284824   -2.3350182  0.030594965   -3.7284824    1.3934642  1010000 
 2913000   0.92956321   -3.7294237   -3.7294237   -2.3350802   0.02528742   -3.7294237    1.3943434  1010000 
 2914000   0.92907746   -3.7289753   -3.7289753   -2.3353605   0.03334958   -3.7289753    1.3936148  1010000 
 2915000   0.92996207    -3.729684    -3.729684   -2.3347423  0.035065985    -3.729684    1.3949417  1010000 
 2916000   0.92932758   -3.7286559   -3.7286559   -2.3346659  0.037258853   -3.7286559      1.39399  1010000 
 2917000   0.93047128    -3.729776    -3.729776   -2.3340704  0.036432331    -3.729776    1.3957055  1010000 
 2918000   0.92994738   -3.7283064   -3.7283064   -2.3333868   0.03808907   -3.7283064    1.3949197  1010000 
 2919000   0.93044114   -3.7283797   -3.7283797   -2.3327194  0.033926887   -3.7283797    1.3956603  1010000 
 2920000   0.93068566   -3.7283233   -3.7283233   -2.3322962  0.033601099   -3.7283233    1.3960271  1010000 
 2921000   0.93126254    -3.729389    -3.729389   -2.3324966   0.03231281    -3.729389    1.3968924  1010000 
 2922000   0.93038705   -3.7277339   -3.7277339   -2.3321547  0.035464845   -3.7277339    1.3955792  1010000 
 2923000    0.9310601   -3.7283401   -3.7283401   -2.3317513   0.02905397   -3.7283401    1.3965888  1010000 
 2924000   0.93084116   -3.7284862   -3.7284862   -2.3322259  0.028874509   -3.7284862    1.3962604  1010000 
 2925000     0.930475   -3.7277289   -3.7277289   -2.3320178  0.034046917   -3.7277289    1.3957111  1010000 
 2926000   0.92961046   -3.7262032   -3.7262032   -2.3317889  0.032965781   -3.7262032    1.3944143  1010000 
 2927000   0.93010438   -3.7270389   -3.7270389   -2.3318837  0.032654039   -3.7270389    1.3951552  1010000 
 2928000   0.93035037   -3.7275149   -3.7275149   -2.3319907  0.029611343   -3.7275149    1.3955242  1010000 
 2929000   0.92881349   -3.7255694   -3.7255694   -2.3323505  0.032006169   -3.7255694    1.3932189  1010000 
 2930000   0.93000414   -3.7271943   -3.7271943   -2.3321895  0.029786502   -3.7271943    1.3950048  1010000 
 2931000   0.93089919   -3.7280241   -3.7280241   -2.3316767  0.031545164   -3.7280241    1.3963474  1010000 
 2932000   0.93157891   -3.7283154   -3.7283154   -2.3309484   0.02650162   -3.7283154     1.397367  1010000 
 2933000   0.93147808   -3.7277921   -3.7277921   -2.3305764  0.037607406   -3.7277921    1.3972157  1010000 
 2934000   0.93151009   -3.7272841   -3.7272841   -2.3300204  0.033709283   -3.7272841    1.3972637  1010000 
 2935000   0.93157894   -3.7257774   -3.7257774   -2.3284104  0.039584486   -3.7257774     1.397367  1010000 
 2936000   0.93208686   -3.7269497   -3.7269497   -2.3288208  0.033383818   -3.7269497    1.3981289  1010000 
 2937000   0.93174867   -3.7263289   -3.7263289   -2.3287073  0.036573267   -3.7263289    1.3976216  1010000 
 2938000   0.93234083   -3.7266157   -3.7266157   -2.3281059  0.038269053   -3.7266157    1.3985099  1010000 
 2939000   0.93214779   -3.7260173   -3.7260173    -2.327797  0.038793087   -3.7260173    1.3982203  1010000 
 2940000   0.93253528   -3.7259007   -3.7259007   -2.3270991  0.041993472   -3.7259007    1.3988015  1010000 
 2941000   0.93230828   -3.7251368   -3.7251368   -2.3266757  0.041836219   -3.7251368     1.398461  1010000 
 2942000   0.93310995   -3.7258459   -3.7258459   -2.3261823  0.039182235   -3.7258459    1.3996635  1010000 
 2943000    0.9316483   -3.7240889   -3.7240889   -2.3266179  0.035247443   -3.7240889    1.3974711  1010000 
 2944000   0.93275181   -3.7256267   -3.7256267   -2.3265003   0.03151537   -3.7256267    1.3991263  1010000 
 2945000   0.93211495    -3.725125    -3.725125    -2.326954   0.03238766    -3.725125     1.398171  1010000 
 2946000   0.93165631   -3.7237043   -3.7237043   -2.3262213  0.036772704   -3.7237043    1.3974831  1010000 
 2947000   0.93240303   -3.7247248   -3.7247248   -2.3261217  0.031645703   -3.7247248    1.3986032  1010000 
 2948000   0.93237091   -3.7256313   -3.7256313   -2.3270763  0.035687645   -3.7256313     1.398555  1010000 
 2949000   0.93163291   -3.7237834   -3.7237834   -2.3263354  0.031445496   -3.7237834     1.397448  1010000 
 2950000   0.93102351   -3.7225729   -3.7225729    -2.326039  0.033660285   -3.7225729    1.3965339  1010000 
 2951000   0.93097666   -3.7223087   -3.7223087   -2.3258451  0.032831959   -3.7223087    1.3964636  1010000 
 2952000   0.93146662     -3.72171     -3.72171   -2.3245115  0.033332689     -3.72171    1.3971985  1010000 
 2953000   0.93162602   -3.7216631   -3.7216631   -2.3242254  0.034577281   -3.7216631    1.3974377  1010000 
 2954000   0.93106722   -3.7204151   -3.7204151   -2.3238157  0.030056559   -3.7204151    1.3965995  1010000 
 2955000   0.93128466   -3.7202334   -3.7202334   -2.3233078  0.035585731   -3.7202334    1.3969256  1010000 
 2956000   0.93231503   -3.7217687   -3.7217687   -2.3232976  0.033176326   -3.7217687    1.3984712  1010000 
 2957000   0.93158318    -3.720294    -3.720294   -2.3229206  0.033492369    -3.720294    1.3973734  1010000 
 2958000   0.93140461    -3.719448    -3.719448   -2.3223425  0.037010326    -3.719448    1.3971055  1010000 
 2959000   0.93318168   -3.7214101   -3.7214101    -2.321639  0.034317113   -3.7214101    1.3997711  1010000 
 2960000   0.93278176   -3.7207304   -3.7207304   -2.3215592  0.032786934   -3.7207304    1.3991712  1010000 
 2961000   0.93232025   -3.7191602   -3.7191602   -2.3206812  0.033902489   -3.7191602     1.398479  1010000 
 2962000   0.93250569   -3.7188218   -3.7188218   -2.3200647  0.032190931   -3.7188218    1.3987571  1010000 
 2963000   0.93263488   -3.7190052   -3.7190052   -2.3200542  0.037044424   -3.7190052    1.3989509  1010000 
 2964000    0.9326574   -3.7185876   -3.7185876   -2.3196029  0.031531472   -3.7185876    1.3989847  1010000 
 2965000    0.9318772   -3.7173047   -3.7173047   -2.3194903  0.031863367   -3.7173047    1.3978144  1010000 
 2966000   0.93138318   -3.7156199   -3.7156199   -2.3185465  0.031202818   -3.7156199    1.3970734  1010000 
 2967000   0.93183056   -3.7166385   -3.7166385    -2.318894  0.030559753   -3.7166385    1.3977445  1010000 
 2968000   0.93092673    -3.715374    -3.715374   -2.3189853  0.032141867    -3.715374    1.3963887  1010000 
 2969000   0.93249952   -3.7167681   -3.7167681   -2.3180202  0.034301333   -3.7167681    1.3987479  1010000 
 2970000    0.9323712   -3.7163257   -3.7163257   -2.3177703  0.032775568   -3.7163257    1.3985554  1010000 
 2971000   0.93273169    -3.715937    -3.715937   -2.3168409  0.037661206    -3.715937    1.3990962  1010000 
 2972000   0.93388302   -3.7161805   -3.7161805   -2.3153574  0.030300058   -3.7161805    1.4008231  1010000 
 2973000   0.93260857   -3.7141267   -3.7141267   -2.3152153   0.03379655   -3.7141267    1.3989115  1010000 
 2974000   0.93340329   -3.7150618   -3.7150618   -2.3149582  0.033506153   -3.7150618    1.4001035  1010000 
 2975000   0.93376196   -3.7148733   -3.7148733   -2.3142317  0.033167404   -3.7148733    1.4006416  1010000 
 2976000   0.93335579   -3.7133015   -3.7133015   -2.3132692  0.036601238   -3.7133015    1.4000323  1010000 
 2977000   0.93308406   -3.7131057   -3.7131057    -2.313481  0.034875577   -3.7131057    1.3996247  1010000 
 2978000   0.93411029   -3.7132485   -3.7132485   -2.3120844  0.036835607   -3.7132485    1.4011641  1010000 
 2979000   0.93386105   -3.7132787   -3.7132787   -2.3124885  0.035174541   -3.7132787    1.4007902  1010000 
 2980000    0.9336422   -3.7124663   -3.7124663   -2.3120044  0.032685421   -3.7124663    1.4004619  1010000 
 2981000   0.93405107   -3.7126539   -3.7126539   -2.3115787  0.033641942   -3.7126539    1.4010752  1010000 
 2982000   0.93273418   -3.7109171   -3.7109171   -2.3118172  0.033610705   -3.7109171    1.3990999  1010000 
 2983000   0.93319503   -3.7107369   -3.7107369   -2.3109457    0.0387301   -3.7107369    1.3997912  1010000 
 2984000   0.93413293   -3.7118957   -3.7118957   -2.3106977  0.030725652   -3.7118957     1.401198  1010000 
 2985000   0.93376773   -3.7107875   -3.7107875   -2.3101373  0.033046571   -3.7107875    1.4006502  1010000 
 2986000   0.93378178   -3.7099511   -3.7099511   -2.3092798  0.035237868   -3.7099511    1.4006713  1010000 
 2987000   0.93472614   -3.7104221   -3.7104221   -2.3083342  0.031544655   -3.7104221    1.4020878  1010000 
 2988000   0.93465314   -3.7096695   -3.7096695   -2.3076912  0.032003693   -3.7096695    1.4019783  1010000 
 2989000    0.9332288   -3.7080854   -3.7080854   -2.3082436  0.034135654   -3.7080854    1.3998418  1010000 
 2990000   0.93405698   -3.7082911   -3.7082911    -2.307207  0.034837511   -3.7082911    1.4010841  1010000 
 2991000    0.9334486   -3.7082077   -3.7082077   -2.3080361  0.032719795   -3.7082077    1.4001715  1010000 
 2992000   0.93284197   -3.7063039   -3.7063039   -2.3070423  0.033038104   -3.7063039    1.3992616  1010000 
 2993000   0.93362348   -3.7068522   -3.7068522   -2.3064183  0.032844128   -3.7068522    1.4004338  1010000 
 2994000   0.93391388   -3.7077228   -3.7077228   -2.3068533  0.029894088   -3.7077228    1.4008694  1010000 
 2995000   0.93280403    -3.705561    -3.705561   -2.3063563  0.029196795    -3.705561    1.3992047  1010000 
 2996000   0.93398444   -3.7072568   -3.7072568   -2.3062815  0.023396861   -3.7072568    1.4009753  1010000 
 2997000   0.93294546   -3.7048633   -3.7048633   -2.3054465  0.034811517   -3.7048633    1.3994168  1010000 
 2998000   0.93304516   -3.7050304   -3.7050304    -2.305464  0.030798938   -3.7050304    1.3995664  1010000 
 2999000   0.93334768   -3.7057232   -3.7057232   -2.3057031  0.029714596   -3.7057232    1.4000201  1010000 
 3000000   0.93293655    -3.704664    -3.704664   -2.3052606  0.034484665    -3.704664    1.3994034  1010000 
Loop time of 15121.5 on 240 procs for 3000000 steps with 1010000 atoms

Performance: 85705.960 tau/day, 198.393 timesteps/s
99.0% CPU use with 240 MPI tasks x 1 OpenMP threads

MPI task timing breakdown:
Section |  min time  |  avg time  |  max time  |%varavg|  %CPU | %total
-----------------------------------------------------------------------
Pair    | 2952.8     | 5368.5     | 7946.4     |1002.7 |  99.0 | 35.50
Bond    | 1.0096     | 1.348      | 2.0891     |  14.8 | 100.0 |  0.01
Neigh   | 1150.3     | 2028       | 2875.8     | 570.7 |  99.5 | 13.41
Comm    | 3510.8     | 6954.3     | 10303      |1232.8 |  98.8 | 45.99
Output  | 222.29     | 223.02     | 223.05     |   0.3 |  99.8 |  1.47
Modify  | 149.17     | 289.11     | 949.86     |1215.6 |  99.4 |  1.91
Other   |            | 257.3      |            |       |       |  1.70

Nlocal:        4208.33 ave        4946 max        3739 min
Histogram: 1 3 4 142 84 5 0 0 0 1
Nghost:        5152.89 ave        5637 max        3661 min
Histogram: 19 13 8 0 0 0 1 27 72 100
Neighs:       129666.0 ave      145701 max       78510 min
Histogram: 2 3 6 7 3 14 32 34 98 41

Total # of neighbors = 31119811
Ave neighs/atom = 30.811694
Ave special neighs/atom = 0.0000000
Neighbor list builds = 300000
Dangerous builds = 296999

write_data	data.lj
System init for write_data ...
WARNING: Not all mixed pair coeffs generated from mixing. Use write_data with 'pair ij' option to store all pair coeffs. (src/write_data.cpp:312)
Total wall time: 4:12:13
