LAMMPS (24 Dec 2020)
OMP_NUM_THREADS environment is not set. Defaulting to 1 thread. (src/comm.cpp:94)
  using 1 OpenMP thread(s) per MPI task
#Read the equilibrated lj fluid and add nanocubes

units           lj
atom_style      full
atom_modify     map array first cubes
dimension       3
boundary        p p f
pair_style      lj/cut/opt 2.5

variable        sigma           equal 1.0
variable        epsilon         equal 1.0
read_restart	restart.dat.3000000
Reading restart file ...
  restart file = 24 Dec 2020, LAMMPS = 24 Dec 2020
WARNING: Restart file used different # of processors: 48 vs. 288 (src/read_restart.cpp:697)
  restoring atom style full from restart
  orthogonal box = (0.0000000 0.0000000 0.0000000) to (80.000000 80.000000 160.00000)
  6 by 4 by 12 MPI processor grid
  restoring pair style lj/cut/opt from restart
  518400 atoms
Finding 1-2 1-3 1-4 neighbors ...
  special bond factors lj:    0        0        0       
  special bond factors coul:  0        0        0       
     0 = max # of 1-2 neighbors
     0 = max # of 1-3 neighbors
     0 = max # of 1-4 neighbors
     1 = max # of special neighbors
  special bonds CPU = 2.393 seconds
  read_restart CPU = 2.732 seconds

group		solvent type 1
518400 atoms in group solvent

read_data	data_96.cubes group cubes add append
Reading data file ...
  orthogonal box = (0.0000000 0.0000000 0.0000000) to (80.000000 80.000000 160.00000)
  6 by 4 by 12 MPI processor grid
  reading atoms ...
  109728 atoms
  reading velocities ...
  109728 velocities
Finding 1-2 1-3 1-4 neighbors ...
  special bond factors lj:    0        0        0       
  special bond factors coul:  0        0        0       
     0 = max # of 1-2 neighbors
     0 = max # of 1-3 neighbors
     0 = max # of 1-4 neighbors
     1 = max # of special neighbors
  special bonds CPU = 0.049 seconds
  read_data CPU = 0.434 seconds

group 		hull  type 2
42816 atoms in group hull
group 		dummy type 3
66912 atoms in group dummy

neighbor      0.4 bin
neigh_modify  exclude molecule/intra cubes


pair_modify   shift yes

pair_coeff    1 1 1.0 1.0 #solvent
pair_coeff    2 2 1.0 1.0 1.12 #np
pair_coeff    3 3 0.0 0.0 0.0 #dummy
pair_coeff    2 3 0.0 0.0 0.0 #np dummy
pair_coeff    1 2 ${eps} ${sig} ${nscut} #np solvent
pair_coeff    1 2 5.0 ${sig} ${nscut} 
pair_coeff    1 2 5.0 1.0 ${nscut} 
pair_coeff    1 2 5.0 1.0 4.0 
pair_coeff    1 3 0.0 0.0 2.5 #dummy solvent

# delete solvent where the cubes are
delete_atoms  overlap 2.0 solvent cubes
System init for delete_atoms ...
Neighbor list info ...
  update every 1 steps, delay 10 steps, check yes
  max neighbors/atom: 2000, page size: 100000
  master list distance cutoff = 4.4
  ghost atom cutoff = 4.4
  binsize = 2.2, bins = 37 37 73
  2 neighbor lists, perpetual/occasional/extra = 1 1 0
  (1) command delete_atoms, occasional
      attributes: full, newton on
      pair build: full/bin
      stencil: full/bin/3d
      bin: standard
  (2) pair lj/cut/opt, perpetual
      attributes: half, newton on
      pair build: half/bin/newton
      stencil: half/bin/3d/newton
      bin: standard
WARNING: Delete_atoms cutoff > minimum neighbor cutoff (src/delete_atoms.cpp:307)
WARNING: Ignoring 'compress yes' for molecular system (src/delete_atoms.cpp:125)
Deleted 107525 atoms, new total = 520603



pair_coeff    1 1 1.0 1.0 #solvent
pair_coeff    2 2 1.0 1.0 1.12 #np
pair_coeff    3 3 0.0 0.0 0.0 #dummy
pair_coeff    2 3 0.0 0.0 0.0 #np dummy
pair_coeff    1 2 ${eps} ${sig} ${nscut} #np solvent
pair_coeff    1 2 5.0 ${sig} ${nscut} 
pair_coeff    1 2 5.0 1.0 ${nscut} 
pair_coeff    1 2 5.0 1.0 4.0 
pair_coeff    1 3 0.0 0.0 0.0 #dummy solvent


comm_modify   mode multi cutoff/multi 1 2.5 cutoff/multi 2 2.5 cutoff/multi 3 6.95

reset_timestep 	0

balance 	1.05 shift z 10 1.05
Balancing ...
Neighbor list info ...
  update every 1 steps, delay 10 steps, check yes
  max neighbors/atom: 2000, page size: 100000
  master list distance cutoff = 4.4
  ghost atom cutoff = 6.95
  binsize = 2.2, bins = 37 37 73
  1 neighbor lists, perpetual/occasional/extra = 1 0 0
  (1) pair lj/cut/opt, perpetual
      attributes: half, newton on
      pair build: half/bin/newton
      stencil: half/bin/3d/newton
      bin: standard
 rebalancing time: 0.005 seconds
  iteration count = 4
  initial/final maximal load/proc = 2217.0000 2502.0000
  initial/final imbalance factor  = 1.2264547 1.3841180
  x cuts: 0.0000000 0.16666667 0.33333333 0.50000000 0.66666667 0.83333333 1.0000000
  y cuts: 0.0000000 0.25000000 0.50000000 0.75000000 1.0000000
  z cuts: 0.0000000 0.078125000 0.16145833 0.25520833 0.34895833 0.42187500 0.49479167 0.57812500 0.65104167 0.72395833 0.78645833 0.85937500 1.0000000

####################### WALLS ###########################

variable       epsilonWall equal 2*${epsilon}
variable       epsilonWall equal 2*1
variable       repulsive   equal   0.7147*${sigma}
variable       repulsive   equal   0.7147*1
variable       full	   equal   3*${sigma}
variable       full	   equal   3*1
region         lowWall block EDGE EDGE EDGE EDGE EDGE 2

fix            topWall all wall/lj93 zhi EDGE 	       ${epsilonWall} ${sigma} ${repulsive} units box
fix            topWall all wall/lj93 zhi EDGE 	       2 ${sigma} ${repulsive} units box
fix            topWall all wall/lj93 zhi EDGE 	       2 1 ${repulsive} units box
fix            topWall all wall/lj93 zhi EDGE 	       2 1 0.7147 units box
fix            lowSol solvent wall/lj93 zlo EDGE                ${epsilonWall} ${sigma} ${full} units box
fix            lowSol solvent wall/lj93 zlo EDGE                2 ${sigma} ${full} units box
fix            lowSol solvent wall/lj93 zlo EDGE                2 1 ${full} units box
fix            lowSol solvent wall/lj93 zlo EDGE                2 1 3 units box
fix 	       lowCub cubes wall/lj93 zlo EDGE                ${epsilonWall} ${sigma} ${repulsive} units box
fix 	       lowCub cubes wall/lj93 zlo EDGE                2 ${sigma} ${repulsive} units box
fix 	       lowCub cubes wall/lj93 zlo EDGE                2 1 ${repulsive} units box
fix 	       lowCub cubes wall/lj93 zlo EDGE                2 1 0.7147 units box


###################### COMPUTES ##########################

compute        bin1 solvent chunk/atom bin/1d z lower 1.0 units box


######################  FIXES ############################


fix             peclet solvent ave/chunk 10 10 10000 bin1 density/number norm                  none ave one file density.profile

fix              temp solvent ave/chunk 10 10 10000 bin1 temp norm                  none ave one file temp.profile

fix             1 cubes rigid/nve/small molecule
  create bodies CPU = 0.002 seconds
  96 rigid bodies with 109728 atoms
  6.9282032 = max distance from body owner to body atom

fix             2 solvent nve# temp ${temp} ${temp} 10


## Thermostat
region          regthermo block EDGE EDGE EDGE EDGE 0 15
group           thermo dynamic solvent region regthermo every 1000
dynamic group thermo defined
fix             3 thermo langevin ${temp} ${temp} 10 156453
fix             3 thermo langevin 1.0 ${temp} 10 156453
fix             3 thermo langevin 1.0 1.0 10 156453


#### Load balancing

fix             bal all balance 1000 1.05 shift z 10 1.05

############### Diagnostics and computes ###################

compute        	com cubes          rigid/local   1 mol x y z
compute        	quat cubes         rigid/local   1 mol quatw quati quatj quatk

compute 	cc2 cubes 	   chunk/atom 	 molecule
compute 	msd cubes 	   msd/chunk 	 cc2

fix 		msd all ave/time  1 1 10000 c_msd[*] file dump.msd ave one mode vector

dump            1 all custom 500000 dump.lammpstrj id mol type x y z
dump		cubetrj hull custom 500000 cubes.lammpstrj id mol type x y z
dump            com cubes local 10000 dump.*.xyz c_com[*]
dump	        xyz hull xyz 100000 cubes.xyz
dump            quat cubes      local 10000 dump.*.quat c_quat[*]
#dump		mol cubes molfile 10000 mol.xyz xyz


dump            2 all image 10000 image.*.png type type
dump_modify     2 pad 8
dump		image cubes image 10000 image_cubes.*.png type type
dump_modify	image pad 8
dump            3 all movie 5000 movie.avi type type
dump		4 cubes movie 5000 movie_cubes.avi type type


thermo          1000
thermo_style    custom step temp epair evdwl etotal press pe ke atoms

restart         1000000 restart.dat
timestep        0.005
timer           full
New timer settings: style=full  mode=nosync  timeout=off

run 		4000000
Per MPI rank memory allocation (min/avg/max) = 15.55 | 19.74 | 23.37 Mbytes
Step Temp E_pair E_vdwl TotEng Press PotEng KinEng Atoms 
       0   0.99072986   -2.6226355   -2.6226355   -1.4492211 -0.067334769   -2.6226355    1.1734144   520603 
    1000    1.5137882    -3.274882    -3.274882   -1.4819605   0.36723185    -3.274882    1.7929215   520603 
    2000    1.6635803   -3.5044125   -3.5044125   -1.5340782   0.49921005   -3.5044125    1.9703343   520603 
    3000    1.7362177   -3.6409117   -3.6409117   -1.5845462   0.59124427   -3.6409117    2.0563656   520603 
    4000    1.7605152   -3.7181598   -3.7181598   -1.6330163   0.66105909   -3.7181598    2.0851434   520603 
    5000    1.7513421   -3.7597631   -3.7597631   -1.6854843   0.60025801   -3.7597631    2.0742788   520603 
    6000    1.7288803   -3.7928994   -3.7928994   -1.7452242   0.55514222   -3.7928994    2.0476752   520603 
    7000    1.7207189    -3.839518    -3.839518   -1.8015091   0.55623605    -3.839518    2.0380089   520603 
    8000    1.7342646   -3.9036211   -3.9036211   -1.8495687   0.65483802   -3.9036211    2.0540524   520603 
    9000    1.7522721   -3.9637305   -3.9637305   -1.8883502    0.7657406   -3.9637305    2.0753803   520603 
   10000    1.7527264   -3.9967778   -3.9967778   -1.9208593   0.76741943   -3.9967778    2.0759185   520603 
   11000    1.7340491   -4.0026425   -4.0026425   -1.9488454   0.68936826   -4.0026425    2.0537971   520603 
   12000    1.7153919   -4.0059798   -4.0059798   -1.9742801   0.66464707   -4.0059798    2.0316997   520603 
   13000    1.7023366   -4.0121103   -4.0121103   -1.9958733   0.64354301   -4.0121103     2.016237   520603 
   14000    1.6885299   -4.0159375   -4.0159375    -2.016053   0.57915582   -4.0159375    1.9998845   520603 
   15000    1.6759125   -4.0182014   -4.0182014   -2.0332609   0.57746975   -4.0182014    1.9849405   520603 
   16000    1.6691077   -4.0247356   -4.0247356   -2.0478548   0.56832077   -4.0247356    1.9768809   520603 
   17000    1.6621951   -4.0333119   -4.0333119   -2.0646182   0.56603108   -4.0333119    1.9686937   520603 
   18000    1.6600361   -4.0467162   -4.0467162   -2.0805797     0.564318   -4.0467162    1.9661365   520603 
   19000     1.656239   -4.0626826   -4.0626826   -2.1010433    0.5994441   -4.0626826    1.9616393   520603 
   20000    1.6463931   -4.0748755   -4.0748755   -2.1248976   0.57789327   -4.0748755    1.9499779   520603 
   21000     1.634097   -4.0855891   -4.0855891   -2.1501747   0.56820613   -4.0855891    1.9354144   520603 
   22000    1.6224424   -4.0929246   -4.0929246   -2.1713138   0.53233363   -4.0929246    1.9216108   520603 
   23000    1.6093375      -4.0966      -4.0966   -2.1905106   0.54031888      -4.0966    1.9060894   520603 
   24000    1.5976548   -4.1016642   -4.1016642   -2.2094116   0.50257218   -4.1016642    1.8922526   520603 
   25000    1.5868423   -4.1046884   -4.1046884   -2.2252421   0.49237582   -4.1046884    1.8794463   520603 
   26000     1.583704   -4.1138692   -4.1138692   -2.2381398     0.499318   -4.1138692    1.8757293   520603 
   27000    1.5791254   -4.1216368   -4.1216368   -2.2513304   0.49393979   -4.1216368    1.8703065   520603 
   28000    1.5764192   -4.1313611   -4.1313611   -2.2642599   0.50125841   -4.1313611    1.8671012   520603 
   29000    1.5750877   -4.1422465   -4.1422465   -2.2767223   0.49730245   -4.1422465    1.8655243   520603 
   30000    1.5715102   -4.1497219   -4.1497219   -2.2884348   0.52919064   -4.1497219     1.861287   520603 
   31000    1.5703729   -4.1595795   -4.1595795   -2.2996395   0.51977567   -4.1595795      1.85994   520603 
   32000    1.5706496   -4.1719947   -4.1719947   -2.3117269   0.50293005   -4.1719947    1.8602677   520603 
   33000    1.5710655   -4.1833432   -4.1833432   -2.3225828   0.53141613   -4.1833432    1.8607604   520603 
   34000    1.5694684   -4.1914927   -4.1914927    -2.332624   0.50738696   -4.1914927    1.8588688   520603 
   35000     1.561724   -4.1927953   -4.1927953   -2.3430989   0.51337394   -4.1927953    1.8496964   520603 
   36000    1.5589488   -4.2002078   -4.2002078   -2.3537984   0.49190026   -4.2002078    1.8464094   520603 
   37000    1.5527601   -4.2014642   -4.2014642   -2.3623847   0.48798449   -4.2014642    1.8390795   520603 
   38000    1.5462419   -4.2021653   -4.2021653   -2.3708058   0.47063636   -4.2021653    1.8313595   520603 
   39000    1.5398035   -4.2042839   -4.2042839   -2.3805502   0.49399303   -4.2042839    1.8237338   520603 
   40000    1.5296622   -4.2000786   -4.2000786   -2.3883561   0.45316138   -4.2000786    1.8117225   520603 
   41000    1.5255201   -4.2047502   -4.2047502   -2.3979335   0.47640728   -4.2047502    1.8068167   520603 
   42000    1.5224442   -4.2110526   -4.2110526    -2.407879   0.46863154   -4.2110526    1.8031736   520603 
   43000    1.5168311   -4.2137221   -4.2137221   -2.4171967    0.4684883   -4.2137221    1.7965254   520603 
   44000    1.5117043   -4.2160446   -4.2160446   -2.4255913   0.48683658   -4.2160446    1.7904533   520603 
   45000    1.5082423   -4.2212739   -4.2212739    -2.434921   0.49461044   -4.2212739    1.7863529   520603 
   46000    1.5060963   -4.2270878   -4.2270878   -2.4432766    0.4698632   -4.2270878    1.7838113   520603 
   47000    1.5009223   -4.2296872   -4.2296872    -2.452004   0.44919705   -4.2296872    1.7776832   520603 
   48000    1.4970898   -4.2348537   -4.2348537   -2.4617097   0.46528053   -4.2348537     1.773144   520603 
   49000    1.4945011   -4.2412477   -4.2412477   -2.4711697   0.45661603   -4.2412477     1.770078   520603 
   50000    1.4887586   -4.2411327   -4.2411327   -2.4778562   0.45383662   -4.2411327    1.7632766   520603 
   51000    1.4884718   -4.2482159   -4.2482159   -2.4852791   0.43849412   -4.2482159    1.7629368   520603 
   52000    1.4863153   -4.2531948   -4.2531948   -2.4928121   0.43925119   -4.2531948    1.7603827   520603 
   53000     1.484556    -4.259005    -4.259005    -2.500706   0.47089271    -4.259005     1.758299   520603 
   54000     1.479929   -4.2603717   -4.2603717   -2.5075529   0.43312255   -4.2603717    1.7528188   520603 
   55000    1.4808478    -4.268617    -4.268617   -2.5147099   0.42610378    -4.268617    1.7539071   520603 
   56000    1.4792633   -4.2731423   -4.2731423   -2.5211119    0.4057176   -4.2731423    1.7520304   520603 
   57000    1.4760067   -4.2744927   -4.2744927   -2.5263194   0.45589432   -4.2744927    1.7481733   520603 
   58000    1.4752378   -4.2796394   -4.2796394   -2.5323768   0.40278259   -4.2796394    1.7472626   520603 
   59000    1.4693999   -4.2789776   -4.2789776   -2.5386294   0.44080373   -4.2789776    1.7403482   520603 
   60000    1.4674608   -4.2826935   -4.2826935   -2.5446419   0.44368936   -4.2826935    1.7380515   520603 
   61000    1.4635803   -4.2849392   -4.2849392   -2.5514836   0.40332144   -4.2849392    1.7334555   520603 
   62000    1.4624184   -4.2889243   -4.2889243    -2.556845   0.40856057   -4.2889243    1.7320793   520603 
   63000    1.4578326   -4.2908234   -4.2908234   -2.5641754   0.42898048   -4.2908234     1.726648   520603 
   64000    1.4522576   -4.2901386   -4.2901386   -2.5700936   0.41096768   -4.2901386     1.720045   520603 
   65000    1.4487665   -4.2923906   -4.2923906   -2.5764804   0.40946592   -4.2923906    1.7159102   520603 
   66000    1.4450562   -4.2938024   -4.2938024   -2.5822867   0.43129996   -4.2938024    1.7115157   520603 
   67000    1.4435064    -4.298381    -4.298381   -2.5887009     0.386646    -4.298381    1.7096801   520603 
   68000    1.4404748    -4.300931    -4.300931   -2.5948415   0.38167191    -4.300931    1.7060895   520603 
   69000    1.4372291   -4.3030791   -4.3030791   -2.6008337   0.40393039   -4.3030791    1.7022454   520603 
   70000    1.4345267   -4.3071051   -4.3071051   -2.6080604   0.35811502   -4.3071051    1.6990447   520603 
   71000    1.4315801   -4.3101138   -4.3101138   -2.6145592   0.38517896   -4.3101138    1.6955546   520603 
   72000     1.430601   -4.3146927   -4.3146927   -2.6202976   0.37611718   -4.3146927    1.6943951   520603 
   73000    1.4274092    -4.316431    -4.316431   -2.6258163   0.41704459    -4.316431    1.6906147   520603 
   74000    1.4223138   -4.3165585   -4.3165585   -2.6319788   0.38927624   -4.3165585    1.6845797   520603 
   75000    1.4228592   -4.3228085   -4.3228085   -2.6375828   0.36309059   -4.3228085    1.6852257   520603 
   76000    1.4188517   -4.3229427   -4.3229427   -2.6424634   0.39314049   -4.3229427    1.6804793   520603 
   77000    1.4181739   -4.3275812   -4.3275812   -2.6479047   0.40140169   -4.3275812    1.6796765   520603 
   78000    1.4163621   -4.3307878   -4.3307878   -2.6532572   0.38243181   -4.3307878    1.6775306   520603 
   79000     1.413327   -4.3335107   -4.3335107   -2.6595749   0.39835118   -4.3335107    1.6739359   520603 
   80000    1.4111418   -4.3370179   -4.3370179   -2.6656702   0.37234968   -4.3370179    1.6713477   520603 
   81000    1.4071976   -4.3377918   -4.3377918   -2.6711156   0.37584917   -4.3377918    1.6666762   520603 
   82000    1.4041182   -4.3377912   -4.3377912   -2.6747622   0.37616902   -4.3377912    1.6630289   520603 
   83000    1.4033427   -4.3412182   -4.3412182   -2.6791077   0.35955027   -4.3412182    1.6621105   520603 
   84000    1.4022286   -4.3439553   -4.3439553   -2.6831644    0.3681966   -4.3439553    1.6607909   520603 
   85000    1.3980073   -4.3439781   -4.3439781   -2.6881868   0.38753956   -4.3439781    1.6557913   520603 
   86000    1.3981894   -4.3486093   -4.3486093   -2.6926023   0.34988077   -4.3486093     1.656007   520603 
   87000    1.3928325   -4.3468921   -4.3468921   -2.6972298   0.36109874   -4.3468921    1.6496623   520603 
   88000    1.3906472   -4.3494006   -4.3494006   -2.7023267   0.34903251   -4.3494006     1.647074   520603 
   89000    1.3883147   -4.3518098   -4.3518098   -2.7074983   0.34046827   -4.3518098    1.6443115   520603 
   90000     1.387876   -4.3564777   -4.3564777   -2.7126858   0.36483075   -4.3564777    1.6437919   520603 
   91000    1.3859152   -4.3594569   -4.3594569   -2.7179874   0.34464204   -4.3594569    1.6414695   520603 
   92000    1.3819658   -4.3598753   -4.3598753   -2.7230835    0.3674432   -4.3598753    1.6367918   520603 
   93000    1.3801433   -4.3617378   -4.3617378   -2.7271045   0.34270742   -4.3617378    1.6346333   520603 
   94000    1.3759109   -4.3607331   -4.3607331   -2.7311127    0.3191333   -4.3607331    1.6296204   520603 
   95000    1.3758109    -4.363584    -4.363584    -2.734082   0.33174804    -4.363584     1.629502   520603 
   96000    1.3752298   -4.3675139   -4.3675139   -2.7387001   0.33944399   -4.3675139    1.6288138   520603 
   97000    1.3685469   -4.3634653   -4.3634653   -2.7425668   0.34037698   -4.3634653    1.6208985   520603 
   98000    1.3693465   -4.3678779   -4.3678779   -2.7460324   0.34501633   -4.3678779    1.6218455   520603 
   99000    1.3686659   -4.3714186   -4.3714186   -2.7503792   0.34004331   -4.3714186    1.6210395   520603 
  100000    1.3661894   -4.3738495   -4.3738495   -2.7557432   0.31889353   -4.3738495    1.6181063   520603 
  101000    1.3657515   -4.3758744   -4.3758744   -2.7582867   0.33054502   -4.3758744    1.6175876   520603 
  102000    1.3611609   -4.3761275   -4.3761275   -2.7639769   0.35621254   -4.3761275    1.6121507   520603 
  103000    1.3618008   -4.3809566   -4.3809566   -2.7680481    0.3220149   -4.3809566    1.6129085   520603 
  104000     1.359454   -4.3828779   -4.3828779   -2.7727489   0.32255771   -4.3828779     1.610129   520603 
  105000    1.3595595   -4.3866716   -4.3866716   -2.7764176   0.31562638   -4.3866716    1.6102539   520603 
  106000    1.3566757   -4.3856842   -4.3856842   -2.7788458   0.32799694   -4.3856842    1.6068383   520603 
  107000    1.3530521   -4.3858329   -4.3858329   -2.7832863    0.3261883   -4.3858329    1.6025466   520603 
  108000      1.35251    -4.388922    -4.388922   -2.7870174   0.33950637    -4.388922    1.6019046   520603 
  109000    1.3508515   -4.3900673   -4.3900673   -2.7901271   0.34368489   -4.3900673    1.5999402   520603 
  110000    1.3470506   -4.3894055   -4.3894055    -2.793967   0.34658592   -4.3894055    1.5954385   520603 
  111000    1.3480641   -4.3938333   -4.3938333   -2.7971945   0.30667875   -4.3938333    1.5966389   520603 
  112000    1.3439067   -4.3936109   -4.3936109    -2.801896   0.33478786   -4.3936109    1.5917149   520603 
  113000    1.3428754   -4.3962811   -4.3962811   -2.8057877   0.30878822   -4.3962811    1.5904934   520603 
  114000     1.340241    -4.396638    -4.396638   -2.8092648   0.34251366    -4.396638    1.5873732   520603 
  115000    1.3383513   -4.3983373   -4.3983373   -2.8132023   0.34220515   -4.3983373     1.585135   520603 
  116000     1.338776   -4.4019712   -4.4019712   -2.8163332   0.31169639   -4.4019712     1.585638   520603 
  117000    1.3355902   -4.4025266   -4.4025266   -2.8206618   0.31590781   -4.4025266    1.5818648   520603 
  118000    1.3340088   -4.4049641   -4.4049641   -2.8249723   0.29451736   -4.4049641    1.5799918   520603 
  119000    1.3307326   -4.4046223   -4.4046223   -2.8285107   0.29652853   -4.4046223    1.5761116   520603 
  120000     1.329732   -4.4075443   -4.4075443   -2.8326178   0.30249773   -4.4075443    1.5749265   520603 
  121000    1.3267237   -4.4079666   -4.4079666   -2.8366032   0.30434651   -4.4079666    1.5713634   520603 
  122000    1.3277791   -4.4123201   -4.4123201   -2.8397067   0.32627025   -4.4123201    1.5726134   520603 
  123000    1.3254145    -4.411874    -4.411874   -2.8420612   0.31057301    -4.411874    1.5698128   520603 
  124000    1.3233345     -4.41235     -4.41235   -2.8450007   0.28470615     -4.41235    1.5673493   520603 
  125000    1.3215948   -4.4146668   -4.4146668   -2.8493781   0.29356456   -4.4146668    1.5652888   520603 
  126000    1.3211749   -4.4176728   -4.4176728   -2.8528814   0.29659103   -4.4176728    1.5647914   520603 
  127000    1.3207505   -4.4208699   -4.4208699   -2.8565811   0.29797835   -4.4208699    1.5642888   520603 
  128000    1.3177802   -4.4201537   -4.4201537    -2.859383   0.30464899   -4.4201537    1.5607708   520603 
  129000    1.3179641   -4.4234018   -4.4234018   -2.8624132   0.29561187   -4.4234018    1.5609886   520603 
  130000     1.314127   -4.4218053   -4.4218053   -2.8653614   0.31274385   -4.4218053     1.556444   520603 
  131000    1.3123769    -4.422814    -4.422814   -2.8684429   0.29178558    -4.422814    1.5543712   520603 
  132000    1.3111203   -4.4243212   -4.4243212   -2.8714384   0.28500286   -4.4243212    1.5528828   520603 
  133000    1.3139158   -4.4290281   -4.4290281   -2.8728342   0.27280912   -4.4290281    1.5561938   520603 
  134000    1.3098717   -4.4273998   -4.4273998   -2.8759958   0.25833832   -4.4273998     1.551404   520603 
  135000    1.3077744   -4.4285392   -4.4285392   -2.8796192   0.28552673   -4.4285392      1.54892   520603 
  136000    1.3067459   -4.4297403   -4.4297403   -2.8820384   0.29548855   -4.4297403    1.5477019   520603 
  137000    1.3064781   -4.4340712   -4.4340712   -2.8866865   0.25827442   -4.4340712    1.5473847   520603 
  138000     1.303706   -4.4342009   -4.4342009   -2.8900994   0.29173679   -4.4342009    1.5441014   520603 
  139000    1.3011025   -4.4336072   -4.4336072   -2.8925894   0.27134443   -4.4336072    1.5410178   520603 
  140000    1.3037502   -4.4389994   -4.4389994   -2.8948456   0.27603224   -4.4389994    1.5441537   520603 
  141000    1.3007461   -4.4378309   -4.4378309   -2.8972352   0.27498581   -4.4378309    1.5405957   520603 
  142000    1.3021333   -4.4424716   -4.4424716   -2.9002329   0.28886061   -4.4424716    1.5422387   520603 
  143000    1.2969767   -4.4396927   -4.4396927   -2.9035614   0.25261097   -4.4396927    1.5361313   520603 
  144000    1.2953173   -4.4403859   -4.4403859     -2.90622   0.31612576   -4.4403859    1.5341659   520603 
  145000    1.2953785   -4.4430974   -4.4430974   -2.9088591   0.29472383   -4.4430974    1.5342384   520603 
  146000    1.2940517   -4.4429991   -4.4429991   -2.9103322   0.26030239   -4.4429991    1.5326669   520603 
  147000     1.292896   -4.4454097   -4.4454097   -2.9141116   0.27720471   -4.4454097    1.5312981   520603 
  148000     1.290292    -4.445017    -4.445017   -2.9168031   0.26345731    -4.445017    1.5282139   520603 
  149000    1.2896852   -4.4480001   -4.4480001   -2.9205049   0.28362945   -4.4480001    1.5274953   520603 
  150000    1.2893156    -4.449686    -4.449686   -2.9226285   0.27728691    -4.449686    1.5270575   520603 
  151000     1.287851   -4.4503021   -4.4503021   -2.9249793   0.26484199   -4.4503021    1.5253228   520603 
  152000    1.2892749   -4.4543603   -4.4543603   -2.9273511     0.286836   -4.4543603    1.5270093   520603 
  153000    1.2846308   -4.4517648   -4.4517648    -2.930256   0.27017564   -4.4517648    1.5215088   520603 
  154000    1.2830463   -4.4530764   -4.4530764   -2.9334442   0.28059546   -4.4530764    1.5196322   520603 
  155000    1.2842997   -4.4570446   -4.4570446   -2.9359279   0.27988604   -4.4570446    1.5211167   520603 
  156000    1.2831301    -4.457956    -4.457956   -2.9382246   0.26819712    -4.457956    1.5197314   520603 
  157000    1.2786001   -4.4558151   -4.4558151    -2.941449    0.2697987   -4.4558151    1.5143661   520603 
  158000    1.2788103   -4.4579835   -4.4579835   -2.9433684   0.26797637   -4.4579835    1.5146151   520603 
  159000    1.2778526   -4.4589415   -4.4589415   -2.9454607   0.27753474   -4.4589415    1.5134808   520603 
  160000    1.2773881   -4.4605672   -4.4605672   -2.9476365   0.26296201   -4.4605672    1.5129307   520603 
  161000    1.2717234     -4.45735     -4.45735   -2.9511286   0.26854932     -4.45735    1.5062214   520603 
  162000    1.2751763   -4.4618028   -4.4618028   -2.9514918   0.25417807   -4.4618028     1.510311   520603 
  163000    1.2733281   -4.4633299   -4.4633299   -2.9552079   0.26358076   -4.4633299     1.508122   520603 
  164000    1.2721695   -4.4648564   -4.4648564   -2.9581067   0.25974819   -4.4648564    1.5067497   520603 
  165000    1.2703741    -4.465555    -4.465555   -2.9609317   0.26628395    -4.465555    1.5046233   520603 
  166000    1.2701994   -4.4669448   -4.4669448   -2.9625284   0.25739333   -4.4669448    1.5044164   520603 
  167000    1.2686594   -4.4672311   -4.4672311   -2.9646386   0.24877347   -4.4672311    1.5025924   520603 
  168000    1.2676135   -4.4675354   -4.4675354   -2.9661818   0.26039541   -4.4675354    1.5013536   520603 
  169000    1.2686873   -4.4719244   -4.4719244   -2.9692989   0.25309709   -4.4719244    1.5026254   520603 
  170000    1.2657853   -4.4715965   -4.4715965   -2.9724081    0.2376071   -4.4715965    1.4991884   520603 
  171000    1.2646609   -4.4722442   -4.4722442   -2.9743875   0.26564536   -4.4722442    1.4978566   520603 
  172000    1.2648397   -4.4747898   -4.4747898   -2.9767214   0.25304888   -4.4747898    1.4980684   520603 
  173000    1.2646046   -4.4764089   -4.4764089    -2.978619   0.27244578   -4.4764089    1.4977899   520603 
  174000    1.2607962   -4.4752934   -4.4752934   -2.9820142   0.24554218   -4.4752934    1.4932793   520603 
  175000    1.2620506   -4.4787659   -4.4787659   -2.9840009    0.2462783   -4.4787659     1.494765   520603 
  176000    1.2577158   -4.4752673   -4.4752673   -2.9856364    0.2600526   -4.4752673    1.4896308   520603 
  177000    1.2582259   -4.4776404   -4.4776404   -2.9874054   0.25288103   -4.4776404     1.490235   520603 
  178000    1.2550673   -4.4779282   -4.4779282   -2.9914342   0.23727597   -4.4779282     1.486494   520603 
  179000    1.2567182   -4.4815411   -4.4815411   -2.9930918   0.23394144   -4.4815411    1.4884493   520603 
  180000    1.2561749   -4.4829623   -4.4829623   -2.9951564   0.24802902   -4.4829623    1.4878059   520603 
  181000    1.2519932   -4.4819941   -4.4819941   -2.9991411   0.23701143   -4.4819941    1.4828531   520603 
  182000    1.2522396   -4.4835767   -4.4835767   -3.0004318    0.2471156   -4.4835767    1.4831449   520603 
  183000     1.251634   -4.4847706   -4.4847706   -3.0023429   0.24934829   -4.4847706    1.4824277   520603 
  184000    1.2512187   -4.4858472   -4.4858472   -3.0039114   0.22489875   -4.4858472    1.4819358   520603 
  185000    1.2500856   -4.4854441   -4.4854441   -3.0048503    0.2303759   -4.4854441    1.4805937   520603 
  186000    1.2499442   -4.4879098   -4.4879098   -3.0074836   0.24089271   -4.4879098    1.4804262   520603 
  187000    1.2478385   -4.4875243   -4.4875243   -3.0095921   0.23892964   -4.4875243    1.4779322   520603 
  188000    1.2466344   -4.4877254   -4.4877254   -3.0112193   0.21577625   -4.4877254    1.4765061   520603 
  189000    1.2479113   -4.4917952   -4.4917952   -3.0137767   0.27004456   -4.4917952    1.4780185   520603 
  190000    1.2447206   -4.4899449   -4.4899449   -3.0157054   0.23416792   -4.4899449    1.4742394   520603 
  191000    1.2437782   -4.4899769   -4.4899769   -3.0168536   0.22091532   -4.4899769    1.4731233   520603 
  192000    1.2439465   -4.4934321   -4.4934321   -3.0201095   0.22257984   -4.4934321    1.4733226   520603 
  193000    1.2426219   -4.4937995   -4.4937995   -3.0220458   0.25795528   -4.4937995    1.4717537   520603 
  194000    1.2407634   -4.4945911   -4.4945911   -3.0250386   0.21460016   -4.4945911    1.4695525   520603 
  195000    1.2393122   -4.4949259   -4.4949259   -3.0270921   0.23850754   -4.4949259    1.4678338   520603 
  196000    1.2379908   -4.4949926   -4.4949926   -3.0287239   0.21737389   -4.4949926    1.4662687   520603 
  197000    1.2384382   -4.4978759   -4.4978759   -3.0310773   0.24159362   -4.4978759    1.4667986   520603 
  198000    1.2385771   -4.4999918   -4.4999918   -3.0330287   0.24670245   -4.4999918    1.4669631   520603 
  199000    1.2346893    -4.497196    -4.497196   -3.0348376   0.21890252    -4.497196    1.4623584   520603 
  200000    1.2354228   -4.5000334   -4.5000334   -3.0368063   0.23975438   -4.5000334    1.4632272   520603 
  201000    1.2316429   -4.4969961   -4.4969961   -3.0382458   0.24237339   -4.4969961    1.4587503   520603 
  202000    1.2332923   -4.5010728   -4.5010728   -3.0403691   0.22904947   -4.5010728    1.4607038   520603 
  203000    1.2328922   -4.5022065   -4.5022065   -3.0419765   0.24247664   -4.5022065      1.46023   520603 
  204000    1.2327623   -4.5037722   -4.5037722   -3.0436961   0.24606322   -4.5037722    1.4600761   520603 
  205000    1.2286291   -4.5002989   -4.5002989   -3.0451181   0.20478423   -4.5002989    1.4551808   520603 
  206000    1.2294409   -4.5023031   -4.5023031   -3.0461608   0.21862206   -4.5023031    1.4561422   520603 
  207000    1.2304524   -4.5053359   -4.5053359   -3.0479956   0.23395547   -4.5053359    1.4573403   520603 
  208000    1.2283099   -4.5044767   -4.5044767    -3.049674   0.21272416   -4.5044767    1.4548027   520603 
  209000    1.2280703   -4.5065241   -4.5065241   -3.0520052   0.24280627   -4.5065241    1.4545189   520603 
  210000     1.227312   -4.5073878   -4.5073878   -3.0537669   0.23021911   -4.5073878    1.4536208   520603 
  211000    1.2277684   -4.5091667   -4.5091667   -3.0550054     0.216629   -4.5091667    1.4541613   520603 
  212000     1.223914   -4.5072434   -4.5072434   -3.0576471   0.19921103   -4.5072434    1.4495963   520603 
  213000    1.2231062   -4.5090498   -4.5090498   -3.0604103   0.20280196   -4.5090498    1.4486395   520603 
  214000    1.2250221   -4.5115001   -4.5115001   -3.0605915    0.1910938   -4.5115001    1.4509087   520603 
  215000    1.2239162   -4.5119927   -4.5119927   -3.0623938   0.25085533   -4.5119927    1.4495989   520603 
  216000    1.2232604   -4.5126961   -4.5126961    -3.063874   0.22184152   -4.5126961    1.4488221   520603 
  217000    1.2214747   -4.5143941   -4.5143941   -3.0676869   0.20304604   -4.5143941    1.4467072   520603 
  218000     1.222507   -4.5165744   -4.5165744   -3.0686446   0.22130956   -4.5165744    1.4479298   520603 
  219000     1.221154   -4.5172564   -4.5172564   -3.0709291   0.20302699   -4.5172564    1.4463273   520603 
  220000    1.2200761   -4.5162605   -4.5162605   -3.0712099   0.21931363   -4.5162605    1.4450506   520603 
  221000    1.2181979   -4.5160978   -4.5160978   -3.0732717   0.22209644   -4.5160978    1.4428262   520603 
  222000    1.2176876   -4.5168536   -4.5168536   -3.0746319   0.18871864   -4.5168536    1.4422217   520603 
  223000    1.2162308   -4.5161543   -4.5161543    -3.075658   0.22558812   -4.5161543    1.4404963   520603 
  224000    1.2150585   -4.5171522   -4.5171522   -3.0780445   0.22516069   -4.5171522    1.4391078   520603 
  225000    1.2139388   -4.5163685   -4.5163685   -3.0785869   0.24536417   -4.5163685    1.4377816   520603 
  226000     1.215314   -4.5190668   -4.5190668   -3.0796564   0.23855994   -4.5190668    1.4394104   520603 
  227000    1.2119075   -4.5173919   -4.5173919   -3.0820161   0.21413264   -4.5173919    1.4353758   520603 
  228000     1.213051    -4.519218    -4.519218   -3.0824878   0.21895863    -4.519218    1.4367302   520603 
  229000    1.2113095   -4.5192243   -4.5192243   -3.0845568    0.2134106   -4.5192243    1.4346675   520603 
  230000    1.2090853    -4.519722    -4.519722   -3.0876887   0.17746185    -4.519722    1.4320333   520603 
  231000    1.2094412   -4.5224028   -4.5224028    -3.089948   0.21592418   -4.5224028    1.4324548   520603 
  232000    1.2091981    -4.524427    -4.524427   -3.0922602   0.18918416    -4.524427    1.4321668   520603 
  233000    1.2105519   -4.5279627   -4.5279627   -3.0941925   0.21118684   -4.5279627    1.4337702   520603 
  234000    1.2086725   -4.5267846   -4.5267846   -3.0952403   0.20714783   -4.5267846    1.4315443   520603 
  235000    1.2071777   -4.5273825   -4.5273825   -3.0976086   0.19274577   -4.5273825    1.4297739   520603 
  236000    1.2075272   -4.5279727   -4.5279727   -3.0977849   0.20905934   -4.5279727    1.4301879   520603 
  237000    1.2048837   -4.5261973   -4.5261973   -3.0991404   0.20213493   -4.5261973    1.4270569   520603 
  238000    1.2071014   -4.5309033   -4.5309033   -3.1012198    0.1692289   -4.5309033    1.4296835   520603 
  239000     1.203666   -4.5285541   -4.5285541   -3.1029396   0.18705703   -4.5285541    1.4256146   520603 
  240000    1.2034547   -4.5305209   -4.5305209   -3.1051565   0.20427605   -4.5305209    1.4253644   520603 
  241000    1.2050957   -4.5339204   -4.5339204   -3.1066125   0.19504823   -4.5339204    1.4273079   520603 
  242000    1.2043819   -4.5347322   -4.5347322   -3.1082697    0.2044713   -4.5347322    1.4264626   520603 
  243000    1.2009784   -4.5324097   -4.5324097   -3.1099783   0.18745676   -4.5324097    1.4224314   520603 
  244000    1.2027294   -4.5367065   -4.5367065   -3.1122012   0.19940715   -4.5367065    1.4245053   520603 
  245000    1.2012266   -4.5360738   -4.5360738   -3.1133484   0.21771132   -4.5360738    1.4227254   520603 
  246000    1.2019892   -4.5386152   -4.5386152   -3.1149866   0.20621299   -4.5386152    1.4236286   520603 
  247000    1.1972937   -4.5350887   -4.5350887   -3.1170214   0.21093754   -4.5350887    1.4180673   520603 
  248000    1.1967108   -4.5355387   -4.5355387   -3.1181618   0.18972843   -4.5355387    1.4173769   520603 
  249000    1.1974534   -4.5376284   -4.5376284   -3.1193719   0.23417678   -4.5376284    1.4182565   520603 
  250000    1.1977938   -4.5406413   -4.5406413   -3.1219817   0.20887013   -4.5406413    1.4186596   520603 
  251000    1.1959039   -4.5392903   -4.5392903    -3.122869   0.19308523   -4.5392903    1.4164213   520603 
  252000    1.1964292   -4.5408989   -4.5408989   -3.1238555   0.18202383   -4.5408989    1.4170435   520603 
  253000    1.1948996   -4.5409052   -4.5409052   -3.1256735   0.19771131   -4.5409052    1.4152317   520603 
  254000    1.1955062   -4.5438996   -4.5438996   -3.1279494    0.1805529   -4.5438996    1.4159502   520603 
  255000    1.1912516   -4.5396088   -4.5396088   -3.1286977   0.19889321   -4.5396088    1.4109111   520603 
  256000    1.1914005   -4.5415156   -4.5415156   -3.1304281   0.21504606   -4.5415156    1.4110875   520603 
  257000    1.1951549   -4.5475048   -4.5475048   -3.1319707   0.19227741   -4.5475048    1.4155341   520603 
  258000    1.1925632    -4.546421    -4.546421   -3.1339565   0.19547764    -4.546421    1.4124645   520603 
  259000    1.1919974   -4.5468167   -4.5468167   -3.1350223   0.19183746   -4.5468167    1.4117944   520603 
  260000    1.1927207   -4.5486792   -4.5486792   -3.1360282   0.21379666   -4.5486792     1.412651   520603 
  261000    1.1915018   -4.5476126   -4.5476126   -3.1364052   0.18495982   -4.5476126    1.4112075   520603 
  262000    1.1901198    -4.548406    -4.548406   -3.1388354   0.22786004    -4.548406    1.4095706   520603 
  263000    1.1894607   -4.5494571   -4.5494571   -3.1406671   0.20160641   -4.5494571      1.40879   520603 
  264000    1.1897651   -4.5508307   -4.5508307   -3.1416802   0.18607046   -4.5508307    1.4091505   520603 
  265000    1.1871646    -4.549466    -4.549466   -3.1433955   0.19105766    -4.549466    1.4060705   520603 
  266000    1.1879824    -4.552195    -4.552195   -3.1451559   0.20425188    -4.552195     1.407039   520603 
  267000    1.1865544   -4.5522283   -4.5522283   -3.1468805   0.18996889   -4.5522283    1.4053478   520603 
  268000    1.1865536   -4.5549047   -4.5549047   -3.1495579   0.19029569   -4.5549047    1.4053468   520603 
  269000    1.1861167   -4.5551736   -4.5551736   -3.1503443   0.20075884   -4.5551736    1.4048293   520603 
  270000    1.1856541   -4.5556048   -4.5556048   -3.1513233   0.19157576   -4.5556048    1.4042815   520603 
  271000     1.183239   -4.5548573   -4.5548573   -3.1534363   0.18224933   -4.5548573     1.401421   520603 
  272000    1.1843531   -4.5582902   -4.5582902   -3.1555497   0.17744206   -4.5582902    1.4027405   520603 
  273000    1.1829103   -4.5582563   -4.5582563   -3.1572246   0.20964766   -4.5582563    1.4010317   520603 
  274000    1.1804624   -4.5557407   -4.5557407   -3.1576082   0.16828952   -4.5557407    1.3981325   520603 
  275000    1.1826139    -4.560593    -4.560593   -3.1599123    0.1785434    -4.560593    1.4006807   520603 
  276000    1.1769131   -4.5558327   -4.5558327    -3.161904   0.17677831   -4.5558327    1.3939287   520603 
  277000     1.179898   -4.5593666   -4.5593666   -3.1619026   0.20048252   -4.5593666     1.397464   520603 
  278000    1.1786068   -4.5599015   -4.5599015   -3.1639668   0.14575391   -4.5599015    1.3959347   520603 
  279000    1.1765528   -4.5580124   -4.5580124   -3.1645105   0.20962704   -4.5580124    1.3935019   520603 
  280000    1.1791049   -4.5631503   -4.5631503   -3.1666256   0.17874992   -4.5631503    1.3965247   520603 
  281000    1.1758991   -4.5611868   -4.5611868   -3.1684592   0.15637858   -4.5611868    1.3927277   520603 
  282000    1.1766119     -4.56322     -4.56322   -3.1696481   0.15371105     -4.56322    1.3935719   520603 
  283000    1.1766767   -4.5638984   -4.5638984   -3.1702498   0.18471997   -4.5638984    1.3936487   520603 
  284000    1.1751676   -4.5645171   -4.5645171   -3.1726557   0.18264731   -4.5645171    1.3918613   520603 
  285000    1.1746957   -4.5645013   -4.5645013   -3.1731989   0.16220366   -4.5645013    1.3913024   520603 
  286000    1.1753801   -4.5657178   -4.5657178   -3.1736048   0.20105281   -4.5657178     1.392113   520603 
  287000    1.1732661   -4.5654324   -4.5654324   -3.1758233   0.15335553   -4.5654324    1.3896091   520603 
  288000    1.1740193   -4.5675396   -4.5675396   -3.1770384   0.16824441   -4.5675396    1.3905012   520603 
  289000    1.1726651   -4.5671389   -4.5671389   -3.1782416     0.179106   -4.5671389    1.3888973   520603 
  290000    1.1751539   -4.5708857   -4.5708857   -3.1790406   0.18427748   -4.5708857     1.391845   520603 
  291000     1.171573   -4.5683687   -4.5683687   -3.1807648   0.17861439   -4.5683687    1.3876039   520603 
  292000    1.1702243   -4.5679715   -4.5679715    -3.181965   0.17867724   -4.5679715    1.3860065   520603 
  293000    1.1713889   -4.5701792   -4.5701792   -3.1827934   0.18563445   -4.5701792    1.3873858   520603 
  294000    1.1695534   -4.5701204   -4.5701204   -3.1849086   0.17058521   -4.5701204    1.3852119   520603 
  295000    1.1687156   -4.5703077   -4.5703077   -3.1860881   0.17460914   -4.5703077    1.3842196   520603 
  296000    1.1698712   -4.5722847   -4.5722847   -3.1866964    0.1408194   -4.5722847    1.3855883   520603 
  297000    1.1687817   -4.5725123   -4.5725123   -3.1882144   0.16052908   -4.5725123    1.3842979   520603 
  298000    1.1675698   -4.5719858   -4.5719858   -3.1891233   0.19122386   -4.5719858    1.3828625   520603 
  299000    1.1663626   -4.5724161   -4.5724161   -3.1909834    0.1854197   -4.5724161    1.3814327   520603 
  300000    1.1679447   -4.5743066   -4.5743066   -3.1910001   0.18690429   -4.5743066    1.3833065   520603 
  301000    1.1677928   -4.5754172   -4.5754172   -3.1922906   0.18143661   -4.5754172    1.3831267   520603 
  302000    1.1647694   -4.5727001   -4.5727001   -3.1931543   0.18355326   -4.5727001    1.3795458   520603 
  303000    1.1671427   -4.5764898   -4.5764898   -3.1941332   0.17940342   -4.5764898    1.3823566   520603 
  304000    1.1665088   -4.5759952   -4.5759952   -3.1943894   0.16312199   -4.5759952    1.3816058   520603 
  305000    1.1646739   -4.5760451   -4.5760451   -3.1966125   0.18260815   -4.5760451    1.3794326   520603 
  306000    1.1646434   -4.5772737   -4.5772737   -3.1978772   0.16675619   -4.5772737    1.3793965   520603 
  307000    1.1644284   -4.5794759   -4.5794759    -3.200334   0.16947082   -4.5794759    1.3791419   520603 
  308000    1.1622757   -4.5779906   -4.5779906   -3.2013983   0.16749403   -4.5779906    1.3765922   520603 
  309000    1.1633862   -4.5801291   -4.5801291   -3.2022216   0.19294977   -4.5801291    1.3779075   520603 
  310000    1.1621802   -4.5814896   -4.5814896   -3.2050105   0.17618068   -4.5814896    1.3764791   520603 
  311000    1.1617948   -4.5826538   -4.5826538   -3.2066312   0.19221172   -4.5826538    1.3760227   520603 
  312000    1.1632109   -4.5855576   -4.5855576   -3.2078577    0.1679218   -4.5855576    1.3776999   520603 
  313000     1.159057   -4.5824457   -4.5824457   -3.2096657   0.17512099   -4.5824457      1.37278   520603 
  314000    1.1593797   -4.5839934   -4.5839934   -3.2108312   0.16908209   -4.5839934    1.3731622   520603 
  315000    1.1599231   -4.5858036   -4.5858036   -3.2119979   0.17248834   -4.5858036    1.3738057   520603 
  316000    1.1609193   -4.5874904   -4.5874904   -3.2125047   0.17616953   -4.5874904    1.3749857   520603 
  317000    1.1567192   -4.5856298   -4.5856298   -3.2156187   0.17788061   -4.5856298    1.3700111   520603 
  318000    1.1577882   -4.5887262   -4.5887262   -3.2174489   0.17268597   -4.5887262    1.3712773   520603 
  319000    1.1548984   -4.5860605   -4.5860605   -3.2182059   0.13622715   -4.5860605    1.3678546   520603 
  320000    1.1560953   -4.5876779   -4.5876779   -3.2184057   0.17094399   -4.5876779    1.3692722   520603 
  321000    1.1575598   -4.5905784   -4.5905784   -3.2195717   0.16433173   -4.5905784    1.3710067   520603 
  322000    1.1570965    -4.590765    -4.590765    -3.220307   0.17195339    -4.590765     1.370458   520603 
  323000     1.155326   -4.5901333   -4.5901333   -3.2217723   0.17970092   -4.5901333     1.368361   520603 
  324000    1.1545832   -4.5905703   -4.5905703    -3.223089   0.17204558   -4.5905703    1.3674813   520603 
  325000    1.1539875   -4.5898299   -4.5898299   -3.2230542   0.17436799   -4.5898299    1.3667758   520603 
  326000    1.1546648   -4.5912654   -4.5912654   -3.2236875   0.15103443   -4.5912654    1.3675779   520603 
  327000    1.1528119   -4.5911587   -4.5911587   -3.2257753   0.14731458   -4.5911587    1.3653834   520603 
  328000    1.1516262   -4.5900862   -4.5900862   -3.2261071   0.15222542   -4.5900862    1.3639791   520603 
  329000    1.1532767   -4.5937542   -4.5937542   -3.2278204   0.18106572   -4.5937542    1.3659338   520603 
  330000    1.1499975    -4.591039    -4.591039    -3.228989   0.15632615    -4.591039      1.36205   520603 
  331000    1.1534638   -4.5963228   -4.5963228   -3.2301674   0.15163569   -4.5963228    1.3661554   520603 
  332000    1.1523391   -4.5963005   -4.5963005   -3.2314771   0.16698325   -4.5963005    1.3648234   520603 
  333000    1.1518506   -4.5978945   -4.5978945   -3.2336497   0.16415079   -4.5978945    1.3642447   520603 
  334000    1.1505946    -4.595917    -4.595917   -3.2331597   0.16037302    -4.595917    1.3627572   520603 
  335000    1.1489915   -4.5945121   -4.5945121   -3.2336537   0.16051831   -4.5945121    1.3608584   520603 
  336000    1.1483612   -4.5941803   -4.5941803   -3.2340684   0.15685509   -4.5941803    1.3601119   520603 
  337000     1.151394   -4.5992909   -4.5992909   -3.2355869    0.1581464   -4.5992909     1.363704   520603 
  338000     1.150331   -4.5990881   -4.5990881   -3.2366431   0.16947216   -4.5990881    1.3624449   520603 
  339000    1.1488497   -4.5998835   -4.5998835   -3.2391929   0.12620142   -4.5998835    1.3606906   520603 
  340000    1.1471969     -4.59982     -4.59982    -3.241087   0.16156871     -4.59982     1.358733   520603 
  341000    1.1474441   -4.6016688   -4.6016688    -3.242643   0.13225985   -4.6016688    1.3590258   520603 
  342000    1.1464574   -4.6006876   -4.6006876   -3.2428305   0.17656951   -4.6006876    1.3578571   520603 
  343000    1.1449016   -4.5995915   -4.5995915    -3.243577   0.16656186   -4.5995915    1.3560144   520603 
  344000    1.1459173   -4.6021157   -4.6021157   -3.2448983    0.1456813   -4.6021157    1.3572174   520603 
  345000    1.1461775   -4.6029166   -4.6029166    -3.245391   0.18403366   -4.6029166    1.3575256   520603 
  346000     1.144855    -4.602748    -4.602748   -3.2467888   0.18337386    -4.602748    1.3559593   520603 
  347000    1.1456038   -4.6039863   -4.6039863   -3.2471402   0.15676654   -4.6039863    1.3568461   520603 
  348000    1.1429615   -4.6022912   -4.6022912   -3.2485745   0.16850961   -4.6022912    1.3537166   520603 
  349000    1.1433059   -4.6047656   -4.6047656   -3.2506411   0.19162848   -4.6047656    1.3541246   520603 
  350000    1.1459199   -4.6085132   -4.6085132   -3.2512927   0.15495029   -4.6085132    1.3572205   520603 
  351000    1.1435541   -4.6062339   -4.6062339   -3.2518154   0.17407011   -4.6062339    1.3544185   520603 
  352000    1.1414425   -4.6052623   -4.6052623   -3.2533448   0.18671043   -4.6052623    1.3519175   520603 
  353000    1.1415845   -4.6066031   -4.6066031   -3.2545174   0.14723504   -4.6066031    1.3520856   520603 
  354000    1.1413513   -4.6071253   -4.6071253   -3.2553159   0.16516781   -4.6071253    1.3518094   520603 
  355000    1.1407531   -4.6064975   -4.6064975   -3.2553965   0.19751008   -4.6064975     1.351101   520603 
  356000    1.1419103   -4.6090972   -4.6090972   -3.2566256    0.1636507   -4.6090972    1.3524716   520603 
  357000    1.1425153   -4.6096654   -4.6096654   -3.2564772   0.13662845   -4.6096654    1.3531881   520603 
  358000     1.140848   -4.6082967   -4.6082967   -3.2570833   0.14630905   -4.6082967    1.3512134   520603 
  359000    1.1415821   -4.6096054   -4.6096054   -3.2575225   0.15854012   -4.6096054    1.3520829   520603 
  360000    1.1414554   -4.6102106   -4.6102106   -3.2582778   0.16334884   -4.6102106    1.3519328   520603 
  361000    1.1408082   -4.6100799   -4.6100799   -3.2589137     0.165555   -4.6100799    1.3511663   520603 
  362000    1.1411532   -4.6102149   -4.6102149   -3.2586401   0.16018247   -4.6102149    1.3515748   520603 
  363000    1.1392207   -4.6093317   -4.6093317   -3.2600457   0.13072176   -4.6093317     1.349286   520603 
  364000    1.1375913   -4.6074725   -4.6074725   -3.2601163   0.16146152   -4.6074725    1.3473562   520603 
  365000    1.1380996   -4.6099344   -4.6099344   -3.2619762   0.15906741   -4.6099344    1.3479582   520603 
  366000    1.1392487   -4.6122775   -4.6122775   -3.2629584    0.1453208   -4.6122775    1.3493191   520603 
  367000    1.1372441   -4.6110105   -4.6110105   -3.2640656   0.15598006   -4.6110105     1.346945   520603 
  368000     1.138102   -4.6127025   -4.6127025   -3.2647415   0.15410555   -4.6127025     1.347961   520603 
  369000    1.1390314   -4.6142683   -4.6142683   -3.2652065    0.1742956   -4.6142683    1.3490618   520603 
  370000    1.1382794    -4.614655    -4.614655   -3.2664839   0.14885502    -4.614655    1.3481711   520603 
  371000    1.1368358   -4.6143148   -4.6143148   -3.2678535   0.16270038   -4.6143148    1.3464613   520603 
  372000    1.1373095   -4.6154668   -4.6154668   -3.2684444   0.14559868   -4.6154668    1.3470224   520603 
  373000     1.134264   -4.6133413   -4.6133413    -3.269926    0.1531523   -4.6133413    1.3434153   520603 
  374000    1.1350811   -4.6164505   -4.6164505   -3.2720673   0.13923623   -4.6164505    1.3443832   520603 
  375000    1.1351463   -4.6176583   -4.6176583    -3.273198   0.17891219   -4.6176583    1.3444603   520603 
  376000    1.1353325   -4.6182472   -4.6182472   -3.2735664   0.14606362   -4.6182472    1.3446808   520603 
  377000     1.133953   -4.6184538   -4.6184538   -3.2754068   0.14907788   -4.6184538     1.343047   520603 
  378000    1.1347189   -4.6202537   -4.6202537   -3.2762995   0.16670466   -4.6202537    1.3439542   520603 
  379000    1.1334786   -4.6209008   -4.6209008   -3.2784157   0.15245743   -4.6209008    1.3424851   520603 
  380000    1.1324833   -4.6218517   -4.6218517   -3.2805454   0.14147793   -4.6218517    1.3413063   520603 
  381000    1.1317666   -4.6214894   -4.6214894    -3.281032    0.1259668   -4.6214894    1.3404574   520603 
  382000    1.1303681   -4.6201932   -4.6201932   -3.2813921   0.12856592   -4.6201932    1.3388011   520603 
  383000    1.1320731   -4.6228501   -4.6228501   -3.2820298    0.1650864   -4.6228501    1.3408204   520603 
  384000    1.1303077    -4.621758    -4.621758   -3.2830285   0.15779596    -4.621758    1.3387295   520603 
  385000    1.1308755   -4.6224657   -4.6224657   -3.2830637   0.14904925   -4.6224657     1.339402   520603 
  386000    1.1309159   -4.6243766   -4.6243766   -3.2849268   0.17345807   -4.6243766    1.3394498   520603 
  387000    1.1312484   -4.6251021   -4.6251021   -3.2852585   0.14294044   -4.6251021    1.3398436   520603 
  388000    1.1284137   -4.6235413   -4.6235413   -3.2870551   0.14271633   -4.6235413    1.3364862   520603 
  389000    1.1309164   -4.6258533   -4.6258533   -3.2864029   0.16902997   -4.6258533    1.3394504   520603 
  390000    1.1295781   -4.6250664   -4.6250664   -3.2872011   0.13849853   -4.6250664    1.3378654   520603 
  391000    1.1303855   -4.6264354   -4.6264354   -3.2876138   0.12121879   -4.6264354    1.3388216   520603 
  392000    1.1283245   -4.6246881   -4.6246881   -3.2883076   0.13330676   -4.6246881    1.3363806   520603 
  393000    1.1287143   -4.6264376   -4.6264376   -3.2895953   0.15206462   -4.6264376    1.3368423   520603 
  394000    1.1281549   -4.6267453   -4.6267453   -3.2905656   0.12331124   -4.6267453    1.3361797   520603 
  395000    1.1275619   -4.6263766   -4.6263766   -3.2908992   0.14144151   -4.6263766    1.3354774   520603 
  396000    1.1273593   -4.6269158   -4.6269158   -3.2916783   0.15387118   -4.6269158    1.3352374   520603 
  397000    1.1269759   -4.6283352   -4.6283352   -3.2935518   0.16070312   -4.6283352    1.3347834   520603 
  398000    1.1277578   -4.6295091   -4.6295091   -3.2937996   0.15735338   -4.6295091    1.3357095   520603 
  399000    1.1275099   -4.6311866   -4.6311866   -3.2957707   0.15328524   -4.6311866    1.3354158   520603 
  400000    1.1258196   -4.6296769   -4.6296769   -3.2962631   0.14157085   -4.6296769    1.3334139   520603 
  401000    1.1280793   -4.6328959   -4.6328959   -3.2968056   0.15258152   -4.6328959    1.3360903   520603 
  402000    1.1281487    -4.633368    -4.633368   -3.2971956    0.1557025    -4.633368    1.3361724   520603 
  403000    1.1272919   -4.6320239   -4.6320239   -3.2968662   0.15424079   -4.6320239    1.3351576   520603 
  404000    1.1257718   -4.6316514   -4.6316514   -3.2982942   0.15717427   -4.6316514    1.3333572   520603 
  405000    1.1236293   -4.6303857   -4.6303857    -3.299566    0.1615532   -4.6303857    1.3308197   520603 
  406000    1.1234057   -4.6304338   -4.6304338   -3.2998789   0.14644879   -4.6304338    1.3305549   520603 
  407000    1.1242759   -4.6326709   -4.6326709   -3.3010854   0.16046851   -4.6326709    1.3315855   520603 
  408000    1.1250852   -4.6348839   -4.6348839   -3.3023398   0.17522523   -4.6348839    1.3325441   520603 
  409000    1.1236311   -4.6354234   -4.6354234   -3.3046017   0.12339025   -4.6354234    1.3308218   520603 
  410000    1.1246436   -4.6352106   -4.6352106   -3.3031897   0.14437892   -4.6352106    1.3320209   520603 
  411000    1.1218216   -4.6336675   -4.6336675   -3.3049889   0.14296788   -4.6336675    1.3286786   520603 
  412000     1.122238   -4.6359301   -4.6359301   -3.3067582   0.14522877   -4.6359301    1.3291718   520603 
  413000    1.1226825   -4.6374123   -4.6374123   -3.3077141   0.16307827   -4.6374123    1.3296982   520603 
  414000    1.1212101   -4.6355349   -4.6355349   -3.3075805   0.16969812   -4.6355349    1.3279544   520603 
  415000    1.1201988   -4.6345715   -4.6345715   -3.3078149   0.14007432   -4.6345715    1.3267565   520603 
  416000    1.1190633   -4.6344897   -4.6344897    -3.309078    0.1298702   -4.6344897    1.3254117   520603 
  417000    1.1212961   -4.6366381   -4.6366381   -3.3085819   0.11915257   -4.6366381    1.3280562   520603 
  418000    1.1211282   -4.6366975   -4.6366975   -3.3088402   0.16550697   -4.6366975    1.3278573   520603 
  419000    1.1215671   -4.6385188   -4.6385188   -3.3101416   0.16330857   -4.6385188    1.3283772   520603 
  420000    1.1211985   -4.6377982   -4.6377982   -3.3098576   0.14886214   -4.6377982    1.3279407   520603 
  421000    1.1184657   -4.6369262   -4.6369262   -3.3122223   0.14784232   -4.6369262    1.3247039   520603 
  422000     1.120716   -4.6403088   -4.6403088   -3.3129397   0.14403235   -4.6403088    1.3273692   520603 
  423000    1.1197961   -4.6402864   -4.6402864   -3.3140068   0.15703331   -4.6402864    1.3262796   520603 
  424000    1.1195962   -4.6406794   -4.6406794   -3.3146365   0.14903003   -4.6406794    1.3260429   520603 
  425000    1.1201702   -4.6420407   -4.6420407   -3.3153179   0.14090182   -4.6420407    1.3267228   520603 
  426000    1.1174119   -4.6398786   -4.6398786   -3.3164228    0.1212018   -4.6398786    1.3234558   520603 
  427000    1.1182844   -4.6413352   -4.6413352    -3.316846   0.14029373   -4.6413352    1.3244892   520603 
  428000     1.118793   -4.6432912   -4.6432912   -3.3181997   0.13627039   -4.6432912    1.3250915   520603 
  429000    1.1184392   -4.6427632   -4.6427632   -3.3180906   0.14645939   -4.6427632    1.3246726   520603 
  430000    1.1175944   -4.6435525   -4.6435525   -3.3198805   0.13133514   -4.6435525     1.323672   520603 
  431000     1.118051   -4.6441954   -4.6441954   -3.3199826   0.13794933   -4.6441954    1.3242128   520603 
  432000     1.115457   -4.6414995   -4.6414995    -3.320359   0.13727665   -4.6414995    1.3211404   520603 
  433000    1.1162898   -4.6437443   -4.6437443   -3.3216176   0.11282562   -4.6437443    1.3221268   520603 
  434000    1.1157511   -4.6434175   -4.6434175   -3.3219287   0.14320005   -4.6434175    1.3214888   520603 
  435000    1.1151817   -4.6446135   -4.6446135   -3.3237992   0.13855384   -4.6446135    1.3208144   520603 
  436000    1.1163965   -4.6462672   -4.6462672    -3.324014   0.12750784   -4.6462672    1.3222532   520603 
  437000    1.1175032   -4.6487501   -4.6487501   -3.3251861   0.12793319   -4.6487501     1.323564   520603 
  438000    1.1145919   -4.6460111   -4.6460111   -3.3258953   0.14594566   -4.6460111    1.3201158   520603 
  439000    1.1146173   -4.6458194   -4.6458194   -3.3256735   0.11944192   -4.6458194    1.3201459   520603 
  440000    1.1153444   -4.6469994   -4.6469994   -3.3259924   0.11357693   -4.6469994    1.3210071   520603 
  441000    1.1149801   -4.6475789   -4.6475789   -3.3270033   0.11828462   -4.6475789    1.3205756   520603 
  442000    1.1146151   -4.6481589   -4.6481589   -3.3280156   0.13127402   -4.6481589    1.3201433   520603 
  443000    1.1137623    -4.646899    -4.646899   -3.3277657   0.11946261    -4.646899    1.3191333   520603 
  444000    1.1153185   -4.6500669   -4.6500669   -3.3290905   0.12709936   -4.6500669    1.3209764   520603 
  445000    1.1140234   -4.6503802   -4.6503802   -3.3309377   0.13006089   -4.6503802    1.3194425   520603 
  446000    1.1121795   -4.6477267   -4.6477267   -3.3304682   0.14524445   -4.6477267    1.3172586   520603 
  447000    1.1129297   -4.6502638   -4.6502638   -3.3321167   0.15631362   -4.6502638    1.3181471   520603 
  448000    1.1122775   -4.6495814   -4.6495814   -3.3322068   0.12988273   -4.6495814    1.3173746   520603 
  449000    1.1123193   -4.6503505   -4.6503505   -3.3329264   0.13437705   -4.6503505    1.3174241   520603 
  450000    1.1119667   -4.6505666   -4.6505666   -3.3335601   0.16592401   -4.6505666    1.3170065   520603 
  451000    1.1119165   -4.6510246   -4.6510246   -3.3340776   0.12705871   -4.6510246    1.3169471   520603 
  452000    1.1110295   -4.6501199   -4.6501199   -3.3342233   0.16285203   -4.6501199    1.3158966   520603 
  453000    1.1132476   -4.6534082   -4.6534082   -3.3348846   0.12789303   -4.6534082    1.3185236   520603 
  454000    1.1106281   -4.6514486   -4.6514486   -3.3360274   0.10319414   -4.6514486    1.3154212   520603 
  455000    1.1115271   -4.6529266   -4.6529266   -3.3364407   0.14633662   -4.6529266    1.3164858   520603 
  456000     1.111166   -4.6532828   -4.6532828   -3.3372246   0.13061667   -4.6532828    1.3160582   520603 
  457000    1.1105185   -4.6530838   -4.6530838   -3.3377926   0.13916758   -4.6530838    1.3152913   520603 
  458000    1.1095884   -4.6532376   -4.6532376   -3.3390479   0.12186552   -4.6532376    1.3141897   520603 
  459000    1.1087812   -4.6538691   -4.6538691   -3.3406355   0.13763514   -4.6538691    1.3132336   520603 
  460000    1.1087384   -4.6543877   -4.6543877   -3.3412047   0.14319192   -4.6543877    1.3131829   520603 
  461000    1.1086479   -4.6566106   -4.6566106   -3.3435347   0.10241331   -4.6566106    1.3130758   520603 
  462000    1.1098305    -4.657392    -4.657392   -3.3429156   0.11118829    -4.657392    1.3144764   520603 
  463000    1.1095634   -4.6566719   -4.6566719   -3.3425118   0.13002615   -4.6566719    1.3141601   520603 
  464000    1.1080684   -4.6563832   -4.6563832   -3.3439937   0.13031419   -4.6563832    1.3123895   520603 
  465000    1.1079888   -4.6579683   -4.6579683   -3.3456732   0.13537197   -4.6579683    1.3122951   520603 
  466000    1.1076709   -4.6581187   -4.6581187   -3.3462001   0.12445621   -4.6581187    1.3119186   520603 
  467000     1.107613   -4.6594707   -4.6594707   -3.3476206   0.12773535   -4.6594707      1.31185   520603 
  468000    1.1065987   -4.6581752   -4.6581752   -3.3475265   0.13634152   -4.6581752    1.3106488   520603 
  469000    1.1064594   -4.6586044   -4.6586044   -3.3481207   0.15309691   -4.6586044    1.3104837   520603 
  470000    1.1048337   -4.6565334   -4.6565334   -3.3479752   0.12481601   -4.6565334    1.3085582   520603 
  471000    1.1061537    -4.658601    -4.658601   -3.3484794   0.12261752    -4.658601    1.3101216   520603 
  472000    1.1057829   -4.6588092   -4.6588092   -3.3491267   0.12749279   -4.6588092    1.3096825   520603 
  473000    1.1051555   -4.6581994   -4.6581994     -3.34926   0.14047718   -4.6581994    1.3089394   520603 
  474000     1.106452   -4.6608891   -4.6608891   -3.3504142   0.12566135   -4.6608891     1.310475   520603 
  475000    1.1069321   -4.6632239   -4.6632239   -3.3521804   0.11897492   -4.6632239    1.3110435   520603 
  476000    1.1038553   -4.6603478   -4.6603478   -3.3529483   0.12719417   -4.6603478    1.3073994   520603 
  477000    1.1047004   -4.6623129   -4.6623129   -3.3539125   0.10949941   -4.6623129    1.3084004   520603 
  478000    1.1053374   -4.6630018   -4.6630018    -3.353847   0.11953306   -4.6630018    1.3091548   520603 
  479000    1.1040405    -4.661857    -4.661857   -3.3542383   0.11527005    -4.661857    1.3076187   520603 
  480000    1.1034073   -4.6621954   -4.6621954   -3.3553266    0.1065843   -4.6621954    1.3068688   520603 
  481000    1.1027454   -4.6610856   -4.6610856   -3.3550007   0.10958214   -4.6610856    1.3060849   520603 
  482000    1.1031187   -4.6618433   -4.6618433   -3.3553162   0.10425122   -4.6618433    1.3065271   520603 
  483000       1.1024   -4.6612305   -4.6612305   -3.3555546   0.14076973   -4.6612305    1.3056758   520603 
  484000    1.1038438    -4.664288    -4.664288   -3.3569021   0.13626626    -4.664288    1.3073858   520603 
  485000    1.1036634   -4.6652821   -4.6652821   -3.3581099   0.14539542   -4.6652821    1.3071722   520603 
  486000    1.1022611   -4.6643942   -4.6643942   -3.3588829   0.13736807   -4.6643942    1.3055113   520603 
  487000    1.0998679   -4.6621216   -4.6621216   -3.3594449    0.1251918   -4.6621216    1.3026767   520603 
  488000    1.1005738   -4.6634458   -4.6634458   -3.3599329   0.11136848   -4.6634458    1.3035129   520603 
  489000    1.1025049    -4.666121    -4.666121   -3.3603209   0.15219428    -4.666121    1.3058001   520603 
  490000    1.1036072   -4.6679519   -4.6679519   -3.3608463   0.15703256   -4.6679519    1.3071056   520603 
  491000    1.1035756   -4.6674792   -4.6674792   -3.3604111   0.14481581   -4.6674792    1.3070681   520603 
  492000     1.104829   -4.6695355   -4.6695355   -3.3609828   0.12760124   -4.6695355    1.3085527   520603 
  493000     1.102146   -4.6679089   -4.6679089   -3.3625339   0.10694847   -4.6679089     1.305375   520603 
  494000    1.1014986   -4.6676704   -4.6676704   -3.3630622   0.14614146   -4.6676704    1.3046081   520603 
  495000    1.1026013   -4.6694373   -4.6694373    -3.363523   0.13078471   -4.6694373    1.3059143   520603 
  496000    1.1027879   -4.6689385   -4.6689385   -3.3628033   0.13421513   -4.6689385    1.3061352   520603 
  497000     1.102648   -4.6685679   -4.6685679   -3.3625984   0.14345675   -4.6685679    1.3059695   520603 
  498000    1.0998988   -4.6658437   -4.6658437   -3.3631304   0.12805744   -4.6658437    1.3027133   520603 
  499000    1.1005872   -4.6680392   -4.6680392   -3.3645105    0.1243836   -4.6680392    1.3035287   520603 
  500000    1.1009226   -4.6697124   -4.6697124   -3.3657864   0.12235392   -4.6697124     1.303926   520603 
  501000    1.1006713   -4.6705436   -4.6705436   -3.3669153   0.11000645   -4.6705436    1.3036283   520603 
  502000    1.1023939   -4.6734992   -4.6734992   -3.3678306   0.12572049   -4.6734992    1.3056685   520603 
  503000    1.1009897   -4.6719202   -4.6719202   -3.3679147   0.12031319   -4.6719202    1.3040055   520603 
  504000    1.1008934   -4.6723325   -4.6723325   -3.3684412   0.11956033   -4.6723325    1.3038913   520603 
  505000    1.1002002   -4.6719529   -4.6719529   -3.3688825   0.12161506   -4.6719529    1.3030704   520603 
  506000     1.099999   -4.6728635   -4.6728635   -3.3700314   0.13376948   -4.6728635    1.3028321   520603 
  507000    1.0994285   -4.6734487   -4.6734487   -3.3712924   0.10591004   -4.6734487    1.3021563   520603 
  508000    1.1014675   -4.6756157   -4.6756157   -3.3710444   0.13120739   -4.6756157    1.3045713   520603 
  509000    1.0996299   -4.6740145   -4.6740145   -3.3716196    0.1189283   -4.6740145    1.3023949   520603 
  510000     1.099014   -4.6752106   -4.6752106   -3.3735451   0.11634579   -4.6752106    1.3016654   520603 
  511000     1.096468   -4.6727289   -4.6727289    -3.374079   0.11600752   -4.6727289      1.29865   520603 
  512000    1.0961061   -4.6725179   -4.6725179   -3.3742966  0.092463749   -4.6725179    1.2982213   520603 
  513000    1.0973326   -4.6746387   -4.6746387   -3.3749648   0.11785809   -4.6746387     1.299674   520603 
  514000    1.0978188   -4.6766301   -4.6766301   -3.3763802   0.10248881   -4.6766301    1.3002499   520603 
  515000    1.0977587   -4.6770508   -4.6770508   -3.3768721   0.10764513   -4.6770508    1.3001787   520603 
  516000    1.0971939   -4.6757024   -4.6757024   -3.3761927   0.14798774   -4.6757024    1.2995097   520603 
  517000    1.0961284    -4.675304    -4.675304   -3.3770562   0.12714372    -4.675304    1.2982477   520603 
  518000    1.0985967   -4.6798827   -4.6798827   -3.3787115   0.11212003   -4.6798827    1.3011712   520603 
  519000    1.0972203   -4.6788707   -4.6788707   -3.3793296  0.093530519   -4.6788707     1.299541   520603 
  520000    1.0949883   -4.6761724   -4.6761724    -3.379275   0.11457905   -4.6761724    1.2968975   520603 
  521000    1.0969399   -4.6777531   -4.6777531   -3.3785442   0.14735456   -4.6777531    1.2992089   520603 
  522000    1.0975444   -4.6794857   -4.6794857   -3.3795608    0.1258305   -4.6794857    1.2999249   520603 
  523000    1.0975291   -4.6799394   -4.6799394   -3.3800326   0.10841166   -4.6799394    1.2999068   520603 
  524000    1.0976548   -4.6795743   -4.6795743   -3.3795187   0.13403309   -4.6795743    1.3000556   520603 
  525000    1.0967794   -4.6789838   -4.6789838   -3.3799651   0.11752033   -4.6789838    1.2990188   520603 
  526000    1.0976549   -4.6792578   -4.6792578   -3.3792021   0.11193019   -4.6792578    1.3000557   520603 
  527000    1.0987339   -4.6822237   -4.6822237   -3.3808901   0.11859046   -4.6822237    1.3013336   520603 
  528000    1.0954088    -4.677703    -4.677703   -3.3803075   0.11910344    -4.677703    1.2973955   520603 
  529000    1.0938319   -4.6776009   -4.6776009    -3.382073   0.10215023   -4.6776009    1.2955278   520603 
  530000    1.0947901   -4.6799894   -4.6799894   -3.3833267    0.1350358   -4.6799894    1.2966627   520603 
  531000    1.0934939   -4.6783652   -4.6783652   -3.3832378   0.14313154   -4.6783652    1.2951275   520603 
  532000    1.0941144   -4.6799199   -4.6799199   -3.3840576   0.11735624   -4.6799199    1.2958624   520603 
  533000    1.0932592   -4.6798567   -4.6798567   -3.3850072    0.1050426   -4.6798567    1.2948495   520603 
  534000    1.0949826   -4.6817688   -4.6817688   -3.3848782   0.13231407   -4.6817688    1.2968906   520603 
  535000    1.0963386   -4.6842626   -4.6842626    -3.385766   0.11597178   -4.6842626    1.2984967   520603 
  536000    1.0938425   -4.6820214   -4.6820214    -3.386481   0.10518481   -4.6820214    1.2955404   520603 
  537000    1.0944684   -4.6830649   -4.6830649   -3.3867833   0.12913769   -4.6830649    1.2962816   520603 
  538000    1.0929476   -4.6827486   -4.6827486   -3.3882681   0.11737401   -4.6827486    1.2944805   520603 
  539000    1.0930181   -4.6844809   -4.6844809   -3.3899169   0.11647999   -4.6844809     1.294564   520603 
  540000    1.0922675   -4.6839772   -4.6839772   -3.3903023   0.12960818   -4.6839772    1.2936749   520603 
  541000    1.0946362   -4.6870623   -4.6870623   -3.3905819   0.10393515   -4.6870623    1.2964804   520603 
  542000    1.0936026    -4.686732    -4.686732   -3.3914758   0.13575263    -4.686732    1.2952562   520603 
  543000    1.0924985   -4.6855741   -4.6855741   -3.3916256   0.11714283   -4.6855741    1.2939485   520603 
  544000    1.0928822   -4.6873818   -4.6873818   -3.3929788   0.10646253   -4.6873818     1.294403   520603 
  545000    1.0933279   -4.6890759   -4.6890759    -3.394145    0.0911258   -4.6890759    1.2949308   520603 
  546000    1.0924708   -4.6876978   -4.6876978   -3.3937821   0.11811621   -4.6876978    1.2939157   520603 
  547000    1.0935794   -4.6888945   -4.6888945   -3.3936657   0.11570482   -4.6888945    1.2952288   520603 
  548000    1.0924483   -4.6879969   -4.6879969   -3.3941079   0.11179241   -4.6879969     1.293889   520603 
  549000    1.0915899   -4.6884527   -4.6884527   -3.3955803     0.100235   -4.6884527    1.2928724   520603 
  550000    1.0912122   -4.6876018   -4.6876018   -3.3951768   0.10924895   -4.6876018    1.2924251   520603 
  551000    1.0934035   -4.6899203   -4.6899203      -3.3949   0.13918852   -4.6899203    1.2950203   520603 
  552000    1.0916167   -4.6877373   -4.6877373   -3.3948331   0.14081371   -4.6877373    1.2929042   520603 
  553000    1.0922874   -4.6901346   -4.6901346    -3.396436   0.10552878   -4.6901346    1.2936985   520603 
  554000    1.0918096   -4.6909268   -4.6909268   -3.3977942   0.11361959   -4.6909268    1.2931326   520603 
  555000    1.0904806   -4.6895231   -4.6895231   -3.3979646   0.10867751   -4.6895231    1.2915585   520603 
  556000    1.0887677   -4.6883007   -4.6883007   -3.3987709   0.12028386   -4.6883007    1.2895298   520603 
  557000    1.0904781   -4.6908977   -4.6908977   -3.3993421   0.12278663   -4.6908977    1.2915556   520603 
  558000    1.0899604   -4.6903147   -4.6903147   -3.3993722   0.12396239   -4.6903147    1.2909425   520603 
  559000    1.0889228   -4.6895786   -4.6895786   -3.3998651   0.12252614   -4.6895786    1.2897135   520603 
  560000    1.0911201   -4.6930834   -4.6930834   -3.4007674   0.14131662   -4.6930834     1.292316   520603 
  561000    1.0901371   -4.6925322   -4.6925322   -3.4013805   0.11832075   -4.6925322    1.2911517   520603 
  562000    1.0892223   -4.6904671   -4.6904671   -3.4003989   0.11450303   -4.6904671    1.2900682   520603 
  563000    1.0912483   -4.6925277   -4.6925277   -3.4000599  0.096435214   -4.6925277    1.2924678   520603 
  564000     1.089871   -4.6925711   -4.6925711   -3.4017346   0.11278386   -4.6925711    1.2908365   520603 
  565000    1.0889152   -4.6928819   -4.6928819   -3.4031775   0.10115315   -4.6928819    1.2897044   520603 
  566000    1.0896384    -4.692982    -4.692982    -3.402421   0.10618561    -4.692982    1.2905611   520603 
  567000    1.0900786   -4.6935463   -4.6935463   -3.4024639    0.1140068   -4.6935463    1.2910824   520603 
  568000    1.0879507   -4.6917953   -4.6917953   -3.4032331   0.11301281   -4.6917953    1.2885622   520603 
  569000    1.0895075   -4.6941831   -4.6941831    -3.403777   0.10019026   -4.6941831     1.290406   520603 
  570000    1.0896338   -4.6956421   -4.6956421   -3.4050864   0.11889525   -4.6956421    1.2905556   520603 
  571000    1.0892678   -4.6955674   -4.6955674   -3.4054452    0.1104895   -4.6955674    1.2901222   520603 
  572000    1.0874317   -4.6946503   -4.6946503   -3.4067028   0.11287689   -4.6946503    1.2879474   520603 
  573000    1.0882491   -4.6956715   -4.6956715   -3.4067559  0.075251938   -4.6956715    1.2889156   520603 
  574000    1.0891508    -4.697331    -4.697331   -3.4073474   0.12218691    -4.697331    1.2899836   520603 
  575000    1.0894513   -4.6982703   -4.6982703   -3.4079309   0.11298335   -4.6982703    1.2903395   520603 
  576000    1.0879373   -4.6970654   -4.6970654   -3.4085191   0.10610863   -4.6970654    1.2885463   520603 
  577000    1.0881365   -4.6961693   -4.6961693   -3.4073871   0.12594352   -4.6961693    1.2887822   520603 
  578000    1.0878353   -4.6968964   -4.6968964   -3.4084709    0.1168035   -4.6968964    1.2884255   520603 
  579000    1.0857435   -4.6962111   -4.6962111   -3.4102631    0.1113814   -4.6962111    1.2859479   520603 
  580000    1.0872055   -4.6984402   -4.6984402   -3.4107608   0.10706773   -4.6984402    1.2876795   520603 
  581000    1.0860613   -4.6977446   -4.6977446   -3.4114202   0.12077249   -4.6977446    1.2863244   520603 
  582000    1.0872591   -4.6998321   -4.6998321   -3.4120891    0.1359509   -4.6998321     1.287743   520603 
  583000    1.0874137   -4.7004161   -4.7004161   -3.4124899   0.12145432   -4.7004161    1.2879262   520603 
  584000     1.087483   -4.7004884   -4.7004884   -3.4124802   0.15788768   -4.7004884    1.2880082   520603 
  585000      1.08892   -4.7030227   -4.7030227   -3.4133125   0.11906158   -4.7030227    1.2897101   520603 
  586000    1.0823515   -4.6967733   -4.6967733   -3.4148429   0.11254851   -4.6967733    1.2819304   520603 
  587000    1.0854473    -4.700175    -4.700175   -3.4145779  0.093228163    -4.700175    1.2855971   520603 
  588000    1.0842999   -4.6995208   -4.6995208   -3.4152827   0.12522178   -4.6995208    1.2842382   520603 
  589000    1.0836222   -4.6999954   -4.6999954   -3.4165599  0.086826688   -4.6999954    1.2834355   520603 
  590000    1.0819498   -4.6991417   -4.6991417    -3.417687   0.11330263   -4.6991417    1.2814547   520603 
  591000    1.0826706   -4.7002177   -4.7002177   -3.4179094   0.13848986   -4.7002177    1.2823084   520603 
  592000    1.0823579   -4.7006692   -4.7006692   -3.4187311  0.092004807   -4.7006692    1.2819381   520603 
  593000    1.0818354   -4.7007292   -4.7007292   -3.4194101  0.078280466   -4.7007292    1.2813192   520603 
  594000    1.0832928   -4.7031454   -4.7031454      -3.4201   0.11473653   -4.7031454    1.2830453   520603 
  595000    1.0831123   -4.7032821   -4.7032821   -3.4204506   0.10660021   -4.7032821    1.2828316   520603 
  596000    1.0840781   -4.7038788   -4.7038788   -3.4199034   0.10395495   -4.7038788    1.2839754   520603 
  597000    1.0830439   -4.7031892   -4.7031892   -3.4204387   0.12929283   -4.7031892    1.2827505   520603 
  598000    1.0843929   -4.7040147   -4.7040147   -3.4196665  0.098047932   -4.7040147    1.2843482   520603 
  599000    1.0819846   -4.7015607   -4.7015607   -3.4200648   0.11745208   -4.7015607    1.2814959   520603 
  600000    1.0835877   -4.7036663   -4.7036663   -3.4202717  0.090866903   -4.7036663    1.2833946   520603 
  601000    1.0834026   -4.7036343   -4.7036343   -3.4204589   0.12904732   -4.7036343    1.2831754   520603 
  602000    1.0820907   -4.7025777   -4.7025777   -3.4209561   0.12702584   -4.7025777    1.2816216   520603 
  603000    1.0830366   -4.7038567   -4.7038567   -3.4211148   0.12664919   -4.7038567    1.2827419   520603 
  604000    1.0853195   -4.7068011   -4.7068011   -3.4213552   0.10674634   -4.7068011    1.2854458   520603 
  605000      1.08295   -4.7041702   -4.7041702   -3.4215309  0.076690639   -4.7041702    1.2826393   520603 
  606000    1.0847076   -4.7070795   -4.7070795   -3.4223585  0.097796929   -4.7070795     1.284721   520603 
  607000    1.0835103   -4.7066821   -4.7066821   -3.4233792   0.11535364   -4.7066821    1.2833029   520603 
  608000    1.0841363   -4.7082927   -4.7082927   -3.4242483    0.1029804   -4.7082927    1.2840444   520603 
  609000    1.0806869   -4.7056754   -4.7056754   -3.4257164   0.11153724   -4.7056754     1.279959   520603 
  610000    1.0813587   -4.7081382   -4.7081382   -3.4273837   0.11992643   -4.7081382    1.2807546   520603 
  611000    1.0816434   -4.7094788   -4.7094788   -3.4283871  0.088820337   -4.7094788    1.2810918   520603 
  612000    1.0809053   -4.7091931   -4.7091931   -3.4289755   0.12127794   -4.7091931    1.2802176   520603 
  613000    1.0807371   -4.7091856   -4.7091856   -3.4291672   0.10125294   -4.7091856    1.2800183   520603 
  614000    1.0807254   -4.7086825   -4.7086825   -3.4286779   0.11156609   -4.7086825    1.2800046   520603 
  615000    1.0812307   -4.7101586   -4.7101586   -3.4295556     0.123545   -4.7101586     1.280603   520603 
  616000    1.0822765   -4.7110859   -4.7110859   -3.4292443   0.11207969   -4.7110859    1.2818417   520603 
  617000    1.0804579   -4.7104772   -4.7104772   -3.4307894  0.082299848   -4.7104772    1.2796878   520603 
  618000    1.0797919   -4.7103477   -4.7103477   -3.4314488  0.088677484   -4.7103477    1.2788989   520603 
  619000    1.0807929   -4.7111264   -4.7111264    -3.431042   0.13650693   -4.7111264    1.2800844   520603 
  620000    1.0783298   -4.7091747   -4.7091747   -3.4320075   0.10772623   -4.7091747    1.2771671   520603 
  621000    1.0811192   -4.7122782   -4.7122782   -3.4318073   0.10754885   -4.7122782     1.280471   520603 
  622000    1.0802471   -4.7116712   -4.7116712   -3.4322331   0.11104821   -4.7116712    1.2794381   520603 
  623000    1.0799033   -4.7138421   -4.7138421   -3.4348112   0.11130419   -4.7138421    1.2790309   520603 
  624000    1.0793791   -4.7131455   -4.7131455   -3.4347355  0.083845462   -4.7131455      1.27841   520603 
  625000    1.0804667   -4.7149959   -4.7149959   -3.4352977   0.11648573   -4.7149959    1.2796982   520603 
  626000    1.0794927   -4.7141987   -4.7141987   -3.4356541  0.091128718   -4.7141987    1.2785446   520603 
  627000    1.0802145   -4.7151943   -4.7151943   -3.4357949   0.11788459   -4.7151943    1.2793995   520603 
  628000    1.0797418   -4.7153357   -4.7153357   -3.4364961   0.10844998   -4.7153357    1.2788396   520603 
  629000    1.0807963   -4.7158677   -4.7158677   -3.4357792    0.1229537   -4.7158677    1.2800885   520603 
  630000    1.0795339   -4.7153211   -4.7153211   -3.4367278   0.11389131   -4.7153211    1.2785933   520603 
  631000    1.0805585   -4.7164581   -4.7164581   -3.4366513   0.11510732   -4.7164581    1.2798068   520603 
  632000    1.0783855   -4.7145637   -4.7145637   -3.4373305   0.10706684   -4.7145637    1.2772332   520603 
  633000    1.0775955   -4.7130025   -4.7130025   -3.4367051   0.09149802   -4.7130025    1.2762975   520603 
  634000    1.0773376   -4.7136508   -4.7136508   -3.4376587  0.078812087   -4.7136508    1.2759921   520603 
  635000    1.0776092    -4.714544    -4.714544   -3.4382303   0.12790816    -4.714544    1.2763137   520603 
  636000    1.0792667   -4.7152833   -4.7152833   -3.4370065  0.096911346   -4.7152833    1.2782768   520603 
  637000    1.0772266   -4.7134502   -4.7134502   -3.4375896   0.10345206   -4.7134502    1.2758606   520603 
  638000    1.0778711   -4.7151979   -4.7151979    -3.438574   0.11553305   -4.7151979    1.2766239   520603 
  639000    1.0767876   -4.7147295   -4.7147295   -3.4393888   0.10703784   -4.7147295    1.2753407   520603 
  640000    1.0763184   -4.7142594   -4.7142594   -3.4394745   0.11588713   -4.7142594    1.2747849   520603 
  641000    1.0757271   -4.7149874   -4.7149874   -3.4409028   0.10581722   -4.7149874    1.2740846   520603 
  642000    1.0740214   -4.7133782   -4.7133782   -3.4413138   0.11518579   -4.7133782    1.2720644   520603 
  643000    1.0767935   -4.7169195   -4.7169195   -3.4415719    0.1160068   -4.7169195    1.2753476   520603 
  644000    1.0757051   -4.7167183   -4.7167183   -3.4426597   0.11139708   -4.7167183    1.2740586   520603 
  645000     1.078212   -4.7191321   -4.7191321   -3.4421044  0.093898222   -4.7191321    1.2770277   520603 
  646000    1.0766768   -4.7178063   -4.7178063   -3.4425968   0.10209678   -4.7178063    1.2752094   520603 
  647000    1.0765469   -4.7197489   -4.7197489   -3.4446933   0.12493942   -4.7197489    1.2750556   520603 
  648000    1.0790091     -4.72356     -4.72356   -3.4455882   0.10143941     -4.72356    1.2779718   520603 
[...]
 3315000    1.0152386   -5.0240242   -5.0240242   -3.8215819  0.074195497   -5.0240242    1.2024423   520603 
 3316000    1.0160553   -5.0245925   -5.0245925   -3.8211829  0.061135053   -5.0245925    1.2034096   520603 
 3317000    1.0157939   -5.0235499   -5.0235499   -3.8204499  0.064895398   -5.0235499       1.2031   520603 
 3318000    1.0153223     -5.02367     -5.02367   -3.8211284  0.070879462     -5.02367    1.2025416   520603 
 3319000    1.0158128   -5.0231992   -5.0231992   -3.8200767   0.06663154   -5.0231992    1.2031224   520603 
 3320000     1.016371   -5.0251674   -5.0251674   -3.8213838  0.071999256   -5.0251674    1.2037836   520603 
 3321000    1.0170864   -5.0268181   -5.0268181   -3.8221873   0.08310859   -5.0268181    1.2046308   520603 
 3322000    1.0157508   -5.0242861   -5.0242861    -3.821237  0.086399868   -5.0242861    1.2030491   520603 
 3323000    1.0149414   -5.0231383   -5.0231383   -3.8210479  0.072297008   -5.0231383    1.2020903   520603 
 3324000    1.0171527   -5.0259719   -5.0259719   -3.8212625  0.077996378   -5.0259719    1.2047094   520603 
 3325000    1.0168975    -5.025401    -5.025401   -3.8209938   0.06383459    -5.025401    1.2044071   520603 
 3326000    1.0173311    -5.025562    -5.025562   -3.8206413  0.064073903    -5.025562    1.2049207   520603 
 3327000    1.0187897   -5.0279093   -5.0279093    -3.821261   0.11022917   -5.0279093    1.2066483   520603 
 3328000    1.0179073   -5.0271717   -5.0271717   -3.8215686  0.058950677   -5.0271717    1.2056031   520603 
 3329000    1.0158724   -5.0245546   -5.0245546   -3.8213616  0.078797179   -5.0245546     1.203193   520603 
 3330000    1.0178889   -5.0267757   -5.0267757   -3.8211944  0.061817193   -5.0267757    1.2055814   520603 
 3331000    1.0168699   -5.0252308   -5.0252308   -3.8208563  0.065474919   -5.0252308    1.2043745   520603 
 3332000    1.0158383    -5.023957    -5.023957   -3.8208043  0.076743012    -5.023957    1.2031526   520603 
 3333000    1.0158201   -5.0248199   -5.0248199   -3.8216888  0.056807318   -5.0248199    1.2031312   520603 
 3334000    1.0157547   -5.0253372   -5.0253372   -3.8222835   0.08439614   -5.0253372    1.2030537   520603 
 3335000    1.0163437   -5.0260751   -5.0260751   -3.8223239  0.059172634   -5.0260751    1.2037512   520603 
 3336000    1.0171438   -5.0276469   -5.0276469    -3.822948  0.059813469   -5.0276469    1.2046989   520603 
 3337000    1.0146509   -5.0244328   -5.0244328   -3.8226865  0.082959867   -5.0244328    1.2017463   520603 
 3338000    1.0162566   -5.0265435   -5.0265435   -3.8228954  0.079682992   -5.0265435    1.2036481   520603 
 3339000    1.0151429   -5.0247561   -5.0247561   -3.8224271  0.079463168   -5.0247561     1.202329   520603 
 3340000     1.014931   -5.0241665   -5.0241665   -3.8220884  0.058472591   -5.0241665    1.2020781   520603 
 3341000    1.0156723     -5.02529     -5.02529   -3.8223339  0.081786222     -5.02529    1.2029561   520603 
 3342000    1.0162979   -5.0267831   -5.0267831   -3.8230861  0.098797877   -5.0267831     1.203697   520603 
 3343000    1.0156553    -5.025031    -5.025031    -3.822095  0.063337809    -5.025031    1.2029359   520603 
 3344000    1.0162958   -5.0257142   -5.0257142   -3.8220197  0.066510682   -5.0257142    1.2036945   520603 
 3345000     1.015557   -5.0256082   -5.0256082   -3.8227887   0.06345066   -5.0256082    1.2028195   520603 
 3346000    1.0147933   -5.0257109   -5.0257109   -3.8237959  0.082813366   -5.0257109     1.201915   520603 
 3347000    1.0157876   -5.0273135   -5.0273135   -3.8242209  0.080254102   -5.0273135    1.2030926   520603 
 3348000    1.0144754   -5.0249172   -5.0249172   -3.8233787  0.076164852   -5.0249172    1.2015385   520603 
 3349000    1.0137023   -5.0238425   -5.0238425   -3.8232198  0.055035503   -5.0238425    1.2006227   520603 
 3350000    1.0169087   -5.0284308   -5.0284308   -3.8240104  0.066030748   -5.0284308    1.2044204   520603 
 3351000    1.0144453   -5.0254962   -5.0254962   -3.8239934  0.073890734   -5.0254962    1.2015028   520603 
 3352000    1.0151605   -5.0267409   -5.0267409    -3.824391  0.085426465   -5.0267409    1.2023499   520603 
 3353000    1.0161772   -5.0287684   -5.0287684   -3.8252143  0.066432264   -5.0287684    1.2035541   520603 
 3354000    1.0150884   -5.0273014   -5.0273014   -3.8250369  0.071424085   -5.0273014    1.2022645   520603 
 3355000    1.0145463    -5.026675    -5.026675   -3.8250526  0.073343421    -5.026675    1.2016224   520603 
 3356000    1.0142221   -5.0262098   -5.0262098   -3.8249714  0.064874919   -5.0262098    1.2012384   520603 
 3357000    1.0153517   -5.0260348   -5.0260348   -3.8234585  0.074430308   -5.0260348    1.2025763   520603 
 3358000    1.0151425   -5.0251211   -5.0251211   -3.8227926  0.069483281   -5.0251211    1.2023285   520603 
 3359000    1.0161397   -5.0256753   -5.0256753   -3.8221656  0.052862999   -5.0256753    1.2035097   520603 
 3360000    1.0170742   -5.0259747   -5.0259747   -3.8213583  0.062005432   -5.0259747    1.2046164   520603 
 3361000    1.0166323   -5.0250605   -5.0250605   -3.8209674  0.074163455   -5.0250605    1.2040931   520603 
 3362000    1.0171723   -5.0262579   -5.0262579   -3.8215253  0.083678068   -5.0262579    1.2047326   520603 
 3363000    1.0150975   -5.0241829   -5.0241829   -3.8219076   0.06254868   -5.0241829    1.2022753   520603 
 3364000    1.0176319   -5.0272981   -5.0272981   -3.8220212  0.082328653   -5.0272981    1.2052769   520603 
 3365000    1.0155281   -5.0261743   -5.0261743   -3.8233891  0.079515605   -5.0261743    1.2027853   520603 
 3366000    1.0152661   -5.0264744   -5.0264744   -3.8239995  0.061627561   -5.0264744    1.2024749   520603 
 3367000     1.015771    -5.027956    -5.027956    -3.824883  0.054045124    -5.027956    1.2030729   520603 
 3368000      1.01434   -5.0252549   -5.0252549   -3.8238768   0.10500898   -5.0252549    1.2013781   520603 
 3369000    1.0156593   -5.0268766   -5.0268766   -3.8239359  0.074070983   -5.0268766    1.2029407   520603 
 3370000    1.0160623   -5.0278671   -5.0278671   -3.8244491  0.065946616   -5.0278671     1.203418   520603 
 3371000    1.0163167   -5.0267957   -5.0267957   -3.8230764  0.078644195   -5.0267957    1.2037193   520603 
 3372000     1.017099   -5.0276983   -5.0276983   -3.8230524  0.056312836   -5.0276983    1.2046459   520603 
 3373000    1.0165137   -5.0272539   -5.0272539   -3.8233013  0.078207057   -5.0272539    1.2039526   520603 
 3374000    1.0159819   -5.0268291   -5.0268291   -3.8235063    0.0941159   -5.0268291    1.2033227   520603 
 3375000    1.0175053    -5.028776    -5.028776    -3.823649  0.063112778    -5.028776     1.205127   520603 
 3376000     1.015834   -5.0267583   -5.0267583   -3.8236108  0.082898068   -5.0267583    1.2031475   520603 
 3377000    1.0140375    -5.024589    -5.024589   -3.8235692   0.06668478    -5.024589    1.2010198   520603 
 3378000    1.0147496   -5.0256494   -5.0256494   -3.8237862   0.07284106   -5.0256494    1.2018632   520603 
 3379000    1.0153218   -5.0272739   -5.0272739    -3.824733   0.07773463   -5.0272739    1.2025409   520603 
 3380000    1.0144302   -5.0262484   -5.0262484   -3.8247635  0.088527193   -5.0262484    1.2014849   520603 
 3381000    1.0144285   -5.0256814   -5.0256814   -3.8241985  0.056148858   -5.0256814    1.2014829   520603 
 3382000    1.0154788    -5.026722    -5.026722   -3.8239952  0.056507305    -5.026722    1.2027269   520603 
 3383000    1.0152397   -5.0262061   -5.0262061   -3.8237624  0.068228444   -5.0262061    1.2024437   520603 
 3384000    1.0152475   -5.0258735   -5.0258735   -3.8234205   0.07056321   -5.0258735    1.2024529   520603 
 3385000    1.0144831   -5.0258986   -5.0258986    -3.824351  0.075080637   -5.0258986    1.2015476   520603 
 3386000    1.0158946   -5.0276734   -5.0276734   -3.8244541  0.060594274   -5.0276734    1.2032193   520603 
 3387000    1.0168087     -5.02866     -5.02866   -3.8243579   0.06631893     -5.02866     1.204302   520603 
 3388000    1.0150189   -5.0266826   -5.0266826   -3.8245004  0.079585723   -5.0266826    1.2021822   520603 
 3389000    1.0159053   -5.0273924   -5.0273924   -3.8241604    0.0788437   -5.0273924    1.2032321   520603 
 3390000    1.0147273    -5.026296    -5.026296   -3.8244592  0.064447524    -5.026296    1.2018367   520603 
 3391000    1.0149802   -5.0270708   -5.0270708   -3.8249344  0.085952459   -5.0270708    1.2021364   520603 
 3392000    1.0161328   -5.0272184   -5.0272184    -3.823717  0.051062025   -5.0272184    1.2035014   520603 
 3393000    1.0139893   -5.0256148   -5.0256148   -3.8246521  0.068989901   -5.0256148    1.2009627   520603 
 3394000    1.0175019   -5.0289641   -5.0289641    -3.823841   0.08691759   -5.0289641     1.205123   520603 
 3395000     1.016221   -5.0276118   -5.0276118   -3.8240058   0.10510478   -5.0276118    1.2036059   520603 
 3396000    1.0163744   -5.0268816   -5.0268816    -3.823094  0.086216451   -5.0268816    1.2037876   520603 
 3397000    1.0160592   -5.0267367   -5.0267367   -3.8233224  0.070898089   -5.0267367    1.2034143   520603 
 3398000    1.0163291   -5.0280188   -5.0280188   -3.8242849  0.089165818   -5.0280188     1.203734   520603 
 3399000    1.0152301   -5.0269543   -5.0269543    -3.824522  0.059170853   -5.0269543    1.2024323   520603 
 3400000    1.0131328   -5.0245313   -5.0245313    -3.824583  0.065520037   -5.0245313    1.1999483   520603 
 3401000    1.0166629   -5.0287534   -5.0287534    -3.824624  0.081708417   -5.0287534    1.2041293   520603 
 3402000    1.0155172   -5.0274224   -5.0274224     -3.82465  0.057691196   -5.0274224    1.2027724   520603 
 3403000    1.0147054   -5.0254991   -5.0254991   -3.8236882  0.082223141   -5.0254991    1.2018109   520603 
 3404000     1.014588   -5.0257026   -5.0257026   -3.8240308  0.077111351   -5.0257026    1.2016718   520603 
 3405000    1.0149905   -5.0270947   -5.0270947   -3.8249462   0.10147321   -5.0270947    1.2021485   520603 
 3406000    1.0145558   -5.0256777   -5.0256777    -3.824044   0.09339475   -5.0256777    1.2016337   520603 
 3407000    1.0165797   -5.0272515   -5.0272515   -3.8232208  0.087958936   -5.0272515    1.2040308   520603 
 3408000    1.0171001   -5.0285503   -5.0285503   -3.8239032  0.083983781   -5.0285503    1.2046471   520603 
 3409000    1.0172284   -5.0275504   -5.0275504   -3.8227513  0.079223663   -5.0275504    1.2047991   520603 
 3410000     1.016657   -5.0267213   -5.0267213   -3.8225989  0.079958993   -5.0267213    1.2041224   520603 
 3411000    1.0164462   -5.0258585   -5.0258585   -3.8219859   0.06028807   -5.0258585    1.2038726   520603 
 3412000     1.015842   -5.0245242   -5.0245242   -3.8213672  0.075970178   -5.0245242     1.203157   520603 
 3413000    1.0165226   -5.0245038   -5.0245038   -3.8205407  0.063813452   -5.0245038    1.2039631   520603 
 3414000    1.0173591   -5.0261129   -5.0261129   -3.8211591   0.08880821   -5.0261129    1.2049538   520603 
 3415000    1.0173711   -5.0259399   -5.0259399   -3.8209718  0.082296646   -5.0259399    1.2049681   520603 
 3416000    1.0169479   -5.0268855   -5.0268855   -3.8224187  0.068943578   -5.0268855    1.2044668   520603 
 3417000    1.0162568   -5.0256245   -5.0256245   -3.8219762  0.089996183   -5.0256245    1.2036483   520603 
 3418000    1.0140493   -5.0228107   -5.0228107   -3.8217769  0.073283332   -5.0228107    1.2010338   520603 
 3419000     1.017102   -5.0269614   -5.0269614   -3.8223121   0.06019679   -5.0269614    1.2046494   520603 
 3420000    1.0159286   -5.0260017   -5.0260017   -3.8227421  0.064819804   -5.0260017    1.2032596   520603 
 3421000    1.0159367   -5.0268903   -5.0268903   -3.8236211  0.050793964   -5.0268903    1.2032692   520603 
 3422000    1.0141323   -5.0247459   -5.0247459   -3.8236138  0.076088052   -5.0247459    1.2011321   520603 
 3423000    1.0148486   -5.0251848   -5.0251848   -3.8232044  0.049309399   -5.0251848    1.2019804   520603 
 3424000    1.0145531   -5.0263874   -5.0263874    -3.824757  0.058688661   -5.0263874    1.2016304   520603 
 3425000    1.0115534   -5.0222838   -5.0222838   -3.8242062  0.071068997   -5.0222838    1.1980777   520603 
 3426000    1.0134108   -5.0245872   -5.0245872   -3.8243097  0.054805459   -5.0245872    1.2002775   520603 
 3427000    1.0147844   -5.0273068   -5.0273068   -3.8254024  0.083857975   -5.0273068    1.2019044   520603 
 3428000    1.0148814   -5.0268313   -5.0268313   -3.8248119  0.068605743   -5.0268313    1.2020193   520603 
 3429000    1.0165127   -5.0292296   -5.0292296   -3.8252781  0.099087243   -5.0292296    1.2039514   520603 
 3430000     1.016957   -5.0294775   -5.0294775   -3.8249999  0.074742081   -5.0294775    1.2044776   520603 
 3431000    1.0178064   -5.0299556   -5.0299556   -3.8244719  0.058832538   -5.0299556    1.2054837   520603 
 3432000    1.0162412   -5.0289622   -5.0289622   -3.8253323  0.076664537   -5.0289622    1.2036299   520603 
 3433000    1.0168422   -5.0293111   -5.0293111   -3.8249694   0.10580989   -5.0293111    1.2043417   520603 
 3434000    1.0172112   -5.0302652   -5.0302652   -3.8254864  0.090789074   -5.0302652    1.2047788   520603 
 3435000    1.0162134    -5.029044    -5.029044   -3.8254471  0.083271894    -5.029044    1.2035969   520603 
 3436000    1.0172943   -5.0306752   -5.0306752    -3.825798   0.10000127   -5.0306752    1.2048771   520603 
 3437000    1.0175109   -5.0321254   -5.0321254   -3.8269917  0.078155767   -5.0321254    1.2051337   520603 
 3438000    1.0163095   -5.0304626   -5.0304626   -3.8267519  0.063281712   -5.0304626    1.2037108   520603 
 3439000    1.0166114   -5.0303804   -5.0303804   -3.8263121  0.061366009   -5.0303804    1.2040683   520603 
 3440000    1.0158869   -5.0295995   -5.0295995   -3.8263893  0.061637741   -5.0295995    1.2032102   520603 
 3441000    1.0159263   -5.0286742   -5.0286742   -3.8254173  0.074469036   -5.0286742    1.2032568   520603 
 3442000    1.0150411   -5.0272661   -5.0272661   -3.8250576  0.063761587   -5.0272661    1.2022085   520603 
 3443000    1.0146158   -5.0266942   -5.0266942   -3.8249895  0.074630109   -5.0266942    1.2017047   520603 
 3444000    1.0158911   -5.0283238   -5.0283238   -3.8251086  0.088321105   -5.0283238    1.2032152   520603 
 3445000    1.0151008   -5.0277627   -5.0277627   -3.8254836  0.068010823   -5.0277627    1.2022791   520603 
 3446000    1.0152178   -5.0280347   -5.0280347    -3.825617  0.058270551   -5.0280347    1.2024177   520603 
 3447000    1.0162499   -5.0292008   -5.0292008   -3.8255606  0.069895288   -5.0292008    1.2036401   520603 
 3448000    1.0131607   -5.0268209   -5.0268209   -3.8268396  0.090105309   -5.0268209    1.1999813   520603 
 3449000    1.0142766   -5.0294199   -5.0294199   -3.8281169   0.06531327   -5.0294199    1.2013029   520603 
 3450000    1.0119711   -5.0263301   -5.0263301   -3.8277577  0.072198302   -5.0263301    1.1985724   520603 
 3451000    1.0134848   -5.0284753   -5.0284753   -3.8281101  0.072270899   -5.0284753    1.2003652   520603 
 3452000    1.0126911   -5.0267401   -5.0267401    -3.827315  0.090039844   -5.0267401    1.1994251   520603 
 3453000    1.0135853   -5.0280409   -5.0280409   -3.8275567  0.085817773   -5.0280409    1.2004842   520603 
 3454000    1.0145645   -5.0298305   -5.0298305   -3.8281865  0.058283248   -5.0298305     1.201644   520603 
 3455000    1.0149418   -5.0300007   -5.0300007   -3.8279099  0.070545586   -5.0300007    1.2020908   520603 
 3456000    1.0138323   -5.0282301   -5.0282301   -3.8274534  0.074599498   -5.0282301    1.2007767   520603 
 3457000    1.0124739   -5.0261965   -5.0261965   -3.8270286   0.08517047   -5.0261965    1.1991679   520603 
 3458000    1.0148552   -5.0289755   -5.0289755   -3.8269873  0.099196343   -5.0289755    1.2019882   520603 
 3459000    1.0137876   -5.0282958   -5.0282958    -3.827572  0.075151188   -5.0282958    1.2007238   520603 
 3460000    1.0154348   -5.0290928   -5.0290928    -3.826418  0.081213357   -5.0290928    1.2026748   520603 
 3461000    1.0152119    -5.029976    -5.029976   -3.8275652  0.086902696    -5.029976    1.2024108   520603 
 3462000     1.014282   -5.0300997   -5.0300997   -3.8287903  0.057199834   -5.0300997    1.2013094   520603 
 3463000    1.0139848   -5.0295298   -5.0295298   -3.8285723  0.076545266   -5.0295298    1.2009574   520603 
 3464000    1.0160641   -5.0321482   -5.0321482   -3.8287281  0.076736229   -5.0321482    1.2034201   520603 
 3465000    1.0147481   -5.0295518   -5.0295518   -3.8276904  0.061098805   -5.0295518    1.2018615   520603 
 3466000    1.0162496   -5.0312837   -5.0312837   -3.8276439  0.070850024   -5.0312837    1.2036398   520603 
 3467000    1.0144954   -5.0300605   -5.0300605   -3.8284984  0.046078111   -5.0300605    1.2015621   520603 
 3468000    1.0158299   -5.0317499   -5.0317499   -3.8286072  0.056571272   -5.0317499    1.2031428   520603 
 3469000    1.0144128   -5.0304334   -5.0304334    -3.828969  0.052720809   -5.0304334    1.2014643   520603 
 3470000    1.0155211   -5.0320205   -5.0320205   -3.8292436  0.044411848   -5.0320205     1.202777   520603 
 3471000    1.0146122   -5.0297683   -5.0297683   -3.8280678  0.074058411   -5.0297683    1.2017005   520603 
 3472000    1.0158788   -5.0325514   -5.0325514   -3.8293508  0.079665767   -5.0325514    1.2032006   520603 
 3473000    1.0138942   -5.0298052   -5.0298052   -3.8289552  0.082181195   -5.0298052      1.20085   520603 
 3474000    1.0149558   -5.0312618   -5.0312618   -3.8291544  0.062877037   -5.0312618    1.2021074   520603 
 3475000    1.0142599   -5.0304857   -5.0304857   -3.8292025   0.06156961   -5.0304857    1.2012832   520603 
 3476000    1.0156675    -5.031446    -5.031446   -3.8284957  0.061297402    -5.031446    1.2029504   520603 
 3477000    1.0146151   -5.0310298   -5.0310298   -3.8293259   0.06454272   -5.0310298    1.2017039   520603 
 3478000    1.0140979   -5.0294977   -5.0294977   -3.8284063  0.067384222   -5.0294977    1.2010914   520603 
 3479000    1.0152519   -5.0302595   -5.0302595   -3.8278015  0.096274167   -5.0302595    1.2024581   520603 
 3480000    1.0159085   -5.0308267   -5.0308267   -3.8275909   0.07442131   -5.0308267    1.2032358   520603 
 3481000    1.0142843   -5.0292325   -5.0292325   -3.8279204  0.060097283   -5.0292325    1.2013121   520603 
 3482000     1.015902   -5.0307464   -5.0307464   -3.8275183  0.082979568   -5.0307464    1.2032281   520603 
 3483000    1.0156897   -5.0298787   -5.0298787    -3.826902  0.092302063   -5.0298787    1.2029767   520603 
 3484000    1.0147448   -5.0296579   -5.0296579   -3.8278004  0.072063074   -5.0296579    1.2018575   520603 
 3485000    1.0145265   -5.0278743   -5.0278743   -3.8262753  0.074540581   -5.0278743     1.201599   520603 
 3486000     1.015071   -5.0290614   -5.0290614   -3.8268176  0.054441229   -5.0290614    1.2022438   520603 
 3487000    1.0125139   -5.0272131   -5.0272131   -3.8279979  0.055585887   -5.0272131    1.1992152   520603 
 3488000    1.0149803   -5.0287457   -5.0287457   -3.8266093  0.082236923   -5.0287457    1.2021365   520603 
 3489000    1.0140174   -5.0277013   -5.0277013   -3.8267053    0.0846816   -5.0277013    1.2009959   520603 
 3490000    1.0155368   -5.0305866   -5.0305866    -3.827791   0.07915139   -5.0305866    1.2027955   520603 
 3491000    1.0164449   -5.0319368   -5.0319368   -3.8280657  0.044478614   -5.0319368    1.2038711   520603 
 3492000    1.0141912   -5.0293816   -5.0293816   -3.8281798  0.078135635   -5.0293816    1.2012019   520603 
 3493000    1.0142408   -5.0293699   -5.0293699   -3.8281094  0.063372047   -5.0293699    1.2012605   520603 
 3494000    1.0153809   -5.0310304   -5.0310304   -3.8284195  0.076029374   -5.0310304    1.2026109   520603 
 3495000    1.0148403   -5.0310647   -5.0310647    -3.829094  0.077818399   -5.0310647    1.2019707   520603 
 3496000    1.0155478   -5.0321672   -5.0321672   -3.8293587  0.