LAMMPS (29 Oct 2020)
  using 1 OpenMP thread(s) per MPI task
# Simple rigid body system
# needed variables:

#variable	startTemp equal 0.5
#variable 	temp 	  equal 0.8

units		lj
atom_style	full
dimension 	3
boundary	p p f
pair_style	lj/cut/opt 2.5

variable 	sigma		equal 1.0
variable 	epsilon 	equal 1.0

region		box block 0 80 0 80 0 160
create_box 	3 box
Created orthogonal box = (0.0000000 0.0000000 0.0000000) to (80.000000 80.000000 160.00000)
  2 by 4 by 8 MPI processor grid



lattice 	sc 0.66
Lattice spacing in x,y,z = 1.1485556 1.1485556 1.1485556
region		fluid block EDGE EDGE EDGE EDGE 2 100 units box
create_atoms 	1 region fluid
Created 421400 atoms
  create_atoms CPU = 0.007 seconds

lattice 	sc 0.045
Lattice spacing in x,y,z = 2.8114422 2.8114422 2.8114422
region		gas block EDGE EDGE EDGE EDGE 101 158 units box
create_atoms    1 region gas
Created 17661 atoms
  create_atoms CPU = 0.006 seconds

group		solvent type 1
439061 atoms in group solvent

mass		1 1.0
mass		2 1.0
mass		3 1.0



neighbor 	0.4 bin

pair_coeff	1 1 1.0 1.0
pair_coeff	2 2 0.0 0.0
pair_coeff	3 3 0.0 0.0
pair_coeff	2 3 0.0 0.0
pair_coeff	1 2*3 0.0 0.0

pair_modify 	shift yes

delete_atoms	overlap 0.5 solvent solvent
System init for delete_atoms ...
Neighbor list info ...
  update every 1 steps, delay 10 steps, check yes
  max neighbors/atom: 2000, page size: 100000
  master list distance cutoff = 2.9
  ghost atom cutoff = 2.9
  binsize = 1.45, bins = 56 56 111
  2 neighbor lists, perpetual/occasional/extra = 1 1 0
  (1) command delete_atoms, occasional
      attributes: full, newton on
      pair build: full/bin
      stencil: full/bin/3d
      bin: standard
  (2) pair lj/cut/opt, perpetual
      attributes: half, newton on
      pair build: half/bin/newton
      stencil: half/bin/3d/newton
      bin: standard
WARNING: Ignoring 'compress yes' for molecular system (src/delete_atoms.cpp:125)
Deleted 0 atoms, new total = 439061

velocity 	solvent create ${startTemp} 563435 loop geom
velocity 	solvent create .50 563435 loop geom

balance 	1.05 shift z 10 1.05
Balancing ...
Neighbor list info ...
  update every 1 steps, delay 10 steps, check yes
  max neighbors/atom: 2000, page size: 100000
  master list distance cutoff = 2.9
  ghost atom cutoff = 2.9
  binsize = 1.45, bins = 56 56 111
  1 neighbor lists, perpetual/occasional/extra = 1 0 0
  (1) pair lj/cut/opt, perpetual
      attributes: half, newton on
      pair build: half/bin/newton
      stencil: half/bin/3d/newton
      bin: standard
 rebalancing time: 0.069 seconds
  iteration count = 5
  initial/final maximal load/proc = 11340.000 8190.0000
  initial/final imbalance factor  = 1.6529822 1.1938204
  x cuts: 0.0000000 0.5 1.0000000
  y cuts: 0.0000000 0.25 0.5 0.75 1.0000000
  z cuts: 0.0000000 0.08984375 0.17578125 0.25390625 0.3359375 0.4140625 0.50390625 0.58203125 1.0000000


####################### WALLS ###########################


variable       epsilonWall equal 2*${epsilon}
variable       epsilonWall equal 2*1

variable       cutoffTop   equal   0.7147*${sigma}
variable       cutoffTop   equal   0.7147*1

variable       cutoffLow   equal   3*${sigma}
variable       cutoffLow   equal   3*1


fix            topWall all wall/lj93 zhi EDGE                ${epsilonWall} ${sigma} ${cutoffTop} units box
fix            topWall all wall/lj93 zhi EDGE                2 ${sigma} ${cutoffTop} units box
fix            topWall all wall/lj93 zhi EDGE                2 1 ${cutoffTop} units box
fix            topWall all wall/lj93 zhi EDGE                2 1 0.7147 units box

fix            lowWall all wall/lj93 zlo EDGE                ${epsilonWall} ${sigma} ${cutoffLow} units box
fix            lowWall all wall/lj93 zlo EDGE                2 ${sigma} ${cutoffLow} units box
fix            lowWall all wall/lj93 zlo EDGE                2 1 ${cutoffLow} units box
fix            lowWall all wall/lj93 zlo EDGE                2 1 3 units box


###################### COMPUTES ##########################

compute        bin1 solvent chunk/atom bin/1d z upper 1.0


######################	FIXES ############################


fix 		peclet solvent ave/chunk 1000 1 1000 bin1 density/number norm 		 none ave one file density.profile

fix 		 temp solvent ave/chunk 1000 1 1000 bin1 temp norm 		 none ave one file temp.profile

fix 		2 solvent nve


## Thermostat


region		regthermo block EDGE EDGE EDGE EDGE 0 20 units box

group 		thermo dynamic solvent region regthermo every 1000
dynamic group thermo defined

fix 		3 thermo langevin ${startTemp} ${temp} 10 156453
fix 		3 thermo langevin .50 ${temp} 10 156453
fix 		3 thermo langevin .50 .50 10 156453



#### Load balancing


fix 		bal all balance 1000 1.05 shift z 10 1.05


############### Diagnostics and computes ###################
#compute 	com cube	  rigid/local	1 mol x y z
#compute 	quat cube	  rigid/local	1 mol quatw quati quatj quatk

thermo 		1000
thermo_style 	custom step temp epair evdwl etotal press pe ke atoms

dump		1 all custom 100000 dump.lammpstrj id mol type x y z
dump 		2 all image 10000 image.*.png type type
dump 		3 all movie 1000 movie.avi type type

#dump 		com cube local 1000 dump.*.xyz c_com[*]
#dump		quat cube      local 1000 dump.*.quat c_quat[*]


restart 	1000000 restart.dat
timestep 	0.005
timer 		full
New timer settings: style=full  mode=nosync  timeout=off

run		5000000
Per MPI rank memory allocation (min/avg/max) = 11.32 | 15.17 | 18.40 Mbytes
Step Temp E_pair E_vdwl TotEng Press PotEng KinEng Atoms 
       0          0.5   -1.2273921   -1.2273921  -0.47739376    3.8462386   -1.2273921   0.74999829   439061 
    1000    1.6454626   -3.4564176   -3.4564176  -0.98822938    1.6479098   -3.4564176    2.4681883   439061 
    2000    1.5228851   -3.4653012   -3.4653012   -1.1809788   0.84955184   -3.4653012    2.2843224   439061 
    3000    1.3416022    -3.375901    -3.375901   -1.3635024   0.48431554    -3.375901    2.0123987   439061 
    4000    1.2530632   -3.3923666   -3.3923666    -1.512776   0.41343459   -3.3923666    1.8795906   439061 
    5000     1.196304   -3.4090891   -3.4090891   -1.6146372   0.31155746   -3.4090891     1.794452   439061 
    6000    1.1561594   -3.4122035   -3.4122035   -1.6779684   0.21327206   -3.4122035    1.7342351   439061 
    7000    1.1258578    -3.414605    -3.414605   -1.7258221   0.16426817    -3.414605    1.6887829   439061 
    8000    1.1146358   -3.4391099   -3.4391099     -1.76716   0.17987266   -3.4391099    1.6719499   439061 
    9000    1.1150627   -3.4753552   -3.4753552    -1.802765   0.22268581   -3.4753552    1.6725902   439061 
   10000    1.1247641    -3.522355    -3.522355   -1.8352126   0.26623737    -3.522355    1.6871424   439061 
   11000    1.1223033   -3.5475206   -3.5475206   -1.8640695    0.2758768   -3.5475206    1.6834511   439061 
   12000    1.1080933   -3.5514408   -3.5514408   -1.8893047   0.25822589   -3.5514408    1.6621361   439061 
   13000    1.0955824   -3.5550569   -3.5550569   -1.9116871   0.24989814   -3.5550569    1.6433698   439061 
   14000    1.0862925   -3.5618458   -3.5618458   -1.9324107   0.24447139   -3.5618458    1.6294351   439061 
   15000    1.0756045   -3.5638186   -3.5638186   -1.9504155   0.23702181   -3.5638186    1.6134031   439061 
   16000    1.0590174   -3.5553136   -3.5553136   -1.9667911   0.21998576   -3.5553136    1.5885225   439061 
   17000    1.0408338   -3.5432717   -3.5432717   -1.9820245   0.19440714   -3.5432717    1.5612472   439061 
   18000    1.0228886   -3.5306609   -3.5306609   -1.9963314   0.17690037   -3.5306609    1.5343295   439061 
   19000    1.0090057   -3.5219883   -3.5219883   -2.0084833   0.16894658   -3.5219883    1.5135051   439061 
   20000   0.99462014   -3.5137682   -3.5137682   -2.0218414   0.16156599   -3.5137682    1.4919268   439061 
   21000    0.9827189   -3.5106713   -3.5106713   -2.0365963   0.16997197   -3.5106713     1.474075   439061 
   22000    0.9716287   -3.5134755   -3.5134755   -2.0560357   0.17510079   -3.5134755    1.4574397   439061 
   23000   0.95965827   -3.5167017   -3.5167017   -2.0772175   0.15910242   -3.5167017    1.4394841   439061 
   24000   0.94687739   -3.5177132   -3.5177132   -2.0974003   0.14732214   -3.5177132    1.4203129   439061 
   25000   0.93758242   -3.5218035   -3.5218035   -2.1154331   0.13378098   -3.5218035    1.4063704   439061 
   26000   0.92942479   -3.5281972   -3.5281972   -2.1340632   0.13042632   -3.5281972     1.394134   439061 
   27000    0.9220355   -3.5359905   -3.5359905   -2.1529404   0.12836481   -3.5359905    1.3830501   439061 
   28000   0.91545131   -3.5432836   -3.5432836   -2.1701098   0.11488793   -3.5432836    1.3731738   439061 
   29000   0.91066083   -3.5534958   -3.5534958   -2.1875077   0.11632685   -3.5534958    1.3659881   439061 
   30000   0.90558869    -3.563518    -3.563518   -2.2051381   0.11638874    -3.563518    1.3583799   439061 
   31000    0.9023672   -3.5765906   -3.5765906   -2.2230429   0.11092304   -3.5765906    1.3535477   439061 
   32000   0.89830876   -3.5874945   -3.5874945   -2.2400344   0.10400288   -3.5874945    1.3474601   439061 
   33000   0.89472007   -3.5994923   -3.5994923   -2.2574153  0.096639458   -3.5994923     1.342077   439061 
   34000   0.89058478    -3.609827    -3.609827   -2.2739529   0.10329118    -3.609827    1.3358741   439061 
   35000   0.88779893   -3.6215548   -3.6215548   -2.2898594   0.10017506   -3.6215548    1.3316954   439061 
   36000   0.88582699   -3.6344888   -3.6344888   -2.3057514  0.094399801   -3.6344888    1.3287375   439061 
   37000   0.88058926   -3.6429931   -3.6429931   -2.3221122  0.089487466   -3.6429931    1.3208809   439061 
   38000   0.87722995   -3.6542106   -3.6542106   -2.3383687  0.082876037   -3.6542106    1.3158419   439061 
   39000   0.87466068   -3.6672207   -3.6672207   -2.3552327  0.080712637   -3.6672207     1.311988   439061 
   40000   0.87227647   -3.6802457   -3.6802457    -2.371834  0.082965731   -3.6802457    1.3084117   439061 
   41000     0.871495   -3.6953111   -3.6953111   -2.3880716  0.078032922   -3.6953111    1.3072395   439061 
   42000   0.86665359   -3.7048468   -3.7048468   -2.4048694  0.072459931   -3.7048468    1.2999774   439061 
   43000   0.86469562   -3.7185541   -3.7185541   -2.4215136  0.071092397   -3.7185541    1.2970405   439061 
   44000   0.86260035   -3.7320708   -3.7320708   -2.4381732  0.073137076   -3.7320708    1.2938976   439061 
   45000   0.86020452   -3.7449793   -3.7449793   -2.4546754  0.068045964   -3.7449793    1.2903038   439061 
   46000    0.8577136   -3.7575794   -3.7575794    -2.471012  0.064383259   -3.7575794    1.2865675   439061 
   47000   0.85410762   -3.7700334   -3.7700334   -2.4888749  0.060371281   -3.7700334    1.2811585   439061 
   48000   0.85223358   -3.7838527   -3.7838527   -2.5055053  0.061226638   -3.7838527    1.2783475   439061 
   49000   0.85010817   -3.7959939   -3.7959939   -2.5208345  0.062679715   -3.7959939    1.2751593   439061 
   50000   0.84886122   -3.8101262   -3.8101262   -2.5368373  0.060081287   -3.8101262    1.2732889   439061 
   51000   0.84657424   -3.8236377   -3.8236377   -2.5537792  0.057563929   -3.8236377    1.2698585   439061 
   52000   0.84456353   -3.8361459   -3.8361459   -2.5693035   0.05604325   -3.8361459    1.2668424   439061 
   53000   0.84366943   -3.8515892   -3.8515892    -2.586088  0.049870777   -3.8515892    1.2655013   439061 
   54000   0.84150476    -3.863231    -3.863231   -2.6009768  0.054059393    -3.863231    1.2622543   439061 
   55000   0.83987197   -3.8760068   -3.8760068   -2.6162017  0.051528707   -3.8760068    1.2598051   439061 
   56000   0.83705123   -3.8859904   -3.8859904   -2.6304164  0.053817149   -3.8859904     1.255574   439061 
   57000      0.83491    -3.897795    -3.897795   -2.6454328  0.045697674    -3.897795    1.2523622   439061 
   58000   0.83503123   -3.9117303   -3.9117303   -2.6591863  0.042102174   -3.9117303     1.252544   439061 
   59000   0.83291285   -3.9241098   -3.9241098   -2.6747434    0.0452211   -3.9241098    1.2493664   439061 
   60000   0.83054483   -3.9348922   -3.9348922   -2.6890778    0.0444263   -3.9348922    1.2458144   439061 
   61000   0.82934696   -3.9467264   -3.9467264   -2.7027088  0.035421848   -3.9467264    1.2440176   439061 
   62000   0.82924166   -3.9597211   -3.9597211   -2.7158615  0.042622478   -3.9597211    1.2438597   439061 
   63000   0.82974113   -3.9727465   -3.9727465   -2.7281377   0.04708646   -3.9727465    1.2446089   439061 
   64000   0.82814637   -3.9835462   -3.9835462   -2.7413294  0.044322356   -3.9835462    1.2422167   439061 
   65000   0.82622592   -3.9934002   -3.9934002   -2.7540641  0.038004186   -3.9934002    1.2393361   439061 
   66000   0.82442052   -4.0030706   -4.0030706   -2.7664427  0.030571431   -4.0030706     1.236628   439061 
   67000   0.82324325   -4.0119982   -4.0119982   -2.7771361  0.039502939   -4.0119982    1.2348621   439061 
   68000   0.82036766   -4.0193544   -4.0193544   -2.7888057  0.033386606   -4.0193544    1.2305487   439061 
   69000   0.82021984   -4.0310102   -4.0310102   -2.8006833   0.03424989   -4.0310102     1.230327   439061 
   70000   0.81871048   -4.0400342   -4.0400342   -2.8119713  0.036518788   -4.0400342    1.2280629   439061 
   71000   0.81915961     -4.05265     -4.05265   -2.8239134  0.034307765     -4.05265    1.2287366   439061 
   72000   0.81680296   -4.0589452   -4.0589452   -2.8337436  0.031157186   -4.0589452    1.2252016   439061 
   73000   0.81500989   -4.0673294   -4.0673294   -2.8448174  0.035772136   -4.0673294    1.2225121   439061 
   74000   0.81714357   -4.0806677   -4.0806677   -2.8549551  0.036089089   -4.0806677    1.2257126   439061 
   75000   0.81424231   -4.0869236   -4.0869236   -2.8655629  0.033092686   -4.0869236    1.2213607   439061 
   76000   0.80990465    -4.090769    -4.090769   -2.8759147   0.03295254    -4.090769    1.2148542   439061 
   77000   0.81034387   -4.1014974   -4.1014974   -2.8859844  0.028637804   -4.1014974     1.215513   439061 
   78000   0.80871025   -4.1088065   -4.1088065   -2.8957438  0.031210141   -4.1088065    1.2130626   439061 
   79000   0.81051983    -4.121851    -4.121851    -2.906074  0.030901042    -4.121851     1.215777   439061 
   80000   0.80866199   -4.1279443   -4.1279443   -2.9149541  0.032609447   -4.1279443    1.2129902   439061 
   81000   0.80736045   -4.1367748   -4.1367748   -2.9257369   0.03464718   -4.1367748    1.2110379   439061 
   82000   0.80594991    -4.144322    -4.144322   -2.9353998  0.030589582    -4.144322    1.2089221   439061 
   83000   0.80468996   -4.1523646   -4.1523646   -2.9453324  0.026971565   -4.1523646    1.2070322   439061 
   84000    0.8039876   -4.1600167   -4.1600167   -2.9540381  0.023808988   -4.1600167    1.2059786   439061 
   85000   0.80359148   -4.1675682   -4.1675682   -2.9621837  0.031751197   -4.1675682    1.2053845   439061 
   86000    0.8013737   -4.1732805   -4.1732805   -2.9712227  0.029393664   -4.1732805    1.2020578   439061 
   87000   0.80036611   -4.1797335   -4.1797335   -2.9791871  0.027521972   -4.1797335    1.2005464   439061 
   88000    0.7989476   -4.1869388   -4.1869388   -2.9885201  0.033948509   -4.1869388    1.1984187   439061 
   89000   0.79863335   -4.1958593   -4.1958593    -2.997912  0.027872968   -4.1958593    1.1979473   439061 
   90000   0.79773604   -4.2029497   -4.2029497   -3.0063483   0.03176336   -4.2029497    1.1966013   439061 
   91000   0.79712396   -4.2106192   -4.2106192    -3.014936  0.034816837   -4.2106192    1.1956832   439061 
   92000   0.79635708   -4.2192004   -4.2192004   -3.0246675  0.028226073   -4.2192004    1.1945329   439061 
   93000   0.79457696   -4.2243139   -4.2243139   -3.0324511  0.023472028   -4.2243139    1.1918627   439061 
   94000    0.7943328   -4.2323519   -4.2323519   -3.0408554  0.024420439   -4.2323519    1.1914965   439061 
   95000   0.79303093   -4.2381604   -4.2381604   -3.0486167  0.028121881   -4.2381604    1.1895437   439061 
   96000   0.79144606   -4.2444233   -4.2444233    -3.057257  0.029163496   -4.2444233    1.1871664   439061 
   97000   0.79060823   -4.2514647   -4.2514647   -3.0655551  0.029151184   -4.2514647    1.1859096   439061 
   98000   0.79000303   -4.2582677   -4.2582677   -3.0732659  0.027827163   -4.2582677    1.1850018   439061 
   99000   0.79062481   -4.2674235   -4.2674235   -3.0814889  0.027035873   -4.2674235    1.1859345   439061 
  100000   0.78822016   -4.2723809   -4.2723809   -3.0900534  0.030769793   -4.2723809    1.1823275   439061 
  101000   0.78840446   -4.2802486   -4.2802486   -3.0976446   0.03555089   -4.2802486     1.182604   439061 
  102000   0.78554731   -4.2840097   -4.2840097   -3.1056914  0.027711276   -4.2840097    1.1783183   439061 
  103000   0.78453925   -4.2900536   -4.2900536   -3.1132474  0.020901015   -4.2900536    1.1768062   439061 
  104000   0.78459929   -4.2968116   -4.2968116   -3.1199153  0.018905027   -4.2968116    1.1768963   439061 
  105000   0.78394314   -4.3039699   -4.3039699   -3.1280579  0.028918341   -4.3039699     1.175912   439061 
  106000   0.78411971    -4.312376    -4.312376   -3.1361992  0.033890781    -4.312376    1.1761769   439061 
  107000   0.78330943   -4.3192792   -4.3192792   -3.1443178  0.025493305   -4.3192792    1.1749615   439061 
  108000   0.78187296   -4.3248978   -4.3248978    -3.152091  0.023807489   -4.3248978    1.1728068   439061 
  109000   0.77838327   -4.3275065   -4.3275065   -3.1599343   0.02557539   -4.3275065    1.1675722   439061 
  110000   0.77914286   -4.3355868   -4.3355868   -3.1668752  0.018084537   -4.3355868    1.1687116   439061 
  111000     0.778702   -4.3427737   -4.3427737   -3.1747233  0.021098362   -4.3427737    1.1680503   439061 
  112000   0.77858408   -4.3500489   -4.3500489   -3.1821755  0.023403881   -4.3500489    1.1678735   439061 
  113000   0.77695661   -4.3557452   -4.3557452    -3.190313  0.023443093   -4.3557452    1.1654323   439061 
  114000   0.77541373   -4.3596827   -4.3596827   -3.1965647  0.023386765   -4.3596827    1.1631179   439061 
  115000   0.77482288   -4.3663357   -4.3663357   -3.2041041  0.020902344   -4.3663357    1.1622317   439061 
  116000    0.7747649   -4.3733947   -4.3733947     -3.21125  0.020467584   -4.3733947    1.1621447   439061 
  117000   0.77286885      -4.3779      -4.3779   -3.2185994  0.023033413      -4.3779    1.1593006   439061 
  118000   0.77092706   -4.3830029   -4.3830029    -3.226615  0.024870631   -4.3830029     1.156388   439061 
  119000   0.77158072   -4.3908881   -4.3908881   -3.2335197  0.021993342   -4.3908881    1.1573684   439061 
  120000   0.77058227   -4.3962151   -4.3962151   -3.2403444  0.028650037   -4.3962151    1.1558708   439061 
  121000   0.76938259   -4.4029412   -4.4029412     -3.24887  0.021255223   -4.4029412    1.1540713   439061 
  122000   0.76813268   -4.4076077   -4.4076077   -3.2554113  0.016113474   -4.4076077    1.1521964   439061 
  123000   0.76602089   -4.4110941   -4.4110941   -3.2620654  0.016792998   -4.4110941    1.1490287   439061 
  124000   0.76705832   -4.4201198   -4.4201198    -3.269535  0.014766176   -4.4201198    1.1505849   439061 
  125000   0.76737295   -4.4285364   -4.4285364   -3.2774796  0.020116886   -4.4285364    1.1510568   439061 
  126000    0.7651987    -4.432963    -4.432963   -3.2851676  0.022670331    -4.432963    1.1477954   439061 
  127000   0.76237705   -4.4355269   -4.4355269    -3.291964  0.024868116   -4.4355269     1.143563   439061 
  128000   0.76258531   -4.4430117   -4.4430117   -3.2991363  0.017705714   -4.4430117    1.1438754   439061 
  129000   0.76152259   -4.4477509   -4.4477509   -3.3054696  0.018772497   -4.4477509    1.1422813   439061 
  130000   0.76172961    -4.454503    -4.454503   -3.3119112  0.019791596    -4.454503    1.1425918   439061 
  131000   0.76093604   -4.4603247   -4.4603247   -3.3189233  0.018759621   -4.4603247    1.1414015   439061 
  132000   0.76023144   -4.4647399   -4.4647399   -3.3243953  0.018695407   -4.4647399    1.1403446   439061 
  133000   0.75862392   -4.4696762   -4.4696762   -3.3317429  0.017522991   -4.4696762    1.1379333   439061 
  134000   0.75711519   -4.4731096   -4.4731096   -3.3374394  0.022007141   -4.4731096    1.1356702   439061 
  135000   0.75773643   -4.4807587   -4.4807587   -3.3441567    0.0163692   -4.4807587    1.1366021   439061 
  136000   0.75674706   -4.4860146   -4.4860146   -3.3508966  0.015443464   -4.4860146     1.135118   439061 
  137000   0.75576172   -4.4909519   -4.4909519   -3.3573119  0.017404178   -4.4909519      1.13364   439061 
  138000   0.75556453   -4.4969877   -4.4969877   -3.3636435  0.016750861   -4.4969877    1.1333442   439061 
  139000    0.7537033   -4.5014796   -4.5014796   -3.3709272  0.015894711   -4.5014796    1.1305524   439061 
  140000   0.75447379   -4.5094699   -4.5094699   -3.3777618  0.018940855   -4.5094699    1.1317081   439061 
  141000   0.75301002   -4.5129599   -4.5129599   -3.3834474   0.01861952   -4.5129599    1.1295125   439061 
  142000   0.75224518   -4.5176875   -4.5176875   -3.3893223  0.014348191   -4.5176875    1.1283652   439061 
  143000   0.75211494   -4.5241717   -4.5241717   -3.3960018     0.017184   -4.5241717    1.1281698   439061 
  144000   0.75052889   -4.5282865   -4.5282865   -3.4024957   0.01996054   -4.5282865    1.1257908   439061 
  145000   0.75065417   -4.5347392   -4.5347392   -3.4087605  0.020937344   -4.5347392    1.1259787   439061 
  146000   0.74898236   -4.5387583   -4.5387583   -3.4152873  0.017679093   -4.5387583     1.123471   439061 
  147000   0.74662584   -4.5417211   -4.5417211   -3.4217849  0.012950772   -4.5417211    1.1199362   439061 
  148000   0.74664738   -4.5476486   -4.5476486     -3.42768  0.011132977   -4.5476486    1.1199685   439061 
  149000   0.74542376   -4.5519078   -4.5519078   -3.4337747  0.017794963   -4.5519078    1.1181331   439061 
  150000   0.74660714   -4.5583825   -4.5583825   -3.4384743  0.020844505   -4.5583825    1.1199082   439061 
  151000   0.74604863   -4.5628742   -4.5628742   -3.4438039  0.016803863   -4.5628742    1.1190704   439061 
  152000   0.74506209   -4.5680393   -4.5680393   -3.4504487  0.015958542   -4.5680393    1.1175906   439061 
  153000   0.74437894   -4.5737053   -4.5737053   -3.4571394  0.013742555   -4.5737053    1.1165659   439061 
  154000   0.74247558   -4.5770057   -4.5770057   -3.4632949  0.019167919   -4.5770057    1.1137108   439061 
  155000   0.74164218   -4.5813933   -4.5813933   -3.4689326  0.020537664   -4.5813933    1.1124607   439061 
  156000   0.74070537   -4.5855881   -4.5855881   -3.4745326  0.019749721   -4.5855881    1.1110555   439061 
  157000   0.74059522   -4.5915579   -4.5915579   -3.4806676  0.014812284   -4.5915579    1.1108903   439061 
  158000   0.73882523   -4.5956558   -4.5956558   -3.4874204  0.016620037   -4.5956558    1.1082353   439061 
  159000   0.73890201   -4.6011917   -4.6011917   -3.4928412  0.017329918   -4.6011917    1.1083505   439061 
  160000   0.73781213   -4.6054359   -4.6054359   -3.4987203   0.02024593   -4.6054359    1.1067157   439061 
  161000   0.73697751   -4.6104329   -4.6104329   -3.5049692  0.010458747   -4.6104329    1.1054638   439061 
  162000   0.73767246   -4.6175191   -4.6175191   -3.5110129 0.0072182953   -4.6175191    1.1065062   439061 
  163000   0.73528831   -4.6190188   -4.6190188   -3.5160888  0.016076577   -4.6190188      1.10293   439061 
  164000   0.73559963   -4.6245515   -4.6245515   -3.5211546  0.016668186   -4.6245515    1.1033969   439061 
  165000   0.73446306   -4.6295514   -4.6295514   -3.5278593  0.011541321   -4.6295514    1.1016921   439061 
  166000   0.73374688    -4.633937    -4.633937   -3.5333192  0.015500549    -4.633937    1.1006178   439061 
  167000   0.73339242   -4.6384047   -4.6384047   -3.5383186  0.015483899   -4.6384047    1.1000861   439061 
  168000   0.73319717   -4.6441953   -4.6441953   -3.5444021  0.013241613   -4.6441953    1.0997932   439061 
  169000   0.73140767   -4.6465469   -4.6465469   -3.5494379  0.016656784   -4.6465469     1.097109   439061 
  170000   0.73053002    -4.650815    -4.650815   -3.5550225  0.015416436    -4.650815    1.0957925   439061 
  171000    0.7310274   -4.6564599   -4.6564599   -3.5599213  0.012253362   -4.6564599    1.0965386   439061 
  172000   0.72987803    -4.661086    -4.661086   -3.5662715  0.008395629    -4.661086    1.0948145   439061 
  173000   0.72992298   -4.6658601   -4.6658601   -3.5709781  0.011417168   -4.6658601     1.094882   439061 
  174000   0.72835419   -4.6690157   -4.6690157   -3.5764869  0.014399046   -4.6690157    1.0925288   439061 
  175000   0.72789127   -4.6742789   -4.6742789   -3.5824445  0.019596696   -4.6742789    1.0918344   439061 
  176000   0.72759242   -4.6782175   -4.6782175   -3.5868313  0.014361806   -4.6782175    1.0913861   439061 
  177000   0.72775503   -4.6837948   -4.6837948   -3.5921647  0.019298553   -4.6837948    1.0916301   439061 
  178000   0.72706497   -4.6887765   -4.6887765   -3.5981816  0.009885257   -4.6887765     1.090595   439061 
  179000   0.72478156   -4.6915409   -4.6915409    -3.604371  0.011208757   -4.6915409    1.0871699   439061 
  180000   0.72469147   -4.6963367   -4.6963367    -3.609302 0.0089521137   -4.6963367    1.0870347   439061 
  181000   0.72217426   -4.6984015   -4.6984015   -3.6151426  0.015109087   -4.6984015    1.0832589   439061 
  182000   0.72306198   -4.7056669   -4.7056669   -3.6210764   0.01410618   -4.7056669    1.0845905   439061 
  183000   0.72381591   -4.7120754   -4.7120754   -3.6263541 0.0097348089   -4.7120754    1.0857214   439061 
  184000    0.7229413   -4.7158665   -4.7158665    -3.631457  0.013169192   -4.7158665    1.0844095   439061 
  185000   0.72086321   -4.7191625   -4.7191625   -3.6378702  0.009412136   -4.7191625    1.0812923   439061 
  186000   0.72055214   -4.7233992   -4.7233992   -3.6425735 0.0095201103   -4.7233992    1.0808258   439061 
  187000   0.71927873    -4.726801    -4.726801   -3.6478853  0.011643316    -4.726801    1.0789156   439061 
  188000   0.71723475   -4.7287234   -4.7287234   -3.6528737 0.0099181858   -4.7287234    1.0758497   439061 
  189000   0.71710687   -4.7339979   -4.7339979     -3.65834  0.009687396   -4.7339979    1.0756579   439061 
  190000   0.71664475   -4.7376216   -4.7376216   -3.6626569  0.013231693   -4.7376216    1.0749647   439061 
  191000   0.71575007   -4.7416935   -4.7416935   -3.6680708   0.01386622   -4.7416935    1.0736227   439061 
  192000   0.71672471   -4.7482681   -4.7482681   -3.6731835  0.013224456   -4.7482681    1.0750846   439061 
  193000   0.71536167   -4.7516385   -4.7516385   -3.6785984    0.0157501   -4.7516385    1.0730401   439061 
  194000   0.71530362   -4.7568316   -4.7568316   -3.6838786  0.011359313   -4.7568316     1.072953   439061 
  195000   0.71367356   -4.7593492   -4.7593492   -3.6888413 0.0092717631   -4.7593492    1.0705079   439061 
  196000   0.71276203   -4.7631152   -4.7631152   -3.6939746 0.0050901492   -4.7631152    1.0691406   439061 
  197000   0.71316294   -4.7679711   -4.7679711   -3.6982292 0.0033870516   -4.7679711     1.069742   439061 
  198000   0.71150146   -4.7703493   -4.7703493   -3.7030996 0.0097527046   -4.7703493    1.0672498   439061 
  199000   0.71064443   -4.7744644   -4.7744644   -3.7085002 0.0078928335   -4.7744644    1.0659642   439061 
  200000    0.7103277   -4.7797498   -4.7797498   -3.7142607   0.01081424   -4.7797498    1.0654891   439061 
  201000   0.71093032   -4.7845233   -4.7845233   -3.7181303 0.0085405674   -4.7845233    1.0663931   439061 
  202000   0.71032417   -4.7879698   -4.7879698    -3.722486   0.01004185   -4.7879698    1.0654838   439061 
  203000   0.70983444   -4.7929198   -4.7929198   -3.7281705 0.0044312261   -4.7929198    1.0647492   439061 
  204000   0.70857295   -4.7956123   -4.7956123   -3.7327553 0.0091554635   -4.7956123     1.062857   439061 
  205000   0.70690862   -4.7981732   -4.7981732   -3.7378127  0.011007499   -4.7981732    1.0603605   439061 
  206000   0.70854583   -4.8056596   -4.8056596   -3.7428433  0.010360882   -4.8056596    1.0628163   439061 
  207000   0.70670904   -4.8083496   -4.8083496   -3.7482884 0.0041176162   -4.8083496    1.0600612   439061 
  208000   0.70495153   -4.8109724   -4.8109724   -3.7535475 0.0087737808   -4.8109724    1.0574249   439061 
  209000   0.70449429   -4.8148625   -4.8148625   -3.7581235 0.0080065876   -4.8148625     1.056739   439061 
  210000   0.70426107   -4.8201837   -4.8201837   -3.7637945 0.0081265701   -4.8201837    1.0563892   439061 
  211000   0.70415134   -4.8251708   -4.8251708   -3.7689462 0.0081262066   -4.8251708    1.0562246   439061 
  212000   0.70478031   -4.8303899   -4.8303899   -3.7732218  0.010284979   -4.8303899    1.0571681   439061 
  213000   0.70346816   -4.8334404   -4.8334404   -3.7782405  0.011391443   -4.8334404    1.0551998   439061 
  214000   0.70320404   -4.8379837   -4.8379837     -3.78318  0.003924238   -4.8379837    1.0548037   439061 
  215000   0.70111416    -4.839562    -4.839562   -3.7878932 0.0035295379    -4.839562    1.0516689   439061 
  216000   0.70063019   -4.8438202   -4.8438202   -3.7928774  0.005556946   -4.8438202    1.0509429   439061 
  217000   0.69916294   -4.8469472   -4.8469472   -3.7982052 0.0022092202   -4.8469472     1.048742   439061 
  218000    0.7000308   -4.8527904   -4.8527904   -3.8027466 0.0024355946   -4.8527904    1.0500438   439061 
  219000   0.69901976   -4.8550242   -4.8550242   -3.8064969 0.0093997791   -4.8550242    1.0485272   439061 
  220000   0.69938523   -4.8608174   -4.8608174    -3.811742 0.0051042352   -4.8608174    1.0490755   439061 
  221000   0.69839214   -4.8641961   -4.8641961   -3.8166103  0.012307117   -4.8641961    1.0475858   439061 
  222000   0.69732587   -4.8669539   -4.8669539   -3.8209675  0.005766013   -4.8669539    1.0459864   439061 
  223000    0.6964366   -4.8700442   -4.8700442   -3.8253917 0.0016694529   -4.8700442    1.0446525   439061 
  224000   0.69465154   -4.8724105   -4.8724105   -3.8304356 0.0055952485   -4.8724105    1.0419749   439061 
  225000   0.69617785    -4.880272    -4.880272   -3.8360076 0.0037630259    -4.880272    1.0442644   439061 
  226000   0.69524165   -4.8836812   -4.8836812   -3.8408211 0.0037261883   -4.8836812    1.0428601   439061 
  227000   0.69474673   -4.8867334   -4.8867334   -3.8446157 0.0064137927   -4.8867334    1.0421177   439061 
  228000   0.69440119    -4.890274    -4.890274   -3.8486746 0.0099889177    -4.890274    1.0415994   439061 
  229000   0.69476196   -4.8960662   -4.8960662   -3.8539256 0.0048016544   -4.8960662    1.0421406   439061 
  230000    0.6933123   -4.8983702   -4.8983702   -3.8584041  0.005625266   -4.8983702    1.0399661   439061 
  231000   0.69134681   -4.9000213   -4.9000213   -3.8630034 0.0021871156   -4.9000213    1.0370179   439061 
  232000   0.69151294   -4.9051139   -4.9051139   -3.8678469 -0.0022221093   -4.9051139     1.037267   439061 
  233000   0.69134974    -4.909846    -4.909846   -3.8728238 -0.0016479578    -4.909846    1.0370222   439061 
  234000   0.69021134   -4.9128843   -4.9128843   -3.8775696 6.5679497e-05   -4.9128843    1.0353147   439061 
  235000    0.6899499   -4.9169664   -4.9169664   -3.8820439 0.0019619014   -4.9169664    1.0349225   439061 
  236000   0.69048987   -4.9230732   -4.9230732   -3.8873408 0.0030237195   -4.9230732    1.0357324   439061 
  237000   0.68932686   -4.9265848   -4.9265848   -3.8925969 0.0026116881   -4.9265848    1.0339879   439061 
  238000   0.68921423   -4.9306417   -4.9306417   -3.8968227  0.012622206   -4.9306417     1.033819   439061 
  239000   0.68822428   -4.9332299   -4.9332299   -3.9008959 0.0071852145   -4.9332299    1.0323341   439061 
  240000   0.68860457   -4.9379752   -4.9379752   -3.9050707 0.0076104318   -4.9379752    1.0329045   439061 
  241000   0.68625452   -4.9386883   -4.9386883   -3.9093089 0.0078517489   -4.9386883    1.0293794   439061 
  242000   0.68518674    -4.942034    -4.942034   -3.9142563 0.0017779691    -4.942034    1.0277778   439061 
  243000   0.68527735   -4.9465675   -4.9465675   -3.9186538 -0.0021122066   -4.9465675    1.0279137   439061 
  244000     0.684528   -4.9499795   -4.9499795   -3.9231899 0.0005329602   -4.9499795    1.0267897   439061 
  245000    0.6842246   -4.9546075   -4.9546075    -3.928273 0.00091088199   -4.9546075    1.0263346   439061 
  246000   0.68464124   -4.9591216   -4.9591216   -3.9321621 0.0059303984   -4.9591216    1.0269595   439061 
  247000     0.684256    -4.963121    -4.963121   -3.9367393 0.0054875807    -4.963121    1.0263817   439061 
  248000   0.68378402   -4.9673682   -4.9673682   -3.9416945 0.0063725318   -4.9673682    1.0256737   439061 
  249000   0.68232809   -4.9694493   -4.9694493   -3.9459595 0.0082599189   -4.9694493    1.0234898   439061 
  250000   0.68023669   -4.9715645   -4.9715645   -3.9512118  0.001168707   -4.9715645    1.0203527   439061 
  251000   0.67885393   -4.9725382   -4.9725382   -3.9542597 0.0062610826   -4.9725382    1.0182786   439061 
  252000   0.68092857   -4.9801803   -4.9801803   -3.9587897 -0.0022260119   -4.9801803    1.0213905   439061 
  253000   0.67851204   -4.9809658   -4.9809658   -3.9632001 0.0006364329   -4.9809658    1.0177657   439061 
  254000   0.67853572   -4.9860673   -4.9860673   -3.9682661 -0.0018489425   -4.9860673    1.0178013   439061 
  255000   0.67878964    -4.990452    -4.990452   -3.9722699 0.0037329244    -4.990452    1.0181821   439061 
  256000   0.67840237   -4.9959282   -4.9959282    -3.978327 -0.00085224413   -4.9959282    1.0176012   439061 
  257000   0.67799235   -4.9997141   -4.9997141   -3.9827279 0.0052696746   -4.9997141    1.0169862   439061 
  258000    0.6772464   -5.0026342   -5.0026342   -3.9867669 0.0051221293   -5.0026342    1.0158673   439061 
  259000   0.67730662   -5.0073382   -5.0073382   -3.9913806 -0.00096703161   -5.0073382    1.0159576   439061 
  260000   0.67497317   -5.0081466   -5.0081466   -3.9956891 0.00064873873   -5.0081466    1.0124574   439061 
  261000   0.67442559   -5.0120601   -5.0120601    -4.000424 -0.006214418   -5.0120601    1.0116361   439061 
  262000   0.67276747   -5.0135453   -5.0135453   -4.0043964 -0.00034797787   -5.0135453    1.0091489   439061 
  263000   0.67359262   -5.0191166   -5.0191166   -4.0087299 -0.0035439787   -5.0191166    1.0103866   439061 
  264000   0.67267273   -5.0221693   -5.0221693   -4.0131625 9.3196761e-05   -5.0221693    1.0090068   439061 
  265000   0.67223005   -5.0253982   -5.0253982   -4.0170555 0.0058048358   -5.0253982    1.0083428   439061 
  266000   0.67280602   -5.0302486   -5.0302486   -4.0210418 -0.0033240973   -5.0302486    1.0092067   439061 
  267000   0.67051108   -5.0313929   -5.0313929   -4.0256286 0.0031975372   -5.0313929    1.0057643   439061 
  268000   0.67042496   -5.0357708   -5.0357708   -4.0301356 -0.0031986234   -5.0357708    1.0056352   439061 
  269000   0.67018029   -5.0388371   -5.0388371    -4.033569 -0.0036728168   -5.0388371    1.0052681   439061 
  270000   0.66923351   -5.0418419   -5.0418419   -4.0379939 -0.0051434441   -5.0418419     1.003848   439061 
  271000   0.66933119   -5.0463684   -5.0463684   -4.0423739 -0.0023729713   -5.0463684    1.0039945   439061 
  272000   0.66811493   -5.0485636   -5.0485636   -4.0463935 -0.0065837682   -5.0485636    1.0021701   439061 
  273000   0.66894986   -5.0528644   -5.0528644   -4.0494419 -0.0037622838   -5.0528644    1.0034225   439061 
  274000   0.66874863   -5.0573991   -5.0573991   -4.0542784 -0.0030975968   -5.0573991    1.0031207   439061 
  275000    0.6687167   -5.0622668   -5.0622668   -4.0591941 -0.0035111881   -5.0622668    1.0030728   439061 
  276000   0.66698763   -5.0636889   -5.0636889   -4.0632097   0.00272907   -5.0636889    1.0004792   439061 
  277000   0.66516813   -5.0653442   -5.0653442   -4.0675943 0.0021096925   -5.0653442   0.99774992   439061 
  278000   0.66600451   -5.0702332   -5.0702332   -4.0712287 -0.0014653474   -5.0702332    0.9990045   439061 
  279000   0.66480988   -5.0731332   -5.0731332   -4.0759206 -0.0030851736   -5.0731332   0.99721254   439061 
  280000   0.66425352   -5.0769925   -5.0769925   -4.0806145 -0.0070052805   -5.0769925   0.99637801   439061 
  281000   0.66374581   -5.0807231   -5.0807231   -4.0851067 -0.0087420657   -5.0807231   0.99561645   439061 
  282000   0.66398829   -5.0850205   -5.0850205   -4.0890404 -0.0095674966   -5.0850205   0.99598016   439061 
  283000   0.66302846   -5.0875735   -5.0875735   -4.0930331 -0.0046342183   -5.0875735   0.99454043   439061 
  284000   0.66137124   -5.0896267   -5.0896267   -4.0975721 -0.0034976036   -5.0896267   0.99205461   439061 
  285000   0.66160678   -5.0933811   -5.0933811   -4.1009732 -0.0042023168   -5.0933811   0.99240792   439061 
  286000    0.6618118   -5.0972483   -5.0972483   -4.1045328 -0.0077416317   -5.0972483   0.99271544   439061 
  287000   0.66104975   -5.1003524   -5.1003524     -4.10878 -0.0049384157   -5.1003524   0.99157237   439061 
  288000   0.66024385   -5.1037116   -5.1037116   -4.1133481 -0.0070280753   -5.1037116   0.99036353   439061 
  289000   0.65894132   -5.1066737   -5.1066737    -4.118264 -0.0061684551   -5.1066737   0.98840973   439061 
  290000   0.65850907   -5.1105239   -5.1105239   -4.1227625 -0.0094322234   -5.1105239   0.98776136   439061 
  291000   0.65772846   -5.1124618   -5.1124618   -4.1258714 -0.0044999939   -5.1124618   0.98659045   439061 
  292000   0.65661909   -5.1151934   -5.1151934    -4.130267 -0.0026605628   -5.1151934   0.98492639   439061 
  293000   0.65719006   -5.1197663   -5.1197663   -4.1339835 -0.0053757421   -5.1197663   0.98578284   439061 
  294000   0.65697531   -5.1234765   -5.1234765   -4.1380157 -0.0037028768   -5.1234765   0.98546071   439061 
  295000   0.65579985   -5.1256251   -5.1256251   -4.1419275 -0.0042239189   -5.1256251   0.98369754   439061 
  296000   0.65595582   -5.1293771   -5.1293771   -4.1454457 -0.0031980776   -5.1293771   0.98393148   439061 
  297000   0.65535234   -5.1325273   -5.1325273    -4.149501 -0.0041246768   -5.1325273   0.98302628   439061 
  298000   0.65467925   -5.1353542   -5.1353542   -4.1533376 -0.0055999207   -5.1353542   0.98201664   439061 
  299000   0.65379772   -5.1384034   -5.1384034   -4.1577091 -0.010209694   -5.1384034   0.98069435   439061 
  300000   0.65434784   -5.1430011   -5.1430011   -4.1614816 -0.0091164819   -5.1430011   0.98151953   439061 
  301000   0.65297729   -5.1452804   -5.1452804   -4.1658167 -0.007178182   -5.1452804   0.97946371   439061 
  302000   0.65385347   -5.1497991   -5.1497991   -4.1690211 -0.0092889657   -5.1497991   0.98077797   439061 
  303000   0.65287922   -5.1523404   -5.1523404   -4.1730238 -0.0034170044   -5.1523404   0.97931659   439061 
  304000   0.65307273   -5.1563983   -5.1563983   -4.1767915 -0.0082057966   -5.1563983   0.97960687   439061 
  305000   0.65187572   -5.1585421   -5.1585421   -4.1807307 -0.0099154527   -5.1585421   0.97781136   439061 
  306000   0.65080625   -5.1605302   -5.1605302    -4.184323 -0.012218109   -5.1605302   0.97620715   439061 
  307000   0.64986781   -5.1640709   -5.1640709   -4.1892714  -0.01302458   -5.1640709   0.97479949   439061 
  308000   0.64857039   -5.1663283   -5.1663283   -4.1934749  -0.01341419   -5.1663283   0.97285336   439061 
  309000    0.6484064     -5.16994     -5.16994   -4.1973326 -0.010146825     -5.16994   0.97260738   439061 
  310000   0.64925058   -5.1751141   -5.1751141   -4.2012405 -0.0054549843   -5.1751141   0.97387365   439061 
  311000   0.64875778   -5.1792324   -5.1792324    -4.206098 -0.006933091   -5.1792324   0.97313445   439061 
  312000   0.64953024   -5.1827798   -5.1827798   -4.2084867 -0.0069368504   -5.1827798   0.97429314   439061 
  313000   0.64939461   -5.1861933   -5.1861933   -4.2121036 -0.0066609457   -5.1861933    0.9740897   439061 
  314000   0.64777918   -5.1881322   -5.1881322   -4.2164657 -0.0079451539   -5.1881322   0.97166656   439061 
  315000   0.64644023   -5.1908089   -5.1908089   -4.2211507 -0.014021023   -5.1908089   0.96965813   439061 
  316000   0.64663483   -5.1947458   -5.1947458   -4.2247957 -0.017657964   -5.1947458   0.96995004   439061 
  317000   0.64549235   -5.1971189   -5.1971189   -4.2288826  -0.01609333   -5.1971189   0.96823633   439061 
  318000   0.64472011   -5.2001924   -5.2001924   -4.2331144 -0.017244007   -5.2001924   0.96707797   439061 
  319000   0.64486903   -5.2043014   -5.2043014   -4.2370001 -0.012990365   -5.2043014   0.96730133   439061 
  320000   0.64494537   -5.2077166   -5.2077166   -4.2403008 -0.0098987714   -5.2077166   0.96741586   439061 
  321000   0.64451997   -5.2108644   -5.2108644   -4.2440867 -0.0031255872   -5.2108644   0.96677775   439061 
  322000   0.64474807   -5.2151238   -5.2151238   -4.2480039 -0.0068835629   -5.2151238    0.9671199   439061 
  323000   0.64326552   -5.2176845   -5.2176845   -4.2527885 -0.0095337176   -5.2176845   0.96489608   439061 
  324000   0.64331394   -5.2213187   -5.2213187     -4.25635 -0.018519339   -5.2213187   0.96496871   439061 
  325000   0.64247085   -5.2229928   -5.2229928   -4.2592888 -0.017087183   -5.2229928   0.96370408   439061 
  326000   0.64168821   -5.2262255   -5.2262255   -4.2636954 -0.021564182   -5.2262255   0.96253012   439061 
  327000   0.64072871   -5.2288808   -5.2288808   -4.2677899 -0.017288051   -5.2288808   0.96109088   439061 
  328000   0.64076251   -5.2314074   -5.2314074   -4.2702659 -0.0079369948   -5.2314074   0.96114157   439061 
  329000   0.64187727   -5.2369383   -5.2369383   -4.2741246 -0.0094047382   -5.2369383   0.96281371   439061 
  330000   0.64118428   -5.2401149   -5.2401149   -4.2783406 -0.0070696926   -5.2401149   0.96177424   439061 
  331000   0.63938235   -5.2411154   -5.2411154    -4.282044 -0.012249346   -5.2411154   0.95907133   439061 
  332000    0.6400225   -5.2449805   -5.2449805   -4.2849489 -0.013125523   -5.2449805   0.96003157   439061 
  333000   0.63915041   -5.2479998   -5.2479998   -4.2892764 -0.020694033   -5.2479998   0.95872343   439061 
  334000   0.63757999   -5.2484181   -5.2484181   -4.2920503 -0.021222928   -5.2484181   0.95636781   439061 
  335000   0.63831113   -5.2531886   -5.2531886   -4.2957241 -0.020945176   -5.2531886   0.95746452   439061 
  336000    0.6374647   -5.2547193   -5.2547193   -4.2985245 -0.0089163622   -5.2547193   0.95619488   439061 
  337000   0.63748934   -5.2593526   -5.2593526   -4.3031208 -0.0084510026   -5.2593526   0.95623184   439061 
  338000   0.63773524   -5.2645555   -5.2645555   -4.3079548 -0.0076706467   -5.2645555   0.95660069   439061 
  339000   0.63676789   -5.2667478   -5.2667478   -4.3115981 -0.008606543   -5.2667478   0.95514966   439061 
  340000   0.63647328   -5.2687383   -5.2687383   -4.3140305 -0.014172684   -5.2687383   0.95470775   439061 
  341000   0.63514067   -5.2705348   -5.2705348    -4.317826 -0.019420238   -5.2705348   0.95270883   439061 
  342000   0.63407888   -5.2720485   -5.2720485   -4.3209324 -0.020553703   -5.2720485   0.95111616   439061 
  343000   0.63410908   -5.2757995   -5.2757995   -4.3246381 -0.021623404   -5.2757995   0.95116146   439061 
  344000    0.6349461   -5.2800132   -5.2800132   -4.3275962  -0.01816341   -5.2800132   0.95241698   439061 
  345000   0.63372573   -5.2832501   -5.2832501   -4.3326637 -0.013749846   -5.2832501   0.95058642   439061 
  346000   0.63355763   -5.2869324   -5.2869324   -4.3365982 -0.013269572   -5.2869324   0.95033428   439061 
  347000   0.63378965   -5.2913337   -5.2913337   -4.3406514 -0.015876688   -5.2913337   0.95068232   439061 
  348000   0.63321949   -5.2936722   -5.2936722   -4.3438451 -0.012761834   -5.2936722   0.94982707   439061 
  349000   0.63229801   -5.2958602   -5.2958602   -4.3474154 -0.014831873   -5.2958602   0.94844485   439061 
  350000   0.63225581   -5.2987503   -5.2987503   -4.3503687 -0.017491482   -5.2987503   0.94838155   439061 
  351000   0.63050536   -5.3004761   -5.3004761   -4.3547203 -0.022320853   -5.3004761   0.94575588   439061 
  352000   0.62949791   -5.3031212   -5.3031212   -4.3588765 -0.024134865   -5.3031212   0.94424471   439061 
  353000   0.62977302   -5.3067685   -5.3067685   -4.3621111 -0.027200364   -5.3067685   0.94465738   439061 
  354000   0.63060071   -5.3109777   -5.3109777   -4.3650788 -0.025460196   -5.3109777   0.94589891   439061 
  355000   0.63038526   -5.3141071   -5.3141071   -4.3685314 -0.018804522   -5.3141071   0.94557574   439061 
  356000   0.62897776     -5.31636     -5.31636   -4.3728955 -0.013856904     -5.31636   0.94346449   439061 
  357000   0.62825543   -5.3189322   -5.3189322   -4.3765512 -0.018976702   -5.3189322     0.942381   439061 
  358000   0.62830426   -5.3224242   -5.3224242   -4.3799699 -0.021749141   -5.3224242   0.94245425   439061 
  359000   0.62827463   -5.3253485   -5.3253485   -4.3829387 -0.022884187   -5.3253485    0.9424098   439061 
  360000   0.62711598   -5.3271202   -5.3271202   -4.3864484 -0.026031946   -5.3271202   0.94067183   439061 
  361000     0.626192   -5.3294048   -5.3294048   -4.3901189 -0.024241457   -5.3294048   0.93928586   439061 
  362000   0.62521283   -5.3313723   -5.3313723   -4.3935552 -0.020217076   -5.3313723   0.93781711   439061 
  363000    0.6261275   -5.3354135   -5.3354135   -4.3962244 -0.021282281   -5.3354135   0.93918911   439061 
  364000   0.62712863   -5.3394464   -5.3394464   -4.3987556 -0.016459871   -5.3394464   0.94069081   439061 
  365000   0.62594099    -5.341284    -5.341284   -4.4023746 -0.021048789    -5.341284   0.93890935   439061 
  366000   0.62508516    -5.343157    -5.343157   -4.4055314 -0.019074702    -5.343157    0.9376256   439061 
  367000   0.62410311   -5.3447828   -5.3447828   -4.4086303 -0.025237023   -5.3447828   0.93615254   439061 
  368000   0.62386053   -5.3473391   -5.3473391   -4.4115505 -0.029235318   -5.3473391   0.93578866   439061 
  369000   0.62381406   -5.3507122   -5.3507122   -4.4149933 -0.028368114   -5.3507122   0.93571897   439061 
  370000   0.62342991   -5.3528988   -5.3528988    -4.417756 -0.025567869   -5.3528988   0.93514273   439061 
  371000   0.62393458   -5.3581727   -5.3581727   -4.4222729 -0.024190712   -5.3581727   0.93589974   439061 
  372000   0.62301653   -5.3604138   -5.3604138   -4.4258912 -0.020220201   -5.3604138   0.93452267   439061 
  373000   0.62294532   -5.3635268   -5.3635268    -4.429111 -0.018831691   -5.3635268   0.93441585   439061 
  374000   0.62265173    -5.365902    -5.365902   -4.4319265 -0.020189834    -5.365902   0.93397547   439061 
  375000   0.62197961   -5.3685152   -5.3685152    -4.435548  -0.02371156   -5.3685152   0.93296729   439061 
  376000   0.62080347   -5.3697668   -5.3697668   -4.4385637 -0.028486943   -5.3697668   0.93120308   439061 
  377000   0.62063643   -5.3731628   -5.3731628   -4.4422102 -0.032236444   -5.3731628   0.93095253   439061 
  378000   0.62033644   -5.3754393   -5.3754393   -4.4449367 -0.029977372   -5.3754393   0.93050254   439061 
  379000   0.62070987   -5.3795317   -5.3795317   -4.4484691  -0.02774775   -5.3795317   0.93106268   439061 
  380000   0.62045032   -5.3824896   -5.3824896   -4.4518162 -0.025753142   -5.3824896   0.93067336   439061 
  381000   0.61989956   -5.3858023   -5.3858023   -4.4559551  -0.02482316   -5.3858023   0.92984722   439061 
  382000   0.61980718    -5.388473    -5.388473   -4.4587643 -0.021158688    -5.388473   0.92970866   439061 
  383000   0.62052744   -5.3928159   -5.3928159   -4.4620269  -0.02893572   -5.3928159   0.93078903   439061 
  384000   0.61958019   -5.3950342   -5.3950342    -4.465666 -0.033704911   -5.3950342   0.92936817   439061 
  385000   0.61812664   -5.3965185   -5.3965185   -4.4693307 -0.034340038   -5.3965185   0.92718785   439061 
  386000    0.6175431   -5.3988766   -5.3988766   -4.4725641  -0.03624716   -5.3988766   0.92631254   439061 
  387000   0.61742702   -5.4026306   -5.4026306   -4.4764922 -0.038785436   -5.4026306   0.92613843   439061 
  388000   0.61755078   -5.4069139   -5.4069139   -4.4805898 -0.035717937   -5.4069139   0.92632406   439061 
  389000   0.61725704    -5.408865    -5.408865   -4.4829815 -0.028967095    -5.408865   0.92588345   439061 
  390000   0.61814834   -5.4123822   -5.4123822   -4.4851618 -0.028107122   -5.4123822   0.92722039   439061 
  391000   0.61785963   -5.4158016   -5.4158016   -4.4890143 -0.030777739   -5.4158016   0.92678733   439061 
  392000   0.61743037   -5.4184649   -5.4184649   -4.4923215 -0.034288366   -5.4184649   0.92614344   439061 
  393000   0.61599179   -5.4201686   -5.4201686    -4.496183 -0.037670994   -5.4201686   0.92398558   439061 
  394000    0.6166846   -5.4239105   -5.4239105   -4.4988857 -0.039512937   -5.4239105    0.9250248   439061 
  395000   0.61666955   -5.4273558   -5.4273558   -4.5023535 -0.039856671   -5.4273558   0.92500222   439061 
  396000   0.61614222   -5.4291875   -5.4291875   -4.5049763 -0.037049878   -5.4291875   0.92421122   439061 
  397000    0.6152574   -5.4321153   -5.4321153   -4.5092313 -0.032920907   -5.4321153   0.92288399   439061 
  398000   0.61551169   -5.4364093   -5.4364093   -4.5131439 -0.033222396   -5.4364093   0.92326543   439061 
  399000   0.61502211   -5.4392931   -5.4392931    -4.516762 -0.030813975   -5.4392931   0.92253106   439061 
  400000   0.61445429   -5.4424356   -5.4424356   -4.5207563 -0.035724166   -5.4424356   0.92167933   439061 
  401000   0.61384413    -5.445132    -5.445132    -4.524368 -0.038833536    -5.445132   0.92076409   439061 
  402000    0.6131982   -5.4472288   -5.4472288   -4.5274336 -0.038714606   -5.4472288   0.91979521   439061 
  403000   0.61336568   -5.4502051   -5.4502051   -4.5301587 -0.040478421   -5.4502051   0.92004643   439061 
  404000   0.61267419   -5.4522682   -5.4522682    -4.533259 -0.039589258   -5.4522682   0.91900919   439061 
  405000   0.61249107   -5.4553078   -5.4553078   -4.5365733 -0.040561893   -5.4553078   0.91873451   439061 
  406000   0.61287305   -5.4580083   -5.4580083   -4.5387008 -0.040444688   -5.4580083   0.91930748   439061 
  407000   0.61384879   -5.4625659   -5.4625659   -4.5417949 -0.037580449   -5.4625659   0.92077108   439061 
  408000   0.61179388   -5.4631101   -5.4631101   -4.5454214 -0.038443798   -5.4631101   0.91768874   439061 
  409000   0.61109636   -5.4655352   -5.4655352   -4.5488928 -0.042744729   -5.4655352   0.91664246   439061 
  410000   0.61058187   -5.4671335   -5.4671335   -4.5512628 -0.041125435   -5.4671335   0.91587071   439061 
  411000   0.61041951   -5.4710384   -5.4710384   -4.5554113 -0.045380141   -5.4710384   0.91562718   439061 
  412000   0.61035697    -5.474449    -5.474449   -4.5589157  -0.04496664    -5.474449   0.91553337   439061 
  413000   0.61011366   -5.4768274   -5.4768274    -4.561659 -0.043386417   -5.4768274   0.91516841   439061 
  414000   0.61063965   -5.4808489   -5.4808489   -4.5648915 -0.041060163   -5.4808489    0.9159574   439061 
  415000   0.60869256   -5.4816584   -5.4816584   -4.5686217 -0.040257201   -5.4816584   0.91303676   439061 
  416000   0.60963581   -5.4860669   -5.4860669   -4.5716153 -0.042212902   -5.4860669   0.91445163   439061 
  417000    0.6095488     -5.48956     -5.48956   -4.5752389 -0.044970234     -5.48956   0.91432111   439061 
  418000   0.60797192   -5.4898776   -5.4898776   -4.5779218 -0.042477749   -5.4898776    0.9119558   439061 
  419000   0.60842485    -5.493089    -5.493089   -4.5804538 -0.044407092    -5.493089   0.91263519   439061 
  420000   0.60704036   -5.4950018   -5.4950018   -4.5844434 -0.042893588   -5.4950018   0.91055847   439061 
  421000   0.60793604   -5.4992108   -5.4992108   -4.5873088 -0.045900658   -5.4992108   0.91190199   439061 
  422000   0.60839743   -5.5033052   -5.5033052   -4.5907112 -0.047070558   -5.5033052   0.91259407   439061 
  423000   0.60655712   -5.5049413   -5.5049413   -4.5951077 -0.043715288   -5.5049413   0.90983361   439061 
  424000   0.60819234   -5.5106293   -5.5106293   -4.5983429 -0.045314002   -5.5106293   0.91228644   439061 
  425000   0.60777414   -5.5130741   -5.5130741    -4.601415  -0.04102869   -5.5130741   0.91165914   439061 
  426000   0.60684578   -5.5136177   -5.5136177   -4.6033511 -0.039481861   -5.5136177    0.9102666   439061 
  427000   0.60585815   -5.5158461   -5.5158461   -4.6070609 -0.041050552   -5.5158461   0.90878516   439061 
  428000   0.60541447    -5.518891    -5.518891   -4.6107714  -0.04813261    -5.518891   0.90811964   439061 
  429000   0.60487638   -5.5209151   -5.5209151   -4.6136026 -0.049070873   -5.5209151   0.90731251   439061 
  430000   0.60446293   -5.5237494   -5.5237494    -4.617057 -0.050726734   -5.5237494   0.90669234   439061 
  431000   0.60521671   -5.5280761   -5.5280761   -4.6202531 -0.048648375   -5.5280761   0.90782299   439061 
  432000   0.60575966   -5.5310605   -5.5310605   -4.6224231 -0.045661365   -5.5310605   0.90863742   439061 
  433000   0.60444535   -5.5332233   -5.5332233   -4.6265573 -0.042950937   -5.5332233   0.90666596   439061 
  434000   0.60433051   -5.5366497   -5.5366497    -4.630156 -0.045586566   -5.5366497    0.9064937   439061 
  435000   0.60347359   -5.5381294   -5.5381294   -4.6329211 -0.043835225   -5.5381294   0.90520832   439061 
  436000   0.60444232   -5.5425074   -5.5425074    -4.635846 -0.049387691   -5.5425074   0.90666141   439061 
  437000    0.6025238   -5.5430966   -5.5430966    -4.639313  -0.05221941   -5.5430966   0.90378364   439061 
  438000   0.60236262   -5.5460914   -5.5460914   -4.6425495  -0.05125359   -5.5460914   0.90354188   439061 
  439000   0.60181728   -5.5487174   -5.5487174   -4.6459935 -0.050779125   -5.5487174   0.90272387   439061 
  440000   0.60206343   -5.5523165   -5.5523165   -4.6492234 -0.047843307   -5.5523165   0.90309309   439061 
  441000   0.60124563   -5.5544853   -5.5544853   -4.6526189 -0.046830467   -5.5544853   0.90186639   439061 
  442000   0.60106717   -5.5567377   -5.5567377    -4.655139 -0.047197986   -5.5567377    0.9015987   439061 
  443000   0.60072404   -5.5596814   -5.5596814   -4.6585974 -0.050524815   -5.5596814   0.90108401   439061 
  444000   0.60026323   -5.5615784   -5.5615784   -4.6611856 -0.052508812   -5.5615784    0.9003928   439061 
  445000   0.59883465   -5.5620795   -5.5620795   -4.6638296 -0.050554199   -5.5620795   0.89824992   439061 
  446000   0.59990826    -5.566773    -5.566773   -4.6669127 -0.054260053    -5.566773   0.89986034   439061 
  447000   0.59965469   -5.5698613   -5.5698613   -4.6703814  -0.05065706   -5.5698613   0.89947998   439061 
  448000   0.59956772   -5.5726293   -5.5726293   -4.6732798 -0.049737767   -5.5726293   0.89934953   439061 
  449000   0.59883964   -5.5743502   -5.5743502   -4.6760928 -0.049552039   -5.5743502   0.89825741   439061 
  450000   0.59971226   -5.5777636   -5.5777636   -4.6781973 -0.051569178   -5.5777636   0.89956634   439061 
  451000   0.59746581   -5.5784012   -5.5784012   -4.6822046   -0.0510027   -5.5784012   0.89619667   439061 
  452000   0.59792867   -5.5813914   -5.5813914   -4.6845004 -0.055582337   -5.5813914   0.89689096   439061 
  453000   0.59822815   -5.5845966   -5.5845966   -4.6872564 -0.055506431   -5.5845966   0.89734018   439061 
  454000   0.59687946   -5.5861631   -5.5861631    -4.690846 -0.056279821   -5.5861631   0.89531715   439061 
  455000   0.59797648   -5.5919918   -5.5919918   -4.6950291 -0.052795387   -5.5919918   0.89696267   439061 
  456000   0.59644209   -5.5929755   -5.5929755   -4.6983144 -0.052900184   -5.5929755    0.8946611   439061 
  457000   0.59675852   -5.5966275   -5.5966275   -4.7014918 -0.052511514   -5.5966275   0.89513574   439061 
  458000   0.59646647   -5.5991449   -5.5991449   -4.7044473 -0.056499304   -5.5991449   0.89469766   439061 
  459000   0.59620151    -5.600658    -5.600658   -4.7063578 -0.056789147    -5.600658   0.89430022   439061 
  460000   0.59630614   -5.6022527   -5.6022527   -4.7077955 -0.060244629   -5.6022527   0.89445718   439061 
  461000   0.59541077   -5.6045233   -5.6045233   -4.7114091 -0.058119276   -5.6045233   0.89311412   439061 
  462000   0.59437273   -5.6053606   -5.6053606   -4.7138036 -0.053176599   -5.6053606   0.89155707   439061 
  463000   0.59554324   -5.6101453   -5.6101453   -4.7168325 -0.057929049   -5.6101453   0.89331283   439061 
  464000   0.59533612   -5.6129531   -5.6129531   -4.7199509 -0.058106343   -5.6129531   0.89300214   439061 
  465000   0.59466163   -5.6157057   -5.6157057   -4.7237153 -0.059885286   -5.6157057   0.89199041   439061 
  466000   0.59375147   -5.6176373   -5.6176373   -4.7270121  -0.05823682   -5.6176373   0.89062518   439061 
  467000   0.59457796   -5.6212482   -5.6212482   -4.7293833 -0.059087032   -5.6212482   0.89186491   439061 
  468000   0.59274378   -5.6219586   -5.6219586    -4.732845 -0.059036774   -5.6219586   0.88911364   439061 
  469000   0.59312558   -5.6257581   -5.6257581   -4.7360717 -0.059704596   -5.6257581   0.88968635   439061 
  470000   0.59198593    -5.626603    -5.626603   -4.7386261 -0.057223987    -5.626603   0.88797687   439061 
  471000   0.59167644   -5.6295835   -5.6295835   -4.7420708 -0.057991966   -5.6295835   0.88751264   439061 
  472000   0.59122266   -5.6315905   -5.6315905   -4.7447585 -0.057670364   -5.6315905   0.88683196   439061 
  473000   0.59293723   -5.6358964   -5.6358964   -4.7464926  -0.06264605   -5.6358964   0.88940382   439061 
  474000   0.59104128   -5.6368555   -5.6368555   -4.7502956 -0.061726571   -5.6368555    0.8865599   439061 
  475000   0.59065185   -5.6387239   -5.6387239   -4.7527482 -0.059204269   -5.6387239   0.88597575   439061 
  476000   0.58953363   -5.6397286   -5.6397286   -4.7554301 -0.053016205   -5.6397286   0.88429843   439061 
  477000   0.58977571    -5.643235    -5.643235   -4.7585734 -0.061885407    -5.643235   0.88466155   439061 
  478000   0.58942666   -5.6457347   -5.6457347   -4.7615967  -0.06088252   -5.6457347   0.88413798   439061 
  479000   0.59021806   -5.6493901   -5.6493901    -4.764065 -0.062684616   -5.6493901   0.88532507   439061 
  480000   0.58852927   -5.6500465   -5.6500465   -4.7672546 -0.058045048   -5.6500465    0.8827919   439061 
  481000   0.58785113   -5.6524984   -5.6524984   -4.7707237 -0.064008261   -5.6524984   0.88177469   439061 
  482000   0.58747445   -5.6543164   -5.6543164   -4.7731067 -0.058465614   -5.6543164   0.88120967   439061 
  483000   0.58919074   -5.6585231   -5.6585231    -4.774739 -0.061492689   -5.6585231    0.8837841   439061 
  484000   0.58715341   -5.6586327   -5.6586327   -4.7779046 -0.056894119   -5.6586327    0.8807281   439061 
  485000   0.58781245   -5.6620106   -5.6620106    -4.780294 -0.060555014   -5.6620106   0.88171666   439061 
  486000   0.58784754   -5.6651907   -5.6651907   -4.7834213 -0.059604259   -5.6651907   0.88176931   439061 
  487000    0.5871643   -5.6669773   -5.6669773   -4.7862329 -0.065307469   -5.6669773   0.88074445   439061 
  488000   0.58667327   -5.6690748   -5.6690748   -4.7890669 -0.064875075   -5.6690748    0.8800079   439061 
  489000   0.58676511   -5.6716126   -5.6716126    -4.791467 -0.063416391   -5.6716126   0.88014566   439061 
  490000   0.58659873   -5.6745706   -5.6745706   -4.7946745 -0.066068765   -5.6745706   0.87989609   439061 
  491000    0.5856714   -5.6761951   -5.6761951   -4.7976899 -0.066471114   -5.6761951   0.87850511   439061 
  492000   0.58612692   -5.6800124   -5.6800124    -4.800824 -0.065558572   -5.6800124   0.87918837   439061 
  493000   0.58569522   -5.6820621   -5.6820621   -4.8035213  -0.06518652   -5.6820621   0.87854084   439061 
  494000   0.58443318   -5.6837204   -5.6837204   -4.8070727 -0.067968687   -5.6837204   0.87664777   439061 
  495000   0.58408032   -5.6853911   -5.6853911   -4.8092726 -0.063467255   -5.6853911   0.87611849   439061 
  496000     0.584136   -5.6880817   -5.6880817   -4.8118797 -0.063933659   -5.6880817     0.876202   439061 
  497000   0.58380116   -5.6902681   -5.6902681   -4.8145683 -0.061973489   -5.6902681   0.87569975   439061 
  498000   0.58617996   -5.6959394   -5.6959394   -4.8166714 -0.065890484   -5.6959394   0.87926794   439061 
  499000    0.5848113   -5.6963436   -5.6963436   -4.8191287 -0.061195628   -5.6963436   0.87721495   439061 
  500000   0.58406055   -5.6980243   -5.6980243   -4.8219354 -0.068199482   -5.6980243   0.87608882   439061 
  501000   0.58281057   -5.6988126   -5.6988126   -4.8245987 -0.066665904   -5.6988126   0.87421386   439061 
  502000    0.5836157   -5.7018954   -5.7018954   -4.8264739 -0.068896304   -5.7018954   0.87542155   439061 
  503000   0.58296494    -5.704256    -5.704256   -4.8298106  -0.06739274    -5.704256   0.87444542   439061 
  504000   0.58299217   -5.7073529   -5.7073529   -4.8328666 -0.066892861   -5.7073529   0.87448626   439061 
  505000   0.58240398   -5.7078866   -5.7078866   -4.8342826  -0.05994096   -5.7078866   0.87360398   439061 
  506000   0.58222372   -5.7102599   -5.7102599   -4.8369263 -0.060613635   -5.7102599   0.87333359   439061 
  507000   0.58225283   -5.7135007   -5.7135007   -4.8401235 -0.068036972   -5.7135007   0.87337725   439061 
  508000   0.58147579   -5.7153405   -5.7153405   -4.8431288 -0.070142993   -5.7153405    0.8722117   439061 
  509000   0.58004301   -5.7167822   -5.7167822   -4.8467196 -0.069649493   -5.7167822   0.87006254   439061 
  510000   0.58216198   -5.7219121   -5.7219121   -4.8486711    -0.069187   -5.7219121   0.87324098   439061 
  511000   0.58034694   -5.7232853   -5.7232853   -4.8527669 -0.066247314   -5.7232853   0.87051843   439061 
  512000   0.58074356   -5.7266706   -5.7266706   -4.8555572 -0.063688274   -5.7266706   0.87111336   439061 
  513000   0.58084303   -5.7293036   -5.7293036    -4.858041 -0.065698941   -5.7293036   0.87126257   439061 
  514000   0.58126148   -5.7317201   -5.7317201   -4.8598298 -0.064276088   -5.7317201   0.87189024   439061 
  515000   0.58033896   -5.7334943   -5.7334943   -4.8629879 -0.067615065   -5.7334943   0.87050645   439061 
  516000    0.5799253   -5.7344138   -5.7344138   -4.8645279 -0.065670041   -5.7344138   0.86988597   439061 
  517000   0.57966261    -5.736979    -5.736979   -4.8674871 -0.070068094    -5.736979   0.86949194   439061 
  518000   0.58082568   -5.7420412   -5.7420412   -4.8708047 -0.073976983   -5.7420412   0.87123653   439061 
  519000   0.57923466   -5.7430645   -5.7430645   -4.8742145  -0.07198234   -5.7430645   0.86885001   439061 
  520000    0.5796882   -5.7469954   -5.7469954   -4.8774651 -0.072441921   -5.7469954   0.86953033   439061 
  521000    0.5795607   -5.7496193   -5.7496193   -4.8802802 -0.069284575   -5.7496193   0.86933907   439061 
  522000   0.57911877   -5.7511435   -5.7511435   -4.8824673 -0.071003142   -5.7511435   0.86867618   439061 
  523000   0.57811132   -5.7524946   -5.7524946   -4.8853296 -0.069207307   -5.7524946     0.867165   439061 
  524000   0.57743144   -5.7541878   -5.7541878   -4.8880426 -0.070594426   -5.7541878   0.86614518   439061 
  525000   0.57808475   -5.7562715   -5.7562715   -4.8891464 -0.074005329   -5.7562715   0.86712514   439061 
  526000   0.57744425   -5.7579737   -5.7579737   -4.8918093 -0.072294189   -5.7579737    0.8661644   439061 
  527000   0.57769916   -5.7613743   -5.7613743   -4.8948275 -0.074681809   -5.7613743   0.86654677   439061 
  528000    0.5772971   -5.7632222   -5.7632222   -4.8972786 -0.072527237   -5.7632222   0.86594367   439061 
  529000   0.57662652     -5.76499     -5.76499   -4.9000522 -0.073778285     -5.76499   0.86493781   439061 
  530000   0.57776197   -5.7686868   -5.7686868   -4.9020458 -0.072811183   -5.7686868   0.86664098   439061 
  531000   0.57663984   -5.7690285   -5.7690285   -4.9040707 -0.071249903   -5.7690285    0.8649578   439061 
  532000   0.57630807   -5.7700702   -5.7700702   -4.9056101 -0.070771992   -5.7700702   0.86446013   439061 
  533000   0.57722203   -5.7745153   -5.7745153   -4.9086843   -0.0690767   -5.7745153   0.86583107   439061 
  534000   0.57501408   -5.7745304   -5.7745304   -4.9120112 -0.067940961   -5.7745304   0.86251915   439061 
  535000    0.5743671   -5.7758659   -5.7758659   -4.9143172 -0.066877375   -5.7758659   0.86154869   439061 
  536000   0.57533379   -5.7800809   -5.7800809   -4.9170822 -0.072800778   -5.7800809   0.86299872   439061 
  537000   0.57580139   -5.7832008   -5.7832008   -4.9195007 -0.073674437   -5.7832008   0.86370012   439061 
  538000   0.57473251   -5.7843508   -5.7843508    -4.922254   -0.0723701   -5.7843508    0.8620968   439061 
  539000   0.57406155   -5.7861997   -5.7861997   -4.9251094 -0.071705574   -5.7861997   0.86109037   439061 
  540000   0.57477586    -5.790541    -5.790541   -4.9283792 -0.075160336    -5.790541   0.86216182   439061 
  541000   0.57426537   -5.7921486   -5.7921486   -4.9307525 -0.073253679   -5.7921486   0.86139609   439061 
  542000   0.57261496   -5.7922312   -5.7922312   -4.9333108 -0.069295198   -5.7922312   0.85892049   439061 
  543000   0.57312759    -5.795363    -5.795363   -4.9356735 -0.072862461    -5.795363   0.85968943   439061 
  544000   0.57414304   -5.7983475   -5.7983475   -4.9371348 -0.076822891   -5.7983475    0.8612126   439061 
  545000   0.57255447   -5.7981618   -5.7981618    -4.939332 -0.072315692   -5.7981618   0.85882976   439061 
  546000   0.57250604   -5.8002673   -5.8002673   -4.9415102 -0.074492172   -5.8002673   0.85875711   439061 
  547000   0.57268325   -5.8035595   -5.8035595   -4.9445366 -0.078047991   -5.8035595   0.85902292   439061 
  548000   0.57195504   -5.8055479   -5.8055479   -4.9476173 -0.076782717   -5.8055479   0.85793061   439061 
  549000   0.57181144   -5.8086954   -5.8086954   -4.9509802 -0.077954666   -5.8086954   0.85771521   439061 
  550000   0.57175183   -5.8108717   -5.8108717   -4.9532459 -0.076518886   -5.8108717   0.85762579   439061 
  551000   0.57116561   -5.8130319   -5.8130319   -4.9562855 -0.075168453   -5.8130319   0.85674646   439061 
  552000   0.57135777   -5.8158483   -5.8158483   -4.9588136 -0.079360017   -5.8158483    0.8570347   439061 
  553000   0.56996624   -5.8163793   -5.8163793   -4.9614319 -0.078357601   -5.8163793   0.85494741   439061 
  554000   0.57007589   -5.8187906   -5.8187906   -4.9636787 -0.077914456   -5.8187906   0.85511189   439061 
  555000   0.56945727   -5.8206054   -5.8206054   -4.9664215 -0.081315561   -5.8206054   0.85418396   439061 
  556000   0.56933142   -5.8216942   -5.8216942   -4.9676991 -0.077804694   -5.8216942   0.85399518   439061 
  557000   0.56906238   -5.8236441   -5.8236441   -4.9700525 -0.074334259   -5.8236441   0.85359163   439061 
  558000   0.56914736   -5.8263127   -5.8263127   -4.9725936 -0.073661608   -5.8263127    0.8537191   439061 
  559000   0.56889805   -5.8287264   -5.8287264   -4.9753812 -0.080571245   -5.8287264   0.85334514   439061 
  560000   0.56764944   -5.8296648   -5.8296648   -4.9781926 -0.078251094   -5.8296648   0.85147222   439061 
  561000   0.56843093   -5.8319316   -5.8319316   -4.9792872  -0.08029007   -5.8319316   0.85264445   439061 
  562000   0.56776417   -5.8335752   -5.8335752   -4.9819309 -0.082346554   -5.8335752   0.85164432   439061 
  563000   0.56876935   -5.8368744   -5.8368744   -4.9837223 -0.085314294   -5.8368744   0.85315208   439061 
  564000   0.56745592   -5.8383229   -5.8383229    -4.987141 -0.082963614   -5.8383229   0.85118195   439061 
  565000   0.56658165   -5.8393038   -5.8393038   -4.9894333 -0.076364604   -5.8393038   0.84987054   439061 
  566000   0.56730142   -5.8419127   -5.8419127   -4.9909625 -0.076071385   -5.8419127   0.85095018   439061 
  567000   0.56740894    -5.844128    -5.844128   -4.9930165  -0.07920442    -5.844128   0.85111146   439061 
  568000   0.56629534   -5.8445251   -5.8445251    -4.995084 -0.080149996   -5.8445251   0.84944108   439061 
  569000   0.56720283   -5.8478221   -5.8478221   -4.9970198 -0.083339149   -5.8478221    0.8508023   439061 
  570000   0.56586331   -5.8487003   -5.8487003   -4.9999073 -0.080241114   -5.8487003   0.84879303   439061 
  571000    0.5669787   -5.8520128   -5.8520128   -5.0015467 -0.080969744   -5.8520128   0.85046612   439061 
  572000   0.56653149   -5.8536788   -5.8536788   -5.0038835 -0.077820607   -5.8536788   0.84979529   439061 
  573000   0.56591145   -5.8559282   -5.8559282   -5.0070629 -0.077230573   -5.8559282   0.84886524   439061 
  574000   0.56535125    -5.856219    -5.856219   -5.0081941 -0.078115726    -5.856219   0.84802494   439061 
  575000   0.56596399   -5.8591689   -5.8591689   -5.0102248 -0.083676268   -5.8591689   0.84894405   439061 
  576000   0.56490313   -5.8601908   -5.8601908    -5.012838 -0.085161424   -5.8601908   0.84735277   439061 
  577000   0.56479802   -5.8610266   -5.8610266   -5.0138315 -0.083192594   -5.8610266    0.8471951   439061 
  578000   0.56410605   -5.8630108   -5.8630108   -5.0168536 -0.082993782   -5.8630108   0.84615714   439061 
  579000   0.56503717   -5.8670514   -5.8670514   -5.0194976 -0.082687286   -5.8670514   0.84755382   439061 
  580000   0.56452337   -5.8684091   -5.8684091    -5.021626 -0.082256886   -5.8684091   0.84678313   439061 
  581000   0.56391999   -5.8698726   -5.8698726   -5.0239946 -0.080575684   -5.8698726   0.84587806   439061 
  582000    0.5632968   -5.8715911   -5.8715911   -5.0266478 -0.083260731   -5.8715911   0.84494328   439061 
  583000   0.56425838   -5.8759025   -5.8759025   -5.0295169 -0.090610491   -5.8759025   0.84638564   439061 
  584000   0.56236388   -5.8748056   -5.8748056   -5.0312617 -0.089434818   -5.8748056    0.8435439   439061 
  585000   0.56195069   -5.8757015   -5.8757015   -5.0327774  -0.08677486   -5.8757015   0.84292411   439061 
  586000   0.56300717   -5.8781269   -5.8781269    -5.033618 -0.084178474   -5.8781269   0.84450884   439061 
  587000   0.56350582   -5.8812979   -5.8812979   -5.0360411 -0.082563505   -5.8812979   0.84525681   439061 
  588000   0.56295561   -5.8834182   -5.8834182   -5.0389867 -0.084839814   -5.8834182    0.8444315   439061 
  589000   0.56235373   -5.8843507   -5.8843507    -5.040822 -0.082060973   -5.8843507   0.84352867   439061 
  590000   0.56274202   -5.8865236   -5.8865236   -5.0424125 -0.085375928   -5.8865236    0.8441111   439061 
  591000   0.56150878   -5.8863273   -5.8863273   -5.0440661 -0.085445098   -5.8863273   0.84226125   439061 
  592000   0.56140038   -5.8887638   -5.8887638   -5.0466651 -0.091209313   -5.8887638   0.84209865   439061 
  593000   0.56127351   -5.8913554   -5.8913554   -5.0494471 -0.087065222   -5.8913554   0.84190835   439061 
  594000   0.56108572   -5.8929074   -5.8929074   -5.0512808 -0.086553207   -5.8929074   0.84162667   439061 
  595000   0.56257301   -5.8961833   -5.8961833   -5.0523257 -0.084434644   -5.8961833   0.84385759   439061 
  596000   0.56218257   -5.8985755   -5.8985755   -5.0553036 -0.083876603   -5.8985755   0.84327193   439061 
  597000   0.56101016   -5.8991239   -5.8991239   -5.0576106 -0.083628966   -5.8991239   0.84151332   439061 
  598000   0.56073114   -5.9001374   -5.9001374   -5.0590426 -0.089065978   -5.9001374   0.84109479   439061 
  599000   0.56006715   -5.9015433   -5.9015433   -5.0614444 -0.091218375   -5.9015433   0.84009882   439061 
  600000   0.56067491   -5.9045962   -5.9045962   -5.0635858 -0.090820029   -5.9045962   0.84101044   439061 
  601000   0.56011171   -5.9054798   -5.9054798   -5.0653141 -0.085565581   -5.9054798   0.84016566   439061 
  602000   0.56026805   -5.9080265   -5.9080265   -5.0676263 -0.084564597   -5.9080265   0.84040016   439061 
  603000   0.55994264   -5.9098272   -5.9098272   -5.0699151 -0.085203705   -5.9098272   0.83991205   439061 
  604000    0.5600232   -5.9123348   -5.9123348    -5.072302 -0.088093042   -5.9123348   0.84003289   439061 
  605000    0.5593284   -5.9127568   -5.9127568   -5.0737662 -0.090364999   -5.9127568   0.83899068   439061 
  606000   0.55927199    -5.914392    -5.914392    -5.075486   -0.0928185    -5.914392   0.83890607   439061 
  607000   0.55991644   -5.9176552   -5.9176552   -5.0777825 -0.094914451   -5.9176552   0.83987275   439061 
  608000   0.55971191   -5.9195104   -5.9195104   -5.0799445 -0.096188989   -5.9195104   0.83956595   439061 
  609000   0.55943022   -5.9201773   -5.9201773   -5.0810339 -0.088175966   -5.9201773   0.83914342   439061 
  610000   0.55954243   -5.9224631   -5.9224631   -5.0831514 -0.083590362   -5.9224631   0.83931173   439061 
  611000    0.5595868    -5.924866    -5.924866   -5.0854877 -0.091116285    -5.924866   0.83937829   439061 
  612000   0.55883303   -5.9253466   -5.9253466    -5.087099 -0.090570412   -5.9253466   0.83824763   439061 
  613000   0.55831091    -5.926428    -5.926428   -5.0889635   -0.0911408    -5.926428   0.83746446   439061 
  614000    0.5578212   -5.9263961   -5.9263961   -5.0896663 -0.093955398   -5.9263961   0.83672989   439061 
  615000   0.55816026   -5.9293558   -5.9293558   -5.0921173 -0.094203001   -5.9293558   0.83723849   439061 
  616000   0.55834938   -5.9313645   -5.9313645   -5.0938424 -0.090106313   -5.9313645   0.83752216   439061 
  617000   0.55802785   -5.9320177   -5.9320177   -5.0949778 -0.084906243   -5.9320177   0.83703987   439061 
  618000   0.55709426    -5.933264    -5.933264   -5.0976245 -0.088384123    -5.933264   0.83563948   439061 
  619000   0.55739717   -5.9362339   -5.9362339   -5.1001401 -0.093156528   -5.9362339   0.83609385   439061 
  620000   0.55808953    -5.939383    -5.939383   -5.1022506 -0.099757526    -5.939383   0.83713238   439061 
  621000   0.55672492   -5.9390276   -5.9390276   -5.1039422 -0.096026287   -5.9390276   0.83508548   439061 
  622000   0.55743675   -5.9418294   -5.9418294   -5.1056761 -0.093687724   -5.9418294   0.83615322   439061 
  623000   0.55789762   -5.9453697   -5.9453697   -5.1085251 -0.092100881   -5.9453697   0.83684453   439061 
  624000   0.55704113   -5.9467144   -5.9467144   -5.1111546 -0.092978948   -5.9467144    0.8355598   439061 
  625000   0.55606366   -5.9481288   -5.9481288   -5.1140352 -0.092980842   -5.9481288   0.83409359   439061 
  626000   0.55596622   -5.9488362   -5.9488362   -5.1148888 -0.092711295   -5.9488362   0.83394744   439061 
  627000   0.55549157   -5.9492604   -5.9492604   -5.1160249 -0.092720529   -5.9492604   0.83323546   439061 
  628000   0.55594866   -5.9513004   -5.9513004   -5.1173793 -0.094103146   -5.9513004   0.83392108   439061 
  629000   0.55626964   -5.9533109   -5.9533109   -5.1189083   -0.0966185   -5.9533109   0.83440257   439061 
  630000   0.55518514   -5.9540144   -5.9540144   -5.1212386 -0.094913324   -5.9540144   0.83277581   439061 
  631000   0.55530622   -5.9567049   -5.9567049   -5.1237475 -0.093742142   -5.9567049   0.83295743   439061 
  632000   0.55682522   -5.9610531   -5.9610531   -5.1258172 -0.093593276   -5.9610531   0.83523592   439061 
  633000   0.55508171   -5.9603069   -5.9603069   -5.1276862 -0.089221115   -5.9603069   0.83262067   439061 
  634000   0.55469204   -5.9618106   -5.9618106   -5.1297744 -0.092916553   -5.9618106   0.83203617   439061 
  635000    0.5551249   -5.9641391   -5.9641391   -5.1314537 -0.095073291   -5.9641391   0.83268546   439061 
  636000   0.55363571   -5.9636883   -5.9636883   -5.1332366 -0.095855101   -5.9636883   0.83045167   439061 
  637000    0.5539357   -5.9662214   -5.9662214   -5.1353198 -0.099940531   -5.9662214   0.83090166   439061 
  638000   0.55534268   -5.9705392   -5.9705392    -5.137527 -0.099364671   -5.9705392   0.83301213   439061 
  639000   0.55403814   -5.9704335   -5.9704335   -5.1393782  -0.09305601   -5.9704335   0.83105531   439061 
  640000   0.55304172   -5.9715976   -5.9715976   -5.1420369 -0.093604395   -5.9715976   0.82956068   439061 
  641000   0.55530731   -5.9750327   -5.9750327   -5.1420736 -0.091888629   -5.9750327   0.83295907   439061 
  642000   0.55391283   -5.9756926   -5.9756926   -5.1448252 -0.097156713   -5.9756926   0.83086736   439061 
  643000   0.55346162   -5.9755879   -5.9755879   -5.1453974 -0.097888922   -5.9755879   0.83019054   439061 
  644000   0.55403794   -5.9784086   -5.9784086   -5.1473536 -0.098393388   -5.9784086   0.83105501   439061 
  645000   0.55358323   -5.9806065   -5.9806065   -5.1502335  -0.10003764   -5.9806065   0.83037296   439061 
  646000    0.5536648   -5.9829915   -5.9829915   -5.1524962  -0.10069116   -5.9829915   0.83049531   439061 
  647000   0.55316243   -5.9844847   -5.9844847   -5.1547429 -0.092960981   -5.9844847   0.82974176   439061 
  648000   0.55314139   -5.9860109   -5.9860109   -5.1563007 -0.094309903   -5.9860109   0.82971019   439061 
  649000   0.55338872   -5.9880212   -5.9880212     -5.15794 -0.095683578   -5.9880212    0.8300812   439061 
  650000   0.55313365   -5.9888303   -5.9888303   -5.1591318 -0.098735321   -5.9888303   0.82969859   439061 
  651000   0.55317845   -5.9909826   -5.9909826   -5.1612168  -0.10432589   -5.9909826   0.82976578   439061 
  652000     0.553061   -5.9933614   -5.9933614   -5.1637718   -0.1031003   -5.9933614   0.82958961   439061 
  653000   0.55263816   -5.9951072   -5.9951072   -5.1661519  -0.10081352   -5.9951072   0.82895536   439061 
  654000   0.55333169   -5.9984053   -5.9984053   -5.1684097  -0.10016716   -5.9984053   0.82999564   439061 
  655000   0.55339876    -6.000161    -6.000161   -5.1700647  -0.09507031    -6.000161   0.83009625   439061 
  656000   0.55342817   -6.0011222   -6.0011222   -5.1709818 -0.095620789   -6.0011222   0.83014036   439061 
  657000   0.55297857   -6.0023647   -6.0023647   -5.1728987  -0.10232006   -6.0023647   0.82946597   439061 
  658000   0.55137408   -6.0021315   -6.0021315   -5.1750723  -0.10351362   -6.0021315   0.82705924   439061 
  659000    0.5519041   -6.0040887   -6.0040887   -5.1762345  -0.10362675   -6.0040887   0.82785427   439061 
  660000   0.55165035   -6.0060619   -6.0060619   -5.1785882  -0.10490324   -6.0060619   0.82747364   439061 
  661000    0.5523112   -6.0097782   -6.0097782   -5.1813132  -0.10105984   -6.0097782   0.82846492   439061 
  662000   0.55346892   -6.0128994   -6.0128994   -5.1826979 -0.099339976   -6.0128994   0.83020148   439061 
  663000     0.552273   -6.0124659   -6.0124659   -5.1840583 -0.098887255   -6.0124659   0.82840762   439061 
  664000   0.55206365   -6.0136745   -6.0136745   -5.1855809  -0.10288162   -6.0136745   0.82809358   439061 
  665000   0.55166804   -6.0143665   -6.0143665   -5.1868663  -0.10856297   -6.0143665   0.82750017   439061 
  666000    0.5517568   -6.0161397   -6.0161397   -5.1885064  -0.10807766   -6.0161397   0.82763332   439061 
  667000   0.55164302   -6.0185636   -6.0185636   -5.1911009   -0.1061928   -6.0185636   0.82746265   439061 
  668000   0.55233888   -6.0220445   -6.0220445    -5.193538  -0.10665351   -6.0220445   0.82850643   439061 
  669000   0.55219214   -6.0230055   -6.0230055   -5.1947192 -0.098316905   -6.0230055   0.82828633   439061 
  670000   0.55157898   -6.0239565   -6.0239565   -5.1965899 -0.098469846   -6.0239565   0.82736658   439061 
  671000   0.55196463   -6.0269647   -6.0269647   -5.1990197  -0.11087514   -6.0269647   0.82794506   439061 
  672000    0.5514112   -6.0268127   -6.0268127   -5.1996978  -0.11095973   -6.0268127   0.82711492   439061 
  673000   0.54999778   -6.0261345   -6.0261345   -5.2011397  -0.10814648   -6.0261345   0.82499479   439061 
  674000   0.55125431   -6.0285063   -6.0285063   -5.2016268  -0.10770613   -6.0285063   0.82687958   439061 
  675000   0.55156392    -6.031333    -6.031333    -5.203989  -0.10430128    -6.031333     0.827344   439061 
[...]
 4835000   0.50027733   -6.3983007   -6.3983007   -5.6478864  -0.21385824   -6.3983007   0.75041428   439061 
 4836000   0.49902023   -6.3971564   -6.3971564   -5.6486277  -0.21313722   -6.3971564   0.74852865   439061 
 4837000   0.49952688    -6.398242    -6.398242   -5.6489533   -0.2147187    -6.398242   0.74928862   439061 
 4838000     0.499996   -6.3980124   -6.3980124   -5.6480201  -0.21210033   -6.3980124    0.7499923   439061 
 4839000   0.50036849    -6.398934    -6.398934    -5.648383  -0.21180043    -6.398934   0.75055102   439061 
 4840000   0.49897533   -6.3967015   -6.3967015   -5.6482402  -0.20964809   -6.3967015   0.74846129   439061 
 4841000   0.50028285   -6.3982709   -6.3982709   -5.6478483   -0.2137928   -6.3982709   0.75042257   439061 
 4842000   0.49980776   -6.3971229   -6.3971229    -5.647413  -0.21370029   -6.3971229   0.74970993   439061 
 4843000   0.49942815   -6.3965446   -6.3965446   -5.6474041  -0.20997013   -6.3965446   0.74914051   439061 
 4844000   0.49956344   -6.3973629   -6.3973629   -5.6480195  -0.21310198   -6.3973629   0.74934346   439061 
 4845000   0.50002154   -6.3985072   -6.3985072   -5.6484766  -0.21295013   -6.3985072    0.7500306   439061 
 4846000   0.49961698   -6.3974748   -6.3974748   -5.6480511  -0.21099944   -6.3974748   0.74942376   439061 
 4847000   0.49919591   -6.3960569   -6.3960569   -5.6472648  -0.21000862   -6.3960569   0.74879217   439061 
 4848000   0.49966802    -6.396768    -6.396768   -5.6472677  -0.21117731    -6.396768   0.74950032   439061 
 4849000   0.50021466   -6.3973426   -6.3973426   -5.6470224  -0.21673004   -6.3973426   0.75032028   439061 
 4850000   0.49991369   -6.3969627   -6.3969627   -5.6470939  -0.21440648   -6.3969627   0.74986883   439061 
 4851000   0.49954334   -6.3963447   -6.3963447   -5.6470314  -0.21039218   -6.3963447   0.74931331   439061 
 4852000   0.50018931   -6.3977394   -6.3977394   -5.6474571   -0.2122115   -6.3977394   0.75028226   439061 
 4853000   0.49924433   -6.3963123   -6.3963123   -5.6474476   -0.2076914   -6.3963123   0.74886479   439061 
 4854000   0.49994095   -6.3971876   -6.3971876   -5.6472779   -0.2125827   -6.3971876   0.74990972   439061 
 4855000   0.49957695    -6.397168    -6.397168   -5.6478043  -0.21382468    -6.397168   0.74936371   439061 
 4856000   0.50047797   -6.3984216   -6.3984216   -5.6477063  -0.21630008   -6.3984216   0.75071525   439061 
 4857000   0.49992513   -6.3964799   -6.3964799   -5.6465939  -0.21130907   -6.3964799   0.74988599   439061 
 4858000   0.49982112   -6.3955193   -6.3955193   -5.6457894  -0.20652869   -6.3955193   0.74972997   439061 
 4859000   0.50001418   -6.3962677   -6.3962677   -5.6462481  -0.20959983   -6.3962677   0.75001956   439061 
 4860000   0.50031423    -6.396726    -6.396726   -5.6462563  -0.21523725    -6.396726   0.75046964   439061 
 4861000   0.50059873   -6.3969646   -6.3969646   -5.6460682  -0.21308559   -6.3969646   0.75089639   439061 
 4862000   0.50053531   -6.3968454   -6.3968454   -5.6460442  -0.21545933   -6.3968454   0.75080125   439061 
 4863000   0.50027438   -6.3965847   -6.3965847   -5.6461748  -0.21075031   -6.3965847   0.75040986   439061 
 4864000   0.49984754     -6.39547     -6.39547   -5.6457004  -0.20714992     -6.39547    0.7497696   439061 
 4865000   0.50063282   -6.3964287   -6.3964287   -5.6454812  -0.21009638   -6.3964287   0.75094753   439061 
 4866000   0.49968026   -6.3962793   -6.3962793   -5.6467607    -0.212223   -6.3962793   0.74951868   439061 
 4867000   0.49996442   -6.3967294   -6.3967294   -5.6467845  -0.21373018   -6.3967294   0.74994493   439061 
 4868000   0.50046543     -6.39718     -6.39718   -5.6464836  -0.21305704     -6.39718   0.75069643   439061 
 4869000   0.50026956   -6.3975719   -6.3975719   -5.6471693  -0.21266994   -6.3975719   0.75040263   439061 
 4870000    0.4998442   -6.3976607   -6.3976607   -5.6478961  -0.21455121   -6.3976607   0.74976459   439061 
 4871000   0.49969955   -6.3964656   -6.3964656    -5.646918  -0.20797082   -6.3964656   0.74954762   439061 
 4872000   0.49963664   -6.3961749   -6.3961749   -5.6467217  -0.20966037   -6.3961749   0.74945325   439061 
 4873000   0.50107981   -6.3984342   -6.3984342   -5.6468162  -0.21471637   -6.3984342     0.751618   439061 
 4874000   0.49924661   -6.3965373   -6.3965373   -5.6476691  -0.21498106   -6.3965373   0.74886821   439061 
 4875000   0.49999815   -6.3963921   -6.3963921   -5.6463966  -0.21235442   -6.3963921   0.74999551   439061 
 4876000   0.49928736   -6.3957505   -6.3957505   -5.6468212  -0.21071236   -6.3957505   0.74892934   439061 
 4877000   0.49947011   -6.3961868   -6.3961868   -5.6469833   -0.2094781   -6.3961868   0.74920346   439061 
 4878000   0.49994329   -6.3964999   -6.3964999   -5.6465866  -0.21077651   -6.3964999   0.74991323   439061 
 4879000   0.50016428   -6.3966948   -6.3966948     -5.64645  -0.21308128   -6.3966948   0.75024471   439061 
 4880000   0.49975479   -6.3956091   -6.3956091   -5.6459786  -0.21218404   -6.3956091   0.74963047   439061 
 4881000   0.50046623   -6.3964662   -6.3964662   -5.6457686  -0.21291241   -6.3964662   0.75069763   439061 
 4882000   0.50068068   -6.3972827   -6.3972827   -5.6462634  -0.21657272   -6.3972827   0.75101931   439061 
 4883000   0.49956757   -6.3960067   -6.3960067   -5.6466571  -0.21277715   -6.3960067   0.74934965   439061 
 4884000   0.50017968   -6.3969664   -6.3969664   -5.6466986  -0.21237983   -6.3969664   0.75026781   439061 
 4885000   0.50009438    -6.397862    -6.397862   -5.6477221   -0.2134441    -6.397862   0.75013986   439061 
 4886000   0.49888528   -6.3962678   -6.3962678   -5.6479416  -0.20788137   -6.3962678   0.74832622   439061 
 4887000    0.4999097   -6.3980889   -6.3980889    -5.648226  -0.21291021   -6.3980889   0.74986284   439061 
 4888000   0.49950405   -6.3970436   -6.3970436   -5.6477893  -0.21293938   -6.3970436   0.74925436   439061 
 4889000   0.50014619   -6.3978712   -6.3978712   -5.6476536  -0.21473641   -6.3978712   0.75021757   439061 
 4890000   0.50019301   -6.3968929   -6.3968929   -5.6466051  -0.21066747   -6.3968929   0.75028781   439061 
 4891000   0.49995363   -6.3970459   -6.3970459   -5.6471172  -0.21402803   -6.3970459   0.74992873   439061 
 4892000   0.50051376   -6.3970085   -6.3970085   -5.6462396  -0.20957906   -6.3970085   0.75076893   439061 
 4893000   0.50046736   -6.3966941   -6.3966941   -5.6459947   -0.2114746   -6.3966941   0.75069932   439061 
 4894000   0.50131821    -6.397772    -6.397772   -5.6457964  -0.21336253    -6.397772    0.7519756   439061 
 4895000   0.49910644   -6.3952376   -6.3952376   -5.6465796  -0.21320705   -6.3952376   0.74865796   439061 
 4896000   0.50068146   -6.3974694   -6.3974694   -5.6464489  -0.21434013   -6.3974694   0.75102048   439061 
 4897000   0.50019041   -6.3966499   -6.3966499    -5.646366  -0.21286905   -6.3966499   0.75028391   439061 
 4898000   0.50045135   -6.3975641   -6.3975641   -5.6468888  -0.20834958   -6.3975641   0.75067531   439061 
 4899000   0.50031134   -6.3973163   -6.3973163    -5.646851  -0.20910711   -6.3973163    0.7504653   439061 
 4900000   0.50040833   -6.3971432   -6.3971432   -5.6465324  -0.21166246   -6.3971432   0.75061079   439061 
 4901000   0.50045547   -6.3969751   -6.3969751   -5.6462936  -0.21283181   -6.3969751   0.75068149   439061 
 4902000   0.49983093   -6.3960151   -6.3960151   -5.6462704   -0.2144239   -6.3960151   0.74974468   439061 
 4903000   0.50056309   -6.3968215   -6.3968215   -5.6459785  -0.21364477   -6.3968215   0.75084292   439061 
 4904000   0.49993576   -6.3964172   -6.3964172   -5.6465152  -0.21006731   -6.3964172   0.74990194   439061 
 4905000   0.50052719   -6.3971425   -6.3971425   -5.6463534  -0.20656954   -6.3971425   0.75078907   439061 
 4906000   0.49920354    -6.396279    -6.396279   -5.6474754  -0.20603458    -6.396279    0.7488036   439061 
 4907000   0.50076396   -6.3982777   -6.3982777   -5.6471335  -0.21349677   -6.3982777   0.75114423   439061 
 4908000   0.50068481   -6.3975603   -6.3975603   -5.6465348  -0.21641497   -6.3975603   0.75102551   439061 
 4909000   0.50017973   -6.3961504   -6.3961504   -5.6458825  -0.21457735   -6.3961504   0.75026788   439061 
 4910000   0.50092988   -6.3968827   -6.3968827   -5.6454896  -0.21313415   -6.3968827    0.7513931   439061 
 4911000   0.50004696   -6.3960802   -6.3960802   -5.6460115  -0.20849607   -6.3960802   0.75006873   439061 
 4912000   0.50060796   -6.3970144   -6.3970144   -5.6461041  -0.21108176   -6.3970144   0.75091023   439061 
 4913000   0.50076962   -6.3973114   -6.3973114   -5.6461586  -0.21185506   -6.3973114   0.75115273   439061 
 4914000   0.50049447     -6.39656     -6.39656     -5.64582  -0.21096199     -6.39656      0.75074   439061 
 4915000   0.50012464   -6.3968901   -6.3968901   -5.6467048  -0.21474944   -6.3968901   0.75018526   439061 
 4916000    0.4992083   -6.3959321   -6.3959321   -5.6471213  -0.21363042   -6.3959321   0.74881075   439061 
 4917000   0.50045132   -6.3973599   -6.3973599   -5.6466847  -0.21229599   -6.3973599   0.75067527   439061 
 4918000   0.50019111   -6.3966587   -6.3966587   -5.6463737  -0.20841536   -6.3966587   0.75028495   439061 
 4919000   0.49985271    -6.396974    -6.396974   -5.6471967  -0.20659157    -6.396974   0.74977735   439061 
 4920000   0.49980511    -6.396339    -6.396339   -5.6466331  -0.20958602    -6.396339   0.74970595   439061 
 4921000   0.50030114   -6.3969854   -6.3969854   -5.6465354  -0.21304858   -6.3969854      0.75045   439061 
 4922000   0.49928894   -6.3958318   -6.3958318   -5.6469001  -0.21465401   -6.3958318   0.74893171   439061 
 4923000   0.49993417   -6.3966461   -6.3966461   -5.6467466  -0.21316784   -6.3966461   0.74989954   439061 
 4924000   0.50000282   -6.3959733   -6.3959733   -5.6459708  -0.20939515   -6.3959733   0.75000252   439061 
 4925000   0.50078635   -6.3979115   -6.3979115   -5.6467337  -0.21356821   -6.3979115   0.75117782   439061 
 4926000    0.4995731    -6.396808    -6.396808   -5.6474501  -0.20685075    -6.396808   0.74935794   439061 
 4927000   0.49998949   -6.3970337   -6.3970337   -5.6470512  -0.21456585   -6.3970337   0.74998252   439061 
 4928000   0.49953687   -6.3963646   -6.3963646    -5.647061  -0.21133188   -6.3963646    0.7493036   439061 
 4929000   0.49944064   -6.3969859   -6.3969859   -5.6478267   -0.2164344   -6.3969859   0.74915925   439061 
 4930000   0.49947841   -6.3978897   -6.3978897   -5.6486737  -0.21309335   -6.3978897   0.74921591   439061 
 4931000   0.50035338   -6.3988668   -6.3988668   -5.6483385  -0.21532051   -6.3988668   0.75052837   439061 
 4932000   0.49976849    -6.397888    -6.397888    -5.648237  -0.20955165    -6.397888   0.74965103   439061 
 4933000   0.49954327   -6.3979369   -6.3979369   -5.6486237  -0.21297837   -6.3979369    0.7493132   439061 
 4934000   0.49899196   -6.3974027   -6.3974027   -5.6489165  -0.21309024   -6.3974027   0.74848624   439061 
 4935000    0.4986957   -6.3961799   -6.3961799   -5.6481381  -0.21597689   -6.3961799   0.74804185   439061 
 4936000   0.49877466   -6.3971186   -6.3971186   -5.6489583  -0.21743058   -6.3971186   0.74816028   439061 
 4937000   0.49998248   -6.3978762   -6.3978762   -5.6479042  -0.21206742   -6.3978762   0.74997201   439061 
 4938000   0.49915334   -6.3974336   -6.3974336   -5.6487053  -0.20670264   -6.3974336   0.74872831   439061 
 4939000   0.49953944   -6.3982066   -6.3982066   -5.6488992  -0.20974409   -6.3982066   0.74930746   439061 
 4940000   0.49911859   -6.3979731   -6.3979731   -5.6492969  -0.21196916   -6.3979731   0.74867618   439061 
 4941000   0.49965567   -6.3986301   -6.3986301   -5.6491483   -0.2174792   -6.3986301    0.7494818   439061 
 4942000   0.49999287   -6.3993272   -6.3993272   -5.6493396  -0.21779004   -6.3993272    0.7499876   439061 
 4943000   0.49969348   -6.3988431   -6.3988431   -5.6493046  -0.21844583   -6.3988431   0.74953851   439061 
 4944000   0.49977728   -6.3991693   -6.3991693   -5.6495051  -0.21087637   -6.3991693   0.74966421   439061 
 4945000   0.49948149   -6.3985033   -6.3985033   -5.6492828  -0.20953536   -6.3985033   0.74922052   439061 
 4946000   0.49896237    -6.397969    -6.397969   -5.6495272  -0.21098594    -6.397969   0.74844185   439061 
 4947000   0.49961236   -6.3979856   -6.3979856   -5.6485688  -0.21342996   -6.3979856   0.74941683   439061 
 4948000   0.49952142   -6.3982362   -6.3982362   -5.6489558  -0.21833603   -6.3982362   0.74928043   439061 
 4949000   0.49926571   -6.3975426   -6.3975426   -5.6486458  -0.21334693   -6.3975426   0.74889686   439061 
 4950000   0.49872445   -6.3962965   -6.3962965   -5.6482116  -0.21257457   -6.3962965   0.74808497   439061 
 4951000   0.49958964   -6.3980677   -6.3980677    -5.648685   -0.2118721   -6.3980677   0.74938276   439061 
 4952000   0.49915402   -6.3974816   -6.3974816   -5.6487523  -0.21187675   -6.3974816   0.74872933   439061 
 4953000   0.49910082   -6.3980583   -6.3980583   -5.6494088  -0.21468355   -6.3980583   0.74864952   439061 
 4954000    0.4985277   -6.3972271   -6.3972271   -5.6494373   -0.2139294   -6.3972271   0.74778984   439061 
 4955000   0.50007572    -6.398914    -6.398914   -5.6488022  -0.21370699    -6.398914   0.75011186   439061 
 4956000   0.50023164   -6.3989098   -6.3989098    -5.648564  -0.21728549   -6.3989098   0.75034576   439061 
 4957000   0.49931995   -6.3971831   -6.3971831   -5.6482049  -0.21299281   -6.3971831   0.74897822   439061 
 4958000   0.49975936   -6.3977738   -6.3977738   -5.6481365  -0.21540681   -6.3977738   0.74963733   439061 
 4959000   0.50029397   -6.3979846   -6.3979846   -5.6475453  -0.21099182   -6.3979846   0.75043924   439061 
 4960000   0.50006187   -6.3975315   -6.3975315   -5.6474404  -0.21112055   -6.3975315   0.75009109   439061 
 4961000   0.50027515   -6.3972739   -6.3972739   -5.6468629   -0.2130946   -6.3972739   0.75041102   439061 
 4962000   0.49934998     -6.39606     -6.39606   -5.6470367  -0.21137293     -6.39606   0.74902326   439061 
 4963000   0.50037832   -6.3968856   -6.3968856   -5.6463198  -0.21572808   -6.3968856   0.75056578   439061 
 4964000   0.50053173    -6.398218    -6.398218   -5.6474221  -0.21452048    -6.398218   0.75079589   439061 
 4965000   0.50040979   -6.3987278   -6.3987278   -5.6481148   -0.2146012   -6.3987278   0.75061298   439061 
 4966000   0.49947845      -6.3981      -6.3981    -5.648884  -0.21095526      -6.3981   0.74921598   439061 
 4967000   0.50011423   -6.3983927   -6.3983927    -5.648223  -0.21223483   -6.3983927   0.75016963   439061 
 4968000   0.49951027   -6.3975503   -6.3975503   -5.6482866  -0.21090702   -6.3975503   0.74926369   439061 
 4969000   0.49894942   -6.3968213   -6.3968213   -5.6483988  -0.21276226   -6.3968213   0.74842242   439061 
 4970000   0.50027738   -6.3986228   -6.3986228   -5.6482085  -0.21816176   -6.3986228   0.75041435   439061 
 4971000   0.49932389   -6.3975314   -6.3975314   -5.6485473  -0.21432853   -6.3975314   0.74898412   439061 
 4972000   0.50006844   -6.3991748   -6.3991748   -5.6490739  -0.21587439   -6.3991748   0.75010095   439061 
 4973000   0.50005097   -6.3989264   -6.3989264   -5.6488516  -0.21010203   -6.3989264   0.75007474   439061 
 4974000   0.49925274    -6.398079    -6.398079   -5.6492016  -0.21084383    -6.398079    0.7488774   439061 
 4975000   0.49931679   -6.3985417   -6.3985417   -5.6495682  -0.21172876   -6.3985417   0.74897348   439061 
 4976000   0.49976039   -6.3991271   -6.3991271   -5.6494882  -0.21705253   -6.3991271   0.74963888   439061 
 4977000   0.49946478   -6.3981686   -6.3981686   -5.6489732  -0.21441558   -6.3981686   0.74919546   439061 
 4978000   0.49952826   -6.3977084   -6.3977084   -5.6484178  -0.21332217   -6.3977084   0.74929069   439061 
 4979000    0.5004017   -6.3991908   -6.3991908     -5.64859  -0.20963045   -6.3991908   0.75060084   439061 
 4980000   0.50005322   -6.3986244   -6.3986244   -5.6485463  -0.20973479   -6.3986244   0.75007812   439061 
 4981000   0.49973353   -6.3989662   -6.3989662   -5.6493676  -0.21386958   -6.3989662   0.74959859   439061 
 4982000   0.49977514   -6.3985375   -6.3985375   -5.6488765  -0.21455603   -6.3985375   0.74966101   439061 
 4983000    0.4996501    -6.398679    -6.398679   -5.6492056  -0.21767004    -6.398679   0.74947345   439061 
 4984000   0.49941958   -6.3983896   -6.3983896    -5.649262  -0.21169499   -6.3983896   0.74912766   439061 
 4985000   0.49933634    -6.398136    -6.398136   -5.6491332  -0.20990721    -6.398136    0.7490028   439061 
 4986000   0.50003746   -6.3990914   -6.3990914   -5.6490369  -0.21078546   -6.3990914   0.75005449   439061 
 4987000   0.49966797   -6.3974629   -6.3974629   -5.6479627   -0.2099932   -6.3974629   0.74950025   439061 
 4988000   0.49979398   -6.3973914   -6.3973914   -5.6477022  -0.21342527   -6.3973914   0.74968926   439061 
 4989000   0.49915071   -6.3964996   -6.3964996   -5.6477752  -0.21495593   -6.3964996   0.74872435   439061 
 4990000   0.49994739   -6.3982266   -6.3982266   -5.6483073  -0.21740404   -6.3982266   0.74991938   439061 
 4991000   0.49969232   -6.3969964   -6.3969964   -5.6474597   -0.2126976   -6.3969964   0.74953677   439061 
 4992000   0.50012021   -6.3981409   -6.3981409   -5.6479623  -0.20732164   -6.3981409   0.75017861   439061 
 4993000   0.49948037   -6.3980245   -6.3980245   -5.6488056  -0.20950025   -6.3980245   0.74921885   439061 
 4994000   0.49856644   -6.3962141   -6.3962141   -5.6483662    -0.206386   -6.3962141   0.74784795   439061 
 4995000   0.49923507   -6.3977683   -6.3977683   -5.6489175  -0.21692082   -6.3977683   0.74885089   439061 
 4996000   0.49946203   -6.3977171   -6.3977171   -5.6485258  -0.21576793   -6.3977171   0.74919134   439061 
 4997000   0.49955911   -6.3975659   -6.3975659    -5.648229    -0.214716   -6.3975659   0.74933696   439061 
 4998000    0.4990812   -6.3977087   -6.3977087   -5.6490887  -0.21302696   -6.3977087   0.74862009   439061 
 4999000    0.4993049   -6.3980486   -6.3980486   -5.6490929    -0.208278   -6.3980486   0.74895564   439061 
 5000000     0.499611   -6.3990335   -6.3990335   -5.6496187  -0.21441844   -6.3990335    0.7494148   439061 
Loop time of 34109 on 64 procs for 5000000 steps with 439061 atoms

Performance: 63326.406 tau/day, 146.589 timesteps/s
98.7% CPU use with 64 MPI tasks x 1 OpenMP threads

MPI task timing breakdown:
Section |  min time  |  avg time  |  max time  |%varavg|  %CPU | %total
-----------------------------------------------------------------------
Pair    | 11665      | 17348      | 19444      |1383.2 |  98.6 | 50.86
Bond    | 2.1131     | 2.4616     | 2.9973     |   9.8 | 100.0 |  0.01
Neigh   | 3547.5     | 5402.1     | 6130.9     | 797.2 |  99.7 | 15.84
Comm    | 6820.7     | 9608.3     | 17582      |2690.8 |  98.4 | 28.17
Output  | 187.43     | 187.77     | 187.81     |   0.4 |  98.6 |  0.55
Modify  | 426.22     | 954.15     | 2287.9     |2310.2 |  99.0 |  2.80
Other   |            | 605.8      |            |       |       |  1.78

Nlocal:        6860.33 ave        9176 max        4533 min
Histogram: 4 4 1 12 4 31 0 0 0 8
Nghost:        8943.23 ave       10630 max        5317 min
Histogram: 8 0 8 0 0 0 0 15 14 19
Neighs:       316724.0 ave      426828 max      171515 min
Histogram: 4 4 0 1 7 14 26 0 0 8

Total # of neighbors = 20270354
Ave neighs/atom = 46.167512
Ave special neighs/atom = 0.0000000
Neighbor list builds = 458604
Dangerous builds = 105715
write_data	data.lj
System init for write_data ...
WARNING: Not all mixed pair coeffs generated from mixing. Use write_data with 'pair ij' option to store all pair coeffs. (src/write_data.cpp:312)


## Evaporation
#region          regevap block EDGE EDGE EDGE EDGE 140 EDGE units box
#fix             4 solvent evaporate ${evap} 1 regevap 156415

#run 		20000000
Total wall time: 9:28:34
