LAMMPS (29 Oct 2020)
  using 1 OpenMP thread(s) per MPI task
#Read the equilibrated lj fluid and add nanocubes

units           lj
atom_style      full
atom_modify     map array first cubes
dimension       3
boundary        p p f
pair_style      lj/smooth/linear 2.0

variable        sigma           equal 1.0
variable        epsilon         equal 1.0
read_restart	restart.dat.5000000
Reading restart file ...
  restart file = 24 Dec 2020, LAMMPS = 29 Oct 2020
WARNING: Restart file used different # of processors: 192 vs. 64 (src/read_restart.cpp:697)
  restoring atom style full from restart
  orthogonal box = (0.0000000 0.0000000 0.0000000) to (80.000000 80.000000 160.00000)
  2 by 4 by 8 MPI processor grid
  restoring pair style lj/smooth/linear from restart
  439061 atoms
Finding 1-2 1-3 1-4 neighbors ...
  special bond factors lj:    0.0      0.0      0.0     
  special bond factors coul:  0.0      0.0      0.0     
     0 = max # of 1-2 neighbors
     0 = max # of 1-3 neighbors
     0 = max # of 1-4 neighbors
     1 = max # of special neighbors
  special bonds CPU = 0.815 seconds
  read_restart CPU = 1.041 seconds

group		solvent type 1
439061 atoms in group solvent

read_data	data_96_s2.cubes group cubes add append
Reading data file ...
  orthogonal box = (0.0000000 0.0000000 0.0000000) to (80.000000 80.000000 160.00000)
  2 by 4 by 8 MPI processor grid
WARNING: Pair style in data file differs from currently defined pair style (src/read_data.cpp:588)
  reading atoms ...
  109728 atoms
  reading velocities ...
  109728 velocities
Finding 1-2 1-3 1-4 neighbors ...
  special bond factors lj:    0.0      0.0      0.0     
  special bond factors coul:  0.0      0.0      0.0     
     0 = max # of 1-2 neighbors
     0 = max # of 1-3 neighbors
     0 = max # of 1-4 neighbors
     1 = max # of special neighbors
  special bonds CPU = 0.011 seconds
  read_data CPU = 0.338 seconds

group 		hull  type 2
42816 atoms in group hull
group 		dummy type 3
66912 atoms in group dummy

neighbor      0.4 bin
neigh_modify  exclude molecule/intra cubes


pair_modify   shift yes

pair_coeff    1 1 1.0 1.0 #solvent
pair_coeff    2 2 1.0 1.0 1.12 #np
pair_coeff    3 3 0.0 0.0 0.0 #dummy
pair_coeff    2 3 0.0 0.0 0.0 #np dummy
pair_coeff    1 2 ${sol} 1.0  #np solvent
pair_coeff    1 2 .75 1.0  
pair_coeff    1 3 0.0 0.0 2.0 #dummy solvent

# delete solvent where the cubes are
delete_atoms  overlap 1.0 solvent cubes
System init for delete_atoms ...
Neighbor list info ...
  update every 1 steps, delay 10 steps, check yes
  max neighbors/atom: 2000, page size: 100000
  master list distance cutoff = 2.4
  ghost atom cutoff = 2.4
  binsize = 1.2, bins = 67 67 134
  2 neighbor lists, perpetual/occasional/extra = 1 1 0
  (1) command delete_atoms, occasional
      attributes: full, newton on
      pair build: full/bin
      stencil: full/bin/3d
      bin: standard
  (2) pair lj/smooth/linear, perpetual
      attributes: half, newton on
      pair build: half/bin/newton
      stencil: half/bin/3d/newton
      bin: standard
WARNING: Delete_atoms cutoff > minimum neighbor cutoff (src/delete_atoms.cpp:307)
WARNING: Ignoring 'compress yes' for molecular system (src/delete_atoms.cpp:125)
Deleted 82690 atoms, new total = 466099

pair_coeff    1 1 1.0 1.0 #solvent
pair_coeff    2 2 1.0 1.0 1.12 #np
pair_coeff    3 3 0.0 0.0 0.0 #dummy
pair_coeff    2 3 0.0 0.0 0.0 #np dummy
pair_coeff    1 2 ${sol} 1.0  #np solvent
pair_coeff    1 2 .75 1.0  
pair_coeff    1 3 0.0 0.0 0.0 #dummy solvent


comm_modify   mode multi cutoff/multi 1 2.0 cutoff/multi 2 2.0 cutoff/multi 3 6.95

reset_timestep 	0

balance 	1.05 shift z 10 1.05
Balancing ...
Neighbor list info ...
  update every 1 steps, delay 10 steps, check yes
  max neighbors/atom: 2000, page size: 100000
  master list distance cutoff = 2.4
  ghost atom cutoff = 6.95
  binsize = 1.2, bins = 67 67 134
  1 neighbor lists, perpetual/occasional/extra = 1 0 0
  (1) pair lj/smooth/linear, perpetual
      attributes: half, newton on
      pair build: half/bin/newton
      stencil: half/bin/3d/newton
      bin: standard
 rebalancing time: 0.014 seconds
  iteration count = 4
  initial/final maximal load/proc = 11035.000 8791.0000
  initial/final imbalance factor  = 1.5152146 1.2070912
  x cuts: 0.0000000 0.5 1.0000000
  y cuts: 0.0000000 0.25 0.5 0.75 1.0000000
  z cuts: 0.0000000 0.0859375 0.1796875 0.2578125 0.359375 0.421875 0.515625 0.6171875 1.0000000

####################### WALLS ###########################

variable       epsilonWall equal 2*${epsilon}
variable       epsilonWall equal 2*1
variable       repulsive   equal   0.7147*${sigma}
variable       repulsive   equal   0.7147*1
variable       full	   equal   3*${sigma}
variable       full	   equal   3*1
region         lowWall block EDGE EDGE EDGE EDGE EDGE 2

fix            topWall all wall/lj93 zhi EDGE 	       ${epsilonWall} ${sigma} ${repulsive} units box
fix            topWall all wall/lj93 zhi EDGE 	       2 ${sigma} ${repulsive} units box
fix            topWall all wall/lj93 zhi EDGE 	       2 1 ${repulsive} units box
fix            topWall all wall/lj93 zhi EDGE 	       2 1 0.7147 units box
fix            lowSol solvent wall/lj93 zlo EDGE                ${epsilonWall} ${sigma} ${full} units box
fix            lowSol solvent wall/lj93 zlo EDGE                2 ${sigma} ${full} units box
fix            lowSol solvent wall/lj93 zlo EDGE                2 1 ${full} units box
fix            lowSol solvent wall/lj93 zlo EDGE                2 1 3 units box
fix 	       lowCub cubes wall/lj93 zlo EDGE                ${epsilonWall} ${sigma} ${repulsive} units box
fix 	       lowCub cubes wall/lj93 zlo EDGE                2 ${sigma} ${repulsive} units box
fix 	       lowCub cubes wall/lj93 zlo EDGE                2 1 ${repulsive} units box
fix 	       lowCub cubes wall/lj93 zlo EDGE                2 1 0.7147 units box


###################### COMPUTES ##########################

compute        bin1 solvent chunk/atom bin/1d z lower 1.0 units box
compute        bin3 solvent chunk/atom bin/3d x lower 1.0 y lower 1.0 z lower 1.0 units box

compute 	pe solvent 	   pe/atom
compute 	pe2 all 	   pe/atom

######################  FIXES ############################


fix             peclet solvent ave/chunk 10 10 10000 bin1 density/number norm                  none ave one file density.profile

fix              temp solvent ave/chunk 10 10 10000 bin1 temp norm                  none ave one file temp.profile

fix 		 dens solvent ave/chunk 10 10 500000 bin3 density/number norm 		 none ave one file dens3.profile

fix		 temp2 solvent ave/chunk 10 10 500000 bin3 temp norm none ave one file temp3.profile

fix 		pe solvent ave/chunk 1 1 500000 bin3 c_pe norm none ave one file pe3.profile

fix             1 cubes rigid/nve/small molecule
  create bodies CPU = 0.008 seconds
  96 rigid bodies with 109728 atoms
  6.9282032 = max distance from body owner to body atom

fix             2 solvent nve# temp ${temp} ${temp} 10


## Thermostat
region          regthermo block EDGE EDGE EDGE EDGE 0 15
group           thermo dynamic solvent region regthermo every 1000
dynamic group thermo defined
fix             3 thermo langevin ${temp} ${temp} 10 156453
fix             3 thermo langevin 0.6 ${temp} 10 156453
fix             3 thermo langevin 0.6 0.6 10 156453


#### Load balancing

fix             bal all balance 1000 1.05 shift z 10 1.05

############### Diagnostics and computes ###################

compute        	com cubes          rigid/local   1 mol x y z
compute        	quat cubes         rigid/local   1 mol quatw quati quatj quatk

compute 	cc2 cubes 	   chunk/atom 	 molecule
compute 	msd cubes 	   msd/chunk 	 cc2

fix 		msd all ave/time  1 1 10000 c_msd[*] file dump.msd ave one mode vector


dump            1 all custom 500000 dump.lammpstrj id mol type x y z vx vy vz c_pe2
dump		sol  solvent custom 500000 dump.soltrj id x y z vx vy vz c_pe
dump		cubetrj cubes custom 500000 cubes.lammpstrj id mol type x y z vx vy vz
dump            com cubes local 100000 dump.*.xyz c_com[*]
dump	        xyz hull xyz 100000 cubes.xyz
dump            quat cubes      local 100000 dump.*.quat c_quat[*]
dump		order cubes 	local 100000 dump.*.order c_com[*] c_quat[*]
#dump		mol cubes molfile 10000 mol.xyz xyz


dump            2 all image 100000 image.*.png type type zoom 1.5 size 1280 720
dump_modify     2 pad 8
dump		image cubes image 100000 image_cubes.*.png type type zoom 1.5 size 1280 720
dump_modify	image pad 8
dump            3 all movie 5000 movie.avi type type zoom 1.5 size 1280 720
dump		4 cubes movie 5000 movie_cubes.avi type type size 1280 720


thermo          1000
thermo_style    custom step temp epair evdwl etotal press pe ke atoms

restart         1000000 restart.dat
timestep        0.005
timer           full
New timer settings: style=full  mode=nosync  timeout=off

run 		10000000
Per MPI rank memory allocation (min/avg/max) = 86.34 | 97.71 | 100.9 Mbytes
Step Temp E_pair E_vdwl TotEng Press PotEng KinEng Atoms 
       0   0.61242742   -1.7387245   -1.7387245   -1.0359714 -0.028716807   -1.7387245   0.70275311   466099 
    1000   0.61620205   -1.7434454   -1.7434454   -1.0363609   0.03352831   -1.7434454   0.70708445   466099 
    2000   0.61460474   -1.7425371   -1.7425371   -1.0372856  0.034047312   -1.7425371   0.70525156   466099 
    3000    0.6151579   -1.7427176   -1.7427176   -1.0368313  0.034790745   -1.7427176    0.7058863   466099 
    4000   0.61392605    -1.741949    -1.741949   -1.0374763  0.036237559    -1.741949   0.70447276   466099 
    5000   0.61389391   -1.7420325   -1.7420325   -1.0375966  0.036138196   -1.7420325   0.70443588   466099 
    6000   0.61474184   -1.7427292   -1.7427292   -1.0373203  0.034147756   -1.7427292   0.70540888   466099 
    7000   0.61336754    -1.742313    -1.742313   -1.0384811  0.041389403    -1.742313   0.70383187   466099 
    8000   0.61323653   -1.7427456   -1.7427456   -1.0390641  0.031959328   -1.7427456   0.70368155   466099 
    9000   0.61343473   -1.7430504   -1.7430504   -1.0391414  0.037466738   -1.7430504   0.70390897   466099 
   10000   0.61338562   -1.7435255   -1.7435255   -1.0396729  0.030824735   -1.7435255   0.70385263   466099 
   11000   0.61302781    -1.743529    -1.743529    -1.040087  0.035150449    -1.743529   0.70344205   466099 
   12000   0.61244292   -1.7427268   -1.7427268   -1.0399559  0.040664169   -1.7427268   0.70277089   466099 
   13000    0.6138597   -1.7441902   -1.7441902   -1.0397936  0.040720162   -1.7441902   0.70439662   466099 
   14000   0.61406627   -1.7447283   -1.7447283   -1.0400946   0.04134287   -1.7447283   0.70463366   466099 
   15000   0.61466453   -1.7454599   -1.7454599   -1.0401397  0.034582016   -1.7454599   0.70532016   466099 
   16000   0.61487127   -1.7459369   -1.7459369   -1.0403795  0.039037626   -1.7459369   0.70555739   466099 
   17000    0.6154227   -1.7462759   -1.7462759   -1.0400857  0.041450852   -1.7462759   0.70619015   466099 
   18000   0.61521979    -1.747135    -1.747135   -1.0411777  0.040223544    -1.747135   0.70595731   466099 
   19000   0.61624122   -1.7481858   -1.7481858   -1.0410564   0.03945838   -1.7481858   0.70712939   466099 
   20000   0.61533871   -1.7470889   -1.7470889   -1.0409951  0.040400356   -1.7470889   0.70609377   466099 
   21000   0.61519129   -1.7480274   -1.7480274   -1.0421028  0.045187993   -1.7480274   0.70592461   466099 
   22000   0.61499706   -1.7482595   -1.7482595   -1.0425578  0.040897618   -1.7482595   0.70570174   466099 
   23000   0.61446549   -1.7483682   -1.7483682   -1.0432764  0.039029056   -1.7483682   0.70509176   466099 
   24000    0.6148252   -1.7483899   -1.7483899   -1.0428853  0.043135487   -1.7483899   0.70550453   466099 
   25000   0.61461879   -1.7484796   -1.7484796   -1.0432119  0.038441913   -1.7484796   0.70526767   466099 
   26000   0.61434525   -1.7486154   -1.7486154   -1.0436616  0.037522229   -1.7486154   0.70495379   466099 
   27000   0.61456575   -1.7492824   -1.7492824   -1.0440755  0.037027753   -1.7492824   0.70520682   466099 
   28000   0.61460416   -1.7502621   -1.7502621   -1.0450112  0.041294826   -1.7502621   0.70525088   466099 
   29000   0.61487741   -1.7507604   -1.7507604   -1.0451959  0.035107863   -1.7507604   0.70556443   466099 
   30000   0.61402224   -1.7501509   -1.7501509   -1.0455678  0.037731491   -1.7501509   0.70458314   466099 
   31000   0.61356908   -1.7494627   -1.7494627   -1.0453996  0.037533394   -1.7494627   0.70406314   466099 
   32000   0.61514821   -1.7515084   -1.7515084   -1.0456332  0.036556696   -1.7515084   0.70587518   466099 
   33000   0.61406273   -1.7498264   -1.7498264   -1.0451968  0.042186233   -1.7498264    0.7046296   466099 
   34000    0.6146296   -1.7507741   -1.7507741    -1.045494  0.041362776   -1.7507741   0.70528008   466099 
   35000   0.61392787     -1.75015     -1.75015   -1.0456751  0.037959563     -1.75015   0.70447485   466099 
   36000    0.6144926   -1.7499336   -1.7499336   -1.0448107  0.036471542   -1.7499336   0.70512287   466099 
   37000   0.61386239   -1.7494495   -1.7494495   -1.0450498  0.040729101   -1.7494495   0.70439971   466099 
   38000   0.61418024   -1.7502162   -1.7502162   -1.0454518  0.041246882   -1.7502162   0.70476444   466099 
   39000   0.61344058   -1.7501237   -1.7501237    -1.046208  0.035759433   -1.7501237   0.70391569   466099 
   40000   0.61287929   -1.7500096   -1.7500096    -1.046738  0.034428211   -1.7500096   0.70327161   466099 
   41000   0.61301043    -1.750308    -1.750308   -1.0468859  0.034919141    -1.750308    0.7034221   466099 
   42000   0.61369612   -1.7505029   -1.7505029    -1.046294    0.0379166   -1.7505029   0.70420892   466099 
   43000   0.61436694   -1.7512878   -1.7512878   -1.0463091  0.037048474   -1.7512878   0.70497868   466099 
   44000   0.61322429   -1.7502309   -1.7502309   -1.0465634   0.03996167   -1.7502309    0.7036675   466099 
   45000   0.61421605   -1.7512254   -1.7512254   -1.0464199   0.03835878   -1.7512254   0.70480554   466099 
   46000   0.61360069   -1.7506829   -1.7506829   -1.0465835  0.039041432   -1.7506829   0.70409942   466099 
   47000   0.61354847   -1.7507686   -1.7507686   -1.0467291    0.0369476   -1.7507686   0.70403949   466099 
   48000   0.61367984   -1.7506059   -1.7506059   -1.0464157  0.033471876   -1.7506059   0.70419024   466099 
   49000   0.61399392    -1.750902    -1.750902   -1.0463514   0.03980853    -1.750902   0.70455064   466099 
   50000   0.61349943   -1.7504939   -1.7504939   -1.0465107  0.042536665   -1.7504939   0.70398322   466099 
   51000    0.6150211   -1.7523622   -1.7523622   -1.0466328  0.033603216   -1.7523622   0.70572932   466099 
   52000   0.61363018   -1.7512535   -1.7512535   -1.0471202  0.035385367   -1.7512535   0.70413326   466099 
   53000   0.61367671   -1.7515147   -1.7515147   -1.0473281  0.035922736   -1.7515147   0.70418665   466099 
   54000   0.61355505   -1.7507701   -1.7507701    -1.046723  0.032077098   -1.7507701   0.70404704   466099 
   55000   0.61407642   -1.7514449   -1.7514449   -1.0467996  0.036674974   -1.7514449   0.70464531   466099 
   56000   0.61441256   -1.7523535   -1.7523535   -1.0473225  0.037278355   -1.7523535   0.70503102   466099 
   57000   0.61414135   -1.7523704   -1.7523704   -1.0476506  0.037175982   -1.7523704   0.70471982   466099 
   58000    0.6139093   -1.7523451   -1.7523451   -1.0478915  0.042191196   -1.7523451   0.70445354   466099 
   59000    0.6141959    -1.753321    -1.753321   -1.0485386  0.037016638    -1.753321   0.70478241   466099 
   60000   0.61482461   -1.7535347   -1.7535347   -1.0480309  0.036531198   -1.7535347   0.70550385   466099 
   61000   0.61478908   -1.7541353   -1.7541353   -1.0486722  0.044483337   -1.7541353   0.70546308   466099 
   62000   0.61300663    -1.752756    -1.752756   -1.0493383   0.03671537    -1.752756   0.70341774   466099 
   63000   0.61390924   -1.7539745   -1.7539745    -1.049521  0.039701789   -1.7539745   0.70445347   466099 
   64000   0.61349974   -1.7530844   -1.7530844   -1.0491008  0.047604883   -1.7530844   0.70398358   466099 
   65000   0.61444942    -1.753528    -1.753528   -1.0484546  0.046426307    -1.753528   0.70507332   466099 
   66000   0.61405923   -1.7536081   -1.7536081   -1.0489825  0.043160485   -1.7536081   0.70462559   466099 
   67000   0.61393737   -1.7531797   -1.7531797   -1.0486939  0.043529413   -1.7531797   0.70448575   466099 
   68000   0.61433885   -1.7539792   -1.7539792   -1.0490327  0.043820149   -1.7539792   0.70494645   466099 
   69000   0.61442866   -1.7536482   -1.7536482   -1.0485987  0.041211782   -1.7536482    0.7050495   466099 
   70000   0.61436608   -1.7539517   -1.7539517    -1.048974  0.037496451   -1.7539517   0.70497769   466099 
   71000   0.61548857   -1.7548178   -1.7548178   -1.0485521  0.039846488   -1.7548178   0.70626573   466099 
   72000   0.61484194    -1.755253    -1.755253   -1.0497292  0.041733158    -1.755253   0.70552374   466099 
   73000   0.61353847   -1.7544942   -1.7544942   -1.0504662  0.039854534   -1.7544942   0.70402802   466099 
   74000   0.61370449   -1.7547768   -1.7547768   -1.0505583  0.035968699   -1.7547768   0.70421853   466099 
   75000   0.61376715   -1.7543631   -1.7543631   -1.0500727  0.040236733   -1.7543631   0.70429043   466099 
   76000   0.61325056   -1.7540937   -1.7540937   -1.0503961  0.039627252   -1.7540937   0.70369764   466099 
   77000    0.6140244   -1.7545557   -1.7545557   -1.0499701  0.044702177   -1.7545557   0.70458562   466099 
   78000   0.61428991   -1.7554675   -1.7554675   -1.0505772  0.035195248   -1.7554675   0.70489028   466099 
   79000   0.61349401   -1.7546527   -1.7546527   -1.0506757  0.036185323   -1.7546527     0.703977   466099 
   80000    0.6124731   -1.7529899   -1.7529899   -1.0501844  0.037876481   -1.7529899   0.70280552   466099 
   81000   0.61358929   -1.7545324   -1.7545324   -1.0504461  0.038458633   -1.7545324   0.70408634   466099 
   82000    0.6127955   -1.7533813   -1.7533813   -1.0502058  0.037336598   -1.7533813   0.70317547   466099 
   83000   0.61350392   -1.7542686   -1.7542686   -1.0502803  0.037618123   -1.7542686   0.70398838   466099 
   84000   0.61455889   -1.7552712   -1.7552712   -1.0500723  0.043880369   -1.7552712   0.70519894   466099 
   85000   0.61365796   -1.7547994   -1.7547994   -1.0506343  0.038513056   -1.7547994   0.70416514   466099 
   86000   0.61422935   -1.7549813   -1.7549813   -1.0501605  0.038370654   -1.7549813    0.7048208   466099 
   87000   0.61367957   -1.7543715   -1.7543715   -1.0501816  0.038784794   -1.7543715   0.70418993   466099 
   88000   0.61282185   -1.7526606   -1.7526606   -1.0494549  0.039143174   -1.7526606   0.70320571   466099 
   89000   0.61452657     -1.75515     -1.75515   -1.0499881  0.038837461     -1.75515   0.70516185   466099 
   90000   0.61341298    -1.753631    -1.753631    -1.049747  0.036487487    -1.753631   0.70388402   466099 
   91000   0.61264141   -1.7543398   -1.7543398   -1.0513412  0.039363317   -1.7543398   0.70299866   466099 
   92000   0.61399256   -1.7552955   -1.7552955   -1.0507464  0.034123406   -1.7552955   0.70454909   466099 
   93000   0.61245319   -1.7534941   -1.7534941   -1.0507114  0.037938889   -1.7534941   0.70278267   466099 
   94000   0.61286476   -1.7541194   -1.7541194   -1.0508645  0.038920674   -1.7541194   0.70325495   466099 
   95000   0.61353182   -1.7548417   -1.7548417   -1.0508213  0.035550353   -1.7548417   0.70402039   466099 
   96000   0.61405456   -1.7557183   -1.7557183   -1.0510981  0.030879048   -1.7557183   0.70462023   466099 
   97000   0.61363757   -1.7554872   -1.7554872   -1.0513455  0.042885303   -1.7554872   0.70414173   466099 
   98000   0.61504499   -1.7566247   -1.7566247    -1.050868  0.036264231   -1.7566247   0.70575674   466099 
   99000   0.61458149   -1.7560448   -1.7560448   -1.0508199  0.037289663   -1.7560448   0.70522487   466099 
  100000   0.61465695   -1.7563523   -1.7563523   -1.0510409  0.038259038   -1.7563523   0.70531146   466099 
  101000   0.61304614   -1.7547365   -1.7547365   -1.0512734  0.041401513   -1.7547365   0.70346308   466099 
  102000   0.61445913   -1.7568891   -1.7568891   -1.0518046  0.039913847   -1.7568891   0.70508447   466099 
  103000   0.61338791   -1.7557931   -1.7557931   -1.0519378  0.037233228   -1.7557931   0.70385526   466099 
  104000   0.61481687   -1.7576496   -1.7576496   -1.0521547  0.037750659   -1.7576496   0.70549496   466099 
  105000   0.61368808   -1.7559591   -1.7559591   -1.0517594  0.034463309   -1.7559591   0.70419969   466099 
  106000   0.61388317   -1.7569437   -1.7569437   -1.0525201  0.035816351   -1.7569437   0.70442355   466099 
  107000   0.61395665   -1.7568038   -1.7568038   -1.0522959  0.040755881   -1.7568038   0.70450787   466099 
  108000   0.61376721   -1.7559972   -1.7559972   -1.0517067  0.034160272   -1.7559972    0.7042905   466099 
  109000   0.61412271   -1.7567444   -1.7567444   -1.0520459  0.037909444   -1.7567444   0.70469843   466099 
  110000   0.61428638   -1.7571153   -1.7571153   -1.0522291  0.039965112   -1.7571153   0.70488624   466099 
  111000   0.61362057   -1.7568673   -1.7568673    -1.052745  0.035427787   -1.7568673   0.70412223   466099 
  112000   0.61429678   -1.7581437   -1.7581437   -1.0532456  0.044613598   -1.7581437   0.70489817   466099 
  113000   0.61405662   -1.7578068   -1.7578068   -1.0531842  0.041449767   -1.7578068   0.70462259   466099 
  114000   0.61329858    -1.756767    -1.756767   -1.0530142  0.041398785    -1.756767   0.70375275   466099 
  115000   0.61365028   -1.7576453   -1.7576453   -1.0534889  0.040962731   -1.7576453   0.70415632   466099 
  116000   0.61282366   -1.7564479   -1.7564479   -1.0532402   0.04381704   -1.7564479   0.70320778   466099 
  117000   0.61326194   -1.7575578   -1.7575578   -1.0538471  0.038224687   -1.7575578    0.7037107   466099 
  118000   0.61348236   -1.7581563   -1.7581563   -1.0541927  0.033392161   -1.7581563   0.70396364   466099 
  119000   0.61282811    -1.757616    -1.757616   -1.0544031  0.041597851    -1.757616   0.70321289   466099 
  120000   0.61353374   -1.7588289   -1.7588289   -1.0548063  0.037366172   -1.7588289   0.70402259   466099 
  121000   0.61402674   -1.7593841   -1.7593841   -1.0547958  0.035583867   -1.7593841    0.7045883   466099 
  122000   0.61344091   -1.7588078   -1.7588078   -1.0548917   0.04039397   -1.7588078   0.70391608   466099 
  123000   0.61257936   -1.7579308   -1.7579308   -1.0550033  0.039666765   -1.7579308   0.70292745   466099 
  124000   0.61267719   -1.7584107   -1.7584107    -1.055371  0.036526257   -1.7584107   0.70303971   466099 
  125000   0.61250777   -1.7586397   -1.7586397   -1.0557944  0.040492898   -1.7586397    0.7028453   466099 
  126000    0.6130068   -1.7589154   -1.7589154   -1.0554974  0.040303394   -1.7589154   0.70341794   466099 
  127000   0.61384336   -1.7599029   -1.7599029    -1.055525   0.04076485   -1.7599029   0.70437788   466099 
  128000   0.61317804    -1.759502    -1.759502   -1.0558876  0.039400014    -1.759502   0.70361443   466099 
  129000   0.61330923    -1.759725    -1.759725   -1.0559601  0.037429948    -1.759725   0.70376496   466099 
  130000   0.61325857   -1.7595065   -1.7595065   -1.0557997  0.035894226   -1.7595065   0.70370683   466099 
  131000   0.61344302   -1.7607426   -1.7607426   -1.0568241  0.038094273   -1.7607426   0.70391849   466099 
  132000   0.61279882   -1.7595365   -1.7595365   -1.0563572  0.044062916   -1.7595365   0.70317928   466099 
  133000    0.6139481   -1.7608859   -1.7608859   -1.0563879  0.036252461   -1.7608859   0.70449806   466099 
  134000   0.61431825   -1.7615838   -1.7615838    -1.056661  0.045557631   -1.7615838   0.70492281   466099 
  135000   0.61466278   -1.7615036   -1.7615036   -1.0561854  0.040782157   -1.7615036   0.70531815   466099 
  136000   0.61412713    -1.760556    -1.760556   -1.0558525  0.044384177    -1.760556    0.7047035   466099 
  137000   0.61336957   -1.7602887   -1.7602887   -1.0564545  0.038118206   -1.7602887   0.70383421   466099 
  138000   0.61338178   -1.7598165   -1.7598165   -1.0559683  0.040045317   -1.7598165   0.70384822   466099 
  139000   0.61494149    -1.761122    -1.761122    -1.055484  0.041823151    -1.761122   0.70563797   466099 
  140000    0.6136901   -1.7598731   -1.7598731   -1.0556711  0.044841498   -1.7598731   0.70420202   466099 
  141000   0.61401556   -1.7609578   -1.7609578   -1.0563823  0.041256001   -1.7609578   0.70457547   466099 
  142000   0.61322079   -1.7608875   -1.7608875   -1.0572241  0.041704239   -1.7608875   0.70366348   466099 
  143000   0.61276526   -1.7604753   -1.7604753   -1.0573345   0.03744897   -1.7604753   0.70314077   466099 
  144000   0.61327809   -1.7607034   -1.7607034   -1.0569741  0.040985058   -1.7607034   0.70372923   466099 
  145000   0.61303044   -1.7597494   -1.7597494   -1.0563043  0.044486856   -1.7597494   0.70344506   466099 
  146000   0.61328048   -1.7599173   -1.7599173   -1.0561853  0.040329822   -1.7599173   0.70373198   466099 
  147000   0.61279934    -1.758833    -1.758833   -1.0556531  0.043819456    -1.758833   0.70317987   466099 
  148000   0.61306519   -1.7599271   -1.7599271   -1.0564422  0.044124215   -1.7599271   0.70348494   466099 
  149000   0.61241397   -1.7594136   -1.7594136   -1.0566759   0.04068988   -1.7594136   0.70273767   466099 
  150000    0.6129906   -1.7598605   -1.7598605   -1.0564611  0.038172725   -1.7598605   0.70339935   466099 
  151000   0.61252596   -1.7593778   -1.7593778   -1.0565116  0.036930743   -1.7593778   0.70286618   466099 
  152000   0.61252153   -1.7582844   -1.7582844   -1.0554233  0.038593654   -1.7582844    0.7028611   466099 
  153000   0.61297797   -1.7597399   -1.7597399    -1.056355  0.038333247   -1.7597399   0.70338486   466099 
  154000   0.61389956   -1.7612614   -1.7612614   -1.0568191  0.041753084   -1.7612614   0.70444236   466099 
  155000   0.61262571   -1.7597088   -1.7597088   -1.0567282  0.034835321   -1.7597088   0.70298064   466099 
  156000   0.61316363   -1.7607613   -1.7607613   -1.0571635  0.037898167   -1.7607613   0.70359789   466099 
  157000   0.61147641   -1.7586067   -1.7586067   -1.0569449  0.035380566   -1.7586067   0.70166183   466099 
  158000    0.6118122   -1.7586971   -1.7586971     -1.05665  0.043532156   -1.7586971   0.70204715   466099 
  159000   0.61275107   -1.7595863   -1.7595863   -1.0564618  0.035525063   -1.7595863   0.70312449   466099 
  160000   0.61344783   -1.7596213   -1.7596213   -1.0556973  0.034436466   -1.7596213   0.70392402   466099 
  161000   0.61269068   -1.7585863   -1.7585863   -1.0555311   0.04082429   -1.7585863    0.7030552   466099 
  162000   0.61347672   -1.7597573   -1.7597573   -1.0558001  0.037985162   -1.7597573   0.70395716   466099 
  163000    0.6133895   -1.7602491   -1.7602491   -1.0563921  0.035662235   -1.7602491   0.70385708   466099 
  164000   0.61397914   -1.7600862   -1.7600862   -1.0555525  0.039820409   -1.7600862   0.70453369   466099 
  165000   0.61273613   -1.7595565   -1.7595565   -1.0564492  0.037706015   -1.7595565   0.70310735   466099 
  166000    0.6135456   -1.7601732   -1.7601732    -1.056137  0.041332787   -1.7601732    0.7040362   466099 
  167000   0.61260791   -1.7592129   -1.7592129   -1.0562526  0.043825201   -1.7592129   0.70296021   466099 
  168000   0.61274755   -1.7597798   -1.7597798   -1.0566594  0.041201412   -1.7597798   0.70312045   466099 
  169000   0.61214764   -1.7591352   -1.7591352   -1.0567031  0.042427912   -1.7591352   0.70243206   466099 
  170000   0.61323543   -1.7602022   -1.7602022   -1.0565219  0.039933958   -1.7602022   0.70368029   466099 
  171000   0.61223321   -1.7592924   -1.7592924   -1.0567622  0.039899667   -1.7592924   0.70253025   466099 
  172000    0.6127017   -1.7601681   -1.7601681   -1.0571003  0.037182715   -1.7601681   0.70306784   466099 
  173000   0.61284054   -1.7601931   -1.7601931   -1.0569659  0.042790368   -1.7601931   0.70322716   466099 
  174000   0.61216494   -1.7599007   -1.7599007   -1.0574488   0.03825811   -1.7599007   0.70245191   466099 
  175000   0.61295803   -1.7604793   -1.7604793   -1.0571173  0.038532872   -1.7604793   0.70336198   466099 
  176000    0.6127923   -1.7599023   -1.7599023   -1.0567305  0.039521213   -1.7599023    0.7031718   466099 
  177000   0.61378581   -1.7605655   -1.7605655   -1.0562536  0.042371952   -1.7605655   0.70431184   466099 
  178000   0.61247164   -1.7598447   -1.7598447   -1.0570408  0.038059111   -1.7598447   0.70280385   466099 
  179000   0.61349352   -1.7606025   -1.7606025   -1.0566261  0.044006632   -1.7606025   0.70397643   466099 
  180000   0.61311859   -1.7599132   -1.7599132    -1.056367  0.042942793   -1.7599132   0.70354621   466099 
  181000   0.61445576   -1.7612542   -1.7612542   -1.0561737  0.037593673   -1.7612542    0.7050806   466099 
  182000   0.61300653   -1.7599739   -1.7599739   -1.0565563  0.047220591   -1.7599739   0.70341763   466099 
  183000   0.61284447   -1.7592891   -1.7592891   -1.0560574  0.043765474   -1.7592891   0.70323166   466099 
  184000   0.61368022   -1.7604253   -1.7604253   -1.0562346   0.03659186   -1.7604253   0.70419068   466099 
  185000   0.61367051   -1.7607739   -1.7607739   -1.0565943   0.03547243   -1.7607739   0.70417954   466099 
  186000   0.61161675   -1.7586303   -1.7586303   -1.0568074  0.041266935   -1.7586303   0.70182287   466099 
  187000    0.6129604   -1.7596826   -1.7596826   -1.0563179  0.040921089   -1.7596826    0.7033647   466099 
  188000   0.61291958   -1.7597901   -1.7597901   -1.0564723  0.040879407   -1.7597901   0.70331785   466099 
  189000   0.61209974   -1.7591736   -1.7591736   -1.0567965  0.045590253   -1.7591736    0.7023771   466099 
  190000   0.61258067   -1.7596991   -1.7596991   -1.0567702  0.038808729   -1.7596991   0.70292896   466099 
  191000    0.6126044   -1.7598109   -1.7598109   -1.0568547  0.035889822   -1.7598109   0.70295619   466099 
  192000   0.61248132   -1.7600927   -1.7600927   -1.0572778  0.039937851   -1.7600927   0.70281495   466099 
  193000   0.61171921   -1.7595651   -1.7595651   -1.0576246  0.039476544   -1.7595651   0.70194044   466099 
  194000   0.61124517   -1.7593188   -1.7593188   -1.0579223  0.039668696   -1.7593188   0.70139649   466099 
  195000   0.61210802   -1.7603426   -1.7603426    -1.057956  0.035309513   -1.7603426   0.70238659   466099 
  196000   0.61195255   -1.7599221   -1.7599221   -1.0577139  0.038532352   -1.7599221   0.70220819   466099 
  197000   0.61093727   -1.7591437   -1.7591437   -1.0581005  0.034840318   -1.7591437   0.70104317   466099 
  198000   0.61043321   -1.7585917   -1.7585917    -1.058127  0.039407157   -1.7585917   0.70046477   466099 
  199000   0.61255522    -1.760966    -1.760966   -1.0580663  0.038188655    -1.760966   0.70289975   466099 
  200000   0.61201772   -1.7607911   -1.7607911   -1.0585082  0.038475415   -1.7607911   0.70228298   466099 
  201000   0.61147948   -1.7599942   -1.7599942   -1.0583289  0.039294737   -1.7599942   0.70166535   466099 
  202000    0.6121916   -1.7612113   -1.7612113   -1.0587288  0.042119932   -1.7612113    0.7024825   466099 
  203000   0.61213267   -1.7611653   -1.7611653   -1.0587504  0.037759012   -1.7611653   0.70241488   466099 
  204000    0.6121953   -1.7615256   -1.7615256   -1.0590389  0.041178301   -1.7615256   0.70248675   466099 
  205000   0.61122312   -1.7603723   -1.7603723   -1.0590011  0.036752563   -1.7603723   0.70137118   466099 
  206000   0.61296953   -1.7622346   -1.7622346   -1.0588594  0.043090221   -1.7622346   0.70337517   466099 
  207000   0.61185599   -1.7608028   -1.7608028   -1.0587054  0.037200311   -1.7608028   0.70209739   466099 
  208000   0.61226866   -1.7613931   -1.7613931   -1.0588222  0.044690746   -1.7613931   0.70257093   466099 
  209000   0.61280197   -1.7620023   -1.7620023   -1.0588195  0.038293184   -1.7620023   0.70318289   466099 
  210000   0.61214351   -1.7614329   -1.7614329   -1.0590056  0.040612356   -1.7614329   0.70242732   466099 
  211000   0.61287937   -1.7614542   -1.7614542   -1.0581825  0.046287599   -1.7614542   0.70327171   466099 
  212000    0.6123484   -1.7610299   -1.7610299   -1.0583674  0.043834664   -1.7610299   0.70266243   466099 
  213000   0.61282856   -1.7622344   -1.7622344    -1.059021  0.039326171   -1.7622344    0.7032134   466099 
  214000   0.61233982   -1.7619872   -1.7619872   -1.0593346  0.037301459   -1.7619872   0.70265259   466099 
  215000   0.61289958    -1.761943    -1.761943   -1.0586481  0.040892377    -1.761943    0.7032949   466099 
  216000   0.61266629   -1.7615555   -1.7615555   -1.0585282  0.044172654   -1.7615555   0.70302721   466099 
  217000   0.61388396   -1.7633242   -1.7633242   -1.0588998   0.03655443   -1.7633242   0.70442446   466099 
  218000   0.61238262   -1.7621711   -1.7621711   -1.0594694  0.039191643   -1.7621711   0.70270169   466099 
  219000   0.61243559   -1.7624797   -1.7624797   -1.0597172  0.036232768   -1.7624797   0.70276248   466099 
  220000    0.6122564   -1.7619643   -1.7619643   -1.0594074  0.040577837   -1.7619643   0.70255686   466099 
  221000   0.61205381   -1.7615102   -1.7615102   -1.0591858   0.04333732   -1.7615102   0.70232439   466099 
  222000   0.61248202   -1.7623241   -1.7623241   -1.0595084  0.039916067   -1.7623241   0.70281575   466099 
  223000   0.61184889   -1.7616237   -1.7616237   -1.0595345  0.033954716   -1.7616237   0.70208925   466099 
  224000   0.61269401   -1.7627241   -1.7627241   -1.0596651  0.038935775   -1.7627241   0.70305901   466099 
  225000   0.61233254   -1.7618462   -1.7618462   -1.0592019  0.035864351   -1.7618462   0.70264423   466099 
  226000   0.61371561   -1.7636327   -1.7636327   -1.0594015   0.03990917   -1.7636327   0.70423128   466099 
  227000   0.61303224    -1.762597    -1.762597   -1.0591498  0.039497927    -1.762597   0.70344713   466099 
  228000   0.61395994   -1.7639234   -1.7639234   -1.0594117  0.042591682   -1.7639234   0.70451166   466099 
  229000   0.61189235   -1.7615282   -1.7615282   -1.0593891  0.041498791   -1.7615282   0.70213911   466099 
  230000   0.61247576   -1.7625102   -1.7625102   -1.0597016  0.037412587   -1.7625102   0.70280858   466099 
  231000   0.61256409    -1.762725    -1.762725   -1.0598151  0.039504565    -1.762725   0.70290993   466099 
  232000   0.61220492   -1.7629927   -1.7629927   -1.0604949  0.037669282   -1.7629927   0.70249779   466099 
  233000   0.61233803   -1.7629131   -1.7629131   -1.0602626   0.04201175   -1.7629131   0.70265053   466099 
  234000   0.61190222   -1.7630946   -1.7630946   -1.0609441  0.039707916   -1.7630946   0.70215044   466099 
  235000   0.61200864   -1.7629462   -1.7629462   -1.0606737  0.041047401   -1.7629462   0.70227256   466099 
  236000   0.61183302   -1.7625706   -1.7625706   -1.0604996  0.041862886   -1.7625706   0.70207103   466099 
  237000   0.61271526   -1.7631697   -1.7631697   -1.0600863  0.038577727   -1.7631697   0.70308339   466099 
  238000   0.61284844   -1.7633538   -1.7633538   -1.0601176  0.037804591   -1.7633538   0.70323621   466099 
  239000   0.61247003   -1.7628034   -1.7628034   -1.0600014  0.039502552   -1.7628034     0.702802   466099 
  240000   0.61301784   -1.7635798   -1.7635798   -1.0601492  0.039524424   -1.7635798    0.7034306   466099 
  241000   0.61254989   -1.7629649   -1.7629649   -1.0600713  0.033307204   -1.7629649   0.70289364   466099 
  242000   0.61252386   -1.7626849   -1.7626849   -1.0598211  0.042148516   -1.7626849   0.70286377   466099 
  243000   0.61199208   -1.7618055   -1.7618055   -1.0595519  0.035292424   -1.7618055   0.70225356   466099 
  244000   0.61305669   -1.7623748   -1.7623748   -1.0588996  0.040293536   -1.7623748   0.70347519   466099 
  245000   0.61192099   -1.7615327   -1.7615327   -1.0593608  0.042395559   -1.7615327   0.70217198   466099 
  246000   0.61263392   -1.7619358   -1.7619358   -1.0589457  0.037906159   -1.7619358   0.70299005   466099 
  247000   0.61196044   -1.7617666   -1.7617666   -1.0595494     0.041043   -1.7617666   0.70221724   466099 
  248000   0.61284259   -1.7627869   -1.7627869   -1.0595574  0.039452819   -1.7627869   0.70322951   466099 
  249000   0.61136094   -1.7611476   -1.7611476   -1.0596183  0.039331217   -1.7611476   0.70152933   466099 
  250000   0.61095601   -1.7606605   -1.7606605   -1.0595958  0.040626966   -1.7606605   0.70106467   466099 
  251000   0.61330627   -1.7626282   -1.7626282   -1.0588666  0.035738397   -1.7626282   0.70376157   466099 
  252000   0.61171166   -1.7610071   -1.7610071   -1.0590753  0.034548134   -1.7610071   0.70193178   466099 
  253000   0.61175753   -1.7611446   -1.7611446   -1.0591602  0.041913182   -1.7611446   0.70198442   466099 
  254000   0.61203554   -1.7607378   -1.7607378   -1.0584344  0.037552407   -1.7607378   0.70230342   466099 
  255000   0.61235452   -1.7617284   -1.7617284   -1.0590589   0.03498541   -1.7617284   0.70266946   466099 
  256000   0.61169672   -1.7620476   -1.7620476    -1.060133  0.036982917   -1.7620476   0.70191464   466099 
  257000     0.612764   -1.7629693   -1.7629693     -1.05983  0.038239294   -1.7629693   0.70313932   466099 
  258000   0.61305618   -1.7636302   -1.7636302   -1.0601556  0.039266353   -1.7636302    0.7034746   466099 
  259000   0.61245931   -1.7625335   -1.7625335   -1.0597438  0.039418998   -1.7625335    0.7027897   466099 
  260000   0.61178165   -1.7614609   -1.7614609   -1.0594488  0.039944733   -1.7614609   0.70201209   466099 
  261000   0.61253785   -1.7622957   -1.7622957   -1.0594159  0.045233032   -1.7622957   0.70287981   466099 
  262000   0.61281908   -1.7627789   -1.7627789   -1.0595764  0.045387469   -1.7627789   0.70320252   466099 
  263000   0.61289259   -1.7630006   -1.7630006   -1.0597137  0.042227717   -1.7630006   0.70328688   466099 
  264000   0.61278372   -1.7638108   -1.7638108   -1.0606489  0.038212213   -1.7638108   0.70316195   466099 
  265000   0.61371059   -1.7640738   -1.7640738   -1.0598483  0.042171432   -1.7640738   0.70422552   466099 
  266000   0.61300734   -1.7643244   -1.7643244   -1.0609058  0.038038039   -1.7643244   0.70341855   466099 
  267000   0.61363216   -1.7651819   -1.7651819   -1.0610464  0.036374032   -1.7651819   0.70413553   466099 
  268000   0.61276265   -1.7638408   -1.7638408    -1.060703   0.04343723   -1.7638408   0.70313778   466099 
  269000    0.6128124   -1.7639052   -1.7639052   -1.0607104  0.039565671   -1.7639052   0.70319486   466099 
  270000   0.61365559   -1.7653739   -1.7653739   -1.0612115   0.03582814   -1.7653739   0.70416241   466099 
  271000   0.61118969    -1.762741    -1.762741   -1.0614082  0.041104648    -1.762741   0.70133283   466099 
  272000   0.61194082   -1.7633404   -1.7633404   -1.0611457  0.037365702   -1.7633404   0.70219473   466099 
  273000   0.61299266   -1.7644495   -1.7644495   -1.0610478  0.045861861   -1.7644495    0.7034017   466099 
  274000   0.61153234   -1.7632609   -1.7632609   -1.0615349  0.042496554   -1.7632609   0.70172601   466099 
  275000   0.61199335   -1.7641655   -1.7641655   -1.0619105  0.036953394   -1.7641655   0.70225502   466099 
  276000   0.61292324   -1.7657117   -1.7657117   -1.0623896    0.0412146   -1.7657117   0.70332205   466099 
  277000   0.61163213   -1.7638028   -1.7638028   -1.0619623  0.041728535   -1.7638028   0.70184052   466099 
  278000   0.61155298   -1.7629397   -1.7629397     -1.06119  0.037913219   -1.7629397   0.70174969   466099 
  279000   0.61084402   -1.7626274   -1.7626274   -1.0616912  0.037133516   -1.7626274   0.70093617   466099 
  280000    0.6112885   -1.7642031   -1.7642031   -1.0627569  0.039596909   -1.7642031    0.7014462   466099 
  281000   0.61234163   -1.7646769   -1.7646769   -1.0620222  0.042315758   -1.7646769   0.70265466   466099 
  282000   0.61184735   -1.7646934   -1.7646934   -1.0626059  0.035546065   -1.7646934   0.70208749   466099 
  283000    0.6110059   -1.7639373   -1.7639373   -1.0628153  0.038846331   -1.7639373   0.70112192   466099 
  284000   0.61173796   -1.7649972   -1.7649972   -1.0630352  0.032816888   -1.7649972   0.70196195   466099 
  285000   0.61096608   -1.7649281   -1.7649281   -1.0638519   0.03881368   -1.7649281   0.70107623   466099 
  286000   0.61129782   -1.7652038   -1.7652038   -1.0637469  0.038946022   -1.7652038    0.7014569   466099 
  287000   0.61071669   -1.7644431   -1.7644431    -1.063653  0.035834694   -1.7644431   0.70079007   466099 
  288000    0.6114966   -1.7645199   -1.7645199   -1.0628349  0.040474534   -1.7645199     0.701685   466099 
  289000    0.6114823   -1.7643008   -1.7643008   -1.0626322  0.034758741   -1.7643008   0.70166859   466099 
  290000   0.61148583   -1.7642061   -1.7642061   -1.0625334  0.037578712   -1.7642061   0.70167264   466099 
  291000   0.61064799   -1.7630158   -1.7630158   -1.0623046  0.039220642   -1.7630158   0.70071123   466099 
  292000   0.61194447   -1.7642873   -1.7642873   -1.0620883   0.04168077   -1.7642873   0.70219892   466099 
  293000   0.61083794   -1.7636911   -1.7636911   -1.0627619  0.034749452   -1.7636911    0.7009292   466099 
  294000    0.6115313   -1.7650674   -1.7650674   -1.0633425  0.036583809   -1.7650674   0.70172481   466099 
  295000   0.61191643   -1.7656897   -1.7656897    -1.063523   0.03965481   -1.7656897   0.70216675   466099 
  296000   0.61210002   -1.7666785   -1.7666785    -1.064301  0.037373667   -1.7666785   0.70237742   466099 
  297000   0.61146876   -1.7655468   -1.7655468   -1.0638938  0.040803833   -1.7655468   0.70165305   466099 
  298000   0.61205052    -1.765997    -1.765997   -1.0636764  0.044547506    -1.765997   0.70232061   466099 
  299000   0.61153074   -1.7651739   -1.7651739   -1.0634497  0.043546614   -1.7651739   0.70172417   466099 
  300000   0.61112181   -1.7646656   -1.7646656   -1.0634107  0.039591324   -1.7646656   0.70125493   466099 
  301000   0.61254935   -1.7663594   -1.7663594   -1.0634664  0.038658021   -1.7663594   0.70289301   466099 
  302000   0.61112093   -1.7648873   -1.7648873   -1.0636334  0.037518629   -1.7648873   0.70125392   466099 
  303000   0.61158702    -1.765094    -1.765094   -1.0633052  0.038127334    -1.765094   0.70178876   466099 
  304000   0.61305708   -1.7666946   -1.7666946    -1.063219  0.041539672   -1.7666946   0.70347563   466099 
  305000    0.6126622   -1.7667317   -1.7667317   -1.0637092  0.043218191   -1.7667317   0.70302251   466099 
  306000   0.61198735    -1.765638    -1.765638   -1.0633899  0.041960786    -1.765638   0.70224813   466099 
  307000   0.61297923   -1.7674884   -1.7674884   -1.0641021  0.043551747   -1.7674884    0.7033863   466099 
  308000   0.61229571    -1.766857    -1.766857    -1.064255  0.042806441    -1.766857   0.70260197   466099 
  309000   0.61201842   -1.7668373   -1.7668373   -1.0645536  0.037945097   -1.7668373   0.70228378   466099 
  310000   0.61280436   -1.7665117   -1.7665117   -1.0633261  0.038933511   -1.7665117   0.70318563   466099 
  311000   0.61213168   -1.7659456   -1.7659456   -1.0635319  0.042370686   -1.7659456   0.70241374   466099 
  312000   0.61183513   -1.7665597   -1.7665597   -1.0644863  0.041102525   -1.7665597   0.70207345   466099 
  313000   0.61178367   -1.7658815   -1.7658815   -1.0638671  0.043031075   -1.7658815   0.70201441   466099 
  314000   0.61279843   -1.7674717   -1.7674717   -1.0642928   0.03399153   -1.7674717   0.70317883   466099 
  315000   0.61233684   -1.7658345   -1.7658345   -1.0631854  0.041292989   -1.7658345   0.70264916   466099 
  316000   0.61251873   -1.7659733   -1.7659733   -1.0631154  0.040905472   -1.7659733   0.70285788   466099 
  317000   0.61298091    -1.765999    -1.765999   -1.0626108  0.044995518    -1.765999   0.70338822   466099 
  318000   0.61271425   -1.7656312   -1.7656312    -1.062549  0.038704687   -1.7656312   0.70308224   466099 
  319000   0.61286936   -1.7657377   -1.7657377   -1.0624775  0.046073594   -1.7657377   0.70326023   466099 
  320000   0.61282513   -1.7654565   -1.7654565   -1.0622471   0.04746836   -1.7654565   0.70320947   466099 
  321000   0.61271069    -1.765035    -1.765035   -1.0619569  0.041235158    -1.765035   0.70307816   466099 
  322000   0.61222093   -1.7655893   -1.7655893   -1.0630731   0.04153409   -1.7655893   0.70251616   466099 
  323000   0.61201057   -1.7655973   -1.7655973   -1.0633226  0.039275348   -1.7655973   0.70227477   466099 
  324000   0.61103452   -1.7639545   -1.7639545   -1.0627997  0.035195471   -1.7639545   0.70115477   466099 
  325000   0.61170068   -1.7644773   -1.7644773   -1.0625582   0.03755735   -1.7644773   0.70191918   466099 
  326000   0.61039287   -1.7641268   -1.7641268   -1.0637083  0.037628166   -1.7641268   0.70041849   466099 
  327000   0.61017375   -1.7640624   -1.7640624   -1.0638954  0.036483661   -1.7640624   0.70016704   466099 
  328000   0.61047633   -1.7643273   -1.7643273   -1.0638131  0.037491834   -1.7643273   0.70051425   466099 
  329000   0.61001948   -1.7641708   -1.7641708   -1.0641808  0.040296106   -1.7641708   0.69999002   466099 
  330000   0.61003681   -1.7637364   -1.7637364   -1.0637265  0.042153299   -1.7637364   0.70000991   466099 
  331000   0.61165776   -1.7650482   -1.7650482   -1.0631783  0.030200736   -1.7650482   0.70186993   466099 
  332000   0.61079136   -1.7643004   -1.7643004   -1.0634247  0.043744964   -1.7643004   0.70087574   466099 
  333000   0.61095042   -1.7644212   -1.7644212    -1.063363  0.035706617   -1.7644212   0.70105827   466099 
  334000   0.61064014   -1.7635103   -1.7635103   -1.0628081   0.03455249   -1.7635103   0.70070222   466099 
  335000   0.61101655   -1.7648154   -1.7648154   -1.0636812   0.03366746   -1.7648154   0.70113415   466099 
  336000   0.61158691   -1.7655917   -1.7655917   -1.0638031  0.038316076   -1.7655917   0.70178862   466099 
  337000   0.61042732   -1.7643753   -1.7643753   -1.0639173  0.039031428   -1.7643753   0.70045801   466099 
  338000   0.61223225   -1.7662508   -1.7662508   -1.0637216  0.037534716   -1.7662508   0.70252915   466099 
  339000   0.61067573   -1.7651184   -1.7651184   -1.0643753   0.03523956   -1.7651184   0.70074306   466099 
  340000   0.61189462   -1.7654981   -1.7654981   -1.0633563  0.038138916   -1.7654981   0.70214172   466099 
  341000   0.61211104   -1.7671846   -1.7671846   -1.0647946  0.037079973   -1.7671846   0.70239006   466099 
  342000   0.61140612   -1.7661421   -1.7661421   -1.0645609  0.044470459   -1.7661421   0.70158117   466099 
  343000   0.61279292   -1.7680468   -1.7680468   -1.0648743  0.040628303   -1.7680468   0.70317251   466099 
  344000   0.61163854   -1.7672774   -1.7672774   -1.0654295  0.034530501   -1.7672774   0.70184787   466099 
  345000   0.61165461   -1.7673587   -1.7673587   -1.0654924  0.038685883   -1.7673587   0.70186631   466099 
  346000   0.61191812   -1.7679611   -1.7679611   -1.0657924  0.034334695   -1.7679611   0.70216869   466099 
  347000   0.61206702   -1.7679602   -1.7679602   -1.0656206  0.043592338   -1.7679602   0.70233954   466099 
  348000   0.61170705   -1.7672864   -1.7672864   -1.0653599  0.045716597   -1.7672864   0.70192648   466099 
  349000   0.61266367   -1.7683178   -1.7683178   -1.0652936  0.041340354   -1.7683178    0.7030242   466099 
  350000    0.6113985     -1.76687     -1.76687   -1.0652976  0.046115281     -1.76687   0.70157243   466099 
  351000   0.61249079   -1.7680685   -1.7680685   -1.0652427  0.039801085   -1.7680685   0.70282582   466099 
  352000   0.61188507   -1.7676104   -1.7676104   -1.0654797  0.045947889   -1.7676104   0.70213076   466099 
  353000   0.61239106   -1.7686089   -1.7686089   -1.0658975  0.039548795   -1.7686089   0.70271138   466099 
  354000   0.61239384   -1.7680238   -1.7680238   -1.0653092  0.041340054   -1.7680238   0.70271457   466099 
  355000   0.61244484   -1.7686482   -1.7686482   -1.0658751  0.041331456   -1.7686482   0.70277309   466099 
  356000   0.61253538   -1.7685691   -1.7685691   -1.0656921  0.046721589   -1.7685691   0.70287699   466099 
  357000   0.61190369   -1.7676256   -1.7676256   -1.0654734  0.045747583   -1.7676256   0.70215213   466099 
  358000   0.61250134   -1.7687917   -1.7687917   -1.0659537  0.038390467   -1.7687917   0.70283792   466099 
  359000   0.61115874   -1.7673121   -1.7673121   -1.0660148  0.048214763   -1.7673121    0.7012973   466099 
  360000    0.6117099   -1.7684866   -1.7684866   -1.0665569  0.038071652   -1.7684866   0.70192976   466099 
  361000    0.6116856   -1.7685153   -1.7685153   -1.0666134  0.043998797   -1.7685153   0.70190188   466099 
  362000    0.6124324   -1.7695524   -1.7695524   -1.0667936  0.037840768   -1.7695524   0.70275882   466099 
  363000   0.61221129   -1.7689102   -1.7689102   -1.0664051  0.039195891   -1.7689102    0.7025051   466099 
  364000   0.61115872   -1.7683211   -1.7683211   -1.0670238  0.036560111   -1.7683211   0.70129729   466099 
  365000   0.61125897   -1.7688576   -1.7688576   -1.0674452  0.037935438   -1.7688576   0.70141233   466099 
  366000   0.61176059   -1.7680585   -1.7680585   -1.0660706  0.041062669   -1.7680585   0.70198792   466099 
  367000   0.61018988   -1.7659918   -1.7659918   -1.0658062   0.03857376   -1.7659918   0.70018555   466099 
  368000   0.61106533    -1.766781    -1.766781   -1.0655909  0.039510465    -1.766781   0.70119012   466099 
  369000   0.61215386   -1.7680482   -1.7680482    -1.065609  0.033272006   -1.7680482    0.7024392   466099 
  370000   0.61062572   -1.7662794   -1.7662794   -1.0655937  0.035585528   -1.7662794   0.70068567   466099 
  371000   0.61102032   -1.7664545   -1.7664545   -1.0653161  0.038248452   -1.7664545   0.70113847   466099 
  372000   0.61161724   -1.7671001   -1.7671001   -1.0652766  0.040414693   -1.7671001   0.70182343   466099 
  373000   0.61140572   -1.7667622   -1.7667622   -1.0651815   0.03563725   -1.7667622   0.70158071   466099 
  374000   0.61169306   -1.7669415   -1.7669415   -1.0650311  0.037027038   -1.7669415   0.70191044   466099 
  375000   0.61182695   -1.7672164   -1.7672164   -1.0651523  0.035285607   -1.7672164   0.70206407   466099 
  376000   0.61214062     -1.76754     -1.76754    -1.065116  0.036423782     -1.76754     0.702424   466099 
  377000   0.61101486   -1.7659645   -1.7659645   -1.0648323   0.03867595   -1.7659645   0.70113221   466099 
  378000   0.61104569   -1.7666851   -1.7666851   -1.0655175  0.037957892   -1.7666851   0.70116759   466099 
  379000   0.61120373    -1.766612    -1.766612    -1.065263  0.038142065    -1.766612   0.70134893   466099 
  380000   0.61245889   -1.7682562   -1.7682562    -1.065467  0.034183486   -1.7682562   0.70278921   466099 
  381000   0.61092496   -1.7673416   -1.7673416   -1.0663126  0.040343899   -1.7673416   0.70102905   466099 
  382000   0.61129819   -1.7674795   -1.7674795   -1.0660221  0.039620256   -1.7674795   0.70145733   466099 
  383000   0.61049694   -1.7669655   -1.7669655   -1.0664276  0.033012748   -1.7669655    0.7005379   466099 
  384000   0.61111293   -1.7678206   -1.7678206   -1.0665759  0.032714487   -1.7678206   0.70124474   466099 
  385000    0.6107187   -1.7673073   -1.7673073   -1.0665149  0.036780466   -1.7673073   0.70079237   466099 
  386000    0.6114997   -1.7683505   -1.7683505   -1.0666619  0.041472848   -1.7683505   0.70168855   466099 
  387000   0.61238815   -1.7683837   -1.7683837   -1.0656757  0.035710896   -1.7683837   0.70270804   466099 
  388000   0.61252456   -1.7688013   -1.7688013   -1.0659368  0.036158608   -1.7688013   0.70286457   466099 
  389000   0.61261109   -1.7688453   -1.7688453   -1.0658814  0.040370736   -1.7688453   0.70296386   466099 
  390000   0.61349626   -1.7696743   -1.7696743   -1.0656947  0.038664341   -1.7696743   0.70397959   466099 
  391000   0.61165752   -1.7679637   -1.7679637    -1.066094  0.038341729   -1.7679637   0.70186965   466099 
  392000    0.6118742   -1.7690302   -1.7690302   -1.0669119  0.039307299   -1.7690302   0.70211828   466099 
  393000   0.61325424   -1.7700873   -1.7700873   -1.0663854  0.036330701   -1.7700873   0.70370187   466099 
  394000   0.61209125   -1.7686052   -1.7686052   -1.0662379  0.040153776   -1.7686052   0.70236735   466099 
  395000   0.61220138   -1.7687626   -1.7687626   -1.0662688  0.039978154   -1.7687626   0.70249372   466099 
  396000   0.61233338   -1.7689416   -1.7689416   -1.0662964  0.047037867   -1.7689416    0.7026452   466099 
  397000    0.6119437   -1.7687074   -1.7687074   -1.0665094  0.036670028   -1.7687074   0.70219804   466099 
  398000   0.61270286   -1.7696284   -1.7696284   -1.0665592  0.041107577   -1.7696284   0.70306917   466099 
  399000    0.6118084   -1.7691743   -1.7691743   -1.0671315   0.03593929   -1.7691743   0.70204278   466099 
  400000   0.61149753    -1.769164    -1.769164   -1.0674779   0.04174476    -1.769164   0.70168607   466099 
  401000   0.61107554   -1.7691674   -1.7691674   -1.0679656  0.042229876   -1.7691674   0.70120184   466099 
  402000   0.61008241   -1.7682852   -1.7682852    -1.068223  0.033449002   -1.7682852   0.70006223   466099 
  403000    0.6104347   -1.7687942   -1.7687942   -1.0683278  0.040403573   -1.7687942   0.70046648   466099 
  404000   0.61041734   -1.7682802   -1.7682802   -1.0678336  0.040266637   -1.7682802   0.70044656   466099 
  405000   0.61067484   -1.7680096   -1.7680096   -1.0672676  0.032588248   -1.7680096   0.70074204   466099 
  406000   0.60944328   -1.7672847   -1.7672847   -1.0679558  0.043112197   -1.7672847   0.69932884   466099 
  407000   0.61049524   -1.7685966   -1.7685966   -1.0680606  0.034589725   -1.7685966   0.70053595   466099 
  408000   0.61047486   -1.7680365   -1.7680365   -1.0675239  0.042402184   -1.7680365   0.70051257   466099 
  409000   0.60997098   -1.7681968   -1.7681968   -1.0682624  0.035288586   -1.7681968   0.69993437   466099 
  410000   0.61126247    -1.769939    -1.769939   -1.0685227  0.038590622    -1.769939   0.70141634   466099 
  411000   0.61081355   -1.7691813   -1.7691813   -1.0682801  0.036596042   -1.7691813    0.7009012   466099 
  412000   0.61118816   -1.7695983   -1.7695983   -1.0682672   0.04013042   -1.7695983   0.70133107   466099 
  413000   0.61063514   -1.7692228   -1.7692228   -1.0685263  0.040816354   -1.7692228   0.70069648   466099 
  414000   0.61087691   -1.7682398   -1.7682398   -1.0672659  0.037540271   -1.7682398   0.70097391   466099 
  415000   0.61074165   -1.7679541   -1.7679541   -1.0671354  0.039427069   -1.7679541    0.7008187   466099 
  416000   0.61141999   -1.7680383   -1.7680383   -1.0664412  0.038067653   -1.7680383   0.70159709   466099 
  417000     0.611065   -1.7679272   -1.7679272   -1.0667374  0.040385223   -1.7679272   0.70118974   466099 
  418000   0.61313853   -1.7697592   -1.7697592   -1.0661901  0.039724503   -1.7697592   0.70356909   466099 
  419000   0.61198056   -1.7691175   -1.7691175   -1.0668772  0.042173758   -1.7691175   0.70224033   466099 
  420000   0.61132512   -1.7687124   -1.7687124   -1.0672242  0.040672876   -1.7687124   0.70148823   466099 
  421000   0.61251024   -1.7701416   -1.7701416   -1.0672935  0.045639096   -1.7701416   0.70284814   466099 
  422000   0.61120616   -1.7686965   -1.7686965   -1.0673448  0.044061243   -1.7686965   0.70135172   466099 
  423000   0.61155261   -1.7689571   -1.7689571   -1.0672078  0.038931968   -1.7689571   0.70174927   466099 
  424000   0.61077413   -1.7685183   -1.7685183   -1.0676623  0.038774703   -1.7685183   0.70085597   466099 
  425000   0.61115463   -1.7695243   -1.7695243   -1.0682317  0.038677492   -1.7695243   0.70129259   466099 
  426000   0.61029997   -1.7684324   -1.7684324   -1.0681205  0.036782433   -1.7684324   0.70031188   466099 
  427000   0.61083841   -1.7695781   -1.7695781   -1.0686484  0.041346108   -1.7695781   0.70092973   466099 
  428000   0.60999953   -1.7681642   -1.7681642    -1.068197  0.037468925   -1.7681642   0.69996713   466099 
  429000   0.61131544   -1.7699199   -1.7699199   -1.0684428    0.0361575   -1.7699199   0.70147712   466099 
  430000   0.61140601   -1.7692225   -1.7692225   -1.0676415  0.041611871   -1.7692225   0.70158105   466099 
  431000   0.60947659   -1.7673682   -1.7673682   -1.0680011  0.038588966   -1.7673682   0.69936706   466099 
  432000   0.61103148   -1.7691116   -1.7691116   -1.0679603  0.040068357   -1.7691116   0.70115128   466099 
  433000   0.61169582   -1.7694112   -1.7694112   -1.0674976  0.040277022   -1.7694112    0.7019136   466099 
  434000   0.61022971   -1.7685677   -1.7685677   -1.0683364  0.041654435   -1.7685677   0.70023125   466099 
  435000   0.61122259    -1.769694    -1.769694   -1.0683234   0.03546085    -1.769694   0.70137057   466099 
  436000   0.61022185   -1.7682835   -1.7682835   -1.0680613  0.041643962   -1.7682835   0.70022223   466099 
  437000   0.61058242   -1.7689694   -1.7689694   -1.0683334  0.035114797   -1.7689694   0.70063599   466099 
  438000   0.61023173   -1.7693189   -1.7693189   -1.0690853  0.033072538   -1.7693189   0.70023357   466099 
  439000   0.60999626   -1.7692156   -1.7692156   -1.0692522  0.036027689   -1.7692156   0.69996338   466099 
  440000   0.61007807   -1.7694608   -1.7694608   -1.0694036  0.040363173   -1.7694608   0.70005726   466099 
  441000   0.61054699   -1.7702571   -1.7702571   -1.0696617  0.036540893   -1.7702571   0.70059533   466099 
  442000   0.60982814   -1.7693905   -1.7693905     -1.06962  0.037747659   -1.7693905   0.69977047   466099 
  443000    0.6105761   -1.7707416   -1.7707416   -1.0701129  0.040019055   -1.7707416   0.70062873   466099 
  444000   0.61015808   -1.7701407   -1.7701407   -1.0699917  0.034790211   -1.7701407   0.70014906   466099 
  445000   0.61059777   -1.7699701   -1.7699701   -1.0693165  0.039208466   -1.7699701   0.70065361   466099 
  446000   0.61178777   -1.7709702   -1.7709702   -1.0689511  0.035742378   -1.7709702   0.70201911   466099 
  447000   0.61079558   -1.7696797   -1.7696797   -1.0687992  0.037483587   -1.7696797   0.70088059   466099 
  448000   0.61103041   -1.7697701   -1.7697701     -1.06862  0.037322124   -1.7697701   0.70115005   466099 
  449000    0.6102655   -1.7688945   -1.7688945   -1.0686221  0.040444522   -1.7688945   0.70027233   466099 
  450000   0.61077916   -1.7698471   -1.7698471   -1.0689853  0.042755319   -1.7698471   0.70086174   466099 
  451000   0.61066208   -1.7700723   -1.7700723   -1.0693449  0.039835812   -1.7700723    0.7007274   466099 
  452000   0.61145694   -1.7710522   -1.7710522   -1.0694127  0.039582915   -1.7710522   0.70163949   466099 
  453000   0.61076075   -1.7707409   -1.7707409   -1.0699003  0.039398476   -1.7707409   0.70084062   466099 
  454000   0.61175825   -1.7718129   -1.7718129   -1.0698277  0.038409327   -1.7718129   0.70198524   466099 
  455000   0.61093798   -1.7705623   -1.7705623   -1.0695184  0.045600633   -1.7705623   0.70104399   466099 
  456000   0.61177653   -1.7716784   -1.7716784   -1.0696722  0.034526841   -1.7716784   0.70200622   466099 
  457000   0.61140436   -1.7712234   -1.7712234   -1.0696442  0.037314253   -1.7712234   0.70157915   466099 
  458000   0.61147468    -1.771607    -1.771607   -1.0699471  0.035589993    -1.771607   0.70165985   466099 
  459000   0.61081819   -1.7719154   -1.7719154   -1.0710089  0.038603511   -1.7719154   0.70090653   466099 
  460000   0.61120442   -1.7716922   -1.7716922   -1.0703425  0.039147779   -1.7716922   0.70134972   466099 
  461000   0.60981108   -1.7703127   -1.7703127   -1.0705618  0.038826552   -1.7703127   0.69975089   466099 
  462000   0.61027521   -1.7710011   -1.7710011   -1.0707176  0.044730401   -1.7710011   0.70028347   466099 
  463000   0.61146138   -1.7723757   -1.7723757   -1.0707311  0.044899353   -1.7723757   0.70164458   466099 
  464000   0.61096817   -1.7719041   -1.7719041   -1.0708255  0.038491048   -1.7719041   0.70107863   466099 
  465000   0.61180295    -1.772933    -1.772933   -1.0708965  0.041276274    -1.772933   0.70203653   466099 
  466000   0.61055531   -1.7714117   -1.7714117   -1.0708068  0.036366708   -1.7714117   0.70060488   466099 
  467000   0.61092281   -1.7710632   -1.7710632   -1.0700366  0.040403668   -1.7710632   0.70102658   466099 
  468000   0.61170659   -1.7725088   -1.7725088   -1.0705828  0.038565912   -1.7725088   0.70192596   466099 
  469000   0.61042932   -1.7715879   -1.7715879   -1.0711276  0.046472607   -1.7715879   0.70046031   466099 
  470000   0.60993048   -1.7709291   -1.7709291   -1.0710412   0.04400192   -1.7709291   0.69988789   466099 
  471000   0.60988164   -1.7710935   -1.7710935   -1.0712617  0.038875716   -1.7710935   0.69983185   466099 
  472000   0.61042249   -1.7712006   -1.7712006   -1.0707481    0.0397461   -1.7712006   0.70045247   466099 
  473000   0.61171853   -1.7728806   -1.7728806   -1.0709409  0.039378722   -1.7728806   0.70193966   466099 
  474000   0.60994913   -1.7703648   -1.7703648   -1.0704555  0.043074048   -1.7703648    0.6999093   466099 
  475000   0.61067533   -1.7713698   -1.7713698   -1.0706272    0.0426823   -1.7713698    0.7007426   466099 
  476000   0.61078717   -1.7706588   -1.7706588   -1.0697878  0.036283177   -1.7706588   0.70087093   466099 
  477000   0.61124623   -1.7709368   -1.7709368   -1.0695391  0.043249584   -1.7709368    0.7013977   466099 
  478000   0.61088649   -1.7704034   -1.7704034   -1.0694185  0.041510361   -1.7704034    0.7009849   466099 
  479000   0.61049416    -1.770737    -1.770737   -1.0702023  0.034538903    -1.770737   0.70053472   466099 
  480000   0.60986867   -1.7699723   -1.7699723   -1.0701554  0.036499325   -1.7699723   0.69981697   466099 
  481000   0.61117164   -1.7715456   -1.7715456   -1.0702335  0.035534495   -1.7715456   0.70131211   466099 
  482000   0.61091445   -1.7705112   -1.7705112   -1.0694942  0.041610946   -1.7705112   0.70101699   466099 
  483000   0.61015726   -1.7694112   -1.7694112   -1.0692631  0.040628024   -1.7694112   0.70014812   466099 
  484000   0.61053834   -1.7696242   -1.7696242   -1.0690388  0.041557104   -1.7696242   0.70058541   466099 
  485000    0.6095531   -1.7686342   -1.7686342   -1.0691793  0.034141519   -1.7686342   0.69945486   466099 
  486000    0.6094754    -1.768686    -1.768686   -1.0693203  0.037753147    -1.768686    0.6993657   466099 
  487000    0.6102293   -1.7689188   -1.7689188    -1.068688  0.039780821   -1.7689188   0.70023079   466099 
  488000   0.61075607   -1.7698822   -1.7698822   -1.0690469  0.037826576   -1.7698822   0.70083524   466099 
  489000   0.61020804   -1.7692722   -1.7692722   -1.0690658  0.035078341   -1.7692722   0.70020639   466099 
  490000   0.61100021   -1.7699119   -1.7699119   -1.0687965   0.03821527   -1.7699119    0.7011154   466099 
  491000   0.61058528   -1.7696859   -1.7696859   -1.0690466  0.036825167   -1.7696859   0.70063927   466099 
  492000     0.610087   -1.7698053   -1.7698053   -1.0697378   0.03791037   -1.7698053    0.7000675   466099 
  493000    0.6111931   -1.7707254   -1.7707254   -1.0693887  0.036299993   -1.7707254   0.70133674   466099 
  494000   0.61094091   -1.7697301   -1.7697301   -1.0686828  0.039418744   -1.7697301   0.70104736   466099 
  495000     0.610644   -1.7700902   -1.7700902   -1.0693836  0.038960944   -1.7700902   0.70070665   466099 
  496000   0.61015592   -1.7687734   -1.7687734   -1.0686268  0.039490062   -1.7687734   0.70014659   466099 
  497000   0.61067343   -1.7694141   -1.7694141   -1.0686737  0.040163433   -1.7694141   0.70074042   466099 
  498000   0.61079388   -1.7699679   -1.7699679   -1.0690893  0.041448439   -1.7699679   0.70087863   466099 
  499000   0.61012341   -1.7694227   -1.7694227   -1.0693134  0.047276357   -1.7694227   0.70010928   466099 
  500000   0.61118574    -1.770404    -1.770404   -1.0690757  0.035645696    -1.770404   0.70132829   466099 
  501000   0.61108104   -1.7708063   -1.7708063   -1.0695981  0.035750044   -1.7708063   0.70120815   466099 
  502000   0.60959276   -1.7691126   -1.7691126   -1.0696123  0.038611394   -1.7691126   0.69950037   466099 
  503000   0.60973405   -1.7692157   -1.7692157   -1.0695532  0.041316411   -1.7692157   0.69966249   466099 
  504000   0.61035326   -1.7699963   -1.7699963   -1.0696233  0.040371328   -1.7699963   0.70037303   466099 
  505000   0.61134526   -1.7709819   -1.7709819   -1.0694705   0.03313378   -1.7709819   0.70151134   466099 
  506000    0.6107848     -1.77046     -1.77046   -1.0695918  0.039803783     -1.77046   0.70086822   466099 
  507000   0.61075083   -1.7696543   -1.7696543    -1.068825   0.04298801   -1.7696543   0.70082923   466099 
  508000   0.61118806   -1.7709092   -1.7709092   -1.0695782  0.036614317   -1.7709092   0.70133096   466099 
  509000   0.61064108   -1.7704937   -1.7704937   -1.0697904  0.039962756   -1.7704937    0.7007033   466099 
  510000   0.61006755    -1.770086    -1.770086   -1.0700408  0.038943736    -1.770086   0.70004518   466099 
  511000   0.61097693   -1.7708522   -1.7708522   -1.0697635  0.040931459   -1.7708522   0.70108869   466099 
  512000   0.61068005    -1.770912    -1.770912    -1.070164  0.037544415    -1.770912   0.70074802   466099 
  513000   0.61092808   -1.7710112   -1.7710112   -1.0699785  0.035831496   -1.7710112   0.70103263   466099 
  514000     0.610712   -1.7712806   -1.7712806   -1.0704959  0.042440675   -1.7712806   0.70078468   466099 
  515000   0.61029603   -1.7714027   -1.7714027   -1.0710953  0.045625888   -1.7714027   0.70030736   466099 
  516000   0.60988258   -1.7701266   -1.7701266   -1.0702936  0.040873197   -1.7701266   0.69983293   466099 
  517000   0.61044763    -1.771774    -1.771774   -1.0712927  0.036882331    -1.771774   0.70048132   466099 
  518000   0.61119483   -1.7721587   -1.7721587   -1.0708199  0.039068181   -1.7721587   0.70133873   466099 
  519000   0.61058713   -1.7718354   -1.7718354    -1.071194  0.042711419   -1.7718354    0.7006414   466099 
  520000   0.61151308   -1.7718225   -1.7718225   -1.0701186  0.038240452   -1.7718225   0.70170391   466099 
  521000   0.61054415   -1.7713133   -1.7713133   -1.0707212  0.036105161   -1.7713133   0.70059207   466099 
  522000   0.60973602   -1.7710225   -1.7710225   -1.0713577  0.035838901   -1.7710225   0.69966476   466099 
  523000   0.61088732   -1.7718802   -1.7718802   -1.0708944  0.038425996   -1.7718802   0.70098586   466099 
  524000   0.61027096   -1.7706163   -1.7706163   -1.0703377  0.041824708   -1.7706163   0.70027859   466099 
  525000   0.61091087   -1.7719413   -1.7719413   -1.0709285  0.041229752   -1.7719413   0.70101288   466099 
  526000   0.61116922    -1.772376    -1.772376   -1.0710666   0.03554815    -1.772376   0.70130933   466099 
  527000   0.61055691   -1.7720988   -1.7720988   -1.0714921  0.031086874   -1.7720988   0.70060671   466099 
  528000   0.61073582   -1.7726624   -1.7726624   -1.0718504  0.035663183   -1.7726624   0.70081201   466099 
  529000   0.61040831    -1.772699    -1.772699   -1.0722628  0.035826427    -1.772699    0.7004362   466099 
  530000   0.61002074   -1.7722021   -1.7722021   -1.0722107   0.03779515   -1.7722021   0.69999146   466099 
  531000   0.61050846   -1.7723351   -1.7723351    -1.071784  0.034449057   -1.7723351   0.70055112   466099 
  532000   0.61065468    -1.772117    -1.772117   -1.0713981  0.035190293    -1.772117    0.7007189   466099 
  533000   0.61062958   -1.7718454   -1.7718454   -1.0711553   0.03828548   -1.7718454    0.7006901   466099 
  534000   0.60994093   -1.7710342   -1.7710342   -1.0711343  0.046785647   -1.7710342   0.69989989   466099 
  535000   0.61101718   -1.7718581   -1.7718581   -1.0707233  0.039484229   -1.7718581   0.70113487   466099 
  536000   0.60973374   -1.7710865   -1.7710865   -1.0714244  0.037778925   -1.7710865   0.69966214   466099 
  537000   0.61053321   -1.7731574   -1.7731574   -1.0725779  0.037722262   -1.7731574   0.70057952   466099 
  538000   0.61044145   -1.7726237   -1.7726237   -1.0721494   0.03754114   -1.7726237   0.70047423   466099 
  539000   0.60919289   -1.7711259   -1.7711259   -1.0720844  0.045199783   -1.7711259   0.69904152   466099 
  540000   0.61015848   -1.7722556   -1.7722556   -1.0721061  0.040434889   -1.7722556   0.70014952   466099 
  541000   0.60951432   -1.7716919   -1.7716919   -1.0722815  0.038721292   -1.7716919   0.69941036   466099 
  542000   0.61011806   -1.7719848   -1.7719848   -1.0718817  0.032891703   -1.7719848   0.70010314   466099 
  543000   0.60999964   -1.7721007   -1.7721007   -1.0721334  0.041231847   -1.7721007   0.69996726   466099 
  544000   0.60928459   -1.7718861   -1.7718861   -1.0727394  0.036454629   -1.7718861   0.69914674   466099 
  545000   0.60899163   -1.7717638   -1.7717638   -1.0729532  0.038622147   -1.7717638   0.69881057   466099 
  546000   0.61004828   -1.7728176   -1.7728176   -1.0727945   0.03250607   -1.7728176   0.70002307   466099 
  547000    0.6099429   -1.7715049   -1.7715049   -1.0716027  0.039061432   -1.7715049   0.69990214   466099 
  548000    0.6101927   -1.7722907   -1.7722907   -1.0721019  0.038565139   -1.7722907   0.70018878   466099 
  549000   0.61081999   -1.7736371   -1.7736371   -1.0727286   0.03867439   -1.7736371   0.70090859   466099 
  550000   0.61149316   -1.7737617   -1.7737617   -1.0720806  0.034563451   -1.7737617   0.70168105   466099 
  551000   0.60928788   -1.7724496   -1.7724496   -1.0732991  0.039766072   -1.7724496   0.69915052   466099 
  552000   0.60952029    -1.772723    -1.772723   -1.0733058  0.041746916    -1.772723   0.69941721   466099 
  553000   0.61063519   -1.7737148   -1.7737148   -1.0730182    0.0424655   -1.7737148   0.70069654   466099 
  554000   0.61115042   -1.7739363   -1.7739363   -1.0726486  0.040636068   -1.7739363   0.70128777   466099 
  555000   0.60958906   -1.7721851   -1.7721851    -1.072689   0.04536991   -1.7721851   0.69949611   466099 
  556000   0.60990567   -1.7728473   -1.7728473   -1.0729879  0.038209302   -1.7728473   0.69985943   466099 
  557000   0.60960169   -1.7733397   -1.7733397   -1.0738291  0.038901336   -1.7733397   0.69951061   466099 
  558000   0.60930631   -1.7733162   -1.7733162   -1.0741446  0.035759702   -1.7733162   0.69917167   466099 
  559000   0.61030728   -1.7741941   -1.7741941   -1.0738738  0.035270365   -1.7741941   0.70032027   466099 
  560000   0.61022343   -1.7739497   -1.7739497   -1.0737257  0.042299727   -1.7739497   0.70022406   466099 
  561000   0.61009938   -1.7737109   -1.7737109   -1.0736292  0.037033081   -1.7737109    0.7000817   466099 
  562000   0.60965634   -1.7732443   -1.7732443    -1.073671  0.039954286   -1.7732443   0.69957332   466099 
  563000    0.6103324   -1.7740719   -1.7740719   -1.0737228  0.042231198   -1.7740719   0.70034909   466099 
  564000   0.60985285   -1.7736534   -1.7736534   -1.0738546  0.035909659   -1.7736534   0.69979882   466099 
  565000   0.61075312   -1.7751225   -1.7751225   -1.0742907  0.038237114   -1.7751225   0.70083187   466099 
  566000   0.61089502   -1.7755622   -1.7755622   -1.0745675  0.044060731   -1.7755622   0.70099469   466099 
  567000   0.60982748   -1.7741294   -1.7741294   -1.0743597  0.045384608   -1.7741294   0.69976971   466099 
  568000   0.61119857   -1.7755972   -1.7755972   -1.0742542  0.043121261   -1.7755972   0.70134301   466099 
  569000   0.61067377   -1.7745944   -1.7745944   -1.0738536  0.041224083   -1.7745944   0.70074081   466099 
  570000   0.61045856    -1.775104    -1.775104   -1.0746101  0.041105169    -1.775104   0.70049386   466099 
  571000   0.61156648   -1.7763229   -1.7763229   -1.0745577   0.03430798   -1.7763229   0.70176518   466099 
  572000   0.60923482   -1.7746246   -1.7746246   -1.0755349  0.043059708   -1.7746246   0.69908963   466099 
  573000   0.61021218   -1.7751658   -1.7751658   -1.0749547  0.034326103   -1.7751658   0.70021114   466099 
  574000   0.60961585   -1.7751855   -1.7751855   -1.0756586  0.041122028   -1.7751855   0.69952686   466099 
  575000     0.609689   -1.7747757   -1.7747757   -1.0751649  0.040389231   -1.7747757   0.69961079   466099 
  576000   0.60978365   -1.7750898   -1.7750898   -1.0753704  0.036725437   -1.7750898   0.69971941   466099 
  577000   0.60982456   -1.7751181   -1.7751181   -1.0753517   0.04168977   -1.7751181   0.69976635   466099 
  578000   0.61004163    -1.774963    -1.774963   -1.0749476  0.038551714    -1.774963   0.70001544   466099 
  579000   0.60993594   -1.7746194   -1.7746194   -1.0747253  0.038397408   -1.7746194   0.69989416   466099 
  580000   0.61024084   -1.7743961   -1.7743961   -1.0741521  0.040703293   -1.7743961   0.70024403   466099 
  581000   0.61044015   -1.7740383   -1.7740383   -1.0735656  0.040588163   -1.7740383   0.70047274   466099 
  582000   0.60967957   -1.7727861   -1.7727861   -1.0731861  0.040585794   -1.7727861   0.69959998   466099 
  583000   0.61060449   -1.7727182   -1.7727182   -1.0720569   0.04345248   -1.7727182   0.70066131   466099 
  584000   0.61000721   -1.7728122   -1.7728122   -1.0728363  0.037934666   -1.7728122   0.69997594   466099 
  585000   0.60998184   -1.7736212   -1.7736212   -1.0736744  0.039250461   -1.7736212   0.69994683   466099 
  586000   0.60874926   -1.7723511   -1.7723511   -1.0738186  0.037558976   -1.7723511   0.69853246   466099 
  587000   0.60911073   -1.7728613   -1.7728613    -1.073914  0.039885136   -1.7728613   0.69894724   466099 
  588000   0.61108659   -1.7755619   -1.7755619   -1.0743474  0.039369276   -1.7755619   0.70121451   466099 
  589000    0.6101775   -1.7741009   -1.7741009   -1.0739296  0.036517852   -1.7741009   0.70017135   466099 
  590000   0.60902355   -1.7729924   -1.7729924   -1.0741452  0.036939231   -1.7729924    0.6988472   466099 
  591000   0.60972646   -1.7728962   -1.7728962   -1.0732424  0.036944123   -1.7728962   0.69965378   466099 
  592000   0.60919574   -1.7723299   -1.7723299   -1.0732851  0.041117094   -1.7723299   0.69904479   466099 
  593000   0.60907939   -1.7725489   -1.7725489   -1.0736377  0.038635588   -1.7725489   0.69891128   466099 
  594000    0.6084165   -1.7724495   -1.7724495   -1.0742989  0.040687905   -1.7724495   0.69815062   466099 
  595000   0.60858953   -1.7729419   -1.7729419   -1.0745927  0.032003851   -1.7729419   0.69834917   466099 
  596000   0.60979117   -1.7743817   -1.7743817   -1.0746537  0.033503926   -1.7743817   0.69972804   466099 
  597000   0.60994438   -1.7740719   -1.7740719   -1.0741681  0.034566618   -1.7740719   0.69990384   466099 
  598000   0.61013446   -1.7746635   -1.7746635   -1.0745415  0.035277208   -1.7746635   0.70012196   466099 
  599000   0.60938731   -1.7738667   -1.7738667   -1.0746021  0.042946677   -1.7738667   0.69926461   466099 
  600000   0.61014797   -1.7744245   -1.7744245   -1.0742871  0.036617788   -1.7744245   0.70013746   466099 
  601000   0.61001443    -1.774237    -1.774237   -1.0742528  0.039787753    -1.774237   0.69998423   466099 
  602000   0.60960609     -1.77406     -1.77406   -1.0745443  0.039974373     -1.77406   0.69951566   466099 
  603000   0.60964542   -1.7740316   -1.7740316   -1.0744708   0.04159781   -1.7740316   0.69956079   466099 
  604000   0.61138862   -1.7767339   -1.7767339   -1.0751728  0.035658432   -1.7767339   0.70156109   466099 
  605000    0.6098911   -1.7753185   -1.7753185   -1.0754758  0.037828476   -1.7753185   0.69984271   466099 
  606000   0.60979467   -1.7755472   -1.7755472   -1.0758152  0.035877654   -1.7755472   0.69973205   466099 
  607000   0.61092809   -1.7767762   -1.7767762   -1.0757435  0.032873008   -1.7767762   0.70103264   466099 
  608000     0.611481    -1.777141    -1.777141   -1.0754739  0.039927678    -1.777141    0.7016671   466099 
  609000   0.61037602    -1.776259    -1.776259   -1.0758599  0.044409071    -1.776259   0.70039915   466099 
  610000   0.61002971   -1.7754155   -1.7754155   -1.0754137  0.046504541   -1.7754155   0.70000176   466099 
  611000   0.61089187   -1.7764285   -1.7764285   -1.0754374  0.036781662   -1.7764285   0.70099107   466099 
  612000   0.61115782   -1.7770633   -1.7770633    -1.075767  0.036064576   -1.7770633   0.70129625   466099 
  613000   0.61066629   -1.7764466   -1.7764466   -1.0757143  0.041062411   -1.7764466   0.70073222   466099 
  614000    0.6112565   -1.7774363   -1.7774363   -1.0760268   0.03718363   -1.7774363   0.70140949   466099 
  615000   0.61068874   -1.7768345   -1.7768345   -1.0760765  0.040251639   -1.7768345   0.70075799   466099 
  616000   0.61098455   -1.7773178   -1.7773178   -1.0762203  0.041971827   -1.7773178   0.70109742   466099 
  617000   0.60976906   -1.7758257   -1.7758257    -1.076123  0.040770568   -1.7758257   0.69970267   466099 
  618000   0.61015216   -1.7759527   -1.7759527   -1.0758105  0.039871255   -1.7759527   0.70014227   466099 
  619000   0.61007064   -1.7761329   -1.7761329   -1.0760842  0.039022295   -1.7761329   0.70004873   466099 
  620000    0.6098071   -1.7757419   -1.7757419   -1.0759956  0.038344524   -1.7757419   0.69974632   466099 
  621000   0.60970308   -1.7760325   -1.7760325   -1.0764056  0.041988828   -1.7760325   0.69962696   466099 
  622000   0.60939855   -1.7757218   -1.7757218   -1.0764442  0.038970829   -1.7757218   0.69927751   466099 
  623000   0.60945114   -1.7758467   -1.7758467   -1.0765089  0.039520084   -1.7758467   0.69933786   466099 
  624000   0.60996605   -1.7768236   -1.7768236   -1.0768949   0.03774719   -1.7768236   0.69992872   466099 
  625000   0.61020704   -1.7763766   -1.7763766   -1.0761713  0.041878331   -1.7763766   0.70020524   466099 
  626000   0.60854401   -1.7746021   -1.7746021   -1.0763052  0.036290436   -1.7746021   0.69829694   466099 
  627000   0.60846456   -1.7750526   -1.7750526   -1.0768469  0.040790816   -1.7750526   0.69820577   466099 
  628000   0.60880587   -1.7754492   -1.7754492   -1.0768518   0.03169881   -1.7754492   0.69859742   466099 
  629000   0.60909824   -1.7760448   -1.7760448   -1.0771119    0.0380921   -1.7760448   0.69893291   466099 
  630000   0.60977528   -1.7763484   -1.7763484   -1.0766386  0.040525151   -1.7763484   0.69970981   466099 
  631000   0.61038125   -1.7772572   -1.7772572   -1.0768521  0.037956202   -1.7772572   0.70040515   466099 
  632000   0.60944082   -1.7752344   -1.7752344   -1.0759084  0.043312338   -1.7752344   0.69932602   466099 
  633000    0.6099335    -1.775665    -1.775665   -1.0757736  0.038947201    -1.775665   0.69989136   466099 
  634000   0.60939629     -1.77531     -1.77531   -1.0760351  0.042055308     -1.77531   0.69927492   466099 
  635000   0.61023753   -1.7760001   -1.7760001   -1.0757599  0.037021762   -1.7760001   0.70024023   466099 
  636000   0.61014237   -1.7762931   -1.7762931   -1.0761621  0.035066546   -1.7762931   0.70013104   466099 
  637000   0.61068258   -1.7767585   -1.7767585   -1.0760075  0.043406114   -1.7767585   0.70075092   466099 
  638000   0.60829669   -1.7751312   -1.7751312    -1.077118  0.036460292   -1.7751312   0.69801314   466099 
  639000   0.60987472   -1.7765539   -1.7765539     -1.07673  0.035557505   -1.7765539   0.69982391   466099 
  640000   0.60964213    -1.775692    -1.775692    -1.076135  0.035253021    -1.775692   0.69955701   466099 
  641000   0.61048731   -1.7764432   -1.7764432   -1.0759163  0.039439368   -1.7764432   0.70052685   466099 
  642000   0.60990009   -1.7766176   -1.7766176   -1.0767646  0.039336852   -1.7766176   0.69985303   466099 
  643000   0.61007666    -1.777145    -1.777145   -1.0770894  0.038113275    -1.777145   0.70005564   466099 
  644000   0.61037802   -1.7768259   -1.7768259   -1.0764244   0.04316603   -1.7768259   0.70040144   466099 
[...]
 9832000   0.60234628   -1.8222775   -1.8222775   -1.1310924  0.033845579   -1.8222775   0.69118512   466099 
 9833000   0.60322335   -1.8227554   -1.8227554   -1.1305639  0.035405482   -1.8227554   0.69219154   466099 
 9834000   0.60360062   -1.8225837   -1.8225837   -1.1299592  0.028692928   -1.8225837   0.69262445   466099 
 9835000   0.60204092   -1.8216464   -1.8216464   -1.1308116  0.029503461   -1.8216464   0.69083472   466099 
 9836000   0.60276878   -1.8224138   -1.8224138   -1.1307439  0.039184546   -1.8224138   0.69166993   466099 
 9837000   0.60317117   -1.8226253   -1.8226253   -1.1304936  0.039269376   -1.8226253   0.69213167   466099 
 9838000   0.60305712   -1.8226112   -1.8226112   -1.1306104  0.032360463   -1.8226112   0.69200079   466099 
 9839000   0.60466862   -1.8245875   -1.8245875   -1.1307375  0.025483283   -1.8245875   0.69384998   466099 
 9840000   0.60226563   -1.8222421   -1.8222421   -1.1311495  0.032914709   -1.8222421   0.69109257   466099 
 9841000   0.60364234   -1.8240694   -1.8240694   -1.1313971  0.032318509   -1.8240694   0.69267233   466099 
 9842000   0.60184338    -1.821775    -1.821775   -1.1311669  0.039018978    -1.821775   0.69060805   466099 
 9843000   0.60211676     -1.82172     -1.82172   -1.1307982  0.030076169     -1.82172   0.69092174   466099 
 9844000   0.60244348   -1.8226245   -1.8226245   -1.1313279  0.033544976   -1.8226245   0.69129666   466099 
 9845000   0.60327816   -1.8231616   -1.8231616   -1.1309071  0.035651642   -1.8231616   0.69225444   466099 
 9846000   0.60358609   -1.8235011   -1.8235011   -1.1308934  0.031333837   -1.8235011   0.69260778   466099 
 9847000   0.60217131   -1.8224236   -1.8224236   -1.1314393  0.031627287   -1.8224236   0.69098434   466099 
 9848000   0.60306907   -1.8230891   -1.8230891   -1.1310745  0.041150976   -1.8230891   0.69201451   466099 
 9849000   0.60311702   -1.8233332   -1.8233332   -1.1312637   0.02893552   -1.8233332   0.69206953   466099 
 9850000    0.6031173    -1.823697    -1.823697   -1.1316271  0.037554104    -1.823697   0.69206985   466099 
 9851000   0.60218599    -1.823067    -1.823067   -1.1320658   0.03495746    -1.823067   0.69100118   466099 
 9852000   0.60331892   -1.8241194   -1.8241194   -1.1318182  0.036410355   -1.8241194   0.69230121   466099 
 9853000   0.60349485    -1.824877    -1.824877   -1.1323739  0.032984344    -1.824877   0.69250309   466099 
 9854000   0.60260769   -1.8239256   -1.8239256   -1.1324405  0.031999055   -1.8239256   0.69148508   466099 
 9855000   0.60244612   -1.8231195   -1.8231195   -1.1318198  0.034444081   -1.8231195   0.69129968   466099 
 9856000   0.60323487   -1.8247147   -1.8247147     -1.13251  0.030400488   -1.8247147   0.69220477   466099 
 9857000   0.60256447   -1.8229259   -1.8229259   -1.1314904  0.036112097   -1.8229259   0.69143549   466099 
 9858000   0.60349834   -1.8248197   -1.8248197   -1.1323126   0.02997103   -1.8248197   0.69250709   466099 
 9859000   0.60313917   -1.8249468   -1.8249468   -1.1328519  0.037132738   -1.8249468   0.69209495   466099 
 9860000   0.60300127   -1.8248878   -1.8248878   -1.1329511  0.036382104   -1.8248878   0.69193671   466099 
 9861000   0.60432313   -1.8259862   -1.8259862   -1.1325326  0.037083538   -1.8259862   0.69345353   466099 
 9862000   0.60347608   -1.8254714   -1.8254714   -1.1329898  0.039613785   -1.8254714   0.69248155   466099 
 9863000   0.60363269   -1.8255031   -1.8255031   -1.1328418   0.03961791   -1.8255031   0.69266125   466099 
 9864000   0.60430212   -1.8262686   -1.8262686   -1.1328391  0.035887487   -1.8262686   0.69342942   466099 
 9865000   0.60468013    -1.826345    -1.826345   -1.1324818  0.035756254    -1.826345   0.69386318   466099 
 9866000   0.60305524   -1.8243426   -1.8243426    -1.132344  0.045714271   -1.8243426   0.69199864   466099 
 9867000   0.60364354    -1.824652    -1.824652   -1.1319783  0.031337703    -1.824652    0.6926737   466099 
 9868000   0.60371334   -1.8242725   -1.8242725   -1.1315187  0.031977131   -1.8242725    0.6927538   466099 
 9869000   0.60369147   -1.8242548   -1.8242548   -1.1315261  0.039986119   -1.8242548    0.6927287   466099 
 9870000   0.60402675   -1.8253202   -1.8253202   -1.1322067  0.037620651   -1.8253202   0.69311344   466099 
 9871000   0.60503067   -1.8260176   -1.8260176   -1.1317522  0.039789637   -1.8260176   0.69426542   466099 
 9872000   0.60404732   -1.8244628   -1.8244628   -1.1313258  0.034507405   -1.8244628   0.69313704   466099 
 9873000   0.60368828   -1.8243164   -1.8243164   -1.1315914  0.036748539   -1.8243164   0.69272504   466099 
 9874000   0.60363352   -1.8250087   -1.8250087   -1.1323464  0.041282683   -1.8250087   0.69266221   466099 
 9875000   0.60415969   -1.8252677   -1.8252677   -1.1320018  0.034018152   -1.8252677   0.69326598   466099 
 9876000   0.60299465   -1.8242882   -1.8242882    -1.132359  0.040009016   -1.8242882   0.69192911   466099 
 9877000   0.60363282   -1.8243753   -1.8243753   -1.1317139  0.037928016   -1.8243753   0.69266141   466099 
 9878000   0.60223443    -1.823533    -1.823533   -1.1324763  0.036557533    -1.823533   0.69105677   466099 
 9879000   0.60160323   -1.8232884   -1.8232884   -1.1329559  0.035736689   -1.8232884   0.69033248   466099 
 9880000   0.60189787   -1.8237787   -1.8237787   -1.1331081  0.036219447   -1.8237787   0.69067058   466099 
 9881000   0.60241048     -1.82426     -1.82426   -1.1330012  0.035699594     -1.82426   0.69125879   466099 
 9882000   0.60190145   -1.8228961   -1.8228961   -1.1322214  0.036078222   -1.8228961   0.69067467   466099 
 9883000   0.60323331   -1.8246358   -1.8246358   -1.1324328  0.030953754   -1.8246358   0.69220297   466099 
 9884000   0.60248962   -1.8235814   -1.8235814   -1.1322318  0.026974476   -1.8235814   0.69134959   466099 
 9885000   0.60301062   -1.8238853   -1.8238853   -1.1319378  0.029318237   -1.8238853   0.69194744   466099 
 9886000   0.60345808   -1.8244792   -1.8244792   -1.1320183  0.031354752   -1.8244792   0.69246089   466099 
 9887000   0.60308076   -1.8235555   -1.8235555   -1.1315275  0.035660087   -1.8235555   0.69202793   466099 
 9888000   0.60291089   -1.8241258   -1.8241258   -1.1322928  0.036546291   -1.8241258   0.69183299   466099 
 9889000   0.60182527   -1.8230212   -1.8230212    -1.132434  0.029335629   -1.8230212   0.69058727   466099 
 9890000    0.6033856   -1.8243406   -1.8243406   -1.1319629  0.034142485   -1.8243406   0.69237773   466099 
 9891000    0.6025977   -1.8231228   -1.8231228   -1.1316491  0.030710769   -1.8231228   0.69147361   466099 
 9892000   0.60413903   -1.8254596   -1.8254596   -1.1322174  0.039380391   -1.8254596   0.69324227   466099 
 9893000   0.60302384   -1.8249217   -1.8249217    -1.132959  0.032699663   -1.8249217   0.69196261   466099 
 9894000    0.6031464   -1.8248975   -1.8248975   -1.1327943  0.035922686   -1.8248975   0.69210324   466099 
 9895000   0.60260621    -1.824421    -1.824421   -1.1329377  0.035487476    -1.824421   0.69148339   466099 
 9896000   0.60379263   -1.8253039   -1.8253039   -1.1324591  0.036160996   -1.8253039   0.69284479   466099 
 9897000   0.60355591   -1.8259692   -1.8259692   -1.1333961  0.037250066   -1.8259692   0.69257315   466099 
 9898000   0.60337011   -1.8259012   -1.8259012   -1.1335412  0.036635509   -1.8259012   0.69235995   466099 
 9899000   0.60269726   -1.8253905   -1.8253905   -1.1338026  0.032872231   -1.8253905   0.69158786   466099 
 9900000   0.60281495   -1.8256764   -1.8256764   -1.1339535  0.044216828   -1.8256764   0.69172291   466099 
 9901000   0.60333865   -1.8253985   -1.8253985   -1.1330746  0.034727347   -1.8253985   0.69232385   466099 
 9902000   0.60355421   -1.8255314   -1.8255314   -1.1329602  0.036571745   -1.8255314    0.6925712   466099 
 9903000   0.60413398   -1.8271058   -1.8271058   -1.1338693  0.035193318   -1.8271058   0.69323648   466099 
 9904000   0.60323209   -1.8259333   -1.8259333   -1.1337318  0.030891464   -1.8259333   0.69220157   466099 
 9905000   0.60430246    -1.825887    -1.825887   -1.1324571  0.033425913    -1.825887   0.69342981   466099 
 9906000    0.6044758   -1.8253719   -1.8253719   -1.1317432  0.042015891   -1.8253719   0.69362871   466099 
 9907000   0.60431628   -1.8256314   -1.8256314   -1.1321858  0.037693772   -1.8256314   0.69344566   466099 
 9908000   0.60399993   -1.8254143   -1.8254143   -1.1323317  0.037861039   -1.8254143   0.69308266   466099 
 9909000   0.60462014   -1.8261336   -1.8261336   -1.1323393  0.033223181   -1.8261336   0.69379435   466099 
 9910000    0.6035664    -1.824401    -1.824401   -1.1318159  0.031188437    -1.824401   0.69258519   466099 
 9911000   0.60342796   -1.8244085   -1.8244085   -1.1319821  0.036403772   -1.8244085   0.69242634   466099 
 9912000     0.603907   -1.8248647   -1.8248647   -1.1318887  0.035349317   -1.8248647   0.69297602   466099 
 9913000   0.60384324   -1.8243056   -1.8243056   -1.1314027  0.038167153   -1.8243056   0.69290286   466099 
 9914000   0.60321726   -1.8234812   -1.8234812   -1.1312967  0.036145723   -1.8234812   0.69218456   466099 
 9915000   0.60256594    -1.822275    -1.822275   -1.1308378  0.038950249    -1.822275   0.69143717   466099 
 9916000   0.60401686   -1.8237402   -1.8237402   -1.1306381  0.035202527   -1.8237402   0.69310208   466099 
 9917000   0.60360368    -1.823867    -1.823867    -1.131239  0.034486799    -1.823867   0.69262796   466099 
 9918000   0.60282076   -1.8229205   -1.8229205   -1.1311909  0.036096987   -1.8229205   0.69172958   466099 
 9919000     0.601962   -1.8227592   -1.8227592   -1.1320151  0.033141873   -1.8227592   0.69074416   466099 
 9920000   0.60121716    -1.821878    -1.821878   -1.1319885  0.036139236    -1.821878   0.68988946   466099 
 9921000   0.60175288   -1.8218598   -1.8218598   -1.1313556  0.033861048   -1.8218598    0.6905042   466099 
 9922000   0.60318256   -1.8236686   -1.8236686   -1.1315238  0.032884029   -1.8236686   0.69214474   466099 
 9923000    0.6017428   -1.8218024   -1.8218024   -1.1313098   0.03522961   -1.8218024   0.69049262   466099 
 9924000    0.6026685   -1.8235029   -1.8235029    -1.131948  0.032590698   -1.8235029   0.69155486   466099 
 9925000   0.60176825    -1.821695    -1.821695   -1.1311732  0.033956653    -1.821695   0.69052183   466099 
 9926000   0.60151289   -1.8211223   -1.8211223   -1.1308935  0.031059538   -1.8211223   0.69022882   466099 
 9927000   0.60194053   -1.8216331   -1.8216331   -1.1309136  0.035835814   -1.8216331   0.69071952   466099 
 9928000   0.60409898   -1.8235139   -1.8235139   -1.1303176  0.032119782   -1.8235139   0.69319632   466099 
 9929000   0.60387173   -1.8228483   -1.8228483   -1.1299128   0.02906579   -1.8228483   0.69293555   466099 
 9930000   0.60355039   -1.8224634   -1.8224634   -1.1298965  0.038325508   -1.8224634   0.69256682   466099 
 9931000   0.60291821   -1.8215413   -1.8215413   -1.1296999  0.037176379   -1.8215413   0.69184139   466099 
 9932000   0.60320355   -1.8222914   -1.8222914   -1.1301226  0.037140485   -1.8222914   0.69216882   466099 
 9933000   0.60393439   -1.8233605   -1.8233605   -1.1303531   0.03366729   -1.8233605   0.69300746   466099 
 9934000   0.60337921    -1.822387    -1.822387   -1.1300167  0.038493536    -1.822387   0.69237039   466099 
 9935000   0.60397193   -1.8234521   -1.8234521   -1.1304016  0.035163432   -1.8234521   0.69305053   466099 
 9936000   0.60371643   -1.8226768   -1.8226768   -1.1299194  0.035592925   -1.8226768   0.69275735   466099 
 9937000   0.60271058   -1.8223731   -1.8223731   -1.1307699  0.031705241   -1.8223731   0.69160314   466099 
 9938000    0.6021132   -1.8219616   -1.8219616   -1.1310439  0.031930157   -1.8219616   0.69091766   466099 
 9939000   0.60150962   -1.8208708   -1.8208708   -1.1306458  0.041636643   -1.8208708   0.69022506   466099 
 9940000    0.6044342   -1.8245036   -1.8245036   -1.1309227  0.030117984   -1.8245036   0.69358098   466099 
 9941000   0.60211471   -1.8212067   -1.8212067   -1.1302873  0.037124415   -1.8212067   0.69091939   466099 
 9942000   0.60351202   -1.8234287   -1.8234287    -1.130906  0.034240503   -1.8234287   0.69252279   466099 
 9943000   0.60390455   -1.8235117   -1.8235117   -1.1305385  0.035876446   -1.8235117   0.69297321   466099 
 9944000   0.60304904    -1.822809    -1.822809   -1.1308175  0.040794914    -1.822809   0.69199152   466099 
 9945000   0.60361083   -1.8230674   -1.8230674   -1.1304312  0.033532022   -1.8230674   0.69263617   466099 
 9946000   0.60387647   -1.8239733   -1.8239733   -1.1310323  0.038880642   -1.8239733     0.692941   466099 
 9947000   0.60373881   -1.8239886   -1.8239886   -1.1312055  0.038717074   -1.8239886   0.69278302   466099 
 9948000   0.60369171   -1.8239173   -1.8239173   -1.1311883  0.032461211   -1.8239173   0.69272898   466099 
 9949000   0.60427964   -1.8241663   -1.8241663   -1.1307627  0.035844147   -1.8241663   0.69340362   466099 
 9950000   0.60401821   -1.8232662   -1.8232662   -1.1301626  0.038405599   -1.8232662   0.69310363   466099 
 9951000   0.60424283   -1.8238645   -1.8238645   -1.1305031  0.039008639   -1.8238645   0.69336138   466099 
 9952000   0.60396187   -1.8232339   -1.8232339   -1.1301949  0.035788524   -1.8232339   0.69303899   466099 
 9953000   0.60479444   -1.8241488   -1.8241488   -1.1301544  0.042985386   -1.8241488   0.69399435   466099 
 9954000    0.6039574   -1.8228662   -1.8228662   -1.1298323  0.032340616   -1.8228662   0.69303385   466099 
 9955000    0.6038387   -1.8227919   -1.8227919   -1.1298942  0.040932096   -1.8227919   0.69289765   466099 
 9956000   0.60360496   -1.8234166   -1.8234166   -1.1307871  0.034401728   -1.8234166   0.69262944   466099 
 9957000   0.60332425    -1.823228    -1.823228   -1.1309207  0.034157281    -1.823228   0.69230732   466099 
 9958000   0.60352779   -1.8232196   -1.8232196   -1.1306787  0.037853681   -1.8232196   0.69254089   466099 
 9959000   0.60270312   -1.8217443   -1.8217443   -1.1301497  0.032494787   -1.8217443   0.69159458   466099 
 9960000   0.60394212   -1.8236168   -1.8236168   -1.1306005  0.033687446   -1.8236168   0.69301633   466099 
 9961000   0.60343807   -1.8226464   -1.8226464   -1.1302085   0.03516875   -1.8226464   0.69243793   466099 
 9962000   0.60330138   -1.8227826   -1.8227826   -1.1305015  0.028092334   -1.8227826   0.69228108   466099 
 9963000   0.60320679    -1.822455    -1.822455   -1.1302824  0.037187843    -1.822455   0.69217254   466099 
 9964000   0.60268385   -1.8219844   -1.8219844   -1.1304119  0.029864172   -1.8219844   0.69157247   466099 
 9965000   0.60293989   -1.8224414   -1.8224414   -1.1305752  0.028731114   -1.8224414   0.69186627   466099 
 9966000   0.60283831   -1.8219104   -1.8219104   -1.1301607  0.034924807   -1.8219104   0.69174972   466099 
 9967000   0.60304678   -1.8230542   -1.8230542   -1.1310653    0.0360739   -1.8230542   0.69198893   466099 
 9968000   0.60264414   -1.8223209   -1.8223209   -1.1307939  0.031023506   -1.8223209   0.69152691   466099 
 9969000   0.60130626   -1.8214923   -1.8214923   -1.1315006  0.032075799   -1.8214923   0.68999171   466099 
 9970000   0.60305167   -1.8231174   -1.8231174   -1.1311229  0.036850132   -1.8231174   0.69199454   466099 
 9971000   0.60309933   -1.8228646   -1.8228646   -1.1308154  0.034533738   -1.8228646   0.69204923   466099 
 9972000   0.60290866   -1.8226186   -1.8226186   -1.1307882  0.035090258   -1.8226186   0.69183044   466099 
 9973000   0.60222687   -1.8219309   -1.8219309   -1.1308828  0.036927989   -1.8219309   0.69104809   466099 
 9974000   0.60248733   -1.8221004   -1.8221004   -1.1307534  0.036141993   -1.8221004   0.69134697   466099 
 9975000   0.60302586   -1.8228445   -1.8228445   -1.1308796  0.034266637   -1.8228445   0.69196493   466099 
 9976000   0.60295692   -1.8217306   -1.8217306   -1.1298448  0.037139186   -1.8217306   0.69188581   466099 
 9977000   0.60299717   -1.8222063   -1.8222063   -1.1302743  0.033811212   -1.8222063   0.69193201   466099 
 9978000   0.60308549    -1.822801    -1.822801   -1.1307677  0.041397459    -1.822801   0.69203335   466099 
 9979000   0.60341445   -1.8229886   -1.8229886   -1.1305777  0.032350426   -1.8229886   0.69241083   466099 
 9980000   0.60406084   -1.8234511   -1.8234511   -1.1302985  0.037422439   -1.8234511   0.69315255   466099 
 9981000   0.60370303   -1.8232724   -1.8232724   -1.1305304  0.035143278   -1.8232724   0.69274198   466099 
 9982000   0.60337271   -1.8235194   -1.8235194   -1.1311565  0.040881839   -1.8235194   0.69236294   466099 
 9983000   0.60330649   -1.8231299   -1.8231299    -1.130843  0.032327227   -1.8231299   0.69228694   466099 
 9984000   0.60285058   -1.8232195   -1.8232195   -1.1314557  0.032052002   -1.8232195    0.6917638   466099 
 9985000   0.60297325   -1.8231391   -1.8231391   -1.1312345  0.032566143   -1.8231391   0.69190455   466099 
 9986000   0.60276267   -1.8221786   -1.8221786   -1.1305157  0.031731932   -1.8221786   0.69166291   466099 
 9987000   0.60225877   -1.8218255   -1.8218255   -1.1307408  0.038162237   -1.8218255    0.6910847   466099 
 9988000    0.6037858   -1.8226176   -1.8226176   -1.1297807  0.039597416   -1.8226176   0.69283695   466099 
 9989000   0.60416253   -1.8236831   -1.8236831   -1.1304139  0.035599014   -1.8236831   0.69326925   466099 
 9990000     0.603725   -1.8233623   -1.8233623   -1.1305951  0.037259331   -1.8233623   0.69276718   466099 
 9991000   0.60392152   -1.8232321   -1.8232321   -1.1302394  0.040902845   -1.8232321   0.69299269   466099 
 9992000   0.60341184   -1.8222261   -1.8222261   -1.1298182  0.034719154   -1.8222261   0.69240783   466099 
 9993000   0.60398966   -1.8229716   -1.8229716   -1.1299007  0.042027966   -1.8229716   0.69307087   466099 
 9994000   0.60486825   -1.8234044   -1.8234044   -1.1293254  0.033421062   -1.8234044   0.69407905   466099 
 9995000    0.6034128   -1.8216059   -1.8216059    -1.129197  0.038470326   -1.8216059   0.69240893   466099 
 9996000   0.60389515   -1.8225294   -1.8225294   -1.1295669  0.033278553   -1.8225294   0.69296243   466099 
 9997000   0.60413416   -1.8228076   -1.8228076   -1.1295709  0.034424993   -1.8228076   0.69323669   466099 
 9998000   0.60516982   -1.8239124   -1.8239124   -1.1294873  0.035840707   -1.8239124   0.69442509   466099 
 9999000   0.60375338   -1.8222015   -1.8222015   -1.1294018  0.042573405   -1.8222015   0.69279974   466099 
10000000   0.60401527   -1.8223562   -1.8223562   -1.1292559   0.03319201   -1.8223562   0.69310027   466099 
Loop time of 62783.4 on 64 procs for 10000000 steps with 466099 atoms

Performance: 68808.016 tau/day, 159.278 timesteps/s
98.7% CPU use with 64 MPI tasks x 1 OpenMP threads

MPI task timing breakdown:
Section |  min time  |  avg time  |  max time  |%varavg|  %CPU | %total
-----------------------------------------------------------------------
Pair    | 8793.5     | 16225      | 30531      |3039.1 |  98.5 | 25.84
Bond    | 3.6216     | 16.035     | 29.402     | 304.9 | 100.0 |  0.03
Neigh   | 4609.6     | 8803.1     | 15009      |1920.7 |  99.5 | 14.02
Comm    | 9708       | 28409      | 35279      |2526.2 |  98.4 | 45.25
Output  | 448.64     | 450.1      | 453.18     |   5.8 |  96.1 |  0.72
Modify  | 4445.3     | 8228.2     | 19529      |4743.4 |  98.8 | 13.11
Other   |            | 651.3      |            |       |       |  1.04

Nlocal:        7282.80 ave        8252 max        6246 min
Histogram: 1 2 4 10 13 10 14 9 0 1
Nghost:        9202.14 ave       13878 max        5092 min
Histogram: 9 7 1 4 8 11 14 4 4 2
Neighs:        96749.3 ave      131657 max       45926 min
Histogram: 3 3 2 1 7 13 16 9 4 6

Total # of neighbors = 6191954
Ave neighs/atom = 13.284633
Ave special neighs/atom = 0.0000000
Neighbor list builds = 992928
Dangerous builds = 868439

Total wall time: 17:26:29
