LAMMPS (24 Dec 2020)
OMP_NUM_THREADS environment is not set. Defaulting to 1 thread. (src/comm.cpp:94)
  using 1 OpenMP thread(s) per MPI task
#Read the equilibrated lj fluid and add nanocubes

units           lj
atom_style      full
#atom_modify     map array first cubes
dimension       3
boundary        p p f
pair_style      lj/cut/opt 2.5

variable        sigma           equal 1.0
variable        epsilon         equal 1.0
read_restart	restart.dat.10000000
Reading restart file ...
  restart file = 24 Dec 2020, LAMMPS = 24 Dec 2020
WARNING: Restart file used different # of processors: 288 vs. 384 (src/read_restart.cpp:697)
  restoring atom style full from restart
  orthogonal box = (0.0000000 0.0000000 0.0000000) to (80.000000 80.000000 160.00000)
  4 by 6 by 16 MPI processor grid
  restoring pair style lj/cut/opt from restart
  476190 atoms
Finding 1-2 1-3 1-4 neighbors ...
  special bond factors lj:    0        0        0       
  special bond factors coul:  0        0        0       
     0 = max # of 1-2 neighbors
     0 = max # of 1-3 neighbors
     0 = max # of 1-4 neighbors
     1 = max # of special neighbors
  special bonds CPU = 3.280 seconds
  read_restart CPU = 3.847 seconds

group		solvent type 1
366462 atoms in group solvent
group 		hull  type 2
42816 atoms in group hull
group 		dummy type 3
66912 atoms in group dummy

neighbor      0.4 bin
neigh_modify  exclude molecule/intra cubes

pair_modify   shift yes

pair_coeff    1 1 1.0 1.0 #solvent
pair_coeff    2 2 1.0 1.0 1.12 #np
pair_coeff    3 3 0.0 0.0 0.0 #dummy
pair_coeff    2 3 0.0 0.0 0.0 #np dummy
pair_coeff    1 2 ${sol} 1.0  #np solvent
pair_coeff    1 2 0.7 1.0  
pair_coeff    1 3 0.0 0.0 0.0 #dummy solvent


comm_modify   mode multi cutoff/multi 1 2.5 cutoff/multi 2 2.5 cutoff/multi 3 6.95

reset_timestep 	0

balance 	1.05 shift z 10 1.05
Balancing ...
Unused restart file global fix info:
  fix style: STORE, fix ID: msd_COMPUTE_STORE
Unused restart file peratom fix info:
  fix style: STORE, fix ID: bin1_COMPUTE_STORE
  fix style: STORE, fix ID: bin3_COMPUTE_STORE
Neighbor list info ...
  update every 1 steps, delay 10 steps, check yes
  max neighbors/atom: 2000, page size: 100000
  master list distance cutoff = 2.9
  ghost atom cutoff = 6.95
  binsize = 1.45, bins = 56 56 111
  1 neighbor lists, perpetual/occasional/extra = 1 0 0
  (1) pair lj/cut/opt, perpetual
      attributes: half, newton on
      pair build: half/bin/newton
      stencil: half/bin/3d/newton
      bin: standard
 rebalancing time: 0.077 seconds
  iteration count = 3
  initial/final maximal load/proc = 2270.0000 2138.0000
  initial/final imbalance factor  = 1.8305298 1.7240849
  x cuts: 0.0000000 0.25000000 0.50000000 0.75000000 1.0000000
  y cuts: 0.0000000 0.16666667 0.33333333 0.50000000 0.66666667 0.83333333 1.0000000
  z cuts: 0.0000000 0.054687500 0.10156250 0.14843750 0.19531250 0.23437500 0.26562500 0.32812500 0.38281250 0.39843750 0.46093750 0.52343750 0.53125000 0.59375000 0.65625000 0.71875000 1.0000000

####################### WALLS ###########################

variable       epsilonWall equal 2*${epsilon}
variable       epsilonWall equal 2*1
variable       repulsive   equal   0.7147*${sigma}
variable       repulsive   equal   0.7147*1
variable       full	   equal   3*${sigma}
variable       full	   equal   3*1
region         lowWall block EDGE EDGE EDGE EDGE EDGE 2

fix            topWall all wall/lj93 zhi EDGE 	       ${epsilonWall} ${sigma} ${repulsive} units box
fix            topWall all wall/lj93 zhi EDGE 	       2 ${sigma} ${repulsive} units box
fix            topWall all wall/lj93 zhi EDGE 	       2 1 ${repulsive} units box
fix            topWall all wall/lj93 zhi EDGE 	       2 1 0.7147 units box
fix            lowSol solvent wall/lj93 zlo EDGE                ${epsilonWall} ${sigma} ${full} units box
fix            lowSol solvent wall/lj93 zlo EDGE                2 ${sigma} ${full} units box
fix            lowSol solvent wall/lj93 zlo EDGE                2 1 ${full} units box
fix            lowSol solvent wall/lj93 zlo EDGE                2 1 3 units box
fix 	       lowCub cubes wall/lj93 zlo EDGE                ${epsilonWall} ${sigma} ${repulsive} units box
fix 	       lowCub cubes wall/lj93 zlo EDGE                2 ${sigma} ${repulsive} units box
fix 	       lowCub cubes wall/lj93 zlo EDGE                2 1 ${repulsive} units box
fix 	       lowCub cubes wall/lj93 zlo EDGE                2 1 0.7147 units box


###################### COMPUTES ##########################

compute        bin1 solvent chunk/atom bin/1d z lower 1.0 units box
compute        bin3 solvent chunk/atom bin/3d x lower 5.0 y lower 5.0 z lower 5.0 units box

compute 	pe solvent 	   pe/atom
compute 	pe2 all 	   pe/atom

######################  FIXES ############################


fix             peclet solvent ave/chunk 10 10 10000 bin1 density/number norm                  none ave one file density.profile

fix              temp solvent ave/chunk 10 10 10000 bin1 temp norm                  none ave one file temp.profile

fix 		 dens solvent ave/chunk 10 10 500000 bin3 density/number norm 		 none ave one file dens3.profile

fix		 temp2 solvent ave/chunk 10 10 500000 bin3 temp norm none ave one file temp3.profile

fix 		pe solvent ave/chunk 1 1 500000 bin3 c_pe norm none ave one file pe3.profile



################### INTEGRATION

fix             1 cubes rigid/nve/small molecule
  create bodies CPU = 0.027 seconds
  96 rigid bodies with 109728 atoms
  6.9282032 = max distance from body owner to body atom

fix             2 solvent nve



## Thermostat
region          regthermo block EDGE EDGE EDGE EDGE 0 15
group           thermo dynamic solvent region regthermo every 1000
dynamic group thermo defined
fix             3 thermo langevin ${temp} ${temp} 10 156453
fix             3 thermo langevin 1.0 ${temp} 10 156453
fix             3 thermo langevin 1.0 1.0 10 156453

## Evaporation
region		regevap block EDGE EDGE EDGE EDGE 140 EDGE
fix 		4 solvent evaporate ${evap} 1 regevap 156415
fix 		4 solvent evaporate 35 1 regevap 156415


#### Load balancing

fix             bal all balance 1000 1.05 shift z 10 1.05

############### Diagnostics and computes ###################

compute        	com cubes          rigid/local   1 mol x y z
compute        	quat cubes         rigid/local   1 mol quatw quati quatj quatk

compute 	cc2 cubes 	   chunk/atom 	 molecule
compute 	msd cubes 	   msd/chunk 	 cc2

fix 		msd all ave/time  1 1 10000 c_msd[*] file dump.msd ave one mode vector

dump            1 all custom 500000 dump.lammpstrj id mol type x y z vx vy vz c_pe2
dump		sol  solvent custom 500000 dump.soltrj id x y z vx vy vz c_pe
dump		cubetrj cubes custom 500000 cubes.lammpstrj id mol type x y z vx vy vz
dump            com cubes local 500000 dump.*.xyz c_com[*]
dump	        xyz hull xyz 500000 cubes.xyz
#dump            quat cubes      local 100000 dump.*.quat c_quat[*]
dump		order cubes 	local 100000 dump.*.order c_com[*] c_quat[*]
#dump		mol cubes molfile 10000 mol.xyz xyz


dump            2 all image 100000 image.*.png type type zoom 1.5 size 1280 720
dump_modify     2 pad 8
dump		image cubes image 100000 image_cubes.*.png type type zoom 1.5 size 1280 720
dump_modify	image pad 8
dump            3 all movie 5000 movie.avi type type zoom 1.5 size 1280 720
dump		4 cubes movie 5000 movie_cubes.avi type type size 1280 720


thermo          1000
thermo_style    custom step temp epair evdwl etotal press pe ke atoms

restart         1000000 restart.dat
timestep        0.005
timer           full
New timer settings: style=full  mode=nosync  timeout=off

run 		${steps}
run 		30000000
Per MPI rank memory allocation (min/avg/max) = 16.70 | 21.64 | 25.79 Mbytes
Step Temp E_pair E_vdwl TotEng Press PotEng KinEng Atoms 
       0    1.0054979   -2.4726432   -2.4726432   -1.3113352   0.07513051   -2.4726432     1.161308   476190 
    1000    1.0045571   -2.4720725   -2.4720725   -1.3117829  0.071398859   -2.4720725    1.1602896   476162 
    2000    1.0053576   -2.4723232   -2.4723232   -1.3110383  0.070183719   -2.4723232    1.1612849   476133 
    3000    1.0063429   -2.4746142   -2.4746142   -1.3121228  0.060312842   -2.4746142    1.1624914   476105 
    4000    1.0055463   -2.4732951   -2.4732951   -1.3116531  0.064689577   -2.4732951     1.161642   476076 
    5000     1.005819   -2.4735153   -2.4735153     -1.31149  0.064232788   -2.4735153    1.1620253   476048 
    6000    1.0050222   -2.4735527   -2.4735527   -1.3123772  0.063796406   -2.4735527    1.1611755   476019 
    7000    1.0040956   -2.4727713   -2.4727713   -1.3125956  0.068720907   -2.4727713    1.1601756   475990 
    8000    1.0043528   -2.4723711   -2.4723711     -1.31183  0.064118928   -2.4723711    1.1605411   475962 
    9000    1.0029884    -2.471307    -2.471307   -1.3122719  0.068683033    -2.471307    1.1590352   475933 
   10000    1.0038755   -2.4718653   -2.4718653   -1.3117368  0.063603825   -2.4718653    1.1601285   475905 
   11000    1.0020315   -2.4704427   -2.4704427   -1.3123747  0.065357842   -2.4704427     1.158068   475876 
   12000    1.0014077   -2.4692367   -2.4692367   -1.3118215  0.067238552   -2.4692367    1.1574152   475848 
   13000    1.0021028   -2.4700355   -2.4700355   -1.3117464  0.062687381   -2.4700355    1.1582891   475819 
   14000    1.0040597   -2.4711052   -2.4711052   -1.3104834  0.065745767   -2.4711052    1.1606218   475790 
   15000    1.0041195   -2.4714639   -2.4714639   -1.3107046  0.069351852   -2.4714639    1.1607593   475762 
   16000    1.0040949   -2.4707994   -2.4707994   -1.3099978  0.069125579   -2.4707994    1.1608015   475733 
   17000    1.0048476    -2.471831    -2.471831   -1.3100909  0.067952305    -2.471831    1.1617401   475705 
   18000    1.0041719   -2.4700876   -2.4700876   -1.3090579  0.078738449   -2.4700876    1.1610297   475676 
   19000    1.0056159   -2.4709311   -2.4709311   -1.3081634  0.063145484   -2.4709311    1.1627677   475648 
   20000    1.0049391     -2.46999     -2.46999   -1.3079341  0.066463444     -2.46999     1.162056   475619 
   21000    1.0054194   -2.4708362   -2.4708362   -1.3081539  0.068558317   -2.4708362    1.1626823   475590 
   22000    1.0039792   -2.4704157   -2.4704157   -1.3093305  0.073084492   -2.4704157    1.1610851   475562 
   23000    1.0018088   -2.4701592   -2.4701592   -1.3115133  0.063470217   -2.4701592    1.1586458   475533 
   24000      1.00257   -2.4703794   -2.4703794    -1.310785  0.067165751   -2.4703794    1.1595944   475505 
   25000    1.0007778   -2.4690207   -2.4690207   -1.3114286  0.069326091   -2.4690207    1.1575921   475476 
   26000    1.0014859   -2.4708081   -2.4708081   -1.3123287  0.059662812   -2.4708081    1.1584794   475448 
   27000    1.0011759   -2.4711434   -2.4711434    -1.312952  0.063895822   -2.4711434    1.1581914   475419 
   28000    1.0010382   -2.4702249   -2.4702249   -1.3121221  0.062246109   -2.4702249    1.1581028   475390 
   29000    1.0008723   -2.4709128   -2.4709128   -1.3129338  0.062182658   -2.4709128     1.157979   475362 
   30000    1.0029196   -2.4724833   -2.4724833   -1.3120648  0.062692947   -2.4724833    1.1604185   475333 
   31000    1.0038872   -2.4733875   -2.4733875    -1.311781  0.070029973   -2.4733875    1.1616065   475305 
   32000    1.0028328    -2.472234    -2.472234   -1.3117767   0.06551345    -2.472234    1.1604572   475276 
   33000    1.0025265   -2.4720209   -2.4720209   -1.3118498  0.063811435   -2.4720209    1.1601711   475248 
   34000     1.002311   -2.4725673   -2.4725673   -1.3125748  0.066415989   -2.4725673    1.1599925   475219 
   35000    1.0035222   -2.4734003   -2.4734003   -1.3119352  0.066538483   -2.4734003    1.1614651   475190 
   36000    1.0037627   -2.4744932   -2.4744932   -1.3126813  0.065436881   -2.4744932     1.161812   475162 
   37000    1.0027507    -2.473437    -2.473437   -1.3127256  0.066147825    -2.473437    1.1607114   475133 
   38000    1.0017407    -2.473576    -2.473576   -1.3139653  0.071833056    -2.473576    1.1596107   475105 
   39000    1.0023444    -2.473293    -2.473293   -1.3129127  0.064018479    -2.473293    1.1603804   475076 
   40000    1.0020535   -2.4732717   -2.4732717   -1.3131597  0.068687421   -2.4732717     1.160112   475048 
   41000    1.0026105   -2.4754324   -2.4754324   -1.3146047  0.073126688   -2.4754324    1.1608277   475019 
   42000    1.0037992    -2.476658    -2.476658   -1.3143831  0.071234955    -2.476658    1.1622749   474990 
   43000    1.0043116   -2.4774781   -2.4774781   -1.3145413  0.069536029   -2.4774781    1.1629368   474962 
   44000    1.0012687   -2.4739011   -2.4739011    -1.314417  0.067925292   -2.4739011    1.1594841   474933 
   45000    1.0031838   -2.4761249   -2.4761249   -1.3143546   0.07373863   -2.4761249    1.1617703   474905 
   46000    1.0025944   -2.4748787   -2.4748787   -1.3137201  0.077437509   -2.4748787    1.1611586   474876 
   47000    1.0029443   -2.4762425   -2.4762425   -1.3146102  0.064118134   -2.4762425    1.1616323   474848 
   48000    1.0024475   -2.4759179   -2.4759179     -1.31479  0.074429122   -2.4759179    1.1611279   474819 
   49000    1.0000752   -2.4740411   -2.4740411   -1.3155903  0.072834686   -2.4740411    1.1584508   474790 
   50000    1.0008714   -2.4753468   -2.4753468   -1.3159053  0.067460526   -2.4753468    1.1594415   474762 
   51000    1.0009629   -2.4751757   -2.4751757   -1.3155574  0.062175209   -2.4751757    1.1596184   474733 
   52000    1.0011193   -2.4744286   -2.4744286   -1.3145607  0.069741105   -2.4744286    1.1598679   474705 
   53000    1.0013769   -2.4745694   -2.4745694   -1.3143322  0.067278323   -2.4745694    1.1602373   474676 
   54000    1.0003182   -2.4751441   -2.4751441   -1.3160652  0.062499322   -2.4751441    1.1590789   474648 
   55000    1.0007409   -2.4753741   -2.4753741   -1.3157345   0.06601159   -2.4753741    1.1596395   474619 
   56000    1.0015784   -2.4758463   -2.4758463   -1.3151653  0.067061784   -2.4758463    1.1606809   474590 
   57000    1.0016998   -2.4760334   -2.4760334   -1.3151433  0.069158605   -2.4760334    1.1608901   474562 
   58000    1.0012815   -2.4743669   -2.4743669   -1.3138906  0.068813191   -2.4743669    1.1604763   474533 
   59000   0.99991105   -2.4758088   -2.4758088   -1.3168524  0.071028694   -2.4758088    1.1589563   474505 
   60000    1.0012693    -2.477437    -2.477437   -1.3168354   0.06776724    -2.477437    1.1606016   474476 
   61000   0.99995125   -2.4761926   -2.4761926   -1.3170504  0.064464252   -2.4761926    1.1591422   474448 
   62000   0.99916512   -2.4743517   -2.4743517     -1.31605  0.069932484   -2.4743517    1.1583017   474419 
   63000   0.99965365   -2.4749764   -2.4749764   -1.3160375  0.070042316   -2.4749764    1.1589389   474390 
   64000   0.99806578   -2.4736379   -2.4736379   -1.3164716  0.063975917   -2.4736379    1.1571663   474362 
   65000    1.0001382   -2.4752731   -2.4752731    -1.315633  0.066510159   -2.4752731      1.15964   474333 
   66000   0.99974916    -2.475613    -2.475613   -1.3163557  0.066356894    -2.475613    1.1592573   474305 
   67000   0.99986381    -2.474885    -2.474885   -1.3154239  0.072036708    -2.474885    1.1594612   474276 
   68000   0.99929944   -2.4745886   -2.4745886   -1.3157135  0.070646455   -2.4745886    1.1588751   474248 
   69000   0.99955213   -2.4757887   -2.4757887   -1.3165497  0.057233171   -2.4757887     1.159239   474219 
   70000   0.99975607   -2.4737498   -2.4737498   -1.3142033  0.069003676   -2.4737498    1.1595465   474190 
   71000    1.0010916   -2.4758994   -2.4758994   -1.3147353  0.056803283   -2.4758994     1.161164   474162 
   72000    1.0001262   -2.4739669   -2.4739669   -1.3138517   0.06908535   -2.4739669    1.1601152   474133 
   73000    1.0014007   -2.4748477   -2.4748477   -1.3131855  0.067516727   -2.4748477    1.1616622   474105 
   74000    1.0007071   -2.4739964   -2.4739964   -1.3130678   0.06300698   -2.4739964    1.1609286   474076 
   75000   0.99964466   -2.4728054   -2.4728054   -1.3130409  0.072750177   -2.4728054    1.1597646   474048 
   76000    1.0014853   -2.4757546   -2.4757546   -1.3137835  0.067853471   -2.4757546    1.1619711   474019 
   77000   0.99969053   -2.4738488   -2.4738488   -1.3138891  0.066284726   -2.4738488    1.1599597   473990 
   78000    1.0003017   -2.4730834   -2.4730834    -1.312346  0.062456576   -2.4730834    1.1607375   473962 
   79000    1.0007152    -2.473661    -2.473661   -1.3123727  0.064696895    -2.473661    1.1612883   473933 
   80000   0.99904687   -2.4723178   -2.4723178    -1.312897  0.067281604   -2.4723178    1.1594208   473905 
   81000   0.99751956    -2.471268    -2.471268   -1.3135489   0.05916117    -2.471268    1.1577191   473876 
   82000   0.99649155   -2.4700129   -2.4700129   -1.3134185  0.069431909   -2.4700129    1.1565944   473848 
   83000   0.99713152   -2.4694344   -2.4694344   -1.3120264   0.06767169   -2.4694344     1.157408   473819 
   84000   0.99767586   -2.4702439   -2.4702439   -1.3121332  0.063551473   -2.4702439    1.1581107   473790 
   85000   0.99811598   -2.4711081   -2.4711081    -1.312418  0.058526353   -2.4711081    1.1586901   473762 
   86000   0.99778245   -2.4719275   -2.4719275   -1.3135537  0.067003639   -2.4719275    1.1583738   473733 
   87000   0.99583992   -2.4702806   -2.4702806   -1.3140936  0.063094592   -2.4702806     1.156187   473705 
   88000   0.99731468   -2.4720179   -2.4720179   -1.3140479  0.067148214   -2.4720179    1.1579701   473676 
   89000   0.99713512   -2.4712523   -2.4712523   -1.3134223  0.061977425   -2.4712523      1.15783   473648 
   90000   0.99710712   -2.4716179   -2.4716179   -1.3137495  0.061330325   -2.4716179    1.1578684   473619 
   91000   0.99776936   -2.4721628   -2.4721628   -1.3134545  0.067890697   -2.4721628    1.1587084   473590 
   92000   0.99894469   -2.4733552   -2.4733552   -1.3132133   0.06327526   -2.4733552    1.1601419   473562 
   93000   0.99853083   -2.4725477   -2.4725477   -1.3128154  0.072882712   -2.4725477    1.1597322   473533 
   94000   0.99824262   -2.4731622   -2.4731622   -1.3136961  0.060406769   -2.4731622    1.1594661   473505 
   95000   0.99710675    -2.472093    -2.472093   -1.3138753  0.064803947    -2.472093    1.1582177   473476 
   96000   0.99842321   -2.4737466   -2.4737466   -1.3139312   0.06381383   -2.4737466    1.1598154   473448 
   97000   0.99932303   -2.4742168   -2.4742168    -1.313285   0.06845317   -2.4742168    1.1609318   473419 
   98000   0.99944038   -2.4753404   -2.4753404   -1.3142011  0.069491709   -2.4753404    1.1611393   473390 
   99000    1.0002744   -2.4761565   -2.4761565   -1.3139795  0.063474512   -2.4761565     1.162177   473362 
  100000   0.99783046   -2.4745849   -2.4745849   -1.3151764  0.070841149   -2.4745849    1.1594085   473333 
  101000   0.99980372   -2.4756674   -2.4756674   -1.3138974  0.076250494   -2.4756674      1.16177   473305 
  102000   0.99773475   -2.4743439   -2.4743439    -1.314907  0.064534075   -2.4743439    1.1594369   473276 
  103000   0.99820648    -2.474535    -2.474535   -1.3144813  0.069944965    -2.474535    1.1600537   473248 
  104000   0.99597617   -2.4742864   -2.4742864   -1.3167536    0.0742676   -2.4742864    1.1575327   473219 
  105000   0.99829086   -2.4766499   -2.4766499   -1.3163559  0.070111045   -2.4766499     1.160294   473190 
  106000     0.996572   -2.4754966   -2.4754966   -1.3171319   0.06260904   -2.4754966    1.1583647   473162 
  107000   0.99764219   -2.4775592   -2.4775592   -1.3178794  0.067922206   -2.4775592    1.1596797   473133 
  108000   0.99659174    -2.475955    -2.475955   -1.3174278  0.065759585    -2.475955    1.1585272   473105 
  109000    0.9974696    -2.477316    -2.477316   -1.3176972  0.062430772    -2.477316    1.1596188   473076 
  110000   0.99774854   -2.4776694   -2.4776694   -1.3176576  0.066237449   -2.4776694    1.1600118   473048 
  111000    0.9969985   -2.4772533   -2.4772533   -1.3180425   0.06515789   -2.4772533    1.1592108   473019 
  112000   0.99760514   -2.4776966   -2.4776966   -1.3177093   0.06075986   -2.4776966    1.1599873   472990 
  113000   0.99591147   -2.4769711   -2.4769711   -1.3188847  0.060247048   -2.4769711    1.1580865   472962 
  114000   0.99382758    -2.474385    -2.474385   -1.3186509  0.067477788    -2.474385    1.1557341   472933 
  115000    0.9944853   -2.4753441   -2.4753441   -1.3187766  0.066755592   -2.4753441    1.1565674   472905 
  116000   0.99539176      -2.4769      -2.4769   -1.3192074  0.062396661      -2.4769    1.1576926   472876 
  117000   0.99522649      -2.4758      -2.4758    -1.318231  0.060833099      -2.4758     1.157569   472848 
  118000   0.99400524    -2.474251    -2.474251   -1.3180315  0.061361688    -2.474251    1.1562194   472819 
  119000   0.99374185   -2.4738124   -2.4738124   -1.3178285  0.066217827   -2.4738124    1.1559839   472790 
  120000   0.99579257   -2.4758961   -2.4758961    -1.317458  0.063607824   -2.4758961    1.1584381   472762 
  121000   0.99364849   -2.4743609   -2.4743609   -1.3183462  0.068833056   -2.4743609    1.1560147   472733 
  122000   0.99440104   -2.4748898   -2.4748898   -1.3179311  0.062155793   -2.4748898    1.1569588   472705 
  123000   0.99442414   -2.4750205   -2.4750205   -1.3179638  0.061005876   -2.4750205    1.1570566   472676 
  124000   0.99503586   -2.4757054   -2.4757054   -1.3178685  0.066554965   -2.4757054     1.157837   472648 
  125000   0.99576946   -2.4766629   -2.4766629   -1.3179012   0.07121271   -2.4766629    1.1587617   472619 
  126000   0.99602086   -2.4755229   -2.4755229   -1.3163976  0.065593324   -2.4755229    1.1591254   472590 
  127000   0.99349326   -2.4737888   -2.4737888   -1.3175365  0.061218383   -2.4737888    1.1562524   472562 
  128000   0.99210552   -2.4724174   -2.4724174   -1.3177092  0.065652276   -2.4724174    1.1547081   472533 
  129000   0.99435499   -2.4730073   -2.4730073   -1.3156124  0.063634304   -2.4730073    1.1573949   472505 
  130000   0.99476742   -2.4731229   -2.4731229   -1.3151769  0.071958529   -2.4731229     1.157946   472476 
  131000   0.99545804   -2.4743648   -2.4743648   -1.3155462  0.066281485   -2.4743648    1.1588186   472448 
  132000   0.99339073   -2.4720044   -2.4720044   -1.3155215  0.063607436   -2.4720044     1.156483   472419 
  133000   0.99554433   -2.4749271   -2.4749271   -1.3158657  0.064897548   -2.4749271    1.1590613   472390 
  134000   0.99533259   -2.4751912   -2.4751912   -1.3163077  0.065368306   -2.4751912    1.1588835   472362 
  135000   0.99327175   -2.4733172   -2.4733172   -1.3167622  0.070867161   -2.4733172     1.156555   472333 
  136000   0.99303512   -2.4720373   -2.4720373   -1.3156893  0.063049181   -2.4720373     1.156348   472305 
  137000   0.99046992   -2.4701046   -2.4701046   -1.3166728  0.065935845   -2.4701046    1.1534318   472276 
  138000   0.99330324   -2.4730715   -2.4730715   -1.3162717  0.063339208   -2.4730715    1.1567999   472248 
  139000   0.99198769   -2.4727932   -2.4727932   -1.3174545  0.063925876   -2.4727932    1.1553387   472219 
  140000   0.99244222   -2.4734396   -2.4734396   -1.3175005  0.057584952   -2.4734396    1.1559391   472190 
  141000   0.99168472   -2.4744489   -2.4744489   -1.3193236  0.061222603   -2.4744489    1.1551253   472162 
  142000   0.99157738   -2.4748287   -2.4748287   -1.3197575  0.056002087   -2.4748287    1.1550712   472133 
  143000   0.99156985    -2.474584    -2.474584   -1.3194531  0.063747914    -2.474584    1.1551309   472105 
  144000   0.99162315    -2.474999    -2.474999    -1.319735  0.062567847    -2.474999     1.155264   472076 
  145000   0.99226918    -2.476425    -2.476425   -1.3203398   0.06084145    -2.476425    1.1560852   472048 
  146000   0.99236152   -2.4776585   -2.4776585   -1.3213947  0.058629228   -2.4776585    1.1562638   472019 
  147000   0.99163719   -2.4765419   -2.4765419   -1.3210511  0.059832631   -2.4765419    1.1554908   471990 
  148000   0.99216605   -2.4776129   -2.4776129   -1.3214372  0.055195539   -2.4776129    1.1561757   471962 
  149000   0.99259767   -2.4776796   -2.4776796   -1.3209298   0.06114163   -2.4776796    1.1567497   471933 
  150000   0.99127138   -2.4757286   -2.4757286   -1.3204559  0.064070012   -2.4757286    1.1552726   471905 
  151000   0.99234503    -2.478233    -2.478233    -1.321638  0.061097974    -2.478233     1.156595   471876 
  152000   0.99255592   -2.4781776   -2.4781776   -1.3212682  0.061711705   -2.4781776    1.1569094   471848 
  153000   0.99225032   -2.4788513   -2.4788513    -1.322227  0.069432776   -2.4788513    1.1566243   471819 
  154000   0.99229351   -2.4785126   -2.4785126   -1.3217668  0.066219802   -2.4785126    1.1567458   471790 
  155000   0.99352056   -2.4803229   -2.4803229    -1.322078  0.062565653   -2.4803229    1.1582449   471762 
  156000   0.99237967   -2.4799349   -2.4799349   -1.3229489  0.064201268   -2.4799349     1.156986   471733 
  157000   0.99283355   -2.4803386   -2.4803386   -1.3227547  0.071342107   -2.4803386    1.1575839   471705 
  158000     0.993466   -2.4797919   -2.4797919   -1.3213994  0.070093743   -2.4797919    1.1583925   471676 
  159000   0.99463201   -2.4828901   -2.4828901   -1.3230692    0.0694756   -2.4828901    1.1598209   471648 
  160000   0.99364051   -2.4817662   -2.4817662   -1.3230302  0.074588471   -2.4817662     1.158736   471619 
  161000    0.9932593   -2.4807376   -2.4807376   -1.3223749  0.072180183   -2.4807376    1.1583627   471590 
  162000   0.99191257   -2.4790593   -2.4790593   -1.3221986  0.073931522   -2.4790593    1.1568608   471562 
  163000   0.99220544   -2.4807863   -2.4807863   -1.3235128  0.062594799   -2.4807863    1.1572735   471533 
  164000   0.99032912   -2.4807613   -2.4807613   -1.3256077  0.062547553   -2.4807613    1.1551536   471505 
  165000   0.99214556   -2.4815013   -2.4815013   -1.3241577  0.063992681   -2.4815013    1.1573436   471476 
  166000   0.99186937   -2.4809653   -2.4809653   -1.3238752  0.070392119   -2.4809653    1.1570901   471448 
  167000   0.99206233   -2.4797474   -2.4797474    -1.322361  0.059106611   -2.4797474    1.1573864   471419 
  168000   0.99200163   -2.4795915   -2.4795915   -1.3222047   0.06842156   -2.4795915    1.1573868   471390 
  169000   0.99244543   -2.4804931   -2.4804931   -1.3225198  0.069919113   -2.4804931    1.1579734   471362 
  170000     0.993544   -2.4818232   -2.4818232   -1.3224967  0.066710802   -2.4818232    1.1593265   471333 
  171000   0.99099792   -2.4794836   -2.4794836   -1.3230593  0.067963058   -2.4794836    1.1564243   471305 
  172000   0.99180738   -2.4801686   -2.4801686   -1.3227285  0.057944295   -2.4801686    1.1574401   471276 
  173000   0.99022073   -2.4783583   -2.4783583   -1.3227012  0.059638804   -2.4783583    1.1556571   471248 
  174000   0.99110072   -2.4786381   -2.4786381   -1.3218828  0.059861004   -2.4786381    1.1567553   471219 
  175000    0.9892493   -2.4769769   -2.4769769   -1.3223114  0.061327452   -2.4769769    1.1546655   471190 
  176000   0.98753378   -2.4761812   -2.4761812   -1.3234495  0.067623791   -2.4761812    1.1527316   471162 
  177000   0.98738205   -2.4777782   -2.4777782   -1.3251527  0.054835932   -2.4777782    1.1526255   471133 
  178000   0.98699816   -2.4771201   -2.4771201   -1.3248743  0.051096596   -2.4771201    1.1522458   471105 
  179000   0.98760321   -2.4767771   -2.4767771    -1.323754  0.061151694   -2.4767771    1.1530231   471076 
  180000    0.9861326   -2.4750465   -2.4750465   -1.3236719  0.063308693   -2.4750465    1.1513746   471048 
  181000   0.98673292   -2.4756834   -2.4756834   -1.3235369  0.063471406   -2.4756834    1.1521465   471019 
  182000   0.98660287    -2.475178    -2.475178   -1.3231125  0.067767604    -2.475178    1.1520656   470990 
  183000   0.98572423   -2.4737099   -2.4737099    -1.322602  0.063821873   -2.4737099     1.151108   470962 
  184000   0.98853821   -2.4770796   -2.4770796   -1.3226145  0.058554842   -2.4770796    1.1544652   470933 
  185000   0.98954783   -2.4780267   -2.4780267   -1.3223137  0.063958962   -2.4780267     1.155713   470905 
  186000    0.9878436    -2.476004    -2.476004   -1.3222104  0.067397871    -2.476004    1.1537936   470876 
  187000   0.98903535   -2.4772439   -2.4772439   -1.3219897  0.066273817   -2.4772439    1.1552543   470848 
  188000   0.98795979   -2.4756453   -2.4756453   -1.3215763  0.069373986   -2.4756453     1.154069   470819 
  189000   0.98897036   -2.4778759   -2.4778759   -1.3225552  0.060015515   -2.4778759    1.1553207   470790 
  190000   0.98926841   -2.4775737   -2.4775737   -1.3218361  0.067154479   -2.4775737    1.1557376   470762 
  191000   0.98799759   -2.4776358   -2.4776358   -1.3233118  0.070848386   -2.4776358     1.154324   470733 
  192000   0.98780152   -2.4787692   -2.4787692   -1.3246056  0.062107559   -2.4787692    1.1541636   470705 
  193000   0.98984122   -2.4816515   -2.4816515   -1.3250334  0.063393116   -2.4816515    1.1566181   470676 
  194000   0.98949294   -2.4818351   -2.4818351   -1.3255552  0.068559428   -2.4818351    1.1562799   470648 
  195000   0.98847298   -2.4794796   -2.4794796   -1.3243204  0.074495569   -2.4794796    1.1551592   470619 
  196000   0.98915711    -2.480034    -2.480034   -1.3240041  0.067783445    -2.480034      1.15603   470590 
  197000   0.98804284   -2.4802581   -2.4802581   -1.3254616  0.078121246   -2.4802581    1.1547964   470562 
  198000   0.99051013   -2.4828869   -2.4828869   -1.3251354  0.072075479   -2.4828869    1.1577515   470533 
  199000   0.98961891   -2.4824965   -2.4824965   -1.3257179  0.068987203   -2.4824965    1.1567786   470505 
  200000   0.98946355   -2.4832803   -2.4832803    -1.326612  0.064553388   -2.4832803    1.1566683   470476 
  201000   0.98930626   -2.4836282   -2.4836282   -1.3270749  0.074966901   -2.4836282    1.1565532   470448 
  202000   0.98842566   -2.4829932   -2.4829932   -1.3273982  0.067893803   -2.4829932     1.155595   470419 
  203000   0.98808123   -2.4835285   -2.4835285    -1.328265  0.068545502   -2.4835285    1.1552635   470390 
  204000   0.98692961   -2.4823409   -2.4823409   -1.3283551   0.06321762   -2.4823409    1.1539858   470362 
  205000   0.98756511   -2.4833118   -2.4833118   -1.3285118  0.075129507   -2.4833118       1.1548   470333 
  206000   0.98766382    -2.484067    -2.484067   -1.3290828  0.066704107    -2.484067    1.1549842   470305 
  207000   0.98613753   -2.4830206   -2.4830206   -1.3297502  0.067097373   -2.4830206    1.1532705   470276 
  208000   0.98530966   -2.4824845   -2.4824845   -1.3301136  0.064967723   -2.4824845    1.1523709   470248 
  209000   0.98667013   -2.4832737   -2.4832737   -1.3292405  0.064338064   -2.4832737    1.1540332   470219 
  210000   0.98799124   -2.4848745   -2.4848745   -1.3292248    0.0732682   -2.4848745    1.1556497   470190 
  211000   0.98824161   -2.4833501   -2.4833501   -1.3273387  0.064337604   -2.4833501    1.1560114   470162 
  212000   0.98567123   -2.4806138   -2.4806138   -1.3275381  0.069500893   -2.4806138    1.1530758   470133 
  213000   0.98710578   -2.4819728   -2.4819728   -1.3271501  0.062963793   -2.4819728    1.1548227   470105 
  214000   0.98653161   -2.4817591   -2.4817591   -1.3275368  0.066147464   -2.4817591    1.1542222   470076 
  215000   0.98723838   -2.4825447   -2.4825447   -1.3274268  0.065726214   -2.4825447    1.1551179   470048 
  216000   0.98806713   -2.4828974   -2.4828974   -1.3267385  0.060754234   -2.4828974    1.1561589   470019 
  217000   0.98696532   -2.4820618   -2.4820618   -1.3271209  0.064032675   -2.4820618    1.1549409   469990 
  218000   0.98763168   -2.4822133   -2.4822133   -1.3264237  0.063104755   -2.4822133    1.1557896   469962 
  219000   0.98775695   -2.4824032   -2.4824032   -1.3263957  0.066450296   -2.4824032    1.1560075   469933 
  220000   0.98665199   -2.4818184   -2.4818184   -1.3270352  0.065064941   -2.4818184    1.1547831   469905 
  221000   0.98510358   -2.4804491   -2.4804491    -1.327407  0.065518076   -2.4804491     1.153042   469876 
  222000   0.98587284   -2.4821544   -2.4821544   -1.3281432  0.053308378   -2.4821544    1.1540112   469848 
  223000   0.98499255   -2.4808896   -2.4808896   -1.3278376  0.065108385   -2.4808896    1.1530519   469819 
  224000    0.9857537   -2.4818409   -2.4818409   -1.3278267  0.055515719   -2.4818409    1.1540142   469790 
  225000   0.98414092   -2.4804743   -2.4804743   -1.3282795  0.056204442   -2.4804743    1.1521948   469762 
  226000   0.98410636   -2.4809872   -2.4809872   -1.3287617  0.066755772   -2.4809872    1.1522255   469733 
  227000   0.98314153   -2.4795548   -2.4795548   -1.3283904  0.062839809   -2.4795548    1.1511644   469705 
  228000   0.98498045   -2.4809716   -2.4809716   -1.3275828  0.063862452   -2.4809716    1.1533888   469676 
  229000   0.98362345   -2.4790347   -2.4790347   -1.3271662  0.067558858   -2.4790347    1.1518685   469648 
  230000   0.98528631   -2.4822249   -2.4822249   -1.3283379  0.057386103   -2.4822249     1.153887   469619 
  231000   0.98644672   -2.4828202   -2.4828202   -1.3275028   0.05613793   -2.4828202    1.1553174   469590 
  232000   0.98624636   -2.4830472   -2.4830472   -1.3278956  0.061076638   -2.4830472    1.1551516   469562 
  233000    0.9837731   -2.4810356   -2.4810356   -1.3287097  0.061421264   -2.4810356    1.1523259   469533 
  234000   0.98512926   -2.4827514   -2.4827514   -1.3287682  0.065828347   -2.4827514    1.1539832   469505 
  235000   0.98608495    -2.482999    -2.482999   -1.3278249  0.062617769    -2.482999    1.1551741   469476 
  236000   0.98626615   -2.4834804   -2.4834804   -1.3280251  0.072597814   -2.4834804    1.1554553   469448 
  237000   0.98414817   -2.4817848   -2.4817848   -1.3287396  0.066837605   -2.4817848    1.1530452   469419 
  238000   0.98252214   -2.4807455   -2.4807455   -1.3295342  0.063160929   -2.4807455    1.1512112   469390 
  239000   0.98405832   -2.4824735   -2.4824735   -1.3293936  0.057264142   -2.4824735    1.1530799   469362 
  240000   0.98430263   -2.4827924   -2.4827924    -1.329355  0.063169818   -2.4827924    1.1534375   469333 
  241000   0.98378134   -2.4831694   -2.4831694   -1.3302741  0.063019676   -2.4831694    1.1528954   469305 
  242000   0.98326127   -2.4826475   -2.4826475   -1.3302904  0.065118556   -2.4826475    1.1523571   469276 
  243000   0.98479189   -2.4832987   -2.4832987   -1.3290788   0.05980679   -2.4832987    1.1542198   469248 
  244000   0.98505691   -2.4838091   -2.4838091   -1.3292073  0.067092172   -2.4838091    1.1546018   469219 
  245000   0.98379736   -2.4827088   -2.4827088   -1.3295121  0.061554328   -2.4827088    1.1531967   469190 
  246000   0.98508685   -2.4846028   -2.4846028   -1.3298256  0.070190055   -2.4846028    1.1547772   469162 
  247000   0.98255324   -2.4819291   -2.4819291   -1.3300508  0.070190605   -2.4819291    1.1518783   469133 
  248000   0.98264833   -2.4828135   -2.4828135   -1.3307549  0.061280876   -2.4828135    1.1520586   469105 
  249000   0.98221656   -2.4827418   -2.4827418   -1.3311182   0.06595145   -2.4827418    1.1516236   469076 
  250000   0.98455601   -2.4839735   -2.4839735   -1.3295381  0.061085011   -2.4839735    1.1544354   469048 
  251000   0.98297496   -2.4822393   -2.4822393   -1.3295864  0.069903359   -2.4822393    1.1526528   469019 
  252000   0.98398017   -2.4833798   -2.4833798   -1.3294769   0.06421566   -2.4833798    1.1539029   468990 
  253000   0.98521449   -2.4840688   -2.4840688   -1.3286494  0.065268756   -2.4840688    1.1554194   468962 
  254000   0.98435089    -2.484106    -2.484106   -1.3296281  0.062291849    -2.484106    1.1544779   468933 
  255000   0.98257266    -2.481086    -2.481086   -1.3286248  0.064569995    -2.481086    1.1524612   468905 
  256000   0.98338456   -2.4820944   -2.4820944   -1.3286096  0.068508134   -2.4820944    1.1534848   468876 
  257000   0.98475625   -2.4841651   -2.4841651   -1.3290023    0.0596746   -2.4841651    1.1551628   468848 
  258000   0.98248722    -2.481069    -2.481069   -1.3284966  0.060371079    -2.481069    1.1525724   468819 
  259000   0.98329728   -2.4813854   -2.4813854   -1.3277913  0.064380214   -2.4813854     1.153594   468790 
  260000   0.98257342   -2.4812824   -2.4812824   -1.3284687  0.058254226   -2.4812824    1.1528137   468762 
  261000   0.98177671   -2.4817587   -2.4817587   -1.3298085  0.059079667   -2.4817587    1.1519502   468733 
  262000   0.98013302   -2.4797163   -2.4797163   -1.3296261  0.063758219   -2.4797163    1.1500903   468705 
  263000   0.97994236   -2.4798453   -2.4798453   -1.3299076  0.055579968   -2.4798453    1.1499377   468676 
  264000   0.98030198   -2.4799129   -2.4799129   -1.3294844  0.071401501   -2.4799129    1.1504284   468648 
  265000   0.98083165   -2.4802291   -2.4802291   -1.3291078  0.064376242   -2.4802291    1.1511213   468619 
  266000   0.98031848   -2.4796358   -2.4796358   -1.3290456  0.053820979   -2.4796358    1.1505902   468590 
  267000   0.97835144   -2.4774788   -2.4774788   -1.3291287  0.061388805   -2.4774788    1.1483501   468562 
  268000   0.97927756   -2.4791562   -2.4791562   -1.3296479  0.062763667   -2.4791562    1.1495083   468533 
  269000   0.98012118   -2.4797282   -2.4797282   -1.3291608  0.065890878   -2.4797282    1.1505673   468505 
  270000   0.98264473   -2.4797343   -2.4797343   -1.3261331  0.057676489   -2.4797343    1.1536012   468476 
  271000   0.98118885   -2.4793261   -2.4793261   -1.3273653   0.05935413   -2.4793261    1.1519608   468448 
  272000   0.98004208   -2.4776528   -2.4776528   -1.3269671  0.063227334   -2.4776528    1.1506857   468419 
  273000   0.98019296   -2.4778013   -2.4778013   -1.3268672  0.058201321   -2.4778013    1.1509341   468390 
  274000   0.97914246   -2.4775361   -2.4775361   -1.3277668  0.065595103   -2.4775361    1.1497694   468362 
  275000   0.97870915   -2.4769854   -2.4769854   -1.3276536  0.063631425   -2.4769854    1.1493317   468333 
  276000   0.97872014   -2.4751782   -2.4751782   -1.3257648  0.066919791   -2.4751782    1.1494133   468305 
  277000   0.98028037   -2.4783606   -2.4783606   -1.3270436  0.065542279   -2.4783606     1.151317   468276 
  278000   0.98085998   -2.4792642   -2.4792642   -1.3271976  0.062496355   -2.4792642    1.1520666   468248 
  279000   0.98033631   -2.4792948   -2.4792948    -1.327772  0.058346398   -2.4792948    1.1515228   468219 
  280000   0.98063839   -2.4795322   -2.4795322   -1.3275832  0.067440928   -2.4795322     1.151949   468190 
  281000    0.9787408   -2.4782242   -2.4782242   -1.3284355  0.060852536   -2.4782242    1.1497887   468162 
  282000   0.97945643    -2.478752    -2.478752   -1.3280513  0.067456509    -2.478752    1.1507007   468133 
  283000   0.98009869   -2.4797939   -2.4797939   -1.3282698  0.062467524   -2.4797939    1.1515241   468105 
  284000   0.97934367   -2.4784303   -2.4784303    -1.327722   0.06345498   -2.4784303    1.1507083   468076 
  285000   0.98103207   -2.4810895   -2.4810895   -1.3283284  0.065374828   -2.4810895    1.1527611   468048 
  286000   0.98090815   -2.4813865   -2.4813865   -1.3286996  0.062292631   -2.4813865    1.1526869   468019 
  287000   0.98019859   -2.4804811   -2.4804811   -1.3285566   0.05882244   -2.4804811    1.1519245   467990 
  288000   0.98022087   -2.4810352   -2.4810352   -1.3290156   0.06065784   -2.4810352    1.1520196   467962 
  289000   0.98111459   -2.4820784   -2.4820784    -1.328937  0.060679678   -2.4820784    1.1531414   467933 
  290000   0.97991611    -2.481574    -2.481574   -1.3297723   0.06966468    -2.481574    1.1518017   467905 
  291000   0.97958697    -2.481317    -2.481317   -1.3298308  0.058619728    -2.481317    1.1514862   467876 
  292000   0.98014075   -2.4826537   -2.4826537   -1.3304477  0.061182356   -2.4826537    1.1522061   467848 
  293000   0.97808868   -2.4824726   -2.4824726   -1.3326076  0.064707493   -2.4824726    1.1498651   467819 
  294000   0.97654472   -2.4813719   -2.4813719   -1.3332508  0.061686243   -2.4813719    1.1481211   467790 
  295000   0.97802435   -2.4825389   -2.4825389   -1.3326094   0.06032382   -2.4825389    1.1499295   467762 
  296000   0.97876139   -2.4837927   -2.4837927   -1.3329252  0.058617207   -2.4837927    1.1508675   467733 
  297000   0.97701903   -2.4811863   -2.4811863   -1.3322988  0.071258812   -2.4811863    1.1488875   467705 
  298000   0.97776901   -2.4825123   -2.4825123   -1.3326716  0.055533535   -2.4825123    1.1498407   467676 
  299000   0.97563469   -2.4803841   -2.4803841   -1.3329847  0.059839144   -2.4803841    1.1473995   467648 
  300000    0.9767364   -2.4817909   -2.4817909   -1.3330245  0.059649501   -2.4817909    1.1487664   467619 
  301000   0.97750293   -2.4820425   -2.4820425   -1.3323032  0.064168656   -2.4820425    1.1497392   467590 
  302000    0.9766362   -2.4819874   -2.4819874   -1.3331988  0.058889524   -2.4819874    1.1487886   467562 
  303000   0.97675571   -2.4819032   -2.4819032   -1.3329028  0.061415847   -2.4819032    1.1490004   467533 
  304000   0.97667205   -2.4809134   -2.4809134   -1.3319426  0.062527852   -2.4809134    1.1489708   467505 
  305000   0.97751301   -2.4818895   -2.4818895    -1.331858  0.056674366   -2.4818895    1.1500315   467476 
  306000   0.97775341   -2.4822594   -2.4822594   -1.3318762  0.061745327   -2.4822594    1.1503832   467448 
  307000   0.97653435   -2.4816602   -2.4816602     -1.33264  0.062739857   -2.4816602    1.1490202   467419 
  308000   0.97714536   -2.4828082   -2.4828082   -1.3329978  0.059916693   -2.4828082    1.1498105   467390 
  309000   0.97716363   -2.4829397   -2.4829397   -1.3330388  0.067452017   -2.4829397    1.1499009   467362 
  310000   0.97649209   -2.4825404   -2.4825404   -1.3333585  0.056918873   -2.4825404    1.1491819   467333 
  311000   0.97614156   -2.4823606   -2.4823606   -1.3335223  0.065515627   -2.4823606    1.1488382   467305 
  312000   0.97744522   -2.4834073   -2.4834073   -1.3329634  0.062739065   -2.4834073    1.1504439   467276 
  313000   0.97777772   -2.4844361   -2.4844361   -1.3335318   0.06365071   -2.4844361    1.1509042   467248 
  314000   0.97518427   -2.4806603   -2.4806603   -1.3327374  0.065116364   -2.4806603    1.1479228   467219 
  315000   0.97608839   -2.4816388   -2.4816388   -1.3325804  0.061905235   -2.4816388    1.1490584   467190 
  316000   0.97593168   -2.4818507   -2.4818507   -1.3329079  0.059809967   -2.4818507    1.1489428   467162 
  317000   0.97640644    -2.482828    -2.482828    -1.333255  0.060699765    -2.482828    1.1495731   467133 
  318000    0.9759268   -2.4822753   -2.4822753    -1.333198  0.066242016   -2.4822753    1.1490773   467105 
  319000   0.97547042    -2.481702    -2.481702   -1.3330907  0.061603895    -2.481702    1.1486112   467076 
  320000   0.97537105   -2.4827591   -2.4827591    -1.334196  0.064497594   -2.4827591    1.1485631   467048 
  321000   0.97412616   -2.4807985   -2.4807985   -1.3336302  0.066564409   -2.4807985    1.1471684   467019 
  322000   0.97518407   -2.4823795   -2.4823795    -1.333894  0.062154429   -2.4823795    1.1484855   466990 
  323000   0.97449872   -2.4819242   -2.4819242    -1.334177  0.062921961   -2.4819242    1.1477472   466962 
  324000   0.97587243    -2.485114    -2.485114   -1.3356775  0.050700681    -2.485114    1.1494365   466933 
  325000   0.97278182   -2.4808126   -2.4808126   -1.3349477  0.063324152   -2.4808126    1.1458649   466905 
  326000   0.97474018   -2.4828937   -2.4828937   -1.3346507  0.061576983   -2.4828937     1.148243   466876 
  327000   0.97365397   -2.4825822   -2.4825822     -1.33555    0.0570584   -2.4825822    1.1470323   466848 
  328000    0.9737898    -2.482624    -2.482624   -1.3353605  0.062081229    -2.482624    1.1472636   466819 
  329000   0.97386408   -2.4830044   -2.4830044   -1.3355821  0.057070882   -2.4830044    1.1474224   466790 
  330000   0.97452564   -2.4833055   -2.4833055   -1.3350348  0.059409752   -2.4833055    1.1482707   466762 
  331000   0.97408989   -2.4824166   -2.4824166    -1.334588  0.063941308   -2.4824166    1.1478286   466733 
  332000   0.97474595   -2.4824675   -2.4824675    -1.333797  0.055287615   -2.4824675    1.1486705   466705 
  333000   0.97515564   -2.4834871   -2.4834871   -1.3342624  0.062184896   -2.4834871    1.1492248   466676 
  334000   0.97288704    -2.480899    -2.480899    -1.334279   0.06335833    -2.480899      1.14662   466648 
  335000   0.97507105    -2.484103    -2.484103   -1.3348376  0.061409469    -2.484103    1.1492654   466619 
  336000   0.97417068   -2.4832962   -2.4832962   -1.3350206  0.063829197   -2.4832962    1.1482756   466590 
  337000   0.97337077   -2.4824771   -2.4824771   -1.3350755   0.06445264   -2.4824771    1.1474016   466562 
  338000   0.97523336   -2.4870531   -2.4870531   -1.3373844  0.064281758   -2.4870531    1.1496686   466533 
  339000   0.97410439   -2.4854893   -2.4854893   -1.3370827   0.06866362   -2.4854893    1.1484067   466505 
  340000    0.9727605   -2.4836368   -2.4836368   -1.3367432  0.070364214   -2.4836368    1.1468936   466476 
  341000   0.97265813   -2.4830285   -2.4830285   -1.3361867  0.064902543   -2.4830285    1.1468417   466448 
  342000   0.97305331   -2.4844905   -2.4844905   -1.3371115   0.06217544   -2.4844905     1.147379   466419 
  343000   0.97252731    -2.483748    -2.483748   -1.3369179  0.059959622    -2.483748    1.1468301   466390 
  344000   0.97090535   -2.4825184   -2.4825184   -1.3375322  0.060254501   -2.4825184    1.1449862   466362 
  345000   0.97246893   -2.4852661   -2.4852661   -1.3383647    0.0591522   -2.4852661    1.1469014   466333 
  346000   0.97229414   -2.4848464   -2.4848464   -1.3380823  0.063739991   -2.4848464    1.1467641   466305 
  347000   0.97244937    -2.485021    -2.485021   -1.3380025  0.060980915    -2.485021    1.1470185   466276 
  348000   0.97455428   -2.4874263   -2.4874263   -1.3378559  0.057856591   -2.4874263    1.1495704   466248 
  349000   0.97483647   -2.4879227   -2.4879227    -1.337948  0.061391205   -2.4879227    1.1499747   466219 
  350000   0.97322949   -2.4845108   -2.4845108   -1.3363603  0.066533906   -2.4845108    1.1481505   466190 
  351000    0.9733967   -2.4854986   -2.4854986   -1.3370819  0.053326799   -2.4854986    1.1484167   466162 
  352000   0.97382986   -2.4844412   -2.4844412    -1.335442  0.059596719   -2.4844412    1.1489992   466133 
  353000   0.97358447   -2.4848399   -2.4848399   -1.3360612  0.061042481   -2.4848399    1.1487787   466105 
  354000   0.97175836   -2.4837637   -2.4837637   -1.3370684  0.056830384   -2.4837637    1.1466953   466076 
  355000   0.97114942   -2.4824305   -2.4824305   -1.3363849  0.058564597   -2.4824305    1.1460456   466048 
  356000   0.97056027   -2.4834378   -2.4834378   -1.3380161  0.064038421   -2.4834378    1.1454216   466019 
  357000   0.97144295   -2.4843282   -2.4843282   -1.3377935  0.059840912   -2.4843282    1.1465347   465990 
  358000   0.97229842   -2.4850515   -2.4850515   -1.3374382  0.064880071   -2.4850515    1.1476133   465962 
  359000   0.97226453   -2.4848115   -2.4848115   -1.3371667  0.061283327   -2.4848115    1.1476447   465933 
  360000   0.97004792   -2.4832722   -2.4832722   -1.3381751  0.064871744   -2.4832722    1.1450971   465905 
  361000   0.97093388   -2.4844544   -2.4844544   -1.3382401  0.063458867   -2.4844544    1.1462143   465876 
  362000   0.97261674   -2.4850396   -2.4850396   -1.3367696  0.050160187   -2.4850396      1.14827   465848 
  363000   0.97122871   -2.4851283   -2.4851283   -1.3384257  0.059355809   -2.4851283    1.1467027   465819 
  364000   0.97056788   -2.4842603   -2.4842603   -1.3382666  0.055752958   -2.4842603    1.1459938   465790 
  365000   0.96948816   -2.4833493   -2.4833493   -1.3385616  0.053871668   -2.4833493    1.1447877   465762 
  366000   0.97066844   -2.4844883   -2.4844883   -1.3382356  0.057103039   -2.4844883    1.1462528   465733 
  367000   0.97002721   -2.4851992   -2.4851992   -1.3396348  0.056656699   -2.4851992    1.1455644   465705 
  368000   0.97029208   -2.4845711   -2.4845711   -1.3386225  0.067918386   -2.4845711    1.1459486   465676 
  369000   0.97096127   -2.4853753   -2.4853753   -1.3385674  0.056618243   -2.4853753    1.1468079   465648 
  370000   0.96934643   -2.4843852   -2.4843852   -1.3394134  0.061167882   -2.4843852    1.1449719   465619 
  371000   0.97084582   -2.4865602   -2.4865602   -1.3397459   0.04996042   -2.4865602    1.1468144   465590 
  372000   0.97198409   -2.4866133   -2.4866133   -1.3383853  0.059913968   -2.4866133     1.148228   465562 
  373000   0.97152382   -2.4859843   -2.4859843   -1.3382286   0.06301726   -2.4859843    1.1477558   465533 
  374000   0.97276283    -2.487691    -2.487691   -1.3384023  0.063949824    -2.487691    1.1492887   465505 
  375000   0.97091069   -2.4866998   -2.4866998   -1.3395279  0.066989369   -2.4866998    1.1471719   465476 
  376000   0.97152059   -2.4871354   -2.4871354   -1.3391738  0.061979675   -2.4871354    1.1479616   465448 
  377000   0.97138295   -2.4866414   -2.4866414    -1.338771  0.058002945   -2.4866414    1.1478704   465419 
  378000   0.97011987   -2.4850746   -2.4850746   -1.3386253  0.054139475   -2.4850746    1.1464493   465390 
  379000   0.97088446   -2.4872199   -2.4872199    -1.339798  0.063815238   -2.4872199    1.1474219   465362 
  380000   0.97040963    -2.487577    -2.487577   -1.3406448  0.065831897    -2.487577    1.1469322   465333 
  381000   0.97143881   -2.4883965   -2.4883965   -1.3401788  0.064720483   -2.4883965    1.1482177   465305 
  382000   0.97113036   -2.4883671   -2.4883671   -1.3404425  0.059345838   -2.4883671    1.1479246   465276 
  383000   0.97063441   -2.4885925   -2.4885925    -1.341185  0.059055335   -2.4885925    1.1474075   465248 
  384000   0.97072569   -2.4883226   -2.4883226   -1.3407357   0.05698081   -2.4883226    1.1475869   465219 
  385000   0.96965127   -2.4858211   -2.4858211   -1.3394329  0.067915504   -2.4858211    1.1463882   465190 
  386000   0.97160352    -2.487509    -2.487509   -1.3387436  0.063015337    -2.487509    1.1487654   465162 
  387000   0.97038905   -2.4865202   -2.4865202   -1.3391192  0.064724168   -2.4865202     1.147401   465133 
  388000   0.97027894   -2.4873336   -2.4873336   -1.3399936  0.061864201   -2.4873336    1.1473399   465105 
  389000   0.96878882   -2.4857987   -2.4857987   -1.3401494  0.059668447   -2.4857987    1.1456493   465076 
  390000   0.96969823   -2.4863576   -2.4863576   -1.3395638    0.0647277   -2.4863576    1.1467938   465048 
  391000   0.96743965   -2.4838342   -2.4838342   -1.3396401  0.064676654   -2.4838342    1.1441941   465019 
  392000   0.96933639   -2.4861469   -2.4861469   -1.3396381  0.064121406   -2.4861469    1.1465088   464990 
  393000   0.96698961   -2.4834278   -2.4834278   -1.3396258  0.063856579   -2.4834278     1.143802   464962 
  394000   0.96899057   -2.4863692   -2.4863692   -1.3401289  0.061484389   -2.4863692    1.1462403   464933 
  395000   0.96743585   -2.4850257   -2.4850257   -1.3405556  0.046831253   -2.4850257    1.1444701   464905 
  396000   0.96582084   -2.4826176   -2.4826176   -1.3399868  0.057010143   -2.4826176    1.1426309   464876 
  397000    0.9667767   -2.4845883   -2.4845883   -1.3407577  0.054596534   -2.4845883    1.1438306   464848 
  398000   0.96591755   -2.4832254   -2.4832254     -1.34034  0.059551024   -2.4832254    1.1428854   464819 
  399000   0.96472976   -2.4818177   -2.4818177   -1.3402665  0.060124105   -2.4818177    1.1415512   464790 
  400000   0.96651005   -2.4840832   -2.4840832   -1.3403565  0.056623455   -2.4840832    1.1437267   464762 
  401000   0.96630431   -2.4833872   -2.4833872   -1.3398326  0.058110134   -2.4833872    1.1435546   464733 
  402000   0.96566123   -2.4820499   -2.4820499   -1.3391875  0.057344243   -2.4820499    1.1428624   464705 
  403000   0.96647357   -2.4835238   -2.4835238   -1.3396285  0.057616011   -2.4835238    1.1438952   464676 
  404000   0.96588282   -2.4825908   -2.4825908   -1.3393258  0.054051825   -2.4825908    1.1432649   464648 
  405000    0.9661545   -2.4830389   -2.4830389   -1.3393811  0.055218706   -2.4830389    1.1436579   464619 
  406000   0.96489694   -2.4822446   -2.4822446   -1.3400041  0.057150196   -2.4822446    1.1422405   464590 
  407000   0.96819031   -2.4851452   -2.4851452   -1.3389368   0.05309721   -2.4851452    1.1462083   464562 
  408000   0.96531199   -2.4830014   -2.4830014   -1.3401293  0.059318479   -2.4830014    1.1428721   464533 
  409000   0.96477026   -2.4836055   -2.4836055   -1.3413059  0.057530857   -2.4836055    1.1422996   464505 
  410000   0.96609208   -2.4848822   -2.4848822   -1.3409461  0.049731715   -2.4848822     1.143936   464476 
  411000   0.96518788   -2.4833825   -2.4833825   -1.3404482  0.062784156   -2.4833825    1.1429343   464448 
  412000   0.96624083   -2.4857947   -2.4857947   -1.3415421  0.065639493   -2.4857947    1.1442526   464419 
  413000   0.96637439   -2.4864417   -2.4864417   -1.3419594  0.057056619   -2.4864417    1.1444822   464390 
  414000   0.96700275   -2.4881845   -2.4881845    -1.342889  0.055435415   -2.4881845    1.1452955   464362 
  415000   0.96507246   -2.4867199   -2.4867199   -1.3436393   0.06230968   -2.4867199    1.1430807   464333 
  416000   0.96584654   -2.4880383   -2.4880383   -1.3439718  0.059768333   -2.4880383    1.1440665   464305 
  417000   0.96562741   -2.4870978   -2.4870978   -1.3432194  0.063121458   -2.4870978    1.1438784   464276 
  418000   0.96592902   -2.4883276   -2.4883276   -1.3440229  0.062393707   -2.4883276    1.1443047   464248 
  419000   0.96725709    -2.489891    -2.489891   -1.3439414  0.056621702    -2.489891    1.1459496   464219 
  420000   0.96539825   -2.4881823   -2.4881823   -1.3443635  0.059582899   -2.4881823    1.1438188   464190 
  421000   0.96573407   -2.4894224   -2.4894224   -1.3451367  0.057753176   -2.4894224    1.1442857   464162 
  422000   0.96516279   -2.4900771   -2.4900771   -1.3463969  0.061984609   -2.4900771    1.1436803   464133 
  423000   0.96607534   -2.4901655   -2.4901655   -1.3453348  0.065810916   -2.4901655    1.1448307   464105 
  424000   0.96719774   -2.4914013   -2.4914013   -1.3451689  0.058551238   -2.4914013    1.1462324   464076 
  425000   0.96609227   -2.4910532   -2.4910532   -1.3460619  0.069583331   -2.4910532    1.1449913   464048 
  426000     0.965228   -2.4906083   -2.4906083   -1.3465698  0.062839541   -2.4906083    1.1440385   464019 
  427000   0.96629697   -2.4910254   -2.4910254   -1.3456483   0.06329639   -2.4910254    1.1453771   463990 
  428000   0.96678707   -2.4915566   -2.4915566   -1.3455294  0.062665091   -2.4915566    1.1460272   463962 
  429000   0.96685474   -2.4912191   -2.4912191     -1.34504  0.061759584   -2.4912191    1.1461791   463933 
  430000   0.96650403   -2.4908729   -2.4908729   -1.3450405  0.069381898   -2.4908729    1.1458325   463905 
  431000   0.96556686   -2.4911965   -2.4911965   -1.3464035  0.060263673   -2.4911965     1.144793   463876 
  432000   0.96452824   -2.4905103   -2.4905103   -1.3468797  0.060391126   -2.4905103    1.1436306   463848 
  433000   0.96388282   -2.4886917   -2.4886917   -1.3457549  0.059463962   -2.4886917    1.1429368   463819 
  434000   0.96356178   -2.4891054   -2.4891054   -1.3464779  0.061172502   -2.4891054    1.1426275   463790 
  435000   0.96374267   -2.4890991   -2.4890991   -1.3461881  0.057603306   -2.4890991     1.142911   463762 
  436000   0.96251829   -2.4885127   -2.4885127   -1.3469822  0.057762104   -2.4885127    1.1415304   463733 
  437000   0.96505597   -2.4901112   -2.4901112    -1.345502  0.056137864   -2.4901112    1.1446092   463705 
  438000   0.96233651   -2.4871573   -2.4871573   -1.3457022  0.057088534   -2.4871573    1.1414551   463676 
  439000   0.96440577   -2.4900099   -2.4900099   -1.3460313  0.058975231   -2.4900099    1.1439786   463648 
  440000   0.96340683   -2.4891354   -2.4891354   -1.3462702  0.055428283   -2.4891354    1.1428652   463619 
  441000   0.96330485   -2.4882847   -2.4882847    -1.345469  0.056994773   -2.4882847    1.1428157   463590 
  442000   0.96249921   -2.4872516   -2.4872516   -1.3453227  0.058000283   -2.4872516    1.1419289   463562 
  443000   0.96382854   -2.4887257   -2.4887257   -1.3451482  0.060197846   -2.4887257    1.1435776   463533 
  444000   0.96453519   -2.4889152   -2.4889152     -1.34443  0.054402293   -2.4889152    1.1444851   463505 
  445000   0.96187219   -2.4856707   -2.4856707    -1.344274  0.063707981   -2.4856707    1.1413967   463476 
  446000   0.96367196   -2.4878083   -2.4878083   -1.3442068  0.066030311   -2.4878083    1.1436015   463448 
  447000    0.9634864   -2.4875794   -2.4875794   -1.3441266  0.064709953   -2.4875794    1.1434528   463419 
  448000   0.96157932   -2.4853587   -2.4853587   -1.3440978  0.059403043   -2.4853587     1.141261   463390 
  449000   0.96212434   -2.4867492   -2.4867492   -1.3447724  0.059831189   -2.4867492    1.1419768   463362 
  450000   0.96271076   -2.4874172   -2.4874172   -1.3446729  0.054816096   -2.4874172    1.1427444   463333 
  451000   0.96239864   -2.4868814   -2.4868814   -1.3444384  0.054813585   -2.4868814    1.1424429   463305 
  452000   0.96081737   -2.4858846   -2.4858846   -1.3452474  0.056491865   -2.4858846    1.1406372   463276 
  453000    0.9616348   -2.4857163   -2.4857163   -1.3440397  0.052666172   -2.4857163    1.1416766   463248 
  454000   0.96197311   -2.4875759   -2.4875759   -1.3454261  0.052601419   -2.4875759    1.1421498   463219 
  455000   0.96094014   -2.4866113   -2.4866113   -1.3456165  0.056231893   -2.4866113    1.1409948   463190 
  456000   0.96264311   -2.4881426   -2.4881426   -1.3450567   0.06357725   -2.4881426     1.143086   463162 
  457000   0.96115329   -2.4872128   -2.4872128   -1.3458244  0.056700529   -2.4872128    1.1413883   463133 
  458000   0.96239984    -2.486401    -2.486401   -1.3434633  0.059900358    -2.486401    1.1429377   463105 
  459000   0.96376487   -2.4881253   -2.4881253   -1.3434948  0.058314489   -2.4881253    1.1446305   463076 
  460000   0.96240901   -2.4878944   -2.4878944   -1.3448051  0.053826254   -2.4878944    1.1430893   463048 
  461000   0.96171329   -2.4870632   -2.4870632   -1.3447287   0.06321975   -2.4870632    1.1423345   463019 
  462000   0.96189465   -2.4880501   -2.4880501   -1.3454286  0.055489593   -2.4880501    1.1426215   462990 
  463000    0.9633846   -2.4888162   -2.4888162   -1.3443556  0.057908748   -2.4888162    1.1444606   462962 
  464000   0.96221126   -2.4884451   -2.4884451   -1.3453068  0.056808205   -2.4884451    1.1431383   462933 
  465000    0.9620539   -2.4887096   -2.4887096    -1.345689  0.065902018   -2.4887096    1.1430205   462905 
  466000   0.96110302   -2.4873651   -2.4873651   -1.3454028  0.058486496   -2.4873651    1.1419623   462876 
  467000   0.96175526   -2.4880381   -2.4880381   -1.3452317  0.060654316   -2.4880381    1.1428064   462848 
  468000   0.96289138   -2.4903096   -2.4903096   -1.3460815   0.06130085   -2.4903096    1.1442281   462819 
  469000   0.96066238    -2.488038    -2.488038   -1.3463871  0.065781071    -2.488038    1.1416509   462790 
  470000   0.96184924   -2.4887845   -2.4887845    -1.345654  0.061411803   -2.4887845    1.1431305   462762 
  471000   0.96264315   -2.4896793   -2.4896793   -1.3455335  0.061513302   -2.4896793    1.1441458   462733 
  472000   0.96195633   -2.4883533   -2.4883533   -1.3449547  0.059340017   -2.4883533    1.1433986   462705 
  473000   0.96114963   -2.4889366   -2.4889366   -1.3464252  0.056695517   -2.4889366    1.1425114   462676 
  474000   0.95960805   -2.4877155   -2.4877155   -1.3469676  0.056152406   -2.4877155    1.1407479   462648 
  475000   0.96150806   -2.4896318   -2.4896318   -1.3465535  0.061606304   -2.4896318    1.1430783   462619 
  476000   0.96026427   -2.4898837   -2.4898837   -1.3482125  0.052722237   -2.4898837    1.1416712   462590 
  477000   0.96146078   -2.4910536   -2.4910536   -1.3478907  0.060185165   -2.4910536    1.1431629   462562 
  478000   0.96146378   -2.4901571   -2.4901571    -1.346919  0.059926202   -2.4901571    1.1432381   462533 
  479000   0.96075596   -2.4900372   -2.4900372   -1.3475715  0.055050948   -2.4900372    1.1424657   462505 
  480000    0.9604746   -2.4901253   -2.4901253   -1.3479226  0.046941448   -2.4901253    1.1422027   462476 
  481000   0.95914491   -2.4887564   -2.4887564   -1.3480659  0.054420454   -2.4887564    1.1406905   462448 
  482000   0.96031082   -2.4895478   -2.4895478   -1.3473991  0.056875636   -2.4895478    1.1421487   462419 
  483000   0.95949577   -2.4887009   -2.4887009     -1.34745  0.057434556   -2.4887009    1.1412509   462390 
  484000   0.96052676   -2.4900247   -2.4900247   -1.3474783  0.059857666   -2.4900247    1.1425464   462362 
  485000    0.9592389   -2.4889184   -2.4889184   -1.3478323  0.056723874   -2.4889184     1.141086   462333 
  486000   0.95941907   -2.4898925   -2.4898925    -1.348523  0.059027087   -2.4898925    1.1413695   462305 
  487000   0.96080848   -2.4904434   -2.4904434   -1.3473493  0.060660583   -2.4904434    1.1430941   462276 
  488000   0.95911461   -2.4876804   -2.4876804   -1.3465324  0.058669116   -2.4876804     1.141148   462248 
  489000   0.95939503   -2.4882319   -2.4882319   -1.3466786  0.059995879   -2.4882319    1.1415532   462219 
  490000   0.95859782   -2.4884034   -2.4884034   -1.3477271  0.056022898   -2.4884034    1.1406762   462190 
  491000   0.95873147    -2.487971    -2.487971   -1.3470666  0.061777843    -2.487971    1.1409044   462162 
  492000   0.95827757   -2.4891777   -2.4891777   -1.3487419  0.057983257   -2.4891777    1.1404358   462133 
  493000    0.9595321   -2.4911384   -2.4911384   -1.3491404  0.062502072   -2.4911384     1.141998   462105 
  494000   0.95982868   -2.4898064   -2.4898064   -1.3473837  0.062240729   -2.4898064    1.1424227   462076 
  495000   0.95873887     -2.49063     -2.49063   -1.3494353   0.05258765     -2.49063    1.1411947   462048 
  496000    0.9587805   -2.4903922   -2.4903922   -1.3490763  0.056005317   -2.4903922    1.1413159   462019 
  497000   0.95822892   -2.4893068   -2.4893068   -1.3485759  0.060710679   -2.4893068    1.1407309   461990 
  498000   0.95887885   -2.4894777   -2.4894777   -1.3479039  0.056209273   -2.4894777    1.1415738   461962 
  499000   0.95873065   -2.4890878   -2.4890878   -1.3476188  0.047078249   -2.4890878     1.141469   461933 
  500000   0.95727408   -2.4880864   -2.4880864   -1.3482825  0.059607139   -2.4880864    1.1398039   461905 
  501000   0.95827671   -2.4911716   -2.4911716   -1.3501023  0.056311412   -2.4911716    1.1410693   461876 
  502000   0.95858551   -2.4912135   -2.4912135   -1.3497072  0.060216529   -2.4912135    1.1415063   461848 
  503000   0.95544294   -2.4877199   -2.4877199   -1.3498844  0.061308973   -2.4877199    1.1378355   461819 
  504000   0.95594862   -2.4887654   -2.4887654   -1.3502562  0.054694312   -2.4887654    1.1385092   461790 
  505000   0.95670159   -2.4898733   -2.4898733   -1.3503983  0.057940019   -2.4898733     1.139475   461762 
  506000   0.95724555   -2.4905466   -2.4905466   -1.3503521  0.062084913   -2.4905466    1.1401945   461733 
  507000   0.95634718   -2.4896689   -2.4896689   -1.3504754  0.063085743   -2.4896689    1.1391935   461705 
  508000    0.9558851   -2.4900962   -2.4900962   -1.3513816  0.049512578   -2.4900962    1.1387146   461676 
  509000   0.95610122    -2.490157    -2.490157   -1.3511158  0.051422859    -2.490157    1.1390412   461648 
  510000   0.95563589   -2.4908234   -2.4908234   -1.3522651  0.051491703   -2.4908234    1.1385583   461619 
  511000   0.95477747    -2.489827    -2.489827   -1.3522199  0.052443006    -2.489827     1.137607   461590 
  512000   0.95590872   -2.4922213   -2.4922213   -1.3531973  0.054878288   -2.4922213     1.139024   461562 
  513000   0.95577102   -2.4928252   -2.4928252   -1.3538937  0.061273579   -2.4928252    1.1389315   461533 
  514000   0.95430328   -2.4904492   -2.4904492   -1.3531977  0.058598387   -2.4904492    1.1372515   461505 
  515000   0.95586884   -2.4919417   -2.4919417   -1.3527529  0.060517869   -2.4919417    1.1391888   461476 
  516000   0.95664072   -2.4920467   -2.4920467   -1.3518689  0.056137468   -2.4920467    1.1401778   461448 
  517000   0.95720379   -2.4925257   -2.4925257   -1.3516051  0.061976214   -2.4925257    1.1409206   461419 
  518000   0.95662096   -2.4916847   -2.4916847    -1.351387  0.055994183   -2.4916847    1.1402976   461390 
  519000   0.95650415   -2.4926226   -2.4926226    -1.352395  0.058426795   -2.4926226    1.1402276   461362 
  520000   0.95677412   -2.4924743   -2.4924743   -1.3518532  0.062962022   -2.4924743    1.1406211   461333 
  521000   0.95688283   -2.4937449   -2.4937449   -1.3529249  0.057313122   -2.4937449    1.1408199   461305 
  522000   0.95588316    -2.493533    -2.493533   -1.3538333  0.058903434    -2.493533    1.1396998   461276 
  523000   0.95456221   -2.4932359   -2.4932359   -1.3550421  0.057247836   -2.4932359    1.1381939   461248 
  524000   0.95451903   -2.4928418   -2.4928418   -1.3546278  0.054973392   -2.4928418    1.1382139   461219 
  525000   0.95350828   -2.4925433   -2.4925433   -1.3554631  0.052597069   -2.4925433    1.1370802   461190 
  526000   0.95338117   -2.4925958   -2.4925958   -1.3555982  0.052274974   -2.4925958    1.1369976   461162 
  527000   0.95201743   -2.4918705   -2.4918705   -1.3564279  0.047443504   -2.4918705    1.1354426   461133 
  528000   0.95402741   -2.4937797   -2.4937797   -1.3558707  0.056888912   -2.4937797     1.137909   461105 
  529000   0.95340758   -2.4938024   -2.4938024   -1.3565612  0.057813768   -2.4938024    1.1372412   461076 
  530000   0.95380871   -2.4949659   -2.4949659   -1.3571771  0.057760797   -2.4949659    1.1377888   461048 
  531000   0.95490587     -2.49548     -2.49548   -1.3563107   0.04981498     -2.49548    1.1391692   461019 
  532000   0.95450276   -2.4949666   -2.4949666   -1.3562066  0.052239038   -2.4949666    1.1387599   460990 
  533000   0.95560359   -2.4964543   -2.4964543   -1.3563118  0.066114199   -2.4964543    1.1401425   460962 
  534000    0.9551317   -2.4963308   -2.4963308   -1.3566796  0.060113928   -2.4963308    1.1396512   460933 
  535000   0.95332214   -2.4945276   -2.4945276   -1.3569664  0.062935534   -2.4945276    1.1375612   460905 
  536000   0.95422342   -2.4950919   -2.4950919   -1.3563836  0.053757396   -2.4950919    1.1387083   460876 
  537000   0.95352603   -2.4949607   -2.4949607   -1.3570155  0.056327232   -2.4949607    1.1379452   460848 
  538000   0.95321624   -2.4954696   -2.4954696   -1.3578225  0.060094576   -2.4954696    1.1376471   460819 
  539000   0.95487615   -2.4968682   -2.4968682   -1.3571683  0.055335553   -2.4968682    1.1396999   460790 
  540000   0.95252046   -2.4948077   -2.4948077   -1.3578503  0.063177777   -2.4948077    1.1369573   460762 
  541000   0.95385409   -2.4963255   -2.4963255   -1.3577047  0.058734503   -2.4963255    1.1386208   460733 
  542000   0.95264073   -2.4948112   -2.4948112   -1.3575696  0.056374653   -2.4948112    1.1372416   460705 
  543000    0.9530999   -2.4952274   -2.4952274   -1.3573661  0.059710008   -2.4952274    1.1378613   460676 
  544000   0.95466399   -2.4967622   -2.4967622   -1.3569643  0.054819415   -2.4967622    1.1397979   460648 
  545000   0.95460833   -2.4962454   -2.4962454   -1.3564422  0.053827263   -2.4962454    1.1398032   460619 
  546000   0.95304206   -2.4934628   -2.4934628   -1.3554581  0.053657891   -2.4934628    1.1380047   460590 
  547000    0.9543052    -2.494771    -2.494771   -1.3551887  0.050374275    -2.494771    1.1395823   460562 
  548000   0.95368847   -2.4939551   -2.4939551   -1.3550375  0.057641185   -2.4939551    1.1389175   460533 
  549000   0.95352807   -2.4949581   -2.4949581   -1.3561629  0.057449009   -2.4949581    1.1387952   460505 
  550000    0.9535393   -2.4957739   -2.4957739   -1.3568936  0.048639506   -2.4957739    1.1388804   460476 
  551000   0.95344361   -2.4947409   -2.4947409   -1.3559056  0.057943911   -2.4947409    1.1388353   460448 
  552000   0.95362141   -2.4950001   -2.4950001   -1.3558806  0.058779509   -2.4950001    1.1391194   460419 
  553000   0.95315875   -2.4945447   -2.4945447   -1.3559062  0.062745655   -2.4945447    1.1386385   460390 
  554000   0.95136365   -2.4923537   -2.4923537   -1.3557905  0.053609036   -2.4923537    1.1365632   460362 
  555000   0.95172807   -2.4937059   -2.4937059   -1.3566357  0.059863851   -2.4937059    1.1370702   460333 
  556000    0.9505713   -2.4934574   -2.4934574   -1.3577002  0.055194613   -2.4934574    1.1357572   460305 
  557000   0.95004672   -2.4926614   -2.4926614   -1.3574594  0.054862558   -2.4926614     1.135202   460276 
  558000    0.9509139   -2.4937231   -2.4937231   -1.3574158  0.057303415   -2.4937231    1.1363073   460248 
  559000   0.95226526   -2.4946586   -2.4946586   -1.3566648  0.055879489   -2.4946586    1.1379938   460219 
  560000   0.94995277   -2.4918664   -2.4918664   -1.3565646  0.057011916   -2.4918664    1.1353018   460190 
  561000   0.95134506   -2.4935751   -2.4935751   -1.3565401  0.051275123   -2.4935751     1.137035   460162 
  562000     0.950109   -2.4927113   -2.4927113    -1.357082  0.051857236   -2.4927113    1.1356292   460133 
  563000   0.95015463   -2.4930576   -2.4930576   -1.3573047  0.045719911   -2.4930576    1.1357529   460105 
  564000   0.94857179   -2.4925296   -2.4925296   -1.3585973  0.054115048   -2.4925296    1.1339323   460076 
  565000   0.95147258   -2.4959228   -2.4959228   -1.3584536  0.054950531   -2.4959228    1.1374692   460048 
  566000   0.94998381   -2.4947909   -2.4947909     -1.35903  0.057536713   -2.4947909     1.135761   460019 
  567000   0.95233714   -2.4976229   -2.4976229   -1.3589766  0.049411642   -2.4976229    1.1386463   459990 
  568000   0.95063956   -2.4933746   -2.4933746   -1.3566889  0.051242731   -2.4933746    1.1366858   459962 
  569000   0.95072577   -2.4926249   -2.4926249   -1.3557644  0.059018421   -2.4926249    1.1368606   459933 
  570000   0.95085058   -2.4934276   -2.4934276   -1.3563486  0.058974397   -2.4934276     1.137079   459905 
  571000   0.95015838   -2.4931553   -2.4931553   -1.3568324  0.052756843   -2.4931553    1.1363229   459876 
  572000    0.9526896   -2.4961622   -2.4961622   -1.3567428  0.058430969   -2.4961622    1.1394194   459848 
  573000   0.95224736   -2.4967693   -2.4967693    -1.357807  0.049906213   -2.4967693    1.1389623   459819 
  574000   0.95048375   -2.4935183   -2.4935183   -1.3565937  0.055198449   -2.4935183    1.1369246   459790 
  575000    0.9527381    -2.495051    -2.495051   -1.3553604  0.055795507    -2.495051    1.1396906   459762 
  576000   0.95096488   -2.4939236   -2.4939236   -1.3562824  0.054442825   -2.4939236    1.1376412   459733 
  577000   0.94874177   -2.4927421   -2.4927421   -1.3576913   0.05807489   -2.4927421    1.1350508   459705 
  578000    0.9498119   -2.4945825   -2.4945825   -1.3581797  0.057132344   -2.4945825    1.1364028   459676 
  579000   0.94945774   -2.4945541   -2.4945541   -1.3585058  0.064758649   -2.4945541    1.1360482   459648 
  580000   0.95002324   -2.4945709   -2.4945709   -1.3577743   0.05703467   -2.4945709    1.1367966   459619 
  581000   0.94923313   -2.4935303   -2.4935303   -1.3576075  0.056548331   -2.4935303    1.1359228   459590 
  582000    0.9485574   -2.4931536   -2.4931536   -1.3579703  0.059316283   -2.4931536    1.1351833   459562 
  583000   0.95127906   -2.4956903   -2.4956903   -1.3571779  0.051658953   -2.4956903    1.1385123   459533 
  584000   0.95097532   -2.4962648   -2.4962648   -1.3580467  0.048328877   -2.4962648    1.1382182   459505 
  585000   0.95039759   -2.4956105   -2.4956105    -1.358012  0.059719108   -2.4956105    1.1375985   459476 
  586000   0.95021711   -2.4946226   -2.4946226   -1.3571708  0.054482217   -2.4946226    1.1374517   459448 
  587000   0.94900367   -2.4920308   -2.4920308   -1.3559598  0.062081365   -2.4920308    1.1360709   459419 
  588000   0.94928148   -2.4927463   -2.4927463   -1.3562711   0.05996218   -2.4927463    1.1364752   459390 
  589000   0.94923096   -2.4933734   -2.4933734   -1.3568894   0.05483983   -2.4933734     1.136484   459362 
  590000   0.94892566   -2.4931518   -2.4931518   -1.3569616  0.058992481   -2.4931518    1.1361902   459333 
  591000   0.94831688   -2.4918423   -2.4918423   -1.3563118  0.053888523   -2.4918423    1.1355305   459305 
  592000   0.94872899   -2.4919242   -2.4919242   -1.3558285  0.058612605   -2.4919242    1.1360957   459276 
  593000    0.9487282   -2.4924771   -2.4924771   -1.3563131  0.050615231   -2.4924771     1.136164   459248 
  594000   0.94754119   -2.4915157   -2.4915157   -1.3567015  0.051825645   -2.4915157    1.1348142   459219 
  595000   0.94841615   -2.4923211   -2.4923211   -1.3563873  0.055812544   -2.4923211    1.1359338   459190 
  596000    0.9474813   -2.4916725   -2.4916725   -1.3567892  0.059241375   -2.4916725    1.1348833   459162 
  597000   0.94965593   -2.4937884   -2.4937884   -1.3562285  0.053402055   -2.4937884    1.1375599   459133 
  598000   0.94626203   -2.4899051   -2.4899051   -1.3563415  0.050475828   -2.4899051    1.1335636   459105 
  599000   0.94635266   -2.4906346   -2.4906346   -1.3568908  0.056581099   -2.4906346    1.1337438   459076 
  600000   0.94800005    -2.492292    -2.492292   -1.3565054  0.051471309    -2.492292    1.1357867   459048 
  601000   0.94832275   -2.4918961   -2.4918961   -1.3556511  0.059806213   -2.4918961    1.1362451   459019 
  602000   0.94965733   -2.4936805   -2.4936805   -1.3557645  0.052772713   -2.4936805     1.137916   458990 
  603000   0.94955798   -2.4944776   -2.4944776   -1.3566112  0.051616026   -2.4944776    1.1378664   458962 
  604000    0.9471556    -2.493033    -2.493033   -1.3579737   0.05701344    -2.493033    1.1350593   458933 
  605000   0.94742861   -2.4927558   -2.4927558      -1.3573  0.049078568   -2.4927558    1.1354557   458905 
  606000   0.94674185   -2.4923592   -2.4923592   -1.3576548  0.051102028   -2.4923592    1.1347044   458876 
  607000   0.94663752   -2.4925793   -2.4925793   -1.3579307  0.055232418   -2.4925793    1.1346486   458848 
  608000   0.94650631   -2.4920637   -2.4920637   -1.3575007  0.053793051   -2.4920637     1.134563   458819 
  609000   0.94796238    -2.494031    -2.494031   -1.3576508  0.053148748    -2.494031    1.1363802   458790 
  610000   0.94610236   -2.4927671   -2.4927671   -1.3585474  0.058140286   -2.4927671    1.1342197   458762 
  611000   0.94676007   -2.4932386   -2.4932386   -1.3581586  0.054711681   -2.4932386    1.1350799   458733 
  612000   0.94510068   -2.4920107   -2.4920107    -1.358851  0.049366123   -2.4920107    1.1331597   458705 
  613000   0.94575361   -2.4932835   -2.4932835   -1.3592693  0.055613822   -2.4932835    1.1340142   458676 
  614000   0.94481307   -2.4926695   -2.4926695   -1.3597139  0.061881736   -2.4926695    1.1329556   458648 
  615000   0.94598213   -2.4935766   -2.4935766   -1.3591474  0.053307814   -2.4935766    1.1344292   458619 
  616000    0.9448295    -2.492908    -2.492908   -1.3597894  0.057020948    -2.492908    1.1331186   458590 
  617000   0.94612209   -2.4933352   -2.4933352   -1.3585972   0.05668041   -2.4933352    1.1347381   458562 
  618000   0.94603011   -2.4935084   -2.4935084   -1.3588089  0.047158882   -2.4935084    1.1346995   458533 
  619000   0.94690271   -2.4947616   -2.4947616   -1.3589461   0.05382317   -2.4947616    1.1358155   458505 
  620000   0.94779289   -2.4960716   -2.4960716   -1.3591164  0.055543384   -2.4960716    1.1369552   458476 
  621000   0.94718609   -2.4959452   -2.4959452   -1.3596485  0.054896182   -2.4959452    1.1362967   458448 
  622000   0.94786828   -2.4965222   -2.4965222   -1.3593352  0.051278939   -2.4965222     1.137187   458419 
  623000   0.94690751    -2.494181    -2.494181   -1.3580749  0.062332901    -2.494181    1.1361062   458390 
  624000   0.94757899   -2.4955217   -2.4955217   -1.3585404   0.05551562   -2.4955217    1.1369813   458362 
  625000   0.94632687   -2.4957143   -2.4957143   -1.3601635   0.05003234   -2.4957143    1.1355507   458333 
  626000   0.94510979   -2.4952523   -2.4952523   -1.3610927   0.05837601   -2.4952523    1.1341596   458305 
  627000   0.94504043    -2.496073    -2.496073   -1.3619249  0.062698626    -2.496073    1.1341481   458276 
  628000   0.94274048   -2.4942944   -2.4942944   -1.3628374  0.059088833   -2.4942944    1.1314571   458248 
  629000   0.94406773   -2.4952583   -2.4952583   -1.3621366  0.056828458   -2.4952583    1.1331217   458219 
  630000   0.94597799   -2.4968217   -2.4968217   -1.3613353  0.048304117   -2.4968217    1.1354864   458190 
  631000   0.94555785   -2.4980231   -2.4980231   -1.3629716  0.055712894   -2.4980231    1.1350514   458162 
  632000   0.94448195   -2.4957284   -2.4957284   -1.3618968  0.053047045   -2.4957284    1.1338317   458133 
  633000   0.94586842   -2.4967279   -2.4967279   -1.3611624  0.056683493   -2.4967279    1.1355655   458105 
  634000   0.94627542    -2.497117    -2.497117   -1.3609909   0.05841905    -2.497117    1.1361261   458076 
  635000   0.94508218   -2.4961744   -2.4961744   -1.3614116  0.050328608   -2.4961744    1.1347628   458048 
  636000   0.94727465   -2.5000389   -2.5000389   -1.3625716  0.055351075   -2.5000389    1.1374673   458019 
  637000   0.94464139   -2.4956702   -2.4956702    -1.361293  0.055406748   -2.4956702    1.1343772   457990 
  638000   0.94576056   -2.4964896   -2.4964896   -1.3606991  0.058064136   -2.4964896    1.1357906   457962 
  639000   0.94399982   -2.4961931   -2.4961931   -1.3624453  0.054997322   -2.4961931    1.1337478   457933 
  640000   0.94435071   -2.4959983   -2.4959983   -1.3617597  0.056804262   -2.4959983    1.1342386   457905 
  641000   0.94273226   -2.4939614   -2.4939614   -1.3615949  0.055266258   -2.4939614    1.1323664   457876 
  642000   0.94327826   -2.4964807   -2.4964807   -1.3633891  0.051819491   -2.4964807    1.1330916   457848 
  643000   0.94179823   -2.4952178   -2.4952178   -1.3638324  0.056230782   -2.4952178    1.1313854   457819 
  644000   0.94236438    -2.495303    -2.495303   -1.3631658  0.044235842    -2.495303    1.1321372   457790 
  645000   0.94190274   -2.4958989   -2.4958989   -1.3642471  0.057452627   -2.4958989    1.1316518   457762 
  646000   0.94120875   -2.4957162   -2.4957162   -1.3648266  0.044196237   -2.4957162    1.1308897   457733 
  647000   0.94177159   -2.4949397   -2.4949397   -1.3633045  0.050160724   -2.4949397    1.1316352   457705 
  648000   0.94095404   -2.4930521   -2.4930521   -1.3623276  0.053342132   -2.4930521    1.1307244   457676 
  649000   0.94311126   -2.4950627   -2.4950627   -1.3616767  0.059429177   -2.4950627     1.133386   457648 
  650000   0.94179116   -2.4933792   -2.4933792   -1.3615079  0.055524195   -2.4933792    1.1318713   457619 
  651000   0.94264372    -2.494145    -2.494145   -1.3611772  0.053845665    -2.494145    1.1329678   457590 
  652000   0.94239554   -2.4944848   -2.4944848    -1.361746  0.055665374   -2.4944848    1.1327388   457562 
  653000   0.94345238   -2.4961181   -2.4961181   -1.3620371  0.052539338   -2.4961181     1.134081   457533 
  654000    0.9435501   -2.4968797   -2.4968797   -1.3626118  0.051194787   -2.4968797    1.1342679   457505 
  655000   0.94394628   -2.4968842   -2.4968842   -1.3620682  0.055350265   -2.4968842     1.134816   457476 
[...]
29837000 0.00025884491 4.5600737e-08 4.5600737e-08   0.00129743 5.0341537e-05 4.5600737e-08 0.0012973844   109728 
29838000 0.00025793708 4.5954518e-06 4.5954518e-06 0.0012974296 0.00012709336 4.5954518e-06 0.0012928342   109728 
29839000 0.00025885394            0            0 0.0012974297 4.784594e-05            0 0.0012974297   109728 
29840000 0.00025876844 4.2859911e-07 4.2859911e-07 0.0012974297 6.5906911e-05 4.2859911e-07 0.0012970011   109728 
29841000 0.0002585364 1.5917308e-06 1.5917308e-06 0.0012974298 8.2251073e-05 1.5917308e-06  0.001295838   109728 
29842000 0.00025857442 1.4013031e-06 1.4013031e-06   0.00129743 7.424878e-05 1.4013031e-06 0.0012960286   109728 
29843000 0.00025865936 9.7585426e-07 9.7585426e-07 0.0012974302 7.1397754e-05 9.7585426e-07 0.0012964544   109728 
29844000 0.00025856807 1.4338008e-06 1.4338008e-06 0.0012974306 6.8737936e-05 1.4338008e-06 0.0012959968   109728 
29845000 0.00025885418            0            0 0.0012974308 4.7180384e-05            0 0.0012974308   109728 
29846000 0.00025819882 3.2846324e-06 3.2846324e-06 0.0012974307 0.00010333422 3.2846324e-06 0.0012941461   109728 
29847000 0.00025864243 1.0611485e-06 1.0611485e-06 0.0012974307 7.4577693e-05 1.0611485e-06 0.0012963695   109728 
29848000 0.00025824761 3.0405931e-06 3.0405931e-06 0.0012974312 8.3622345e-05 3.0405931e-06 0.0012943906   109728 
29849000 0.00025875026 5.2079266e-07 5.2079266e-07 0.0012974308 6.1923443e-05 5.2079266e-07   0.00129691   109728 
29850000 0.00025885412            0            0 0.0012974305 4.6420719e-05            0 0.0012974305   109728 
29851000 0.00025884987 1.3110508e-09 1.3110508e-09 0.0012974106 4.7115534e-05 1.3110508e-09 0.0012974093   109728 
29852000 0.00025617689 3.117546e-06 3.117546e-06 0.0012871293 0.00022877906 3.117546e-06 0.0012840117   109728 
29853000 0.00025881329 1.6874288e-07 1.6874288e-07 0.0012973946 5.3087444e-05 1.6874288e-07 0.0012972259   109728 
29854000 0.00025727341 7.8870486e-06 7.8870486e-06 0.0012973947 0.00011056443 7.8870486e-06 0.0012895077   109728 
29855000 0.00025845026 1.9879866e-06 1.9879866e-06 0.0012973943 8.5096492e-05 1.9879866e-06 0.0012954063   109728 
29856000 0.0002588469            0            0 0.0012973944 4.7067995e-05            0 0.0012973944   109728 
29857000 0.0002588469            0            0 0.0012973944 4.7067995e-05            0 0.0012973944   109728 
29858000 0.0002588469            0            0 0.0012973944 4.7067995e-05            0 0.0012973944   109728 
29859000 0.0002588469            0            0 0.0012973944 4.7067995e-05            0 0.0012973944   109728 
29860000 0.00025829594 2.7612242e-06 2.7612242e-06  0.001297394 0.00010005729 2.7612242e-06 0.0012946328   109728 
29861000 0.00025863381 1.0679649e-06 1.0679649e-06 0.0012973943 6.3342917e-05 1.0679649e-06 0.0012963263   109728 
29862000 0.00025882226 1.2345846e-07 1.2345846e-07 0.0012973943 5.1788771e-05 1.2345846e-07 0.0012972709   109728 
29863000 0.0002588337 6.6182831e-08 6.6182831e-08 0.0012973944 5.0560295e-05 6.6182831e-08 0.0012973282   109728 
29864000 0.0002588469            0            0 0.0012973944 4.6388462e-05            0 0.0012973944   109728 
29865000 0.00025860586 1.208204e-06 1.208204e-06 0.0012973944 7.081666e-05 1.208204e-06 0.0012961862   109728 
29866000 0.00025884693            0            0 0.0012973945 4.6498802e-05            0 0.0012973945   109728 
29867000 0.00025884692            0            0 0.0012973945 4.536962e-05            0 0.0012973945   109728 
29868000 0.00025884692            0            0 0.0012973945 4.536962e-05            0 0.0012973945   109728 
29869000 0.00025884692            0            0 0.0012973945 4.536962e-05            0 0.0012973945   109728 
29870000 0.00025861848 1.1449358e-06 1.1449358e-06 0.0012973944 7.2485007e-05 1.1449358e-06 0.0012962495   109728 
29871000 0.00025778377 5.3286846e-06 5.3286846e-06 0.0012973944 0.00013540209 5.3286846e-06 0.0012920657   109728 
29872000 0.00025628341 1.2848848e-05 1.2848848e-05 0.0012973945 0.00021120316 1.2848848e-05 0.0012845456   109728 
29873000 0.00025856389 1.4190862e-06 1.4190862e-06 0.0012973949 6.8811903e-05 1.4190862e-06 0.0012959758   109728 
29874000 0.00025884693            0            0 0.0012973945 4.6268305e-05            0 0.0012973945   109728 
29875000 0.00025884693            0            0 0.0012973945 4.6268305e-05            0 0.0012973945   109728 
29876000 0.00025881345 1.6781196e-07 1.6781196e-07 0.0012973945 5.3503578e-05 1.6781196e-07 0.0012972267   109728 
29877000 0.00025884692            0            0 0.0012973944 4.6429781e-05            0 0.0012973944   109728 
29878000 0.00025822565 3.1139376e-06 3.1139376e-06 0.0012973944 9.8743849e-05 3.1139376e-06 0.0012942805   109728 
29879000 0.00025833791 2.5514309e-06 2.5514309e-06 0.0012973946 8.1932347e-05 2.5514309e-06 0.0012948432   109728 
29880000 0.00025884692            0            0 0.0012973945 4.7327508e-05            0 0.0012973945   109728 
29881000 0.00025884692            0            0 0.0012973945 4.7327508e-05            0 0.0012973945   109728 
29882000 0.00025874532 5.0926061e-07 5.0926061e-07 0.0012973945 6.0492882e-05 5.0926061e-07 0.0012968852   109728 
29883000 0.00025813232 3.5819082e-06 3.5819082e-06 0.0012973946 0.0001028164 3.5819082e-06 0.0012938127   109728 
29884000 0.00025824928 3.0288759e-06 3.0288759e-06 0.0012974279 9.5325447e-05 3.0288759e-06  0.001294399   109728 
29885000 0.00025885354            0            0 0.0012974277 4.6011503e-05            0 0.0012974277   109728 
29886000 0.00025885345 5.2522188e-10 5.2522188e-10 0.0012974277 4.665056e-05 5.2522188e-10 0.0012974272   109728 
29887000 0.00025809084 3.8229536e-06 3.8229536e-06 0.0012974278 0.00012392012 3.8229536e-06 0.0012936048   109728 
29888000 0.0002582231 3.1594849e-06 3.1594849e-06 0.0012974272 9.0274639e-05 3.1594849e-06 0.0012942677   109728 
29889000 0.00025829609 2.7933673e-06 2.7933673e-06  0.001297427 9.4676241e-05 2.7933673e-06 0.0012946336   109728 
29890000 0.0002588534            0            0 0.0012974269 4.7314016e-05            0 0.0012974269   109728 
29891000 0.00025882483 1.8219525e-07 1.8219525e-07 0.0012974659 5.3884218e-05 1.8219525e-07 0.0012972838   109728 
29892000 0.00025717826 8.4093443e-06 8.4093443e-06 0.0012974401 0.00016116928 8.4093443e-06 0.0012890308   109728 
29893000 0.00025885605            0            0 0.0012974402 4.6944185e-05            0 0.0012974402   109728 
29894000 0.00025826237 2.9754303e-06 2.9754303e-06   0.00129744 0.00010648789 2.9754303e-06 0.0012944646   109728 
29895000 0.00025882902 1.3552793e-07 1.3552793e-07 0.0012974403 5.7285024e-05 1.3552793e-07 0.0012973047   109728 
29896000 0.00025775881 5.4996221e-06 5.4996221e-06 0.0012974402 0.00013558157 5.4996221e-06 0.0012919406   109728 
29897000 0.00025885604            0            0 0.0012974402 4.6455936e-05            0 0.0012974402   109728 
29898000 0.00025875299 5.1668168e-07 5.1668168e-07 0.0012974403 6.3388901e-05 5.1668168e-07 0.0012969237   109728 
29899000 0.00025883167 1.2262511e-07 1.2262511e-07 0.0012974406 5.4121577e-05 1.2262511e-07  0.001297318   109728 
29900000 0.00025871414 7.116987e-07 7.116987e-07 0.0012974406 6.8422654e-05 7.116987e-07 0.0012967289   109728 
29901000 0.00025849637  1.80364e-06  1.80364e-06 0.0012974411 8.794291e-05  1.80364e-06 0.0012956374   109728 
29902000 0.00025873265 6.1916102e-07 6.1916102e-07 0.0012974409 6.1776913e-05 6.1916102e-07 0.0012968217   109728 
29903000 0.00025869201 8.2288488e-07 8.2288488e-07 0.0012974409 7.5416927e-05 8.2288488e-07  0.001296618   109728 
29904000 0.00025883084 1.2704686e-07 1.2704686e-07 0.0012974409 5.6146046e-05 1.2704686e-07 0.0012973139   109728 
29905000 0.00025877503 4.0695252e-07 4.0695252e-07 0.0012974411 5.9477651e-05 4.0695252e-07 0.0012970341   109728 
29906000 0.00025865621 1.0025833e-06 1.0025833e-06 0.0012974412 7.189081e-05 1.0025833e-06 0.0012964386   109728 
29907000 0.00025857579 1.4060928e-06 1.4060928e-06 0.0012974416 7.4535506e-05 1.4060928e-06 0.0012960355   109728 
29908000 0.00025819508            0            0 0.0012941273 0.00016036252            0 0.0012941273   109728 
29909000 0.00025819401 3.3538733e-06 3.3538733e-06 0.0012974758 9.7652329e-05 3.3538733e-06 0.0012941219   109728 
29910000 0.00025687217 7.8956899e-06 7.8956899e-06 0.0012953923 0.00026700354 7.8956899e-06 0.0012874966   109728 
29911000 0.00025879614 3.274421e-07 3.274421e-07 0.0012974674 6.2692706e-05 3.274421e-07 0.0012971399   109728 
29912000 0.00025886141            0            0 0.0012974671 4.8408097e-05            0 0.0012974671   109728 
29913000 0.00025885003 5.7076112e-08 5.7076112e-08 0.0012974671 5.2151042e-05 5.7076112e-08 0.0012974101   109728 
29914000 0.00025881001 2.5766319e-07 2.5766319e-07 0.0012974671 5.5674577e-05 2.5766319e-07 0.0012972094   109728 
29915000 0.00025858529 1.3836316e-06 1.3836316e-06 0.0012974667 7.7161542e-05 1.3836316e-06 0.0012960831   109728 
29916000 0.00025886134            0            0 0.0012974667 4.7979211e-05            0 0.0012974667   109728 
29917000 0.00025886134            0            0 0.0012974667 4.7979211e-05            0 0.0012974667   109728 
29918000 0.00025856475 1.4866772e-06 1.4866772e-06 0.0012974668 7.4137287e-05 1.4866772e-06 0.0012959802   109728 
29919000 0.00025644266 1.212314e-05 1.212314e-05  0.001297467 0.00018286781 1.212314e-05 0.0012853438   109728 
29920000 0.00025840232 2.3006573e-06 2.3006573e-06 0.0012974667 8.1701026e-05 2.3006573e-06 0.0012951661   109728 
29921000 0.00025711029 8.7766401e-06 8.7766401e-06 0.0012974667 0.00016153217 8.7766401e-06 0.0012886901   109728 
29922000 0.00025714829 8.5860938e-06 8.5860938e-06 0.0012974667 0.00017769014 8.5860938e-06 0.0012888806   109728 
29923000 0.00025862448 1.1874173e-06 1.1874173e-06  0.001297467 6.5844549e-05 1.1874173e-06 0.0012962795   109728 
29924000 0.00025881686 2.232434e-07 2.232434e-07  0.001297467 5.4980522e-05 2.232434e-07 0.0012972438   109728 
29925000 0.00025886124 7.3840748e-10 7.3840748e-10  0.001297467 4.6114922e-05 7.3840748e-10 0.0012974663   109728 
29926000 0.00025886139            0            0  0.001297467 4.5409805e-05            0  0.001297467   109728 
29927000 0.00025879494 3.4740641e-07 3.4740641e-07 0.0012974814 5.4661697e-05 3.4740641e-07 0.0012971339   109728 
29928000 0.00025886425            0            0 0.0012974813 4.5390591e-05            0 0.0012974813   109728 
29929000 0.00025743391 7.1691321e-06 7.1691321e-06 0.0012974813 0.00015008662 7.1691321e-06 0.0012903122   109728 
29930000 0.00025886426            0            0 0.0012974814 4.6074533e-05            0 0.0012974814   109728 
29931000 0.00025886755            0            0 0.0012974979 4.6121998e-05            0 0.0012974979   109728 
29932000 0.00025781362 5.2825956e-06 5.2825956e-06 0.0012974979 0.0001133432 5.2825956e-06 0.0012922153   109728 
29933000 0.0002586639 1.020202e-06 1.020202e-06 0.0012974973 6.5776622e-05 1.020202e-06 0.0012964771   109728 
29934000 0.00025870661 8.061246e-07 8.061246e-07 0.0012974973 6.5958017e-05 8.061246e-07 0.0012966912   109728 
29935000 0.00025886744            0            0 0.0012974973 4.6285299e-05            0 0.0012974973   109728 
29936000 0.00025605701 1.408639e-05 1.408639e-05 0.0012974972 0.00021125132 1.408639e-05 0.0012834109   109728 
29937000 0.00025813702 3.6612263e-06 3.6612263e-06 0.0012974975 9.9012559e-05 3.6612263e-06 0.0012938363   109728 
29938000 0.00025833482 2.6694203e-06 2.6694203e-06 0.0012974971 9.8650859e-05 2.6694203e-06 0.0012948277   109728 
29939000 0.00025847563 1.9637494e-06 1.9637494e-06 0.0012974973 8.2021514e-05 1.9637494e-06 0.0012955335   109728 
29940000 0.00025868029 9.3790399e-07 9.3790399e-07 0.0012974972 7.3663166e-05 9.3790399e-07 0.0012965593   109728 
29941000 0.00025805913 4.0512348e-06 4.0512348e-06 0.0012974971 9.9294987e-05 4.0512348e-06 0.0012934459   109728 
29942000 0.00025746256 7.0414682e-06 7.0414682e-06 0.0012974972 0.0001265299 7.0414682e-06 0.0012904558   109728 
29943000 0.00025691637 9.7786214e-06 9.7786214e-06 0.0012974967 0.00017832632 9.7786214e-06 0.0012877181   109728 
29944000 0.00025612568 1.374203e-05 1.374203e-05 0.0012974971 0.00021913005 1.374203e-05  0.001283755   109728 
29945000 0.00025879072 3.8380728e-07 3.8380728e-07 0.0012974966 6.2245489e-05 3.8380728e-07 0.0012971128   109728 
29946000 0.00025886731            0            0 0.0012974966 4.6607029e-05            0 0.0012974966   109728 
29947000 0.00025886731            0            0 0.0012974966 4.6607029e-05            0 0.0012974966   109728 
29948000 0.00025886731            0            0 0.0012974966 4.6607029e-05            0 0.0012974966   109728 
29949000 0.0002585808 1.4360569e-06 1.4360569e-06 0.0012974967 7.4940926e-05 1.4360569e-06 0.0012960606   109728 
29950000 0.00025869213 8.7798125e-07 8.7798125e-07 0.0012974966 7.0074989e-05 8.7798125e-07 0.0012966186   109728 
29951000 0.00025811767 3.7574611e-06 3.7574611e-06 0.0012974968 0.00010047347 3.7574611e-06 0.0012937393   109728 
29952000 0.0002588064 3.0533795e-07 3.0533795e-07 0.0012974967 5.8444741e-05 3.0533795e-07 0.0012971914   109728 
29953000 0.00025778176 5.4410332e-06 5.4410332e-06 0.0012974967 9.8698978e-05 5.4410332e-06 0.0012920556   109728 
29954000 0.00025885205 7.6745993e-08 7.6745993e-08 0.0012974969 5.1515585e-05 7.6745993e-08 0.0012974202   109728 
29955000 0.00025887301            0            0 0.0012975252 4.6936558e-05            0 0.0012975252   109728 
29956000 0.00025798871 4.4322366e-06 4.4322366e-06 0.0012975252 0.00010976259 4.4322366e-06  0.001293093   109728 
29957000 0.00025887298            0            0 0.0012975251 4.7132999e-05            0 0.0012975251   109728 
29958000 0.00025814334 3.6569316e-06 3.6569316e-06 0.0012975249 0.00011969169 3.6569316e-06  0.001293868   109728 
29959000 0.00025597693 1.451506e-05 1.451506e-05 0.0012975245 0.00018888967 1.451506e-05 0.0012830095   109728 
29960000 0.0002585333 1.7013424e-06 1.7013424e-06 0.0012975239 8.4814947e-05 1.7013424e-06 0.0012958225   109728 
29961000 0.00025862985 1.2170261e-06 1.2170261e-06 0.0012975235 7.1019831e-05 1.2170261e-06 0.0012963065   109728 
29962000 0.00025835201 2.6098277e-06 2.6098277e-06 0.0012975237 8.8727382e-05 2.6098277e-06 0.0012949139   109728 
29963000 0.00025747547 7.0034378e-06 7.0034378e-06 0.0012975239 0.00011234359 7.0034378e-06 0.0012905205   109728 
29964000 0.00025751637 6.7987177e-06 6.7987177e-06 0.0012975242 0.00014914468 6.7987177e-06 0.0012907255   109728 
29965000 0.00025822245 3.2595107e-06 3.2595107e-06  0.001297524 9.6343334e-05 3.2595107e-06 0.0012942645   109728 
29966000 0.00025852054 1.7648488e-06 1.7648488e-06 0.0012975234 9.3063931e-05 1.7648488e-06 0.0012957586   109728 
29967000 0.00025877198 5.0447297e-07 5.0447297e-07 0.0012975233 5.8837082e-05 5.0447297e-07 0.0012970188   109728 
29968000 0.00025799116 4.387513e-06 4.387513e-06 0.0012974927 0.00011536192 4.387513e-06 0.0012931052   109728 
29969000 0.0002582753 2.9470132e-06 2.9470132e-06 0.0012974764 9.8168126e-05 2.9470132e-06 0.0012945294   109728 
29970000 0.00025853549 1.6430471e-06 1.6430471e-06 0.0012974766 8.3077321e-05 1.6430471e-06 0.0012958335   109728 
29971000 0.00025855807 1.5299625e-06 1.5299625e-06 0.0012974766 7.6739943e-05 1.5299625e-06 0.0012959467   109728 
29972000 0.00025850384 1.8019112e-06 1.8019112e-06 0.0012974768 8.1562257e-05 1.8019112e-06 0.0012956749   109728 
29973000 0.00025880044 3.1497278e-07 3.1497278e-07 0.0012974765 5.753114e-05 3.1497278e-07 0.0012971615   109728 
29974000 0.00025726902 7.9907979e-06 7.9907979e-06 0.0012974765 0.00015178271 7.9907979e-06 0.0012894857   109728 
29975000 0.0002588582 2.5172856e-08 2.5172856e-08 0.0012974762 5.0554695e-05 2.5172856e-08  0.001297451   109728 
29976000 0.00025882273 2.0285339e-07 2.0285339e-07 0.0012974761 5.6320856e-05 2.0285339e-07 0.0012972732   109728 
29977000 0.00025751708 6.7469463e-06 6.7469463e-06  0.001297476 0.00016101043 6.7469463e-06  0.001290729   109728 
29978000 0.00025886278 1.7558018e-09 1.7558018e-09 0.0012974757 4.9407425e-05 1.7558018e-09 0.0012974739   109728 
29979000 0.00025886254 2.9234506e-09 2.9234506e-09 0.0012974757 4.9665998e-05 2.9234506e-09 0.0012974728   109728 
29980000 0.00025815389 3.555029e-06 3.555029e-06 0.0012974759 0.00011822213 3.555029e-06 0.0012939209   109728 
29981000 0.00025830495 2.7979873e-06 2.7979873e-06  0.001297476 8.864343e-05 2.7979873e-06  0.001294678   109728 
29982000 0.00025835221 2.5610301e-06 2.5610301e-06 0.0012974759 8.451516e-05 2.5610301e-06 0.0012949149   109728 
29983000 0.00025858588 1.3893194e-06 1.3893194e-06 0.0012974754 7.2428431e-05 1.3893194e-06 0.0012960861   109728 
29984000 0.00025867131 9.6122122e-07 9.6122122e-07 0.0012974755 6.9893492e-05 9.6122122e-07 0.0012965143   109728 
29985000 0.00025867814 9.2674839e-07 9.2674839e-07 0.0012974753 6.9719836e-05 9.2674839e-07 0.0012965485   109728 
29986000 0.00025862718 1.1821198e-06 1.1821198e-06 0.0012974752 6.719208e-05 1.1821198e-06 0.0012962931   109728 
29987000 0.00025696508 9.5129629e-06 9.5129629e-06 0.0012974753 0.00018285705 9.5129629e-06 0.0012879623   109728 
29988000 0.0002584037 2.3027745e-06 2.3027745e-06 0.0012974757 7.9871756e-05 2.3027745e-06 0.0012951729   109728 
29989000 0.00025886315            0            0 0.0012974758 4.7427637e-05            0 0.0012974758   109728 
29990000 0.00025883012 1.6529592e-07 1.6529592e-07 0.0012974756 5.3147422e-05 1.6529592e-07 0.0012973103   109728 
29991000 0.0002580361 4.145378e-06 4.145378e-06 0.0012974759 0.00011824989 4.145378e-06 0.0012933305   109728 
29992000 0.00025852683 1.6852539e-06 1.6852539e-06 0.0012974753 8.5571093e-05 1.6852539e-06 0.0012957901   109728 
29993000 0.00025886304            0            0 0.0012974752 4.7566938e-05            0 0.0012974752   109728 
29994000 0.00025886304            0            0 0.0012974752 4.7566938e-05            0 0.0012974752   109728 
29995000 0.00025864404 1.0976617e-06 1.0976617e-06 0.0012974753 7.066249e-05 1.0976617e-06 0.0012963776   109728 
29996000 0.00025738466 7.4097036e-06 7.4097036e-06  0.001297475 0.00016380864 7.4097036e-06 0.0012900653   109728 
29997000 0.00025849903 1.8240893e-06 1.8240893e-06 0.0012974749 8.4019057e-05 1.8240893e-06 0.0012956508   109728 
29998000 0.00025883751 1.2793039e-07 1.2793039e-07 0.0012974752 5.3173504e-05 1.2793039e-07 0.0012973473   109728 
29999000 0.00025866515 9.9154324e-07 9.9154324e-07 0.0012974749 6.5089418e-05 9.9154324e-07 0.0012964834   109728 
30000000 0.00025883532 1.3847025e-07 1.3847025e-07 0.0012974748 5.3671879e-05 1.3847025e-07 0.0012973363   109728 
Loop time of 23879.6 on 384 procs for 30000000 steps with 109728 atoms

Performance: 542722.561 tau/day, 1256.302 timesteps/s
88.6% CPU use with 384 MPI tasks x 1 OpenMP threads

MPI task timing breakdown:
Section |  min time  |  avg time  |  max time  |%varavg|  %CPU | %total
-----------------------------------------------------------------------
Pair    | 355.14     | 1770.5     | 2479.3     |1163.2 |  92.5 |  7.41
Bond    | 18.719     | 19.55      | 20.619     |   9.0 | 100.0 |  0.08
Neigh   | 841.52     | 2425.1     | 2987.7     | 889.0 |  96.8 | 10.16
Comm    | 7146.1     | 10284      | 12316      |1005.1 |  88.1 | 43.07
Output  | 2434.8     | 2437       | 2442.1     |   4.2 |  82.5 | 10.21
Modify  | 5393.6     | 6206.6     | 8877.9     | 959.1 |  87.6 | 25.99
Other   |            | 736.9      |            |       |       |  3.09

Nlocal:        285.750 ave        1400 max           0 min
Histogram: 165 62 56 26 29 23 15 4 3 1
Nghost:        1556.04 ave        3716 max           0 min
Histogram: 14 22 67 87 72 58 37 20 5 2
Neighs:      0.0520833 ave           9 max           0 min
Histogram: 377 3 1 2 0 0 0 0 0 1

Total # of neighbors = 20
Ave neighs/atom = 0.00018226888
Ave special neighs/atom = 0.0000000
Neighbor list builds = 2445789
Dangerous builds = 1128506

Total wall time: 6:38:05
