LAMMPS (24 Dec 2020)
OMP_NUM_THREADS environment is not set. Defaulting to 1 thread. (src/comm.cpp:94)
  using 1 OpenMP thread(s) per MPI task
#Read the equilibrated lj fluid and add nanocubes

units           lj
atom_style      full
#atom_modify     map array first cubes
dimension       3
boundary        p p f
pair_style      lj/cut/opt 2.5

variable        sigma           equal 1.0
variable        epsilon         equal 1.0
read_restart	restart.dat.4000000
Reading restart file ...
  restart file = 24 Dec 2020, LAMMPS = 24 Dec 2020
WARNING: Restart file used different # of processors: 240 vs. 288 (src/read_restart.cpp:697)
  restoring atom style full from restart
  orthogonal box = (0.0000000 0.0000000 0.0000000) to (80.000000 80.000000 160.00000)
  6 by 4 by 12 MPI processor grid
  restoring pair style lj/cut/opt from restart
  569361 atoms
Finding 1-2 1-3 1-4 neighbors ...
  special bond factors lj:    0        0        0       
  special bond factors coul:  0        0        0       
     0 = max # of 1-2 neighbors
     0 = max # of 1-3 neighbors
     0 = max # of 1-4 neighbors
     1 = max # of special neighbors
  special bonds CPU = 2.438 seconds
  read_restart CPU = 2.894 seconds

group		solvent type 1
426486 atoms in group solvent
group 		hull  type 2
55750 atoms in group hull
group 		dummy type 3
87125 atoms in group dummy

neighbor      0.4 bin
neigh_modify  exclude molecule/intra cubes


pair_modify   shift yes

pair_coeff    1 1 1.0 1.0 #solvent
pair_coeff    2 2 1.0 1.0 1.12 #np
pair_coeff    3 3 0.0 0.0 0.0 #dummy
pair_coeff    2 3 0.0 0.0 0.0 #np dummy
pair_coeff    1 2 ${sol} 1.0 #np solvent
pair_coeff    1 2 1.0 1.0 
pair_coeff    1 3 0.0 0.0 0.0 #dummy solvent


comm_modify   mode multi cutoff/multi 1 2.5 cutoff/multi 2 2.5 cutoff/multi 3 6.95

reset_timestep 	0

balance 	1.05 shift z 10 1.05
Balancing ...
Unused restart file global fix info:
  fix style: STORE, fix ID: msd_COMPUTE_STORE
Unused restart file peratom fix info:
  fix style: STORE, fix ID: bin1_COMPUTE_STORE
Neighbor list info ...
  update every 1 steps, delay 10 steps, check yes
  max neighbors/atom: 2000, page size: 100000
  master list distance cutoff = 2.9
  ghost atom cutoff = 6.95
  binsize = 1.45, bins = 56 56 111
  1 neighbor lists, perpetual/occasional/extra = 1 0 0
  (1) pair lj/cut/opt, perpetual
      attributes: half, newton on
      pair build: half/bin/newton
      stencil: half/bin/3d/newton
      bin: standard
 rebalancing time: 0.051 seconds
  iteration count = 4
  initial/final maximal load/proc = 2956.0000 2816.0000
  initial/final imbalance factor  = 1.4952341 1.4244179
  x cuts: 0.0000000 0.16666667 0.33333333 0.50000000 0.66666667 0.83333333 1.0000000
  y cuts: 0.0000000 0.25000000 0.50000000 0.75000000 1.0000000
  z cuts: 0.0000000 0.078125000 0.15104167 0.21354167 0.27604167 0.33854167 0.40625000 0.46875000 0.53125000 0.61458333 0.69791667 0.78125000 1.0000000

####################### WALLS ###########################

variable       epsilonWall equal 2*${epsilon}
variable       epsilonWall equal 2*1
variable       repulsive   equal   0.7147*${sigma}
variable       repulsive   equal   0.7147*1
variable       full	   equal   3*${sigma}
variable       full	   equal   3*1
region         lowWall block EDGE EDGE EDGE EDGE EDGE 2

fix            topWall all wall/lj93 zhi EDGE 	       ${epsilonWall} ${sigma} ${repulsive} units box
fix            topWall all wall/lj93 zhi EDGE 	       2 ${sigma} ${repulsive} units box
fix            topWall all wall/lj93 zhi EDGE 	       2 1 ${repulsive} units box
fix            topWall all wall/lj93 zhi EDGE 	       2 1 0.7147 units box
fix            lowSol solvent wall/lj93 zlo EDGE                ${epsilonWall} ${sigma} ${full} units box
fix            lowSol solvent wall/lj93 zlo EDGE                2 ${sigma} ${full} units box
fix            lowSol solvent wall/lj93 zlo EDGE                2 1 ${full} units box
fix            lowSol solvent wall/lj93 zlo EDGE                2 1 3 units box
fix 	       lowCub cubes wall/lj93 zlo EDGE                ${epsilonWall} ${sigma} ${repulsive} units box
fix 	       lowCub cubes wall/lj93 zlo EDGE                2 ${sigma} ${repulsive} units box
fix 	       lowCub cubes wall/lj93 zlo EDGE                2 1 ${repulsive} units box
fix 	       lowCub cubes wall/lj93 zlo EDGE                2 1 0.7147 units box


###################### COMPUTES ##########################

compute        bin1 solvent chunk/atom bin/1d z lower 1.0 units box


######################  FIXES ############################


fix             peclet solvent ave/chunk 10000 1 10000 bin1 density/number norm                  none ave one file density.profile

fix              temp solvent ave/chunk 10000 1 10000 bin1 temp norm                  none ave one file temp.profile

fix             1 cubes rigid/nve/small molecule #temp ${temp} ${temp} 10
  create bodies CPU = 0.002 seconds
  125 rigid bodies with 142875 atoms
  6.9282032 = max distance from body owner to body atom

fix             2 solvent nve


## Thermostat
region          regthermo block EDGE EDGE EDGE EDGE 0 20
group           thermo dynamic solvent region regthermo every 1000
dynamic group thermo defined
fix             3 thermo langevin ${temp} ${temp} 10 156453
fix             3 thermo langevin 1.0 ${temp} 10 156453
fix             3 thermo langevin 1.0 1.0 10 156453

## Evaporation
region		regevap block EDGE EDGE EDGE EDGE 180 200
fix		4 solvent evaporate ${evap} 1 regevap 156415
fix		4 solvent evaporate 87 1 regevap 156415


#### Load balancing

fix             bal all balance 1000 1.05 shift z 10 1.05

############### Diagnostics and computes ###################

compute        	com cubes          rigid/local   1 mol x y z
compute        	quat cubes         rigid/local   1 mol quatw quati quatj quatk

compute 	cc2 cubes 	   chunk/atom 	 molecule
compute 	msd cubes 	   msd/chunk 	 cc2

fix 		msd all ave/time  1 1 10000 c_msd[*] file dump.msd ave one mode vector

dump            1 all custom 500000 dump.lammpstrj id mol type x y z
dump		cubetrj hull custom 500000 cubes.lammpstrj id mol type x y z
dump            com cubes local 10000 dump.*.xyz c_com[*]
dump	        xyz hull xyz 100000 cubes.xyz
dump            quat cubes      local 10000 dump.*.quat c_quat[*]
#dump		mol cubes molfile 10000 mol.xyz xyz


dump            2 all image 10000 image.*.png type type
dump_modify     2 pad 8
dump		image cubes image 10000 image_cubes.*.png type type
dump_modify	image pad 8
dump            3 all movie 5000 movie.avi type type
dump		4 cubes movie 5000 movie_cubes.avi type type


thermo          1000
thermo_style    custom step temp epair evdwl etotal press pe ke atoms

restart         1000000 restart1.dat restart2.dat
timestep        0.005
timer           full
New timer settings: style=full  mode=nosync  timeout=off

run 		20000000
Per MPI rank memory allocation (min/avg/max) = 14.82 | 19.95 | 23.81 Mbytes
Step Temp E_pair E_vdwl TotEng Press PotEng KinEng Atoms 
       0    1.0057523   -2.6826257   -2.6826257   -1.5519115 -0.0012446943   -2.6826257    1.1307141   569361 
    1000    1.0058748   -2.6828324   -2.6828324   -1.5519805  0.061788115   -2.6828324    1.1308519   569361 
    2000    1.0047352   -2.6810423   -2.6810423   -1.5514716  0.073652022   -2.6810423    1.1295707   569361 
    3000    1.0045505   -2.6811543   -2.6811543   -1.5517912  0.075298868   -2.6811543    1.1293631   569361 
    4000    1.0037152   -2.6810436   -2.6810436   -1.5526197  0.068292738   -2.6810436    1.1284239   569361 
    5000    1.0040493   -2.6814516   -2.6814516    -1.552652  0.071275944   -2.6814516    1.1287996   569361 
    6000    1.0049651   -2.6825914   -2.6825914   -1.5527622  0.062415592   -2.6825914    1.1298292   569361 
    7000    1.0040196   -2.6816337   -2.6816337   -1.5528675  0.070243887   -2.6816337    1.1287662   569361 
    8000    1.0023866   -2.6802554   -2.6802554   -1.5533251  0.068114259   -2.6802554    1.1269303   569361 
    9000    1.0041011   -2.6811772   -2.6811772   -1.5523193  0.069900855   -2.6811772    1.1288579   569361 
   10000    1.0039637   -2.6817794   -2.6817794   -1.5530761  0.060666653   -2.6817794    1.1287034   569361 
   11000     1.004813   -2.6829005   -2.6829005   -1.5532423  0.062458507   -2.6829005    1.1296582   569361 
   12000     1.003758   -2.6814407   -2.6814407   -1.5529686  0.069738958   -2.6814407    1.1284721   569361 
   13000    1.0030341   -2.6799492   -2.6799492   -1.5522909  0.061559634   -2.6799492    1.1276583   569361 
   14000    1.0033492   -2.6797839   -2.6797839   -1.5517714  0.065391793   -2.6797839    1.1280125   569361 
   15000    1.0049672   -2.6818581   -2.6818581   -1.5520265   0.06633773   -2.6818581    1.1298316   569361 
   16000    1.0042764     -2.68065     -2.68065   -1.5515951  0.068417524     -2.68065     1.129055   569361 
   17000    1.0054882   -2.6818072   -2.6818072     -1.55139  0.074122095   -2.6818072    1.1304173   569361 
   18000    1.0053712   -2.6824472   -2.6824472   -1.5521614  0.064881649   -2.6824472    1.1302858   569361 
   19000    1.0024922    -2.679615    -2.679615    -1.552566  0.074980822    -2.679615     1.127049   569361 
   20000    1.0036091   -2.6812668   -2.6812668   -1.5529621  0.065661653   -2.6812668    1.1283047   569361 
   21000    1.0037955   -2.6810858   -2.6810858   -1.5525716  0.076753325   -2.6810858    1.1285142   569361 
   22000    1.0057412   -2.6822092   -2.6822092   -1.5515075  0.065848532   -2.6822092    1.1307017   569361 
   23000    1.0064376   -2.6828959   -2.6828959   -1.5514113  0.068858494   -2.6828959    1.1314846   569361 
   24000    1.0066872   -2.6832746   -2.6832746   -1.5515093  0.067640819   -2.6832746    1.1317653   569361 
   25000    1.0074374   -2.6835384   -2.6835384   -1.5509297  0.073163694   -2.6835384    1.1326086   569361 
   26000    1.0063936   -2.6821941   -2.6821941   -1.5507589  0.068847274   -2.6821941    1.1314351   569361 
   27000    1.0060377      -2.6824      -2.6824    -1.551365  0.067416219      -2.6824     1.131035   569361 
   28000    1.0051141    -2.681564    -2.681564   -1.5515672  0.058395371    -2.681564    1.1299967   569361 
   29000    1.0047137   -2.6805996   -2.6805996   -1.5510531  0.067282897   -2.6805996    1.1295465   569361 
   30000    1.0058402   -2.6829358   -2.6829358   -1.5521228   0.07436148   -2.6829358     1.130813   569361 
   31000    1.0039641   -2.6807594   -2.6807594   -1.5520557  0.066070662   -2.6807594    1.1287038   569361 
   32000    1.0068542   -2.6838664   -2.6838664   -1.5519133  0.069417729   -2.6838664     1.131953   569361 
   33000    1.0059684   -2.6822622   -2.6822622   -1.5513051  0.069848569   -2.6822622    1.1309571   569361 
   34000    1.0058453   -2.6813752   -2.6813752   -1.5505564  0.061672997   -2.6813752    1.1308188   569361 
   35000    1.0067522   -2.6809734   -2.6809734   -1.5491351  0.060072225   -2.6809734    1.1318383   569361 
   36000    1.0058372   -2.6804985   -2.6804985   -1.5496889  0.063617914   -2.6804985    1.1308096   569361 
   37000    1.0033683    -2.679125    -2.679125    -1.551091  0.064884343    -2.679125     1.128034   569361 
   38000    1.0035404   -2.6794669   -2.6794669   -1.5512395  0.077280516   -2.6794669    1.1282274   569361 
   39000     1.004878   -2.6814846   -2.6814846   -1.5517533  0.058067011   -2.6814846    1.1297313   569361 
   40000    1.0047468   -2.6814026   -2.6814026   -1.5518189  0.071475912   -2.6814026    1.1295838   569361 
   41000    1.0046971   -2.6795048   -2.6795048   -1.5499769  0.061481335   -2.6795048    1.1295279   569361 
   42000    1.0055572   -2.6802009   -2.6802009    -1.549706  0.061059543   -2.6802009    1.1304948   569361 
   43000    1.0057077   -2.6806726   -2.6806726   -1.5500085  0.065838812   -2.6806726    1.1306641   569361 
   44000     1.005501   -2.6796231   -2.6796231   -1.5491915  0.062934733   -2.6796231    1.1304316   569361 
   45000    1.0049784   -2.6795208   -2.6795208   -1.5496767  0.076678229   -2.6795208    1.1298441   569361 
   46000    1.0074598   -2.6826077   -2.6826077   -1.5499738  0.065103129   -2.6826077    1.1326338   569361 
   47000    1.0060475   -2.6805139   -2.6805139   -1.5494678  0.064476025   -2.6805139    1.1310461   569361 
   48000    1.0049102   -2.6811035   -2.6811035    -1.551336  0.063158024   -2.6811035    1.1297675   569361 
   49000    1.0055935   -2.6814175   -2.6814175   -1.5508818  0.065865757   -2.6814175    1.1305357   569361 
   50000    1.0058071   -2.6807666   -2.6807666   -1.5499908  0.056657288   -2.6807666    1.1307758   569361 
   51000    1.0056041   -2.6800804   -2.6800804   -1.5495329  0.062638013   -2.6800804    1.1305475   569361 
   52000    1.0068742   -2.6819426   -2.6819426   -1.5499672  0.059556677   -2.6819426    1.1319754   569361 
   53000    1.0049697    -2.680097    -2.680097   -1.5502626  0.070838912    -2.680097    1.1298344   569361 
   54000      1.00692   -2.6815856   -2.6815856   -1.5495586  0.063780458   -2.6815856     1.132027   569361 
   55000    1.0065701   -2.6810561   -2.6810561   -1.5494224  0.064978109   -2.6810561    1.1316336   569361 
   56000    1.0083024    -2.682153    -2.682153   -1.5485719  0.069580691    -2.682153    1.1335812   569361 
   57000    1.0066721   -2.6799075   -2.6799075   -1.5481593   0.07204272   -2.6799075    1.1317482   569361 
   58000    1.0049918   -2.6798238   -2.6798238   -1.5499646  0.068449199   -2.6798238    1.1298592   569361 
   59000    1.0059673   -2.6795019   -2.6795019    -1.548546  0.066085365   -2.6795019    1.1309559   569361 
   60000    1.0051374   -2.6792853   -2.6792853   -1.5492624  0.070228674   -2.6792853    1.1300229   569361 
   61000    1.0056491    -2.679202    -2.679202   -1.5486038  0.065484681    -2.679202    1.1305982   569361 
   62000    1.0048525   -2.6789021   -2.6789021   -1.5491995  0.076054207   -2.6789021    1.1297026   569361 
   63000    1.0055262      -2.6802      -2.6802     -1.54974  0.058437037      -2.6802      1.13046   569361 
   64000    1.0050232   -2.6784923   -2.6784923   -1.5485978  0.055149725   -2.6784923    1.1298946   569361 
   65000    1.0055283   -2.6785323   -2.6785323   -1.5480699  0.063941097   -2.6785323    1.1304624   569361 
   66000    1.0056715   -2.6787039   -2.6787039   -1.5480806  0.054788905   -2.6787039    1.1306233   569361 
   67000    1.0064347    -2.679105    -2.679105   -1.5476236  0.067234536    -2.679105    1.1314814   569361 
   68000     1.005202   -2.6786895   -2.6786895    -1.548594  0.072651859   -2.6786895    1.1300955   569361 
   69000    1.0035491   -2.6774006   -2.6774006   -1.5491633  0.066567968   -2.6774006    1.1282373   569361 
   70000    1.0046244   -2.6781599   -2.6781599   -1.5487138  0.059912052   -2.6781599    1.1294461   569361 
   71000    1.0053987   -2.6782712   -2.6782712   -1.5479545  0.069933026   -2.6782712    1.1303167   569361 
   72000    1.0048675   -2.6769648   -2.6769648   -1.5472454  0.065125652   -2.6769648    1.1297194   569361 
   73000    1.0046095   -2.6775217   -2.6775217   -1.5480923  0.065821798   -2.6775217    1.1294294   569361 
   74000    1.0038778   -2.6772058   -2.6772058    -1.548599  0.066427925   -2.6772058    1.1286068   569361 
   75000    1.0043389   -2.6787989   -2.6787989   -1.5496737  0.060862867   -2.6787989    1.1291252   569361 
   76000    1.0034867   -2.6783565   -2.6783565   -1.5501894  0.062790054   -2.6783565    1.1281671   569361 
   77000    1.0035833   -2.6791467   -2.6791467   -1.5508709  0.072114699   -2.6791467    1.1282757   569361 
   78000    1.0033311   -2.6786916   -2.6786916   -1.5506994  0.063203741   -2.6786916    1.1279922   569361 
   79000    1.0048876   -2.6799894   -2.6799894   -1.5502474  0.065464443   -2.6799894     1.129742   569361 
   80000    1.0066516    -2.682409    -2.682409   -1.5506838  0.068153488    -2.682409    1.1317253   569361 
   81000    1.0056579   -2.6816128   -2.6816128   -1.5510047  0.056535853   -2.6816128    1.1306081   569361 
   82000    1.0057852    -2.681528    -2.681528   -1.5507768  0.051471997    -2.681528    1.1307512   569361 
   83000    1.0053005   -2.6810058   -2.6810058   -1.5507995  0.065693245   -2.6810058    1.1302063   569361 
   84000    1.0063806   -2.6814939   -2.6814939   -1.5500734  0.063168729   -2.6814939    1.1314205   569361 
   85000    1.0056569   -2.6808764   -2.6808764   -1.5502695  0.068839933   -2.6808764    1.1306069   569361 
   86000    1.0074897   -2.6824509   -2.6824509   -1.5497834  0.068930587   -2.6824509    1.1326674   569361 
   87000    1.0062337   -2.6821367   -2.6821367   -1.5508813  0.067982138   -2.6821367    1.1312555   569361 
   88000     1.006549   -2.6824798   -2.6824798   -1.5508699  0.066912293   -2.6824798    1.1316099   569361 
   89000    1.0049073   -2.6823571   -2.6823571   -1.5525928  0.071109562   -2.6823571    1.1297642   569361 
   90000     1.004758   -2.6817563   -2.6817563     -1.55216  0.067693961   -2.6817563    1.1295964   569361 
   91000    1.0049583   -2.6822689   -2.6822689   -1.5524474  0.063008817   -2.6822689    1.1298215   569361 
   92000    1.0062009   -2.6828303   -2.6828303   -1.5516117    0.0670782   -2.6828303    1.1312185   569361 
   93000    1.0051302   -2.6815507   -2.6815507   -1.5515359  0.072704232   -2.6815507    1.1300148   569361 
   94000    1.0061448   -2.6835121   -2.6835121   -1.5523566  0.063308431   -2.6835121    1.1311555   569361 
   95000    1.0063007   -2.6847598   -2.6847598   -1.5534291  0.052680286   -2.6847598    1.1313307   569361 
   96000    1.0043092   -2.6821065   -2.6821065   -1.5530147   0.06834005   -2.6821065    1.1290918   569361 
   97000    1.0058388   -2.6837503   -2.6837503   -1.5529388  0.068633903   -2.6837503    1.1308115   569361 
   98000    1.0051246      -2.6837      -2.6837   -1.5536915  0.064547462      -2.6837    1.1300085   569361 
   99000    1.0074341   -2.6856513   -2.6856513   -1.5530463  0.079865566   -2.6856513    1.1326049   569361 
  100000    1.0069583   -2.6841683   -2.6841683   -1.5520982  0.073322423   -2.6841683    1.1320701   569361 
  101000     1.006257     -2.68296     -2.68296   -1.5516784  0.072736685     -2.68296    1.1312816   569361 
  102000    1.0063429    -2.683644    -2.683644   -1.5522659   0.07869943    -2.683644    1.1313781   569361 
  103000    1.0045564   -2.6807559   -2.6807559   -1.5513861  0.069268864   -2.6807559    1.1293698   569361 
  104000     1.005222   -2.6817576   -2.6817576   -1.5516396  0.076062432   -2.6817576     1.130118   569361 
  105000    1.0040861   -2.6804499   -2.6804499    -1.551609  0.066777385   -2.6804499    1.1288409   569361 
  106000    1.0054557    -2.681946    -2.681946   -1.5515653  0.053813716    -2.681946    1.1303807   569361 
  107000    1.0044792   -2.6814021   -2.6814021   -1.5521192  0.058677027   -2.6814021    1.1292829   569361 
  108000    1.0048705   -2.6812562   -2.6812562   -1.5515334  0.066713938   -2.6812562    1.1297228   569361 
  109000    1.0073828   -2.6832522   -2.6832522   -1.5507049  0.066289698   -2.6832522    1.1325473   569361 
  110000    1.0058222   -2.6830835   -2.6830835   -1.5522907  0.067545421   -2.6830835    1.1307928   569361 
  111000    1.0056393   -2.6822239   -2.6822239   -1.5516367  0.058869895   -2.6822239    1.1305871   569361 
  112000    1.0056333   -2.6820355   -2.6820355   -1.5514551  0.073883438   -2.6820355    1.1305804   569361 
  113000    1.0035759   -2.6795473   -2.6795473   -1.5512799  0.065172949   -2.6795473    1.1282674   569361 
  114000    1.0036963   -2.6794275   -2.6794275   -1.5510248  0.069357719   -2.6794275    1.1284027   569361 
  115000    1.0048214    -2.679202    -2.679202   -1.5495344  0.061119619    -2.679202    1.1296676   569361 
  116000    1.0041821   -2.6791996   -2.6791996   -1.5502506  0.063896168   -2.6791996    1.1289489   569361 
  117000    1.0036457    -2.678744    -2.678744   -1.5503981  0.072748322    -2.678744    1.1283458   569361 
  118000    1.0036995   -2.6786195   -2.6786195   -1.5502132  0.054747102   -2.6786195    1.1284063   569361 
  119000    1.0033668   -2.6782736   -2.6782736   -1.5502413  0.064184431   -2.6782736    1.1280323   569361 
  120000    1.0027222   -2.6770726   -2.6770726    -1.549765  0.051188958   -2.6770726    1.1273076   569361 
  121000    1.0046441   -2.6784039   -2.6784039   -1.5489356  0.066703144   -2.6784039    1.1294683   569361 
  122000    1.0035944   -2.6773847   -2.6773847   -1.5490965  0.070506047   -2.6773847    1.1282882   569361 
  123000    1.0035439   -2.6774625   -2.6774625   -1.5492311  0.070561474   -2.6774625    1.1282314   569361 
  124000    1.0043374   -2.6780674   -2.6780674   -1.5489439  0.063637993   -2.6780674    1.1291235   569361 
  125000    1.0041785   -2.6785776   -2.6785776   -1.5496327  0.074369408   -2.6785776    1.1289448   569361 
  126000    1.0032536   -2.6779658   -2.6779658   -1.5500608  0.065605902   -2.6779658     1.127905   569361 
  127000     1.004362    -2.679089    -2.679089   -1.5499378  0.064435309    -2.679089    1.1291512   569361 
  128000    1.0055134   -2.6799983   -2.6799983   -1.5495527  0.059325692   -2.6799983    1.1304456   569361 
  129000    1.0030128    -2.678085    -2.678085   -1.5504507  0.064187847    -2.678085    1.1276343   569361 
  130000    1.0044932   -2.6801266   -2.6801266   -1.5508279  0.064203962   -2.6801266    1.1292987   569361 
  131000    1.0030267   -2.6791152   -2.6791152   -1.5514653  0.060540165   -2.6791152      1.12765   569361 
  132000    1.0031461   -2.6793911   -2.6793911   -1.5516069  0.062781089   -2.6793911    1.1277842   569361 
  133000    1.0030503   -2.6785656   -2.6785656   -1.5508892  0.064057151   -2.6785656    1.1276765   569361 
  134000    1.0037012   -2.6790859   -2.6790859   -1.5506777  0.055432584   -2.6790859    1.1284083   569361 
  135000    1.0036968   -2.6792495   -2.6792495   -1.5508462  0.062973467   -2.6792495    1.1284033   569361 
  136000     1.002821   -2.6785503   -2.6785503   -1.5511317  0.063558269   -2.6785503    1.1274187   569361 
  137000       1.0038   -2.6794303   -2.6794303   -1.5509109  0.062482872   -2.6794303    1.1285193   569361 
  138000    1.0053578     -2.68168     -2.68168   -1.5514093  0.055906759     -2.68168    1.1302707   569361 
  139000    1.0041965   -2.6808763   -2.6808763   -1.5519112   0.06984102   -2.6808763    1.1289651   569361 
  140000    1.0061023   -2.6836996   -2.6836996    -1.552592  0.054764025   -2.6836996    1.1311077   569361 
  141000    1.0044263   -2.6817264   -2.6817264   -1.5525029  0.072102446   -2.6817264    1.1292235   569361 
  142000    1.0058865   -2.6818279   -2.6818279   -1.5509628  0.072814784   -2.6818279     1.130865   569361 
  143000    1.0074137   -2.6831454   -2.6831454   -1.5505634  0.067610079   -2.6831454     1.132582   569361 
  144000    1.0059989   -2.6829826   -2.6829826   -1.5519911   0.06576706   -2.6829826    1.1309914   569361 
  145000    1.0064716   -2.6835626   -2.6835626   -1.5520397   0.06428147   -2.6835626    1.1315228   569361 
  146000     1.005836   -2.6833146   -2.6833146   -1.5525063  0.070059824   -2.6833146    1.1308082   569361 
  147000    1.0049653   -2.6826649   -2.6826649   -1.5528356  0.073441223   -2.6826649    1.1298294   569361 
  148000    1.0030178   -2.6828399   -2.6828399      -1.5552  0.072287648   -2.6828399    1.1276399   569361 
  149000    1.0031444   -2.6819826   -2.6819826   -1.5542003   0.06142329   -2.6819826    1.1277823   569361 
  150000    1.0038381   -2.6826598   -2.6826598   -1.5540977    0.0644905   -2.6826598    1.1285621   569361 
  151000    1.0034885   -2.6831762   -2.6831762    -1.555007  0.064597495   -2.6831762    1.1281692   569361 
  152000    1.0030877   -2.6815839   -2.6815839   -1.5538654  0.069135409   -2.6815839    1.1277186   569361 
  153000     1.003131   -2.6825455   -2.6825455   -1.5547782  0.071797426   -2.6825455    1.1277673   569361 
  154000    1.0036498   -2.6829355   -2.6829355   -1.5545851  0.069698841   -2.6829355    1.1283504   569361 
  155000     1.002508   -2.6825235   -2.6825235   -1.5554567  0.064629951   -2.6825235    1.1270668   569361 
  156000    1.0047112   -2.6843543   -2.6843543   -1.5548106  0.050115574   -2.6843543    1.1295437   569361 
  157000    1.0043939   -2.6841321   -2.6841321   -1.5549452  0.060037932   -2.6841321     1.129187   569361 
  158000     1.004092   -2.6840724   -2.6840724   -1.5552248  0.057973652   -2.6840724    1.1288476   569361 
  159000    1.0064548   -2.6851263   -2.6851263   -1.5536223   0.05682299   -2.6851263     1.131504   569361 
  160000    1.0051382   -2.6833846   -2.6833846   -1.5533607  0.060108494   -2.6833846    1.1300238   569361 
  161000    1.0051827   -2.6838705   -2.6838705   -1.5537968  0.056086101   -2.6838705    1.1300738   569361 
  162000    1.0050242   -2.6839462   -2.6839462   -1.5540505  0.069054481   -2.6839462    1.1298957   569361 
  163000    1.0035346   -2.6816884   -2.6816884   -1.5534675  0.060504801   -2.6816884     1.128221   569361 
  164000    1.0040072   -2.6809151   -2.6809151   -1.5521629   0.06735923   -2.6809151    1.1287523   569361 
  165000    1.0042902   -2.6817953   -2.6817953   -1.5527249  0.065187038   -2.6817953    1.1290704   569361 
  166000    1.0048878    -2.682808    -2.682808   -1.5530657  0.068052507    -2.682808    1.1297423   569361 
  167000    1.0038882   -2.6817734   -2.6817734   -1.5531549  0.078635243   -2.6817734    1.1286185   569361 
  168000    1.0043844   -2.6815969   -2.6815969   -1.5524205  0.068293799   -2.6815969    1.1291764   569361 
  169000    1.0060765   -2.6830793   -2.6830793   -1.5520007  0.062781965   -2.6830793    1.1310787   569361 
  170000    1.0054887   -2.6837968   -2.6837968   -1.5533789  0.065974128   -2.6837968    1.1304178   569361 
  171000     1.005106   -2.6831112   -2.6831112   -1.5531236  0.062050173   -2.6831112    1.1299876   569361 
  172000     1.003996   -2.6815102   -2.6815102   -1.5527705   0.07107777   -2.6815102    1.1287397   569361 
  173000    1.0052531   -2.6830874   -2.6830874   -1.5529344  0.056401609   -2.6830874     1.130153   569361 
  174000    1.0051097   -2.6828295   -2.6828295   -1.5528378  0.060594042   -2.6828295    1.1299917   569361 
  175000    1.0047243   -2.6817055   -2.6817055    -1.552147  0.063906978   -2.6817055    1.1295585   569361 
  176000    1.0042793   -2.6823706   -2.6823706   -1.5533124  0.057395889   -2.6823706    1.1290582   569361 
  177000    1.0044093   -2.6823136   -2.6823136   -1.5531094  0.060025073   -2.6823136    1.1292043   569361 
  178000    1.0042294   -2.6819022   -2.6819022   -1.5529002  0.071197644   -2.6819022    1.1290021   569361 
  179000    1.0039834   -2.6815421   -2.6815421   -1.5528166  0.066433377   -2.6815421    1.1287255   569361 
  180000     1.004495   -2.6823335   -2.6823335   -1.5530328  0.071739292   -2.6823335    1.1293007   569361 
  181000    1.0056417   -2.6829601   -2.6829601   -1.5523702    0.0702835   -2.6829601    1.1305898   569361 
  182000    1.0051158     -2.68157     -2.68157   -1.5515714  0.079612734     -2.68157    1.1299986   569361 
  183000    1.0056319   -2.6823313   -2.6823313   -1.5517524  0.063239792   -2.6823313    1.1305789   569361 
  184000    1.0062909   -2.6838772   -2.6838772   -1.5525575  0.059459227   -2.6838772    1.1313197   569361 
  185000    1.0065768   -2.6838526   -2.6838526   -1.5522114  0.069519482   -2.6838526    1.1316412   569361 
  186000     1.007208   -2.6844982   -2.6844982   -1.5521474   0.07136975   -2.6844982    1.1323508   569361 
  187000    1.0073684   -2.6845754   -2.6845754   -1.5520444  0.060677454   -2.6845754     1.132531   569361 
  188000     1.006353   -2.6842964   -2.6842964   -1.5529069   0.06129122   -2.6842964    1.1313895   569361 
  189000    1.0053007   -2.6834296   -2.6834296   -1.5532231  0.059134981   -2.6834296    1.1302065   569361 
  190000    1.0073076   -2.6849013   -2.6849013   -1.5524386  0.068830826   -2.6849013    1.1324627   569361 
  191000    1.0065737   -2.6841495   -2.6841495   -1.5525118  0.072336988   -2.6841495    1.1316377   569361 
  192000    1.0057186   -2.6832472   -2.6832472   -1.5525709  0.070684726   -2.6832472    1.1306763   569361 
  193000    1.0063823   -2.6856281   -2.6856281   -1.5542057  0.068340106   -2.6856281    1.1314225   569361 
  194000    1.0050155   -2.6840408   -2.6840408    -1.554155  0.065599883   -2.6840408    1.1298859   569361 
  195000    1.0061943   -2.6842672   -2.6842672   -1.5530561   0.06637545   -2.6842672    1.1312111   569361 
  196000    1.0046666   -2.6829048   -2.6829048   -1.5534113  0.067965381   -2.6829048    1.1294936   569361 
  197000    1.0050548    -2.683647    -2.683647   -1.5537169   0.06833768    -2.683647    1.1299301   569361 
  198000    1.0051374   -2.6831003   -2.6831003   -1.5530774  0.066014804   -2.6831003    1.1300229   569361 
  199000    1.0061882   -2.6831408   -2.6831408   -1.5519365  0.076241658   -2.6831408    1.1312043   569361 
  200000    1.0048276    -2.682116    -2.682116   -1.5524414  0.082030731    -2.682116    1.1296746   569361 
  201000     1.008031    -2.684364    -2.684364   -1.5510879  0.079295816    -2.684364     1.133276   569361 
  202000    1.0068002   -2.6836613   -2.6836613    -1.551769  0.060142581   -2.6836613    1.1318923   569361 
  203000    1.0076794   -2.6838882   -2.6838882   -1.5510075  0.070420224   -2.6838882    1.1328807   569361 
  204000    1.0082055   -2.6851503   -2.6851503   -1.5516781   0.07426255   -2.6851503    1.1334722   569361 
  205000    1.0060222   -2.6839248   -2.6839248   -1.5529072  0.061656419   -2.6839248    1.1310177   569361 
  206000    1.0061407   -2.6836728   -2.6836728    -1.552522  0.068566205   -2.6836728    1.1311508   569361 
  207000     1.004735   -2.6827875   -2.6827875   -1.5532171  0.075111578   -2.6827875    1.1295705   569361 
  208000    1.0046174   -2.6828432   -2.6828432    -1.553405  0.071652261   -2.6828432    1.1294382   569361 
  209000     1.005018   -2.6835507   -2.6835507   -1.5536621  0.068738603   -2.6835507    1.1298886   569361 
  210000    1.0052077   -2.6832347   -2.6832347   -1.5531328  0.071489834   -2.6832347    1.1301019   569361 
  211000    1.0042045   -2.6821778   -2.6821778   -1.5532038  0.075910716   -2.6821778     1.128974   569361 
  212000     1.004246   -2.6821521   -2.6821521   -1.5531314  0.078541559   -2.6821521    1.1290208   569361 
  213000    1.0043719   -2.6820197   -2.6820197   -1.5528574  0.072923549   -2.6820197    1.1291623   569361 
  214000    1.0046057   -2.6828184   -2.6828184   -1.5533933   0.07446449   -2.6828184    1.1294251   569361 
  215000    1.0041556   -2.6815306   -2.6815306   -1.5526114  0.066989331   -2.6815306    1.1289192   569361 
  216000    1.0053943   -2.6825066   -2.6825066   -1.5521949  0.067462784   -2.6825066    1.1303117   569361 
  217000    1.0058548   -2.6835982   -2.6835982   -1.5527688  0.073451074   -2.6835982    1.1308294   569361 
  218000    1.0042938   -2.6814519   -2.6814519   -1.5523773  0.080019674   -2.6814519    1.1290745   569361 
  219000    1.0060185   -2.6829197   -2.6829197   -1.5519062  0.069378947   -2.6829197    1.1310135   569361 
  220000    1.0070159   -2.6842241   -2.6842241   -1.5520894  0.072412071   -2.6842241    1.1321348   569361 
  221000    1.0057303   -2.6832166   -2.6832166   -1.5525272  0.076609441   -2.6832166    1.1306894   569361 
  222000    1.0058591   -2.6836106   -2.6836106   -1.5527763  0.069548267   -2.6836106    1.1308343   569361 
  223000    1.0060293   -2.6832585   -2.6832585    -1.552233  0.064103293   -2.6832585    1.1310256   569361 
  224000    1.0066475   -2.6842108   -2.6842108   -1.5524902  0.071614558   -2.6842108    1.1317206   569361 
  225000    1.0054773   -2.6838991   -2.6838991   -1.5534941   0.06577139   -2.6838991     1.130405   569361 
  226000    1.0045247   -2.6831434   -2.6831434   -1.5538093  0.065821806   -2.6831434    1.1293341   569361 
  227000    1.0056296   -2.6837089   -2.6837089   -1.5531326  0.071156969   -2.6837089    1.1305762   569361 
  228000    1.0063171   -2.6848839   -2.6848839   -1.5535347  0.066354873   -2.6848839    1.1313492   569361 
  229000    1.0063928   -2.6848543   -2.6848543   -1.5534201  0.062871612   -2.6848543    1.1314342   569361 
  230000    1.0052973   -2.6834196   -2.6834196   -1.5532169  0.061864227   -2.6834196    1.1302027   569361 
  231000    1.0077586   -2.6858892   -2.6858892   -1.5529194  0.058159494   -2.6858892    1.1329698   569361 
  232000     1.005442   -2.6836126   -2.6836126   -1.5532473  0.070916943   -2.6836126    1.1303654   569361 
  233000    1.0062217   -2.6839164   -2.6839164   -1.5526745  0.065503588   -2.6839164    1.1312419   569361 
  234000    1.0051155   -2.6824586   -2.6824586   -1.5524603  0.068981631   -2.6824586    1.1299983   569361 
  235000    1.0070391   -2.6844699   -2.6844699   -1.5523091  0.069390791   -2.6844699    1.1321608   569361 
  236000    1.0087144   -2.6860958   -2.6860958   -1.5520514  0.065673377   -2.6860958    1.1340444   569361 
  237000    1.0064227   -2.6837188   -2.6837188   -1.5522509  0.066208525   -2.6837188    1.1314678   569361 
  238000    1.0049889   -2.6810954   -2.6810954   -1.5512395  0.071302735   -2.6810954    1.1298559   569361 
  239000    1.0059588   -2.6824952   -2.6824952   -1.5515488  0.069909354   -2.6824952    1.1309464   569361 
  240000    1.0043149   -2.6807866   -2.6807866   -1.5516884  0.073409319   -2.6807866    1.1290982   569361 
  241000     1.005344   -2.6823313   -2.6823313   -1.5520762  0.080914697   -2.6823313    1.1302552   569361 
  242000    1.0055184   -2.6821846   -2.6821846   -1.5517333  0.066001498   -2.6821846    1.1304512   569361 
  243000    1.0039225   -2.6809464   -2.6809464   -1.5522894  0.074003956   -2.6809464    1.1286571   569361 
  244000    1.0056299   -2.6817007   -2.6817007   -1.5511241  0.061245305   -2.6817007    1.1305766   569361 
  245000    1.0046507   -2.6802058   -2.6802058   -1.5507301  0.069450644   -2.6802058    1.1294757   569361 
  246000    1.0041344   -2.6797262   -2.6797262   -1.5508309  0.075414688   -2.6797262    1.1288953   569361 
  247000    1.0058194   -2.6823124   -2.6823124   -1.5515227  0.066982715   -2.6823124    1.1307896   569361 
  248000    1.0057935   -2.6812996   -2.6812996   -1.5505391  0.055058039   -2.6812996    1.1307605   569361 
  249000    1.0052117   -2.6805095   -2.6805095   -1.5504031  0.072424328   -2.6805095    1.1301064   569361 
  250000    1.0049662   -2.6806331   -2.6806331   -1.5508026  0.063846017   -2.6806331    1.1298304   569361 
  251000    1.0039401   -2.6797994   -2.6797994   -1.5511226  0.065492035   -2.6797994    1.1286768   569361 
  252000    1.0043647    -2.680996    -2.680996   -1.5518418  0.062234831    -2.680996    1.1291542   569361 
  253000    1.0037638   -2.6790353   -2.6790353   -1.5505567  0.057190101   -2.6790353    1.1284786   569361 
  254000    1.0058471   -2.6809278   -2.6809278    -1.550107  0.065704252   -2.6809278    1.1308208   569361 
  255000    1.0039171   -2.6798659   -2.6798659   -1.5512149  0.071894494   -2.6798659     1.128651   569361 
  256000    1.0049632   -2.6811238   -2.6811238   -1.5512967  0.069517113   -2.6811238    1.1298271   569361 
  257000      1.00431    -2.680885    -2.680885   -1.5517923  0.064809696    -2.680885    1.1290926   569361 
  258000    1.0051986   -2.6815092   -2.6815092   -1.5514175  0.069522877   -2.6815092    1.1300917   569361 
  259000    1.0056359   -2.6824123   -2.6824123    -1.551829  0.068077417   -2.6824123    1.1305833   569361 
  260000    1.0064871   -2.6833863   -2.6833863    -1.551846  0.074136629   -2.6833863    1.1315403   569361 
  261000    1.0049669    -2.681788    -2.681788   -1.5519567  0.065145711    -2.681788    1.1298312   569361 
  262000    1.0054819    -2.681629    -2.681629   -1.5512188  0.072110377    -2.681629    1.1304102   569361 
  263000    1.0050687   -2.6820248   -2.6820248   -1.5520792   0.07715623   -2.6820248    1.1299456   569361 
  264000    1.0058201   -2.6824946   -2.6824946   -1.5517042  0.068223178   -2.6824946    1.1307904   569361 
  265000    1.0058879   -2.6829799   -2.6829799   -1.5521133  0.067202158   -2.6829799    1.1308666   569361 
  266000    1.0055458   -2.6823353   -2.6823353   -1.5518533  0.074386764   -2.6823353     1.130482   569361 
  267000    1.0047071   -2.6822014   -2.6822014   -1.5526623  0.073959787   -2.6822014    1.1295391   569361 
  268000    1.0049793   -2.6828231   -2.6828231   -1.5529779  0.066074655   -2.6828231    1.1298451   569361 
  269000    1.0064327   -2.6845986   -2.6845986   -1.5531195  0.068627224   -2.6845986    1.1314792   569361 
  270000    1.0072486   -2.6856677   -2.6856677   -1.5532713  0.059847607   -2.6856677    1.1323964   569361 
  271000    1.0075845   -2.6847485   -2.6847485   -1.5519745  0.062124979   -2.6847485     1.132774   569361 
  272000      1.00659   -2.6841619   -2.6841619   -1.5525059  0.064100777   -2.6841619     1.131656   569361 
  273000    1.0050705   -2.6826316   -2.6826316   -1.5526839  0.076516164   -2.6826316    1.1299477   569361 
  274000    1.0067784   -2.6837135   -2.6837135   -1.5518457  0.062428691   -2.6837135    1.1318678   569361 
  275000    1.0060785   -2.6840754   -2.6840754   -1.5529945  0.071750347   -2.6840754    1.1310809   569361 
  276000    1.0060846   -2.6836623   -2.6836623   -1.5525745  0.074759212   -2.6836623    1.1310878   569361 
  277000    1.0052662    -2.683215    -2.683215   -1.5530474  0.071920959    -2.683215    1.1301676   569361 
  278000    1.0055819   -2.6839763   -2.6839763   -1.5534537  0.076295809   -2.6839763    1.1305226   569361 
  279000    1.0045455   -2.6832083   -2.6832083   -1.5538508  0.080492353   -2.6832083    1.1293575   569361 
  280000    1.0035605   -2.6820324   -2.6820324   -1.5537824  0.066827315   -2.6820324    1.1282501   569361 
  281000    1.0049037   -2.6828048   -2.6828048   -1.5530447  0.063603264   -2.6828048    1.1297601   569361 
  282000    1.0056014   -2.6834499   -2.6834499   -1.5529053  0.068280996   -2.6834499    1.1305445   569361 
  283000    1.0051707   -2.6828484   -2.6828484    -1.552788  0.070971986   -2.6828484    1.1300603   569361 
  284000    1.0056461   -2.6829506   -2.6829506   -1.5523558   0.06403964   -2.6829506    1.1305948   569361 
  285000    1.0050338   -2.6832726   -2.6832726   -1.5533662  0.070676473   -2.6832726    1.1299064   569361 
  286000    1.0046119   -2.6833762   -2.6833762   -1.5539441  0.068873832   -2.6833762    1.1294321   569361 
  287000    1.0060308   -2.6844205   -2.6844205   -1.5533932  0.058393513   -2.6844205    1.1310273   569361 
  288000    1.0060358   -2.6839135   -2.6839135   -1.5528805  0.071221685   -2.6839135    1.1310329   569361 
  289000    1.0047546   -2.6822243   -2.6822243   -1.5526318  0.064847934   -2.6822243    1.1295925   569361 
  290000    1.0053341   -2.6822628   -2.6822628   -1.5520188  0.065565957   -2.6822628     1.130244   569361 
  291000    1.0050147   -2.6824714   -2.6824714   -1.5525865  0.068633923   -2.6824714    1.1298849   569361 
  292000    1.0045758   -2.6812613   -2.6812613   -1.5518698  0.069135356   -2.6812613    1.1293916   569361 
  293000    1.0063292   -2.6837359   -2.6837359   -1.5523731   0.05877472   -2.6837359    1.1313628   569361 
  294000    1.0045942   -2.6799858   -2.6799858   -1.5505737  0.072453332   -2.6799858    1.1294121   569361 
  295000    1.0068559   -2.6830416   -2.6830416   -1.5510867  0.057750683   -2.6830416    1.1319549   569361 
  296000    1.0073152   -2.6831536   -2.6831536   -1.5506823  0.080610452   -2.6831536    1.1324713   569361 
  297000    1.0056605   -2.6808618   -2.6808618   -1.5502509  0.072491497   -2.6808618     1.130611   569361 
  298000    1.0045924     -2.68094     -2.68094   -1.5515299  0.069303095     -2.68094    1.1294102   569361 
  299000    1.0045732   -2.6815557   -2.6815557    -1.552167  0.068990885   -2.6815557    1.1293886   569361 
  300000     1.004796   -2.6818908   -2.6818908   -1.5522518  0.073550857   -2.6818908     1.129639   569361 
  301000    1.0043109   -2.6806751   -2.6806751   -1.5515814  0.068423545   -2.6806751    1.1290937   569361 
  302000    1.0044738   -2.6817669   -2.6817669     -1.55249    0.0576164   -2.6817669    1.1292769   569361 
  303000    1.0036317   -2.6806069   -2.6806069   -1.5522767   0.06413435   -2.6806069    1.1283301   569361 
  304000    1.0040093   -2.6803972   -2.6803972   -1.5516425  0.071822566   -2.6803972    1.1287547   569361 
  305000    1.0051737   -2.6801952   -2.6801952   -1.5501314  0.059287647   -2.6801952    1.1300637   569361 
  306000    1.0042609    -2.680519    -2.680519   -1.5514815  0.060908419    -2.680519    1.1290375   569361 
  307000    1.0052113   -2.6817125   -2.6817125   -1.5516065  0.068664847   -2.6817125    1.1301059   569361 
  308000    1.0047065   -2.6813747   -2.6813747   -1.5518362  0.068036137   -2.6813747    1.1295385   569361 
  309000    1.0062526   -2.6818487   -2.6818487    -1.550572  0.072362597   -2.6818487    1.1312767   569361 
  310000    1.0059363   -2.6815284   -2.6815284   -1.5506074  0.078017957   -2.6815284     1.130921   569361 
  311000    1.0060041   -2.6814615   -2.6814615   -1.5504642  0.076471947   -2.6814615    1.1309973   569361 
  312000    1.0055301    -2.682174    -2.682174   -1.5517097  0.058632636    -2.682174    1.1304644   569361 
  313000    1.0067101   -2.6828799   -2.6828799   -1.5510889  0.070462436   -2.6828799     1.131791   569361 
  314000    1.0065552   -2.6833607   -2.6833607   -1.5517438   0.07487517   -2.6833607    1.1316169   569361 
  315000    1.0064361   -2.6827397   -2.6827397   -1.5512568  0.071364883   -2.6827397    1.1314829   569361 
  316000    1.0047499   -2.6801986   -2.6801986   -1.5506114  0.078761832   -2.6801986    1.1295872   569361 
  317000    1.0066205   -2.6828653   -2.6828653   -1.5511751  0.068090014   -2.6828653    1.1316902   569361 
  318000    1.0058427   -2.6828952   -2.6828952   -1.5520794  0.065083008   -2.6828952    1.1308158   569361 
  319000    1.0056898   -2.6832077   -2.6832077   -1.5525638  0.064264929   -2.6832077    1.1306439   569361 
  320000    1.0058558   -2.6825395   -2.6825395    -1.551709  0.072273211   -2.6825395    1.1308305   569361 
  321000     1.005148   -2.6817914   -2.6817914   -1.5517565  0.079172959   -2.6817914    1.1300348   569361 
  322000    1.0054106   -2.6809817   -2.6809817   -1.5506516  0.069436337   -2.6809817    1.1303301   569361 
  323000    1.0058779   -2.6822737   -2.6822737   -1.5514183   0.06934692   -2.6822737    1.1308554   569361 
  324000    1.0056202   -2.6810275   -2.6810275   -1.5504618  0.071153962   -2.6810275    1.1305657   569361 
  325000    1.0057122   -2.6803057   -2.6803057   -1.5496366  0.067606553   -2.6803057    1.1306691   569361 
  326000    1.0060982   -2.6804249   -2.6804249   -1.5493219  0.065824436   -2.6804249     1.131103   569361 
  327000    1.0057494   -2.6798208   -2.6798208   -1.5491098  0.073345004   -2.6798208     1.130711   569361 
  328000     1.004671   -2.6789252   -2.6789252   -1.5494267  0.067633779   -2.6789252    1.1294985   569361 
  329000    1.0059204   -2.6808851   -2.6808851   -1.5499819  0.070600692   -2.6808851    1.1309031   569361 
  330000    1.0054728   -2.6795617   -2.6795617   -1.5491617  0.069311655   -2.6795617       1.1304   569361 
  331000    1.0056441   -2.6799378   -2.6799378   -1.5493452  0.062977989   -2.6799378    1.1305926   569361 
  332000    1.0044268   -2.6784711   -2.6784711   -1.5492471  0.075332437   -2.6784711     1.129224   569361 
  333000     1.007168   -2.6813037   -2.6813037   -1.5489978  0.070516797   -2.6813037    1.1323058   569361 
  334000    1.0051552    -2.680105    -2.680105   -1.5500621  0.062242856    -2.680105     1.130043   569361 
  335000    1.0051139   -2.6807898   -2.6807898   -1.5507933  0.065118241   -2.6807898    1.1299965   569361 
  336000     1.003609   -2.6787488   -2.6787488   -1.5504443   0.06389499   -2.6787488    1.1283046   569361 
  337000    1.0045654   -2.6802337   -2.6802337   -1.5508539  0.057405701   -2.6802337    1.1293798   569361 
  338000    1.0023519   -2.6783808   -2.6783808   -1.5514895  0.063237573   -2.6783808    1.1268913   569361 
  339000    1.0036419   -2.6802344   -2.6802344   -1.5518928  0.059933629   -2.6802344    1.1283416   569361 
  340000    1.0028009   -2.6793111   -2.6793111    -1.551915  0.065715115   -2.6793111    1.1273961   569361 
  341000    1.0026508   -2.6797762   -2.6797762   -1.5525489  0.064883302   -2.6797762    1.1272274   569361 
  342000    1.0043702   -2.6805974   -2.6805974    -1.551437  0.065224468   -2.6805974    1.1291604   569361 
  343000     1.004204   -2.6812124   -2.6812124   -1.5522389  0.069929835   -2.6812124    1.1289735   569361 
  344000    1.0036418   -2.6808332   -2.6808332   -1.5524918  0.076951854   -2.6808332    1.1283414   569361 
  345000    1.0061423   -2.6828642   -2.6828642   -1.5517115  0.061391087   -2.6828642    1.1311527   569361 
  346000    1.0059613   -2.6825938   -2.6825938   -1.5516446  0.071417519   -2.6825938    1.1309492   569361 
  347000     1.008097   -2.6840449   -2.6840449   -1.5506947   0.07304159   -2.6840449    1.1333502   569361 
  348000    1.0070037   -2.6829324   -2.6829324   -1.5508113  0.070615342   -2.6829324    1.1321211   569361 
  349000    1.0080049   -2.6838074   -2.6838074   -1.5505608  0.082322932   -2.6838074    1.1332466   569361 
  350000     1.007804   -2.6838974   -2.6838974   -1.5508766  0.070611049   -2.6838974    1.1330208   569361 
  351000    1.0078181   -2.6841968   -2.6841968   -1.5511602  0.077273191   -2.6841968    1.1330366   569361 
  352000     1.005802   -2.6831073   -2.6831073   -1.5523371   0.07053913   -2.6831073    1.1307701   569361 
  353000    1.0078125   -2.6858536   -2.6858536   -1.5528232  0.069945402   -2.6858536    1.1330304   569361 
  354000     1.006683   -2.6847531   -2.6847531   -1.5529926  0.061599825   -2.6847531    1.1317605   569361 
  355000    1.0064658   -2.6842545   -2.6842545   -1.5527382  0.070047575   -2.6842545    1.1315163   569361 
  356000    1.0066283   -2.6841649   -2.6841649   -1.5524658  0.071759563   -2.6841649     1.131699   569361 
  357000    1.0057844   -2.6836118   -2.6836118   -1.5528616  0.057045629   -2.6836118    1.1307503   569361 
  358000    1.0049208   -2.6821278   -2.6821278   -1.5523484  0.066880521   -2.6821278    1.1297794   569361 
  359000      1.00598    -2.683743    -2.683743   -1.5527728  0.055752858    -2.683743    1.1309702   569361 
  360000    1.0047814   -2.6829678   -2.6829678   -1.5533451  0.058479201   -2.6829678    1.1296227   569361 
  361000    1.0051912   -2.6845138   -2.6845138   -1.5544304  0.061503053   -2.6845138    1.1300833   569361 
  362000    1.0043809   -2.6827188   -2.6827188   -1.5535463  0.076778712   -2.6827188    1.1291724   569361 
  363000    1.0055814   -2.6838771   -2.6838771    -1.553355  0.072118366   -2.6838771    1.1305221   569361 
  364000     1.005906   -2.6846896   -2.6846896   -1.5538026  0.059159456   -2.6846896     1.130887   569361 
  365000    1.0051159   -2.6825686   -2.6825686   -1.5525698  0.069768842   -2.6825686    1.1299987   569361 
  366000    1.0073153   -2.6843734   -2.6843734    -1.551902  0.072176781   -2.6843734    1.1324714   569361 
  367000    1.0056479   -2.6831796   -2.6831796   -1.5525827  0.073912151   -2.6831796    1.1305969   569361 
  368000     1.006245   -2.6838391   -2.6838391    -1.552571  0.064976396   -2.6838391    1.1312681   569361 
  369000    1.0051051    -2.683048    -2.683048   -1.5530614  0.070614262    -2.683048    1.1299866   569361 
  370000    1.0070456   -2.6847611   -2.6847611   -1.5525929  0.072386185   -2.6847611    1.1321681   569361 
  371000    1.0054545   -2.6838756   -2.6838756   -1.5534962  0.073939392   -2.6838756    1.1303794   569361 
  372000      1.00688   -2.6846912   -2.6846912   -1.5527091  0.068535133   -2.6846912    1.1319821   569361 
  373000    1.0067997   -2.6840199   -2.6840199   -1.5521281  0.070012494   -2.6840199    1.1318918   569361 
  374000    1.0058651   -2.6833443   -2.6833443   -1.5525033  0.059170749   -2.6833443     1.130841   569361 
  375000    1.0032577   -2.6804262   -2.6804262   -1.5525165  0.075130722   -2.6804262    1.1279096   569361 
  376000    1.0050851   -2.6823202   -2.6823202   -1.5523561   0.06264612   -2.6823202    1.1299641   569361 
  377000    1.0049597    -2.682151    -2.682151   -1.5523279  0.058278636    -2.682151    1.1298231   569361 
  378000    1.0063164   -2.6831945   -2.6831945   -1.5518461  0.077776134   -2.6831945    1.1313483   569361 
  379000    1.0039301    -2.681573    -2.681573   -1.5529074  0.074582338    -2.681573    1.1286656   569361 
  380000    1.0059042   -2.6835623   -2.6835623   -1.5526773  0.072732606   -2.6835623     1.130885   569361 
  381000    1.0056865   -2.6833679   -2.6833679   -1.5527277  0.061502646   -2.6833679    1.1306403   569361 
  382000    1.0059926    -2.683142    -2.683142   -1.5521576  0.062559869    -2.683142    1.1309844   569361 
  383000    1.0061731   -2.6830701   -2.6830701   -1.5518829  0.074617942   -2.6830701    1.1311873   569361 
  384000    1.0050125    -2.682475    -2.682475   -1.5525925  0.062170126    -2.682475    1.1298825   569361 
  385000    1.0056419   -2.6836061   -2.6836061    -1.553016  0.069342442   -2.6836061      1.13059   569361 
  386000    1.0047674   -2.6823391   -2.6823391   -1.5527321  0.069154908   -2.6823391     1.129607   569361 
  387000     1.004733   -2.6824617   -2.6824617   -1.5528934  0.065803143   -2.6824617    1.1295683   569361 
  388000    1.0021174   -2.6798388   -2.6798388   -1.5532111  0.068581622   -2.6798388    1.1266277   569361 
  389000    1.0046417    -2.683594    -2.683594   -1.5541284   0.06900425    -2.683594    1.1294656   569361 
  390000    1.0045214   -2.6818348   -2.6818348   -1.5525044   0.06423982   -2.6818348    1.1293304   569361 
  391000    1.0041277   -2.6818576   -2.6818576   -1.5529698  0.067479204   -2.6818576    1.1288878   569361 
  392000    1.0040255   -2.6818599   -2.6818599   -1.5530872  0.065225761   -2.6818599    1.1287728   569361 
  393000    1.0046413    -2.683378    -2.683378   -1.5539129   0.05546187    -2.683378    1.1294652   569361 
  394000     1.005434    -2.683872    -2.683872   -1.5535156  0.061866227    -2.683872    1.1303564   569361 
  395000     1.006117   -2.6836247   -2.6836247   -1.5525005  0.056913791   -2.6836247    1.1311242   569361 
  396000    1.0053633   -2.6823701   -2.6823701   -1.5520932  0.077351544   -2.6823701    1.1302769   569361 
  397000    1.0051585   -2.6823514   -2.6823514   -1.5523048   0.07185951   -2.6823514    1.1300467   569361 
  398000    1.0069713   -2.6843439   -2.6843439   -1.5522593  0.074129501   -2.6843439    1.1320846   569361 
  399000    1.0056421   -2.6823435   -2.6823435   -1.5517532  0.072235063   -2.6823435    1.1305903   569361 
  400000      1.00493    -2.681895    -2.681895   -1.5521053  0.076739856    -2.681895    1.1297897   569361 
  401000    1.0069272   -2.6837194   -2.6837194   -1.5516844  0.069845132   -2.6837194    1.1320351   569361 
  402000    1.0058034   -2.6831108   -2.6831108   -1.5523391  0.059350599   -2.6831108    1.1307717   569361 
  403000     1.006192   -2.6833894   -2.6833894   -1.5521809  0.070090401   -2.6833894    1.1312086   569361 
  404000    1.0051696   -2.6827719   -2.6827719   -1.5527129  0.072414388   -2.6827719    1.1300591   569361 
  405000    1.0057774   -2.6830953   -2.6830953   -1.5523528  0.062408943   -2.6830953    1.1307425   569361 
  406000    1.0044986   -2.6815407   -2.6815407    -1.552236  0.064899124   -2.6815407    1.1293047   569361 
  407000    1.0053753    -2.682261    -2.682261   -1.5519707  0.066628386    -2.682261    1.1302903   569361 
  408000    1.0036164   -2.6803474   -2.6803474   -1.5520345   0.07436139   -2.6803474    1.1283129   569361 
  409000    1.0030197   -2.6795732   -2.6795732   -1.5519311  0.061539039   -2.6795732    1.1276421   569361 
  410000     1.004007   -2.6805748   -2.6805748   -1.5518228  0.061547614   -2.6805748    1.1287521   569361 
  411000    1.0033057   -2.6800042   -2.6800042   -1.5520406   0.07279858   -2.6800042    1.1279636   569361 
  412000    1.0046086   -2.6809989   -2.6809989   -1.5515706  0.064088978   -2.6809989    1.1294283   569361 
  413000    1.0058409   -2.6823366   -2.6823366   -1.5515228  0.064722784   -2.6823366    1.1308138   569361 
  414000    1.0050292   -2.6813054   -2.6813054   -1.5514041  0.059800917   -2.6813054    1.1299013   569361 
  415000    1.0050933   -2.6818272   -2.6818272   -1.5518539  0.060266016   -2.6818272    1.1299733   569361 
  416000    1.0038525   -2.6798264   -2.6798264   -1.5512481  0.060049936   -2.6798264    1.1285783   569361 
  417000    1.0040242   -2.6793386   -2.6793386   -1.5505672  0.074715119   -2.6793386    1.1287714   569361 
  418000    1.0053522   -2.6808533   -2.6808533   -1.5505889   0.06626747   -2.6808533    1.1302644   569361 
  419000    1.0052901   -2.6810861   -2.6810861   -1.5508916  0.066902054   -2.6810861    1.1301945   569361 
  420000    1.0051486   -2.6811596   -2.6811596   -1.5511241  0.061444462   -2.6811596    1.1300355   569361 
  421000     1.004192   -2.6789036   -2.6789036   -1.5499435  0.081328195   -2.6789036    1.1289601   569361 
  422000    1.0040058   -2.6802643   -2.6802643   -1.5515136  0.065526632   -2.6802643    1.1287507   569361 
  423000    1.0035259   -2.6803043   -2.6803043   -1.5520931   0.06375738   -2.6803043    1.1282112   569361 
  424000    1.0039368   -2.6810265   -2.6810265   -1.5523534  0.057236881   -2.6810265    1.1286731   569361 
  425000    1.0040607   -2.6796828   -2.6796828   -1.5508704  0.063140532   -2.6796828    1.1288124   569361 
  426000    1.0045927   -2.6806172   -2.6806172   -1.5512067  0.064724007   -2.6806172    1.1294105   569361 
  427000     1.005147    -2.681781    -2.681781   -1.5517473  0.066060427    -2.681781    1.1300337   569361 
  428000    1.0053328   -2.6825336   -2.6825336    -1.552291  0.072866636   -2.6825336    1.1302426   569361 
  429000    1.0064257   -2.6842346   -2.6842346   -1.5527634  0.060315376   -2.6842346    1.1314713   569361 
  430000      1.00763   -2.6850328   -2.6850328   -1.5522076  0.061719241   -2.6850328    1.1328252   569361 
  431000    1.0052211   -2.6836097   -2.6836097   -1.5534927  0.072041694   -2.6836097     1.130117   569361 
  432000    1.0070255   -2.6840546   -2.6840546   -1.5519091  0.066061546   -2.6840546    1.1321456   569361 
  433000    1.0088841   -2.6850385   -2.6850385   -1.5508033  0.060783333   -2.6850385    1.1342351   569361 
  434000    1.0070609   -2.6836309   -2.6836309   -1.5514455  0.070420155   -2.6836309    1.1321853   569361 
  435000     1.006577    -2.684116    -2.684116   -1.5524747  0.061576587    -2.684116    1.1316413   569361 
  436000    1.0061143   -2.6831749   -2.6831749   -1.5520537  0.068577024   -2.6831749    1.1311212   569361 
  437000    1.0054819   -2.6817534   -2.6817534   -1.5513432  0.075386967   -2.6817534    1.1304102   569361 
  438000    1.0060776   -2.6831852   -2.6831852   -1.5521053  0.064076654   -2.6831852    1.1310799   569361 
  439000    1.0070254   -2.6836041   -2.6836041   -1.5514587  0.075659739   -2.6836041    1.1321455   569361 
  440000    1.0069865   -2.6837622   -2.6837622   -1.5516605  0.072276171   -2.6837622    1.1321017   569361 
  441000    1.0063678   -2.6838353   -2.6838353   -1.5524291  0.062164209   -2.6838353    1.1314062   569361 
  442000    1.0073147    -2.685789    -2.685789   -1.5533183   0.06990802    -2.685789    1.1324707   569361 
  443000    1.0056245    -2.683051    -2.683051   -1.5524806  0.073332753    -2.683051    1.1305705   569361 
  444000    1.0057474   -2.6828348   -2.6828348   -1.5521261  0.062622639   -2.6828348    1.1307087   569361 
  445000    1.0043826   -2.6814935   -2.6814935   -1.5523192   0.06565012   -2.6814935    1.1291743   569361 
  446000    1.0031626   -2.6809347   -2.6809347   -1.5531319  0.066949317   -2.6809347    1.1278027   569361 
  447000    1.0040196   -2.6813066   -2.6813066   -1.5525404   0.06434862   -2.6813066    1.1287662   569361 
  448000    1.0032607    -2.679914    -2.679914    -1.552001  0.062241224    -2.679914     1.127913   569361 
  449000    1.0055583   -2.6820008   -2.6820008   -1.5515047  0.062995171   -2.6820008    1.1304961   569361 
  450000     1.004522   -2.6806996   -2.6806996   -1.5513685  0.067245828   -2.6806996    1.1293311   569361 
  451000    1.0043157   -2.6814002   -2.6814002   -1.5523011  0.063933275   -2.6814002    1.1290991   569361 
  452000    1.0071686   -2.6829953   -2.6829953   -1.5506888  0.059741522   -2.6829953    1.1323064   569361 
  453000    1.0054934   -2.6813642   -2.6813642   -1.5509411   0.06776319   -2.6813642    1.1304231   569361 
  454000    1.0055739   -2.6812126   -2.6812126   -1.5506989   0.07297879   -2.6812126    1.1305137   569361 
  455000    1.0071477   -2.6834947   -2.6834947   -1.5512117  0.070773844   -2.6834947     1.132283   569361 
  456000    1.0058991   -2.6820119   -2.6820119   -1.5511326  0.065360279   -2.6820119    1.1308792   569361 
  457000    1.0063233   -2.6826605   -2.6826605   -1.5513043  0.065402706   -2.6826605    1.1313562   569361 
  458000    1.0050916   -2.6819671   -2.6819671   -1.5519957   0.07913357   -2.6819671    1.1299714   569361 
  459000     1.006415   -2.6829085   -2.6829085   -1.5514493  0.060114612   -2.6829085    1.1314593   569361 
  460000    1.0061823   -2.6827007   -2.6827007    -1.551503   0.06224245   -2.6827007    1.1311977   569361 
  461000    1.0058805   -2.6825149   -2.6825149   -1.5516566  0.071200217   -2.6825149    1.1308583   569361 
  462000    1.0052383   -2.6818622   -2.6818622   -1.5517259  0.055587235   -2.6818622    1.1301364   569361 
  463000    1.0053933   -2.6830453   -2.6830453   -1.5527347  0.060729041   -2.6830453    1.1303105   569361 
  464000    1.0038016   -2.6808423   -2.6808423   -1.5523212  0.060274599   -2.6808423    1.1285211   569361 
  465000    1.0049451   -2.6821098   -2.6821098   -1.5523031  0.066463435   -2.6821098    1.1298067   569361 
  466000     1.003436   -2.6791759   -2.6791759   -1.5510658  0.081952621   -2.6791759    1.1281101   569361 
  467000    1.0059031   -2.6824902   -2.6824902   -1.5516064  0.066208781   -2.6824902    1.1308837   569361 
  468000    1.0044525   -2.6816803   -2.6816803   -1.5524274  0.067365836   -2.6816803    1.1292529   569361 
  469000    1.0059252   -2.6815641   -2.6815641   -1.5506555  0.067837594   -2.6815641    1.1309086   569361 
  470000    1.0051343    -2.680022    -2.680022   -1.5500026  0.070026808    -2.680022    1.1300194   569361 
  471000    1.0058728   -2.6807807   -2.6807807   -1.5499311  0.066236887   -2.6807807    1.1308496   569361 
  472000    1.0067971    -2.681926    -2.681926   -1.5500371  0.067783555    -2.681926    1.1318889   569361 
  473000    1.0064767   -2.6815881   -2.6815881   -1.5500596  0.069487445   -2.6815881    1.1315285   569361 
  474000     1.005628   -2.6814941   -2.6814941   -1.5509197  0.067754446   -2.6814941    1.1305744   569361 
  475000    1.0073705   -2.6819514   -2.6819514    -1.549418  0.073058537   -2.6819514    1.1325335   569361 
  476000    1.0055036    -2.681391    -2.681391   -1.5509564  0.075202107    -2.681391    1.1304346   569361 
  477000    1.0069604    -2.682555    -2.682555   -1.5504825  0.064270178    -2.682555    1.1320724   569361 
  478000    1.0048998    -2.680118    -2.680118   -1.5503622  0.073232136    -2.680118    1.1297558   569361 
  479000    1.0054769   -2.6812446   -2.6812446     -1.55084  0.069572145   -2.6812446    1.1304045   569361 
  480000    1.0044963   -2.6808328   -2.6808328   -1.5515306   0.05986425   -2.6808328    1.1293022   569361 
  481000    1.0047256    -2.680912    -2.680912   -1.5513521  0.062744084    -2.680912    1.1295599   569361 
  482000    1.0035096   -2.6790716   -2.6790716   -1.5508787  0.069896587   -2.6790716    1.1281928   569361 
  483000    1.0049104   -2.6800141   -2.6800141   -1.5502464  0.075543843   -2.6800141    1.1297677   569361 
  484000    1.0051089   -2.6801557   -2.6801557   -1.5501648  0.077920461   -2.6801557    1.1299909   569361 
  485000    1.0067847   -2.6824675   -2.6824675   -1.5505927   0.06110344   -2.6824675    1.1318748   569361 
  486000     1.004648    -2.680342    -2.680342   -1.5508694  0.073489999    -2.680342    1.1294727   569361 
  487000    1.0032396   -2.6806442   -2.6806442   -1.5527549  0.061741385   -2.6806442    1.1278893   569361 
  488000    1.0032718    -2.680837    -2.680837   -1.5529115  0.060235079    -2.680837    1.1279255   569361 
  489000    1.0035044   -2.6805257   -2.6805257   -1.5523387  0.063874677   -2.6805257     1.128187   569361 
  490000    1.0042536   -2.6817248   -2.6817248   -1.5526955  0.069026051   -2.6817248    1.1290293   569361 
  491000    1.0040016   -2.6799256   -2.6799256   -1.5511796  0.056381221   -2.6799256     1.128746   569361 
  492000    1.0046845   -2.6805747   -2.6805747    -1.551061  0.061504895   -2.6805747    1.1295137   569361 
  493000    1.0053644   -2.6816114   -2.6816114   -1.5513334  0.070641561   -2.6816114    1.1302781   569361 
  494000    1.0051207   -2.6814592   -2.6814592   -1.5514551  0.074626019   -2.6814592    1.1300041   569361 
  495000    1.0051266   -2.6818367   -2.6818367   -1.5518259  0.063617596   -2.6818367    1.1300108   569361 
  496000    1.0031307   -2.6800847   -2.6800847   -1.5523177  0.069548183   -2.6800847    1.1277669   569361 
  497000    1.0067421   -2.6846568   -2.6846568   -1.5528298  0.063118056   -2.6846568     1.131827   569361 
  498000     1.004936    -2.683537    -2.683537   -1.5537405  0.062750582    -2.683537    1.1297965   569361 
  499000    1.0071054   -2.6854352   -2.6854352   -1.5531998  0.069054056   -2.6854352    1.1322354   569361 
  500000     1.004572   -2.6833685   -2.6833685   -1.5539813  0.056761773   -2.6833685    1.1293872   569361 
  501000    1.0051478   -2.6834367   -2.6834367   -1.5534022  0.066724808   -2.6834367    1.1300346   569361 
  502000    1.0047443   -2.6829303   -2.6829303   -1.5533493  0.070468923   -2.6829303     1.129581   569361 
  503000    1.0063409   -2.6855559   -2.6855559     -1.55418  0.063406406   -2.6855559    1.1313759   569361 
  504000    1.0052512   -2.6834299   -2.6834299   -1.5532791  0.067409995   -2.6834299    1.1301508   569361 
  505000    1.0053593   -2.6835396   -2.6835396   -1.5532672  0.081158444   -2.6835396    1.1302724   569361 
  506000    1.0067901   -2.6849125   -2.6849125   -1.5530316   0.07196849   -2.6849125    1.1318809   569361 
  507000    1.0047659   -2.6823495   -2.6823495   -1.5527443  0.070550072   -2.6823495    1.1296052   569361 
  508000    1.0074237   -2.6853166   -2.6853166   -1.5527233  0.070813284   -2.6853166    1.1325933   569361 
  509000    1.0057597   -2.6849423   -2.6849423   -1.5542199  0.066503168   -2.6849423    1.1307225   569361 
  510000    1.0068816   -2.6863972   -2.6863972   -1.5544134  0.071335136   -2.6863972    1.1319838   569361 
  511000    1.0062691     -2.68643     -2.68643   -1.5551348  0.079492098     -2.68643    1.1312952   569361 
  512000     1.006158   -2.6858811   -2.6858811   -1.5547109  0.078082153   -2.6858811    1.1311702   569361 
  513000    1.0065364   -2.6859701   -2.6859701   -1.5543744  0.061161353   -2.6859701    1.1315957   569361 
  514000    1.0053679   -2.6850625   -2.6850625   -1.5547804  0.068623905   -2.6850625     1.130282   569361 
  515000    1.0061345   -2.6854166   -2.6854166   -1.5542728  0.063686271   -2.6854166    1.1311438   569361 
  516000     1.004548   -2.6839637   -2.6839637   -1.5546034  0.076654699   -2.6839637    1.1293603   569361 
  517000    1.0056647   -2.6850756   -2.6850756   -1.5544599  0.052558752   -2.6850756    1.1306157   569361 
  518000    1.0045968   -2.6836754   -2.6836754   -1.5542602  0.066086789   -2.6836754    1.1294152   569361 
  519000    1.0046691   -2.6840895   -2.6840895    -1.554593  0.062669767   -2.6840895    1.1294965   569361 
  520000    1.0068725   -2.6854029   -2.6854029   -1.5534293   0.06526196   -2.6854029    1.1319736   569361 
  521000    1.0066816   -2.6850974   -2.6850974   -1.5533384  0.060970396   -2.6850974     1.131759   569361 
  522000    1.0062447   -2.6841523   -2.6841523   -1.5528845  0.070252756   -2.6841523    1.1312678   569361 
  523000    1.0058383   -2.6839466   -2.6839466   -1.5531357  0.058764429   -2.6839466    1.1308109   569361 
  524000    1.0052906   -2.6824023   -2.6824023   -1.5522072  0.070707596   -2.6824023    1.1301951   569361 
  525000    1.0042515   -2.6823893   -2.6823893   -1.5533624  0.068741887   -2.6823893    1.1290269   569361 
  526000    1.0061709   -2.6828486   -2.6828486   -1.5516639  0.071867468   -2.6828486    1.1311847   569361 
  527000    1.0072173   -2.6827444   -2.6827444   -1.5503832  0.069057821   -2.6827444    1.1323612   569361 
  528000    1.0063688   -2.6824256   -2.6824256   -1.5510184   0.06704292   -2.6824256    1.1314073   569361 
  529000    1.0053082   -2.6807782   -2.6807782   -1.5505633  0.056694371   -2.6807782    1.1302149   569361 
  530000    1.0038919   -2.6807653   -2.6807653   -1.5521426   0.06972395   -2.6807653    1.1286227   569361 
  531000    1.0051566   -2.6811999   -2.6811999   -1.5511555  0.063731353   -2.6811999    1.1300444   569361 
  532000    1.0051719   -2.6801202   -2.6801202   -1.5500585  0.063481025   -2.6801202    1.1300617   569361 
  533000    1.0057927    -2.680692    -2.680692   -1.5499323  0.064065857    -2.680692    1.1307596   569361 
  534000    1.0065662   -2.6812756   -2.6812756   -1.5496464  0.061087832   -2.6812756    1.1316292   569361 
  535000    1.0055096   -2.6811275   -2.6811275   -1.5506862  0.068340408   -2.6811275    1.1304413   569361 
  536000    1.0046468   -2.6796969   -2.6796969   -1.5502256    0.0649645   -2.6796969    1.1294713   569361 
  537000    1.0046305    -2.678707    -2.678707   -1.5492539  0.059151117    -2.678707     1.129453   569361 
  538000    1.0050715   -2.6790809   -2.6790809   -1.5491321  0.060302421   -2.6790809    1.1299488   569361 
  539000    1.0049635   -2.6791319   -2.6791319   -1.5493045  0.068422536   -2.6791319    1.1298273   569361 
  540000    1.0055775   -2.6794156   -2.6794156    -1.548898  0.065481055   -2.6794156    1.1305176   569361 
  541000    1.0051478   -2.6786496   -2.6786496   -1.5486151  0.069763806   -2.6786496    1.1300345   569361 
  542000    1.0066432   -2.6800879   -2.6800879   -1.5483721  0.061823579   -2.6800879    1.1317158   569361 
  543000    1.0052633   -2.6786181   -2.6786181   -1.5484537  0.083883018   -2.6786181    1.1301644   569361 
  544000    1.0056791   -2.6787553   -2.6787553   -1.5481234  0.063289648   -2.6787553    1.1306319   569361 
  545000    1.0061692   -2.6798663   -2.6798663   -1.5486834  0.071271693   -2.6798663    1.1311829   569361 
  546000     1.004974   -2.6791714   -2.6791714   -1.5493323   0.06384183   -2.6791714    1.1298392   569361 
  547000    1.0041552   -2.6783875   -2.6783875   -1.5494688   0.06206175   -2.6783875    1.1289187   569361 
  548000    1.0059069   -2.6799534   -2.6799534   -1.5490654  0.065842955   -2.6799534     1.130888   569361 
  549000    1.0052486   -2.6789688   -2.6789688   -1.5488209  0.063562305   -2.6789688    1.1301479   569361 
  550000    1.0065076   -2.6802526   -2.6802526   -1.5486893  0.071077743   -2.6802526    1.1315633   569361 
  551000    1.0056922   -2.6797988   -2.6797988   -1.5491522  0.061020564   -2.6797988    1.1306466   569361 
  552000    1.0079306   -2.6813985   -2.6813985   -1.5482354  0.068179318   -2.6813985    1.1331631   569361 
  553000    1.0073602   -2.6811175   -2.6811175   -1.5485956  0.074052429   -2.6811175    1.1325219   569361 
  554000    1.0048651   -2.6793593   -2.6793593   -1.5496425  0.067485005   -2.6793593    1.1297168   569361 
  555000    1.0069678   -2.6821171   -2.6821171   -1.5500363  0.069905221   -2.6821171    1.1320808   569361 
  556000    1.0041852   -2.6797181   -2.6797181   -1.5507658  0.069167901   -2.6797181    1.1289523   569361 
  557000    1.0052899   -2.6807147   -2.6807147   -1.5505204  0.063607329   -2.6807147    1.1301943   569361 
  558000    1.0043225   -2.6793137   -2.6793137    -1.550207  0.072072903   -2.6793137    1.1291067   569361 
  559000    1.0075831   -2.6827538   -2.6827538   -1.5499814  0.061952942   -2.6827538    1.1327724   569361 
  560000    1.0060143   -2.6808915   -2.6808915   -1.5498828  0.075510604   -2.6808915    1.1310088   569361 
  561000    1.0053122   -2.6804344   -2.6804344    -1.550215  0.062722451   -2.6804344    1.1302194   569361 
  562000    1.0051916   -2.6811872   -2.6811872   -1.5511034  0.081872017   -2.6811872    1.1300838   569361 
  563000    1.0058319   -2.6826605   -2.6826605   -1.5518569  0.064553771   -2.6826605    1.1308036   569361 
  564000     1.006243   -2.6817953   -2.6817953   -1.5505295  0.069842324   -2.6817953    1.1312658   569361 
  565000    1.0062484   -2.6823721   -2.6823721   -1.5511002  0.075971705   -2.6823721    1.1312719   569361 
  566000    1.0068716   -2.6832186   -2.6832186   -1.5512461  0.075813274   -2.6832186    1.1319726   569361 
  567000    1.0051205   -2.6804673   -2.6804673   -1.5504633  0.062532478   -2.6804673    1.1300039   569361 
  568000    1.0058122   -2.6819272   -2.6819272   -1.5511456  0.071557004   -2.6819272    1.1307815   569361 
  569000    1.0053593   -2.6819292   -2.6819292   -1.5516569  0.068647481   -2.6819292    1.1302723   569361 
  570000    1.0070637   -2.6830241   -2.6830241   -1.5508356  0.069471441   -2.6830241    1.1321885   569361 
  571000    1.0064775   -2.6826054   -2.6826054    -1.551076  0.065327138   -2.6826054    1.1315294   569361 
  572000    1.0053008   -2.6815175   -2.6815175   -1.5513109  0.073366575   -2.6815175    1.1302066   569361 
  573000    1.0054806   -2.6816198   -2.6816198    -1.551211   0.06513588   -2.6816198    1.1304088   569361 
  574000    1.0054295   -2.6810691   -2.6810691   -1.5507178  0.073393444   -2.6810691    1.1303513   569361 
  575000    1.0070103   -2.6820147   -2.6820147   -1.5498863  0.064772189   -2.6820147    1.1321284   569361 
  576000    1.0072094   -2.6828208   -2.6828208   -1.5504685  0.062244327   -2.6828208    1.1323524   569361 
  577000    1.0059004   -2.6802862   -2.6802862   -1.5494054  0.059851262   -2.6802862    1.1308807   569361 
  578000    1.0071583   -2.6820404   -2.6820404   -1.5497455  0.067002025   -2.6820404    1.1322949   569361 
  579000    1.0063906   -2.6816736   -2.6816736   -1.5502418  0.059978279   -2.6816736    1.1314318   569361 
  580000    1.0063069   -2.6809879   -2.6809879   -1.5496503  0.072838715   -2.6809879    1.1313377   569361 
  581000     1.004234   -2.6795457   -2.6795457   -1.5505385   0.07056891   -2.6795457    1.1290072   569361 
  582000     1.006459    -2.681511    -2.681511   -1.5500023  0.062484946    -2.681511    1.1315087   569361 
  583000    1.0060768   -2.6803311   -2.6803311   -1.5492521  0.071442529   -2.6803311     1.131079   569361 
  584000    1.0068966   -2.6817992   -2.6817992   -1.5497985  0.063997317   -2.6817992    1.1320007   569361 
  585000     1.006285   -2.6812739   -2.6812739   -1.5499608  0.067288795   -2.6812739    1.1313131   569361 
  586000    1.0052972   -2.6811398   -2.6811398   -1.5509372  0.059183342   -2.6811398    1.1302026   569361 
  587000    1.0055476   -2.6815379   -2.6815379   -1.5510539  0.060826463   -2.6815379     1.130484   569361 
  588000    1.0061089   -2.6813723   -2.6813723   -1.5502572  0.064137653   -2.6813723    1.1311151   569361 
  589000     1.006563   -2.6815638   -2.6815638   -1.5499381  0.074065388   -2.6815638    1.1316256   569361 
  590000    1.0048313   -2.6792353   -2.6792353   -1.5495566  0.075845529   -2.6792353    1.1296787   569361 
  591000     1.004352   -2.6790167   -2.6790167   -1.5498768  0.068774285   -2.6790167    1.1291399   569361 
  592000    1.0030721   -2.6784498   -2.6784498   -1.5507488   0.06279583   -2.6784498     1.127701   569361 
  593000    1.0055999   -2.6793309   -2.6793309    -1.548788  0.068632107   -2.6793309    1.1305429   569361 
  594000    1.0061928   -2.6806517   -2.6806517   -1.5494423  0.068240998   -2.6806517    1.1312094   569361 
  595000    1.0056057   -2.6795849   -2.6795849   -1.5490355  0.062916778   -2.6795849    1.1305494   569361 
  596000    1.0046077   -2.6784144   -2.6784144    -1.548987  0.073451265   -2.6784144    1.1294273   569361 
  597000    1.0050926   -2.6802978   -2.6802978   -1.5503252  0.063789632   -2.6802978    1.1299725   569361 
  598000    1.0047349    -2.679619    -2.679619   -1.5500486  0.070934713    -2.679619    1.1295704   569361 
  599000    1.0055704   -2.6802734   -2.6802734   -1.5497636  0.069012105   -2.6802734    1.1305097   569361 
  600000     1.006589   -2.6802559   -2.6802559   -1.5486011  0.066123793   -2.6802559    1.1316548   569361 
  601000    1.0059874   -2.6798574   -2.6798574   -1.5488788  0.083325023   -2.6798574    1.1309785   569361 
  602000    1.0068816   -2.6810225   -2.6810225   -1.5490386  0.063741561   -2.6810225    1.1319838   569361 
  603000    1.0053935   -2.6804414   -2.6804414   -1.5501306  0.070158341   -2.6804414    1.1303108   569361 
  604000    1.0048651   -2.6799039   -2.6799039   -1.5501871   0.06350642   -2.6799039    1.1297168   569361 
  605000    1.0060743   -2.6811953   -2.6811953   -1.5501191   0.06094253   -2.6811953    1.1310762   569361 
  606000    1.0060738   -2.6813862   -2.6813862   -1.5503106   0.06877953   -2.6813862    1.1310757   569361 
  607000    1.0063446   -2.6810496   -2.6810496   -1.5496695  0.075991275   -2.6810496    1.1313801   569361 
  608000    1.0055705   -2.6806297   -2.6806297   -1.5501199  0.074759949   -2.6806297    1.1305098   569361 
  609000    1.0063108   -2.6821055   -2.6821055   -1.5507634  0.062175631   -2.6821055    1.1313421   569361 
  610000    1.0061958    -2.681365    -2.681365   -1.5501522  0.070139862    -2.681365    1.1312128   569361 
  611000    1.0070722   -2.6823464   -2.6823464   -1.5501484  0.065854444   -2.6823464     1.132198   569361 
  612000    1.0048285   -2.6804737   -2.6804737   -1.5507981  0.053514971   -2.6804737    1.1296756   569361 
  613000    1.0058052   -2.6825013   -2.6825013   -1.5517276  0.078127637   -2.6825013    1.1307737   569361 
  614000    1.0045614   -2.6805943   -2.6805943    -1.551219  0.075749243   -2.6805943    1.1293754   569361 
  615000    1.0053231   -2.6812722   -2.6812722   -1.5510406   0.07454716   -2.6812722    1.1302316   569361 
  616000    1.0052622    -2.680968    -2.680968   -1.5508048  0.063677023    -2.680968    1.1301632   569361 
  617000    1.0042964   -2.6798994   -2.6798994    -1.550822  0.069696219   -2.6798994    1.1290774   569361 
  618000    1.0057958   -2.6817073   -2.6817073   -1.5509442  0.074033732   -2.6817073    1.1307631   569361 
  619000    1.0047994   -2.6801298   -2.6801298   -1.5504869   0.06678564   -2.6801298    1.1296429   569361 
  620000    1.0064569   -2.6833827   -2.6833827   -1.5518763  0.076359527   -2.6833827    1.1315064   569361 
  621000    1.0066507   -2.6838653   -2.6838653   -1.5521412  0.070745138   -2.6838653    1.1317242   569361 
  622000    1.0064364   -2.6829184   -2.6829184   -1.5514351  0.059060364   -2.6829184    1.1314833   569361 
  623000    1.0042146   -2.6818424   -2.6818424    -1.552857  0.067388646   -2.6818424    1.1289854   569361 
  624000    1.0050007   -2.6819474   -2.6819474   -1.5520781  0.071047065   -2.6819474    1.1298692   569361 
  625000    1.0049345   -2.6816025   -2.6816025   -1.5518077  0.057915245   -2.6816025    1.1297948   569361 
  626000       1.0053   -2.6821381   -2.6821381   -1.5519324  0.057757126   -2.6821381    1.1302057   569361 
  627000    1.0037978   -2.6798944   -2.6798944   -1.5513775  0.068796314   -2.6798944    1.1285169   569361 
  628000     1.003875   -2.6803844   -2.6803844   -1.5517808   0.08122365   -2.6803844    1.1286037   569361 
  629000    1.0053338   -2.6818195   -2.6818195   -1.5515758  0.070932251   -2.6818195    1.1302437   569361 
  630000    1.0061981   -2.6821248   -2.6821248   -1.5509093  0.063578761   -2.6821248    1.1312154   569361 
  631000    1.0072287   -2.6829511   -2.6829511   -1.5505771  0.078930573   -2.6829511    1.1323741   569361 
  632000    1.0064809   -2.6821812   -2.6821812   -1.5506479  0.067943177   -2.6821812    1.1315333   569361 
  633000    1.0064787   -2.6830593   -2.6830593   -1.5515284  0.072172543   -2.6830593    1.1315309   569361 
  634000    1.0062828   -2.6827846   -2.6827846    -1.551474  0.065868762   -2.6827846    1.1313107   569361 
  635000    1.0052405   -2.6800834   -2.6800834   -1.5499446  0.068954653   -2.6800834    1.1301388   569361 
  636000    1.0051061   -2.6803218   -2.6803218   -1.5503341  0.076352727   -2.6803218    1.1299877   569361 
  637000    1.0066178   -2.6813281   -2.6813281   -1.5496408  0.062993863   -2.6813281    1.1316873   569361 
  638000    1.0070851   -2.6816355   -2.6816355   -1.5494229  0.072420297   -2.6816355    1.1322126   569361 
  639000    1.0078031   -2.6828551   -2.6828551   -1.5498353  0.069387017   -2.6828551    1.1330198   569361 
  640000    1.0056133   -2.6797672   -2.6797672   -1.5492093  0.065692724   -2.6797672    1.1305579   569361 
  641000    1.0065438   -2.6807708   -2.6807708   -1.5491668  0.061381288   -2.6807708     1.131604   569361 
  642000    1.0057983   -2.6803105   -2.6803105   -1.5495446  0.076995735   -2.6803105    1.1307659   569361 
  643000    1.0062873   -2.6809726   -2.6809726   -1.5496569  0.067300085   -2.6809726    1.1313157   569361 
  644000    1.0063267   -2.6797165   -2.6797165   -1.5483566  0.074945849   -2.6797165    1.1313599   569361 
  645000    1.0072609   -2.6800264   -2.6800264   -1.5476162  0.066667682   -2.6800264    1.1324102   569361 
  646000    1.0068303   -2.6800355   -2.6800355   -1.5481094  0.064388776   -2.6800355    1.1319261   569361 
  647000    1.0047084   -2.6781356   -2.6781356    -1.548595  0.072249831   -2.6781356    1.1295406   569361 
  648000    1.0050311   -2.6783605   -2.6783605   -1.5484571  0.065103578   -2.6783605    1.1299034   569361 
  649000    1.0039018   -2.6773567   -2.6773567   -1.5487229  0.068492711   -2.6773567    1.1286338   569361 
  650000    1.0041845   -2.6774569   -2.6774569   -1.5485053  0.064741517   -2.6774569    1.1289516   569361 
  651000    1.0053919   -2.6782544   -2.6782544   -1.5479454  0.060140912   -2.6782544     1.130309   569361 
  652000    1.0037774   -2.6769117   -2.6769117   -1.5484178  0.072916495   -2.6769117     1.128494   569361 
  653000    1.0049336   -2.6782322   -2.6782322   -1.5484384  0.058089587   -2.6782322    1.1297938   569361 
  654000    1.0034774   -2.6769271   -2.6769271   -1.5487705  0.057411507   -2.6769271    1.1281566   569361 
  655000    1.0037593   -2.6755249   -2.6755249   -1.5470513   0.06564758   -2.6755249    1.1284736   569361 
  656000    1.0048927   -2.6765722   -2.6765722   -1.5468245  0.070621699   -2.6765722    1.1297478   569361 
  657000    1.0049103   -2.6763531   -2.6763531   -1.5465855  0.069263993   -2.6763531    1.1297675   569361 
  658000    1.0049693   -2.6774529   -2.6774529    -1.547619  0.072723383   -2.6774529    1.1298339   569361 
  659000    1.0034654   -2.6748303   -2.6748303   -1.5466872  0.068558205   -2.6748303    1.1281431   569361 
  660000    1.0066329   -2.6779359   -2.6779359   -1.5462317  0.061183628   -2.6779359    1.1317042   569361 
  661000    1.0055188   -2.6769738   -2.6769738   -1.5465222  0.070332226   -2.6769738    1.1304516   569361 
  662000    1.0052724   -2.6777429   -2.6777429   -1.5475683  0.073195186   -2.6777429    1.1301747   569361 
[...]
19832000    1.0049127   -2.6847411   -2.6847411   -1.5549708  0.065320773   -2.6847411    1.1297703   569361 
19833000    1.0054097   -2.6840206   -2.6840206   -1.5536916   0.06332362   -2.6840206    1.1303291   569361 
19834000    1.0062831   -2.6852646   -2.6852646   -1.5539536  0.060162729   -2.6852646    1.1313109   569361 
19835000    1.0078396    -2.687532    -2.687532   -1.5544711  0.063862863    -2.687532    1.1330608   569361 
19836000    1.0067805   -2.6865174   -2.6865174   -1.5546472  0.077386261   -2.6865174    1.1318702   569361 
19837000    1.0076695   -2.6877053   -2.6877053   -1.5548357  0.069438455   -2.6877053    1.1328696   569361 
19838000    1.0074142   -2.6880092   -2.6880092   -1.5554266   0.06691693   -2.6880092    1.1325826   569361 
19839000    1.0074758   -2.6873642   -2.6873642   -1.5547124  0.073122797   -2.6873642    1.1326518   569361 
19840000    1.0082419   -2.6872227   -2.6872227   -1.5537096  0.078865009   -2.6872227    1.1335131   569361 
19841000    1.0057692   -2.6856077   -2.6856077   -1.5548746  0.064385745   -2.6856077    1.1307332   569361 
19842000    1.0056407   -2.6872456   -2.6872456   -1.5566569  0.068237406   -2.6872456    1.1305888   569361 
19843000    1.0065957   -2.6887419   -2.6887419   -1.5570794  0.065069316   -2.6887419    1.1316624   569361 
19844000    1.0063498   -2.6883404   -2.6883404   -1.5569545   0.06669326   -2.6883404     1.131386   569361 
19845000    1.0052716   -2.6878849   -2.6878849   -1.5577111  0.063502942   -2.6878849    1.1301738   569361 
19846000    1.0047764   -2.6881587   -2.6881587   -1.5585417   0.06252168   -2.6881587     1.129617   569361 
19847000    1.0040975   -2.6872396   -2.6872396   -1.5583858  0.063990666   -2.6872396    1.1288538   569361 
19848000    1.0041814   -2.6868581   -2.6868581     -1.55791  0.072257092   -2.6868581    1.1289481   569361 
19849000    1.0047341   -2.6878481   -2.6878481   -1.5582787  0.066839283   -2.6878481    1.1295694   569361 
19850000    1.0058633   -2.6887214   -2.6887214   -1.5578824  0.063246348   -2.6887214     1.130839   569361 
19851000    1.0069136   -2.6901512   -2.6901512   -1.5581314  0.062617914   -2.6901512    1.1320198   569361 
19852000    1.0058012   -2.6889265   -2.6889265   -1.5581574  0.078313514   -2.6889265    1.1307691   569361 
19853000    1.0084576   -2.6905638   -2.6905638   -1.5568082  0.069702421   -2.6905638    1.1337556   569361 
19854000     1.007745   -2.6898355   -2.6898355    -1.556881  0.080207978   -2.6898355    1.1329545   569361 
19855000    1.0070537   -2.6896763   -2.6896763    -1.557499  0.068378829   -2.6896763    1.1321773   569361 
19856000    1.0065173   -2.6894981   -2.6894981   -1.5579239   0.07062972   -2.6894981    1.1315742   569361 
19857000    1.0055466   -2.6881324   -2.6881324   -1.5576495  0.085675931   -2.6881324     1.130483   569361 
19858000    1.0070593   -2.6896169   -2.6896169   -1.5574333  0.061063965   -2.6896169    1.1321835   569361 
19859000    1.0070374     -2.68862     -2.68862   -1.5564611  0.074231095     -2.68862    1.1321589   569361 
19860000    1.0078502   -2.6897154   -2.6897154   -1.5566426  0.073519255   -2.6897154    1.1330728   569361 
19861000     1.004652   -2.6873645   -2.6873645   -1.5578874  0.066936331   -2.6873645    1.1294771   569361 
19862000    1.0049744   -2.6880514   -2.6880514   -1.5582118  0.065033584   -2.6880514    1.1298397   569361 
19863000    1.0043848   -2.6876625   -2.6876625   -1.5584857  0.063711009   -2.6876625    1.1291768   569361 
19864000    1.0038174   -2.6870615   -2.6870615   -1.5585227  0.066133045   -2.6870615    1.1285388   569361 
19865000    1.0055059   -2.6877175   -2.6877175   -1.5572803  0.075152204   -2.6877175    1.1304371   569361 
19866000    1.0036033   -2.6866608   -2.6866608   -1.5583625  0.071626842   -2.6866608    1.1282982   569361 
19867000    1.0060536   -2.6887296   -2.6887296   -1.5576767  0.069907968   -2.6887296     1.131053   569361 
19868000    1.0070074     -2.68862     -2.68862   -1.5564947  0.072760282     -2.68862    1.1321253   569361 
19869000    1.0056707   -2.6871811   -2.6871811   -1.5565586  0.065879124   -2.6871811    1.1306224   569361 
19870000     1.007278   -2.6884765   -2.6884765    -1.556047  0.064530904   -2.6884765    1.1324295   569361 
19871000    1.0060132   -2.6865701   -2.6865701   -1.5555626  0.066978487   -2.6865701    1.1310076   569361 
19872000    1.0073657   -2.6874905   -2.6874905   -1.5549625    0.0724494   -2.6874905    1.1325281   569361 
19873000    1.0059738   -2.6848977   -2.6848977   -1.5539345   0.07353384   -2.6848977    1.1309632   569361 
19874000    1.0053274   -2.6845714   -2.6845714   -1.5543348  0.067620842   -2.6845714    1.1302365   569361 
19875000    1.0039868   -2.6839114   -2.6839114   -1.5551821  0.068434398   -2.6839114    1.1287293   569361 
19876000    1.0063675    -2.686601    -2.686601   -1.5551952  0.064476359    -2.686601    1.1314058   569361 
19877000    1.0061233   -2.6868356   -2.6868356   -1.5557043  0.067868443   -2.6868356    1.1311313   569361 
19878000     1.005725   -2.6859224   -2.6859224   -1.5552389  0.062906251   -2.6859224    1.1306835   569361 
19879000    1.0044402   -2.6840796   -2.6840796   -1.5548405  0.067949044   -2.6840796    1.1292391   569361 
19880000    1.0040749   -2.6849983   -2.6849983   -1.5561699  0.065678436   -2.6849983    1.1288284   569361 
19881000    1.0043724   -2.6856204   -2.6856204   -1.5564576  0.077920759   -2.6856204    1.1291628   569361 
19882000    1.0035197   -2.6850235   -2.6850235   -1.5568193  0.069771133   -2.6850235    1.1282042   569361 
19883000    1.0041164   -2.6854913   -2.6854913   -1.5566163  0.056307774   -2.6854913    1.1288751   569361 
19884000     1.003628   -2.6852493   -2.6852493   -1.5569234  0.063255965   -2.6852493    1.1283259   569361 
19885000    1.0040863   -2.6854993   -2.6854993   -1.5566581  0.063506178   -2.6854993    1.1288412   569361 
19886000     1.005635    -2.685349    -2.685349   -1.5547666   0.06907933    -2.685349    1.1305823   569361 
19887000    1.0056898   -2.6848228   -2.6848228   -1.5541789  0.080941143   -2.6848228    1.1306439   569361 
19888000    1.0044109   -2.6841683   -2.6841683   -1.5549622  0.066593147   -2.6841683    1.1292061   569361 
19889000     1.005362   -2.6849813   -2.6849813   -1.5547058  0.075168412   -2.6849813    1.1302754   569361 
19890000    1.0055593   -2.6848481   -2.6848481   -1.5543509   0.07384931   -2.6848481    1.1304972   569361 
19891000    1.0064554   -2.6864698   -2.6864698   -1.5549652  0.073039731   -2.6864698    1.1315046   569361 
19892000    1.0064445   -2.6852899   -2.6852899   -1.5537975  0.069711623   -2.6852899    1.1314924   569361 
19893000    1.0078885   -2.6870576   -2.6870576   -1.5539417  0.059708967   -2.6870576    1.1331159   569361 
19894000    1.0078289   -2.6862311   -2.6862311   -1.5531823  0.063789088   -2.6862311    1.1330488   569361 
19895000    1.0093134   -2.6885485   -2.6885485   -1.5538308  0.072923105   -2.6885485    1.1347177   569361 
19896000       1.0071   -2.6854384   -2.6854384   -1.5532091  0.079552714   -2.6854384    1.1322293   569361 
19897000    1.0084358   -2.6868574   -2.6868574   -1.5531263  0.069068652   -2.6868574    1.1337311   569361 
19898000    1.0084902   -2.6868721   -2.6868721   -1.5530798   0.07190023   -2.6868721    1.1337922   569361 
19899000    1.0072938   -2.6856915   -2.6856915   -1.5532442  0.072687758   -2.6856915    1.1324473   569361 
19900000    1.0042119   -2.6833317   -2.6833317   -1.5543492  0.070551894   -2.6833317    1.1289824   569361 
19901000    1.0048698   -2.6843384   -2.6843384   -1.5546164  0.066921835   -2.6843384     1.129722   569361 
19902000    1.0055774   -2.6850108   -2.6850108   -1.5544932  0.068897708   -2.6850108    1.1305176   569361 
19903000    1.0060685   -2.6850729   -2.6850729   -1.5540032  0.074846962   -2.6850729    1.1310697   569361 
19904000    1.0062564   -2.6845933   -2.6845933   -1.5533124  0.066148234   -2.6845933    1.1312809   569361 
19905000    1.0058446   -2.6840738   -2.6840738   -1.5532558  0.067362843   -2.6840738     1.130818   569361 
19906000    1.0052929   -2.6843338   -2.6843338   -1.5541361  0.069121919   -2.6843338    1.1301977   569361 
19907000     1.006739   -2.6850205   -2.6850205   -1.5531969  0.075904015   -2.6850205    1.1318235   569361 
19908000    1.0053226   -2.6836365   -2.6836365   -1.5534054  0.071304989   -2.6836365    1.1302311   569361 
19909000    1.0063981   -2.6848444   -2.6848444   -1.5534042  0.063853473   -2.6848444    1.1314402   569361 
19910000    1.0058313    -2.684665    -2.684665   -1.5538619  0.069835947    -2.684665     1.130803   569361 
19911000    1.0066965   -2.6857987   -2.6857987    -1.554023  0.072985567   -2.6857987    1.1317757   569361 
19912000    1.0050954   -2.6831843   -2.6831843   -1.5532086  0.072805632   -2.6831843    1.1299757   569361 
19913000    1.0048417   -2.6833257   -2.6833257   -1.5536353  0.075605841   -2.6833257    1.1296905   569361 
19914000    1.0036019   -2.6824825   -2.6824825   -1.5541859  0.061521799   -2.6824825    1.1282966   569361 
19915000    1.0049572   -2.6830004   -2.6830004   -1.5531801  0.066729892   -2.6830004    1.1298203   569361 
19916000    1.0051745   -2.6828957   -2.6828957   -1.5528311  0.072026278   -2.6828957    1.1300646   569361 
19917000    1.0055875   -2.6839085   -2.6839085   -1.5533796  0.068997084   -2.6839085    1.1305289   569361 
19918000    1.0056504   -2.6848097   -2.6848097   -1.5542101  0.068266645   -2.6848097    1.1305996   569361 
19919000    1.0048409   -2.6837017   -2.6837017   -1.5540122  0.071405571   -2.6837017    1.1296896   569361 
19920000    1.0059786   -2.6849382   -2.6849382   -1.5539696  0.068901124   -2.6849382    1.1309686   569361 
19921000    1.0052894   -2.6848431   -2.6848431   -1.5546492   0.06143412   -2.6848431    1.1301938   569361 
19922000      1.00584   -2.6857356   -2.6857356   -1.5549228  0.065267479   -2.6857356    1.1308128   569361 
19923000    1.0047698   -2.6851426   -2.6851426    -1.555533  0.070721095   -2.6851426    1.1296096   569361 
19924000    1.0046528   -2.6850627   -2.6850627   -1.5555846  0.064528357   -2.6850627    1.1294781   569361 
19925000    1.0059756   -2.6850227   -2.6850227   -1.5540575  0.074965991   -2.6850227    1.1309652   569361 
19926000    1.0042336   -2.6851834   -2.6851834   -1.5561766  0.063974153   -2.6851834    1.1290068   569361 
19927000    1.0049818   -2.6852571   -2.6852571   -1.5554091  0.069290255   -2.6852571     1.129848   569361 
19928000      1.00395    -2.684604    -2.684604   -1.5559161  0.068910769    -2.684604    1.1286879   569361 
19929000    1.0042823   -2.6846154   -2.6846154   -1.5555539  0.065705568   -2.6846154    1.1290615   569361 
19930000    1.0060214   -2.6857191   -2.6857191   -1.5547024   0.07547824   -2.6857191    1.1310167   569361 
19931000    1.0065847   -2.6860493   -2.6860493   -1.5543993  0.079569445   -2.6860493      1.13165   569361 
19932000    1.0071141    -2.687202    -2.687202   -1.5549568  0.072978006    -2.687202    1.1322452   569361 
19933000    1.0061124   -2.6861952   -2.6861952   -1.5550762  0.074870801   -2.6861952     1.131119   569361 
19934000    1.0058791   -2.6859996   -2.6859996   -1.5551429  0.067530302   -2.6859996    1.1308567   569361 
19935000    1.0063168   -2.6866203   -2.6866203   -1.5552715  0.063997999   -2.6866203    1.1313488   569361 
19936000    1.0061084    -2.686075    -2.686075   -1.5549604  0.069726626    -2.686075    1.1311146   569361 
19937000     1.005251   -2.6859633   -2.6859633   -1.5558128  0.068250743   -2.6859633    1.1301506   569361 
19938000    1.0069682    -2.687773    -2.687773   -1.5556918  0.064447194    -2.687773    1.1320812   569361 
19939000    1.0061252   -2.6874218   -2.6874218   -1.5562884  0.064325344   -2.6874218    1.1311334   569361 
19940000    1.0059419   -2.6870197   -2.6870197   -1.5560924  0.067062482   -2.6870197    1.1309273   569361 
19941000    1.0046828    -2.685968    -2.685968   -1.5564562  0.060406509    -2.685968    1.1295118   569361 
19942000    1.0034803   -2.6852391   -2.6852391   -1.5570792  0.066750952   -2.6852391      1.12816   569361 
19943000    1.0027295   -2.6843091   -2.6843091   -1.5569933  0.063886112   -2.6843091    1.1273158   569361 
19944000    1.0030898   -2.6847363   -2.6847363   -1.5570153  0.061156702   -2.6847363    1.1277209   569361 
19945000    1.0035412   -2.6854704   -2.6854704    -1.557242  0.059466947   -2.6854704    1.1282284   569361 
19946000    1.0044483   -2.6861936   -2.6861936   -1.5569455  0.060313008   -2.6861936    1.1292482   569361 
19947000     1.005812   -2.6852151   -2.6852151   -1.5544338  0.066805314   -2.6852151    1.1307813   569361 
19948000    1.0044027   -2.6839979   -2.6839979    -1.554801  0.061562979   -2.6839979    1.1291969   569361 
19949000    1.0058673   -2.6851508   -2.6851508   -1.5543073   0.07161002   -2.6851508    1.1308435   569361 
19950000     1.005535   -2.6849635   -2.6849635   -1.5544936  0.069933961   -2.6849635    1.1304699   569361 
19951000     1.006051   -2.6862706   -2.6862706   -1.5552206  0.078140569   -2.6862706      1.13105   569361 
19952000    1.0041713   -2.6842399   -2.6842399   -1.5553031  0.064245573   -2.6842399    1.1289368   569361 
19953000    1.0043457   -2.6845035   -2.6845035   -1.5553707  0.065945801   -2.6845035    1.1291328   569361 
19954000     1.004934   -2.6844949   -2.6844949   -1.5547007  0.069440236   -2.6844949    1.1297942   569361 
19955000    1.0066057   -2.6866353   -2.6866353   -1.5549616  0.061014545   -2.6866353    1.1316736   569361 
19956000    1.0052188   -2.6850146   -2.6850146   -1.5549002  0.072272411   -2.6850146    1.1301144   569361 
19957000    1.0065651   -2.6861347   -2.6861347   -1.5545067  0.071402258   -2.6861347     1.131628   569361 
19958000    1.0047463   -2.6847128   -2.6847128   -1.5551296  0.075382009   -2.6847128    1.1295832   569361 
19959000    1.0059229   -2.6859901   -2.6859901   -1.5550841  0.064868794   -2.6859901     1.130906   569361 
19960000     1.006981   -2.6871608   -2.6871608   -1.5550653  0.076809032   -2.6871608    1.1320955   569361 
19961000    1.0059818   -2.6844859   -2.6844859   -1.5535137  0.073029892   -2.6844859    1.1309722   569361 
19962000    1.0048456   -2.6851717   -2.6851717   -1.5554768  0.077358313   -2.6851717    1.1296949   569361 
19963000    1.0039475    -2.684284    -2.684284   -1.5555989  0.066576496    -2.684284    1.1286851   569361 
19964000    1.0049701   -2.6853116   -2.6853116   -1.5554768  0.079140916   -2.6853116    1.1298348   569361 
19965000    1.0065648   -2.6870471   -2.6870471   -1.5554194  0.072044873   -2.6870471    1.1316276   569361 
19966000    1.0045006   -2.6844907   -2.6844907   -1.5551837  0.077815571   -2.6844907     1.129307   569361 
19967000    1.0057559   -2.6864552   -2.6864552   -1.5557369  0.075366298   -2.6864552    1.1307183   569361 
19968000     1.004969   -2.6863265   -2.6863265   -1.5564929  0.069440528   -2.6863265    1.1298336   569361 
19969000    1.0044549   -2.6856283   -2.6856283   -1.5563727  0.071978649   -2.6856283    1.1292556   569361 
19970000    1.0054476   -2.6866853   -2.6866853   -1.5563137  0.059424842   -2.6866853    1.1303716   569361 
19971000    1.0064462   -2.6863638   -2.6863638   -1.5548695  0.076870835   -2.6863638    1.1314943   569361 
19972000    1.0059263   -2.6849026   -2.6849026   -1.5539928  0.062582355   -2.6849026    1.1309098   569361 
19973000    1.0054463   -2.6845939   -2.6845939   -1.5542238  0.075621121   -2.6845939    1.1303701   569361 
19974000     1.005501   -2.6840383   -2.6840383   -1.5536067  0.066369474   -2.6840383    1.1304316   569361 
19975000    1.0061002   -2.6838398   -2.6838398   -1.5527346  0.068795514   -2.6838398    1.1311053   569361 
19976000    1.0064703   -2.6857217   -2.6857217   -1.5542003  0.065441248   -2.6857217    1.1315214   569361 
19977000    1.0047195   -2.6831263   -2.6831263   -1.5535733   0.07390751   -2.6831263     1.129553   569361 
19978000    1.0057563    -2.685155    -2.685155   -1.5544364  0.068803844    -2.685155    1.1307187   569361 
19979000    1.0061926   -2.6866076   -2.6866076   -1.5553984  0.070354733   -2.6866076    1.1312092   569361 
19980000    1.0056755   -2.6861123   -2.6861123   -1.5554845   0.07051336   -2.6861123    1.1306278   569361 
19981000    1.0048409   -2.6848997   -2.6848997   -1.5552102  0.072361038   -2.6848997    1.1296896   569361 
19982000    1.0050404   -2.6851826   -2.6851826   -1.5552688  0.075162694   -2.6851826    1.1299138   569361 
19983000    1.0057602   -2.6859053   -2.6859053   -1.5551823  0.064997158   -2.6859053     1.130723   569361 
19984000    1.0047463   -2.6850868   -2.6850868   -1.5555035  0.065186429   -2.6850868    1.1295832   569361 
19985000    1.0034922    -2.683496    -2.683496   -1.5553227  0.064254173    -2.683496    1.1281733   569361 
19986000    1.0040183   -2.6839811   -2.6839811   -1.5552163  0.070436034   -2.6839811    1.1287647   569361 
19987000    1.0051953   -2.6844215   -2.6844215   -1.5543335  0.075215363   -2.6844215     1.130088   569361 
19988000    1.0049407   -2.6850399   -2.6850399   -1.5552381  0.074702763   -2.6850399    1.1298018   569361 
19989000    1.0055325   -2.6863197   -2.6863197   -1.5558527  0.063890358   -2.6863197     1.130467   569361 
19990000    1.0063207    -2.686448    -2.686448   -1.5550947   0.07365123    -2.686448    1.1313532   569361 
19991000    1.0061683   -2.6856675   -2.6856675   -1.5544856  0.067250134   -2.6856675    1.1311818   569361 
19992000    1.0079166   -2.6867807   -2.6867807   -1.5536333  0.068334665   -2.6867807    1.1331474   569361 
19993000    1.0063923   -2.6851518   -2.6851518   -1.5537181   0.07292871   -2.6851518    1.1314337   569361 
19994000     1.009749    -2.687906    -2.687906   -1.5526986   0.07016201    -2.687906    1.1352075   569361 
19995000    1.0086612   -2.6871525   -2.6871525    -1.553168  0.063006342   -2.6871525    1.1339845   569361 
19996000    1.0073894   -2.6862962   -2.6862962   -1.5537415  0.067807568   -2.6862962    1.1325547   569361 
19997000    1.0076935   -2.6873094   -2.6873094   -1.5544128  0.067699748   -2.6873094    1.1328966   569361 
19998000    1.0057131   -2.6854119   -2.6854119   -1.5547418  0.068239209   -2.6854119    1.1306701   569361 
19999000    1.0042581   -2.6839291   -2.6839291   -1.5548948  0.068865521   -2.6839291    1.1290343   569361 
20000000    1.0049597   -2.6859483   -2.6859483   -1.5561251  0.058164721   -2.6859483    1.1298231   569361 
Loop time of 35465.7 on 288 procs for 20000000 steps with 569361 atoms

Performance: 243615.374 tau/day, 563.924 timesteps/s
96.7% CPU use with 288 MPI tasks x 1 OpenMP threads

MPI task timing breakdown:
Section |  min time  |  avg time  |  max time  |%varavg|  %CPU | %total
-----------------------------------------------------------------------
Pair    | 6584.6     | 9194.5     | 12031      |1738.1 |  97.1 | 25.92
Bond    | 13.211     | 13.817     | 14.439     |   6.4 | 100.0 |  0.04
Neigh   | 5329.2     | 8130.1     | 10207      |1176.8 |  99.3 | 22.92
Comm    | 7152.9     | 11036      | 14352      |1649.3 |  95.9 | 31.12
Output  | 805.4      | 808.62     | 810.95     |   3.9 |  92.4 |  2.28
Modify  | 4543.2     | 5859.7     | 7780.7     |1019.3 |  95.6 | 16.52
Other   |            | 423.3      |            |       |       |  1.19

Nlocal:        1976.95 ave        2502 max        1493 min
Histogram: 6 16 25 39 93 37 29 26 13 4
Nghost:        4989.15 ave        8569 max        2297 min
Histogram: 44 41 18 25 24 50 36 24 19 7
Neighs:        44372.9 ave       61513 max       22837 min
Histogram: 1 8 42 38 41 35 29 26 48 20

Total # of neighbors = 12779395
Ave neighs/atom = 22.445153
Ave special neighs/atom = 0.0000000
Neighbor list builds = 2081378
Dangerous builds = 1831722

Total wall time: 9:51:11
