LAMMPS (24 Dec 2020)
OMP_NUM_THREADS environment is not set. Defaulting to 1 thread. (src/comm.cpp:94)
  using 1 OpenMP thread(s) per MPI task
#Read the equilibrated lj fluid and add nanocubes


atom_modify     map array first cubes
dimension       3
boundary        p p f

variable        sigma           equal 1.0
variable        epsilon         equal 1.0
read_restart 	restart.dat.2000000
Reading restart file ...
  restart file = 24 Dec 2020, LAMMPS = 24 Dec 2020
  restoring atom style full from restart
  orthogonal box = (0.0000000 0.0000000 0.0000000) to (160.00000 160.00000 320.00000)
  5 by 4 by 12 MPI processor grid
  restoring pair style lj/cut/opt from restart
  4233413 atoms
Finding 1-2 1-3 1-4 neighbors ...
  special bond factors lj:    0        0        0       
  special bond factors coul:  0        0        0       
     0 = max # of 1-2 neighbors
     0 = max # of 1-3 neighbors
     0 = max # of 1-4 neighbors
     1 = max # of special neighbors
  special bonds CPU = 1.909 seconds
  read_restart CPU = 3.759 seconds

neighbor      0.4 bin
neigh_modify  exclude molecule/intra cubes


comm_modify   mode multi cutoff/multi 1 2.5 cutoff/multi 2 2.5 cutoff/multi 3 6.95

balance 	1.05 shift z 10 1.05
Balancing ...
Unused restart file global fix info:
  fix style: STORE, fix ID: msd_COMPUTE_STORE
Neighbor list info ...
  update every 1 steps, delay 10 steps, check yes
  max neighbors/atom: 2000, page size: 100000
  master list distance cutoff = 2.9
  ghost atom cutoff = 6.95
  binsize = 1.45, bins = 111 111 221
  1 neighbor lists, perpetual/occasional/extra = 1 0 0
  (1) pair lj/cut/opt, perpetual
      attributes: half, newton on
      pair build: half/bin/newton
      stencil: half/bin/3d/newton
      bin: standard
 rebalancing time: 0.047 seconds
  iteration count = 5
  initial/final maximal load/proc = 31144.000 23445.000
  initial/final imbalance factor  = 1.7656109 1.3291403
  x cuts: 0.0000000 0.20000000 0.40000000 0.60000000 0.80000000 1.0000000
  y cuts: 0.0000000 0.25000000 0.50000000 0.75000000 1.0000000
  z cuts: 0.0000000 0.054687500 0.10677083 0.16145833 0.21354167 0.26562500 0.32031250 0.37239583 0.40625000 0.46875000 0.53125000 0.59114583 1.0000000

####################### WALLS ###########################

variable       epsilonWall equal 2*${epsilon}
variable       epsilonWall equal 2*1

variable       cutoffTop   equal   0.7147*${sigma}
variable       cutoffTop   equal   0.7147*1

variable       cutoffLow   equal   3*${sigma}
variable       cutoffLow   equal   3*1

region         lowWall block EDGE EDGE EDGE EDGE EDGE 2


fix            topWall all wall/lj93 zhi EDGE 	       ${epsilonWall} ${sigma} ${cutoffTop} units box
fix            topWall all wall/lj93 zhi EDGE 	       2 ${sigma} ${cutoffTop} units box
fix            topWall all wall/lj93 zhi EDGE 	       2 1 ${cutoffTop} units box
fix            topWall all wall/lj93 zhi EDGE 	       2 1 0.7147 units box

fix            lowWall all wall/lj93 zlo EDGE                ${epsilonWall} ${sigma} ${cutoffLow} units box
fix            lowWall all wall/lj93 zlo EDGE                2 ${sigma} ${cutoffLow} units box
fix            lowWall all wall/lj93 zlo EDGE                2 1 ${cutoffLow} units box
fix            lowWall all wall/lj93 zlo EDGE                2 1 3 units box


######################  FIXES ############################


fix             1 cubes rigid/nve/small molecule # temp 1.0 1.0 0.25
  create bodies CPU = 0.004 seconds
  512 rigid bodies with 585216 atoms
  6.9282032 = max distance from body owner to body atom

fix             2 solvent nve


## Thermostat

region          regthermo block EDGE EDGE EDGE EDGE 0 20

group           thermo dynamic solvent region regthermo every 1000
dynamic group thermo defined

fix             3 thermo langevin ${startTemp} ${temp} 0.1 156453
fix             3 thermo langevin 0.8 ${temp} 0.1 156453
fix             3 thermo langevin 0.8 0.8 0.1 156453




#### Load balancing

fix             bal all balance 1000 1.05 shift z 10 1.05

############### Diagnostics and computes ###################

compute        com cubes          rigid/local   1 mol x y z
compute        quat cubes         rigid/local   1 mol quatw quati quatj quatk
compute 	cc2 cubes chunk/atom molecule

compute 	msd cubes msd/chunk cc2

thermo          1000
thermo_style    custom step temp epair evdwl etotal press pe ke vol

dump            1 all custom 100000 dump.lammpstrj id mol type x y z
dump            2 all image 10000 image.*.png type type

dump_modify     2 pad 8


dump		image cubes image 10000 image.*.png type type

dump_modify	2 pad 8

dump            3 all movie 5000 movie.avi type type
dump           com cubes local 1000 dump.*.xyz c_com[*]
dump           quat cubes      local 1000 dump.*.quat c_quat[*]


restart         500000 restart.dat
timestep        0.0025
timer           full
New timer settings: style=full  mode=nosync  timeout=off

run            1000000
Per MPI rank memory allocation (min/avg/max) = 42.91 | 54.62 | 59.53 Mbytes
Step Temp E_pair E_vdwl TotEng Press PotEng KinEng Volume 
 2000000   0.77972579   -3.9401798   -3.9401798   -2.9319894  0.023793729   -3.9401798    1.0081904      8192000 
 2001000    0.7799027   -3.9405107   -3.9405107   -2.9320916  0.026585049   -3.9405107    1.0084192      8192000 
 2002000   0.77973929   -3.9400265   -3.9400265   -2.9318187  0.025668505   -3.9400265    1.0082079      8192000 
 2003000   0.77964028   -3.9400977   -3.9400977   -2.9320178  0.024487374   -3.9400977    1.0080799      8192000 
 2004000   0.78016143   -3.9402174   -3.9402174   -2.9314637  0.027511693   -3.9402174    1.0087537      8192000 
 2005000   0.77990763   -3.9397722   -3.9397722   -2.9313467  0.026946643   -3.9397722    1.0084255      8192000 
 2006000   0.77965886   -3.9399773   -3.9399773   -2.9318734  0.024360199   -3.9399773    1.0081039      8192000 
 2007000   0.78012478   -3.9404442   -3.9404442   -2.9317379  0.023742703   -3.9404442    1.0087063      8192000 
 2008000   0.77979167   -3.9398428   -3.9398428   -2.9315672  0.027429301   -3.9398428    1.0082756      8192000 
 2009000    0.7796221    -3.939705    -3.939705   -2.9316487  0.027422371    -3.939705    1.0080563      8192000 
 2010000   0.77951722   -3.9393634   -3.9393634   -2.9314427  0.028955476   -3.9393634    1.0079207      8192000 
 2011000   0.77940662   -3.9393807   -3.9393807   -2.9316029  0.027482762   -3.9393807    1.0077777      8192000 
 2012000    0.7795318   -3.9397201   -3.9397201   -2.9317806    0.0264887   -3.9397201    1.0079396      8192000 
 2013000   0.77991158   -3.9399502   -3.9399502   -2.9315195  0.027010411   -3.9399502    1.0084306      8192000 
 2014000   0.77962479   -3.9393042   -3.9393042   -2.9312444   0.02562954   -3.9393042    1.0080598      8192000 
 2015000   0.77963517    -3.939247    -3.939247   -2.9311738  0.024843703    -3.939247    1.0080732      8192000 
 2016000   0.77986005   -3.9395521   -3.9395521   -2.9311881  0.024816328   -3.9395521     1.008364      8192000 
 2017000   0.77983718   -3.9393481   -3.9393481   -2.9310136  0.026382674   -3.9393481    1.0083344      8192000 
 2018000   0.77997022   -3.9393952   -3.9393952   -2.9308887  0.025805908   -3.9393952    1.0085065      8192000 
 2019000   0.77934031   -3.9393126   -3.9393126   -2.9316206  0.024186722   -3.9393126     1.007692      8192000 
 2020000   0.78013605   -3.9396747   -3.9396747   -2.9309538  0.024005951   -3.9396747    1.0087209      8192000 
 2021000   0.77955504   -3.9391402   -3.9391402   -2.9311705  0.030511682   -3.9391402    1.0079696      8192000 
 2022000   0.77935923   -3.9390156   -3.9390156   -2.9312991  0.024205043   -3.9390156    1.0077165      8192000 
 2023000   0.78016163   -3.9397907   -3.9397907   -2.9310368  0.023527318   -3.9397907     1.008754      8192000 
 2024000   0.78024778   -3.9397353   -3.9397353     -2.93087  0.027466483   -3.9397353    1.0088654      8192000 
 2025000   0.78002305   -3.9396736   -3.9396736   -2.9310988  0.026358782   -3.9396736    1.0085748      8192000 
 2026000   0.77998315   -3.9394563   -3.9394563   -2.9309331  0.025883136   -3.9394563    1.0085232      8192000 
 2027000   0.77982494   -3.9389827   -3.9389827    -2.930664  0.029960091   -3.9389827    1.0083186      8192000 
 2028000   0.77997759   -3.9395715   -3.9395715   -2.9310555   0.02377261   -3.9395715     1.008516      8192000 
 2029000   0.78026463   -3.9392989   -3.9392989   -2.9304118  0.027113701   -3.9392989    1.0088871      8192000 
 2030000    0.7797519   -3.9387629   -3.9387629   -2.9305387  0.026121506   -3.9387629    1.0082242      8192000 
 2031000   0.78004085     -3.93916     -3.93916   -2.9305622  0.025540315     -3.93916    1.0085978      8192000 
 2032000   0.77956772   -3.9386803   -3.9386803   -2.9306942  0.029024781   -3.9386803     1.007986      8192000 
 2033000   0.77966415   -3.9387677   -3.9387677    -2.930657  0.025924004   -3.9387677    1.0081107      8192000 
 2034000   0.77976705   -3.9389351   -3.9389351   -2.9306913  0.026098125   -3.9389351    1.0082438      8192000 
 2035000   0.77993672   -3.9393161   -3.9393161   -2.9308529   0.02533118   -3.9393161    1.0084632      8192000 
 2036000   0.77993318   -3.9388594   -3.9388594   -2.9304008  0.027084525   -3.9388594    1.0084586      8192000 
 2037000   0.78008092   -3.9391332   -3.9391332   -2.9304836  0.023915785   -3.9391332    1.0086496      8192000 
 2038000   0.78022462   -3.9392579   -3.9392579   -2.9304225   0.02520849   -3.9392579    1.0088354      8192000 
 2039000   0.77979528   -3.9389653   -3.9389653    -2.930685  0.026671686   -3.9389653    1.0082803      8192000 
 2040000   0.77996106   -3.9390521   -3.9390521   -2.9305575  0.026632575   -3.9390521    1.0084946      8192000 
 2041000    0.7799414   -3.9390763   -3.9390763   -2.9306071  0.025787234   -3.9390763    1.0084692      8192000 
 2042000   0.78017654   -3.9389129   -3.9389129   -2.9301397  0.024464359   -3.9389129    1.0087732      8192000 
 2043000   0.77985427   -3.9388638   -3.9388638   -2.9305072  0.026442493   -3.9388638    1.0083565      8192000 
 2044000   0.77944474   -3.9386461   -3.9386461   -2.9308191  0.026549995   -3.9386461     1.007827      8192000 
 2045000   0.77993733   -3.9390897   -3.9390897   -2.9306258  0.025439181   -3.9390897    1.0084639      8192000 
 2046000   0.78014324   -3.9388152   -3.9388152    -2.930085  0.026162801   -3.9388152    1.0087302      8192000 
 2047000   0.78042529   -3.9396179   -3.9396179    -2.930523  0.025779101   -3.9396179    1.0090949      8192000 
 2048000   0.78010511   -3.9393474   -3.9393474   -2.9306665  0.026073852   -3.9393474    1.0086809      8192000 
 2049000   0.78019993   -3.9388761   -3.9388761   -2.9300726  0.028352592   -3.9388761    1.0088035      8192000 
 2050000   0.78034922   -3.9392477   -3.9392477   -2.9302512  0.026068279   -3.9392477    1.0089965      8192000 
 2051000   0.78016805   -3.9390348   -3.9390348   -2.9302725  0.024944718   -3.9390348    1.0087623      8192000 
 2052000   0.78056492   -3.9390624   -3.9390624    -2.929787  0.028317028   -3.9390624    1.0092754      8192000 
 2053000   0.78006884   -3.9386439   -3.9386439   -2.9300099  0.027200134   -3.9386439     1.008634      8192000 
 2054000   0.77996164   -3.9387717   -3.9387717   -2.9302763  0.028025244   -3.9387717    1.0084954      8192000 
 2055000   0.78035354   -3.9388981   -3.9388981    -2.929896  0.027796838   -3.9388981    1.0090021      8192000 
 2056000   0.78018989   -3.9391868   -3.9391868   -2.9303963  0.026561917   -3.9391868    1.0087905      8192000 
 2057000   0.78013975   -3.9387087   -3.9387087   -2.9299831  0.027011564   -3.9387087    1.0087257      8192000 
 2058000   0.78045674   -3.9391507   -3.9391507   -2.9300152  0.026637575   -3.9391507    1.0091355      8192000 
 2059000   0.78059827   -3.9391895   -3.9391895   -2.9298709  0.027076803   -3.9391895    1.0093185      8192000 
 2060000   0.78030187   -3.9387016   -3.9387016   -2.9297663  0.027180293   -3.9387016    1.0089353      8192000 
 2061000   0.78049176   -3.9389553   -3.9389553   -2.9297745  0.026485405   -3.9389553    1.0091808      8192000 
 2062000   0.77998215   -3.9388006   -3.9388006   -2.9302787  0.025713364   -3.9388006    1.0085219      8192000 
 2063000   0.78036091   -3.9387678   -3.9387678   -2.9297561  0.026125794   -3.9387678    1.0090116      8192000 
 2064000   0.77969816   -3.9382943   -3.9382943   -2.9301396  0.026200609   -3.9382943    1.0081547      8192000 
 2065000   0.78000208   -3.9386283   -3.9386283   -2.9300806  0.026662938   -3.9386283    1.0085477      8192000 
 2066000   0.77979223   -3.9381844   -3.9381844   -2.9299081  0.028434659   -3.9381844    1.0082763      8192000 
 2067000   0.77991063    -3.938347    -3.938347   -2.9299176   0.02676033    -3.938347    1.0084294      8192000 
 2068000   0.77977071   -3.9382193   -3.9382193   -2.9299708  0.025713176   -3.9382193    1.0082485      8192000 
 2069000   0.77999808   -3.9385594   -3.9385594   -2.9300169  0.026064053   -3.9385594    1.0085425      8192000 
 2070000   0.77972938     -3.93866     -3.93866    -2.930465  0.027193642     -3.93866    1.0081951      8192000 
 2071000   0.78002932   -3.9387523   -3.9387523   -2.9301695  0.026407399   -3.9387523    1.0085829      8192000 
 2072000   0.77997627   -3.9384883   -3.9384883    -2.929974  0.026970466   -3.9384883    1.0085143      8192000 
 2073000    0.7803249   -3.9387092   -3.9387092   -2.9297441   0.02648595   -3.9387092    1.0089651      8192000 
 2074000   0.78004357   -3.9383597   -3.9383597   -2.9297584  0.025987224   -3.9383597    1.0086013      8192000 
 2075000   0.78039274   -3.9387754   -3.9387754   -2.9297226  0.027614509   -3.9387754    1.0090528      8192000 
 2076000   0.78044013   -3.9389226   -3.9389226   -2.9298086  0.026742857   -3.9389226    1.0091141      8192000 
 2077000   0.78006332   -3.9386202   -3.9386202   -2.9299933  0.028774967   -3.9386202    1.0086268      8192000 
 2078000   0.78007735   -3.9384523   -3.9384523   -2.9298073   0.02872942   -3.9384523     1.008645      8192000 
 2079000   0.78032472   -3.9390283   -3.9390283   -2.9300635  0.027886283   -3.9390283    1.0089648      8192000 
 2080000   0.78023563   -3.9383451   -3.9383451   -2.9294955  0.028122493   -3.9383451    1.0088496      8192000 
 2081000   0.78000918   -3.9387723   -3.9387723   -2.9302155  0.026059147   -3.9387723    1.0085568      8192000 
 2082000   0.78014154   -3.9384438   -3.9384438   -2.9297158  0.029070804   -3.9384438     1.008728      8192000 
 2083000   0.78073247   -3.9394682   -3.9394682   -2.9299762   0.02236239   -3.9394682    1.0094921      8192000 
 2084000   0.78015847   -3.9384757   -3.9384757   -2.9297258  0.026384936   -3.9384757    1.0087499      8192000 
 2085000    0.7802293   -3.9383918   -3.9383918   -2.9295504  0.029059122   -3.9383918    1.0088415      8192000 
 2086000   0.78046816    -3.938814    -3.938814   -2.9296637  0.026297342    -3.938814    1.0091503      8192000 
 2087000   0.78033022   -3.9384595   -3.9384595   -2.9294876  0.026593878   -3.9384595    1.0089719      8192000 
 2088000   0.78033596   -3.9387849   -3.9387849   -2.9298055  0.025003309   -3.9387849    1.0089794      8192000 
 2089000   0.78051718   -3.9390041   -3.9390041   -2.9297904  0.027188544   -3.9390041    1.0092137      8192000 
 2090000   0.78042144   -3.9387062   -3.9387062   -2.9296163  0.027548588   -3.9387062    1.0090899      8192000 
 2091000   0.78078943    -3.939127    -3.939127   -2.9295612  0.025373721    -3.939127    1.0095657      8192000 
 2092000    0.7805939    -3.938669    -3.938669   -2.9293561  0.025406779    -3.938669    1.0093129      8192000 
 2093000   0.78094131   -3.9390601   -3.9390601    -2.929298  0.026935086   -3.9390601    1.0097621      8192000 
 2094000   0.78073094    -3.938986    -3.938986   -2.9294959  0.024905067    -3.938986    1.0094901      8192000 
 2095000   0.78049555   -3.9389023   -3.9389023   -2.9297166  0.028081071   -3.9389023    1.0091857      8192000 
 2096000   0.78052263   -3.9385139   -3.9385139   -2.9292931  0.025257884   -3.9385139    1.0092207      8192000 
 2097000   0.78061647   -3.9388243   -3.9388243   -2.9294823   0.02663165   -3.9388243    1.0093421      8192000 
 2098000      0.78056     -3.93852     -3.93852   -2.9292509  0.027095392     -3.93852    1.0092691      8192000 
 2099000   0.78059113   -3.9385655   -3.9385655   -2.9292562  0.026284795   -3.9385655    1.0093093      8192000 
 2100000   0.78030637   -3.9380047   -3.9380047   -2.9290636  0.028340034   -3.9380047    1.0089411      8192000 
 2101000   0.78086375   -3.9385844   -3.9385844   -2.9289226  0.029476286   -3.9385844    1.0096618      8192000 
 2102000   0.78030444   -3.9381738   -3.9381738   -2.9292352  0.029055144   -3.9381738    1.0089386      8192000 
 2103000   0.78062633   -3.9383148   -3.9383148     -2.92896  0.028222395   -3.9383148    1.0093548      8192000 
 2104000   0.78031505   -3.9380816   -3.9380816   -2.9291293  0.027835791   -3.9380816    1.0089523      8192000 
 2105000   0.78066899   -3.9385162   -3.9385162   -2.9291063  0.027524107   -3.9385162      1.00941      8192000 
 2106000   0.78048588   -3.9382536   -3.9382536   -2.9290804  0.028070241   -3.9382536    1.0091732      8192000 
 2107000   0.78014702   -3.9378994   -3.9378994   -2.9291643  0.026261149   -3.9378994    1.0087351      8192000 
 2108000   0.78044379    -3.938538    -3.938538   -2.9294192  0.023696689    -3.938538    1.0091188      8192000 
 2109000   0.78027056   -3.9382617   -3.9382617   -2.9293669  0.025554641   -3.9382617    1.0088948      8192000 
 2110000   0.78026272   -3.9379824   -3.9379824   -2.9290977   0.02516545   -3.9379824    1.0088847      8192000 
 2111000    0.7801843    -3.937788    -3.937788   -2.9290048    0.0277845    -3.937788    1.0087833      8192000 
 2112000   0.78005671   -3.9378694   -3.9378694   -2.9292511  0.026032803   -3.9378694    1.0086183      8192000 
 2113000    0.7802505   -3.9379308   -3.9379308   -2.9290619  0.022264575   -3.9379308    1.0088689      8192000 
 2114000   0.78022558   -3.9378252   -3.9378252   -2.9289885  0.026351515   -3.9378252    1.0088366      8192000 
 2115000   0.77989038   -3.9371116   -3.9371116   -2.9287083  0.026556376   -3.9371116    1.0084032      8192000 
 2116000   0.77993256   -3.9372858   -3.9372858    -2.928828  0.026905517   -3.9372858    1.0084578      8192000 
 2117000   0.77982131   -3.9370917   -3.9370917   -2.9287778  0.024954498   -3.9370917    1.0083139      8192000 
 2118000   0.78023642   -3.9377354   -3.9377354   -2.9288847    0.0264354   -3.9377354    1.0088507      8192000 
 2119000   0.78009837   -3.9370483   -3.9370483   -2.9283761  0.026724519   -3.9370483    1.0086722      8192000 
 2120000   0.78044558   -3.9376658   -3.9376658   -2.9285447  0.027531487   -3.9376658    1.0091211      8192000 
 2121000   0.78025982   -3.9372151   -3.9372151   -2.9283342  0.025553026   -3.9372151    1.0088809      8192000 
 2122000    0.7802945   -3.9373213   -3.9373213   -2.9283955  0.024740016   -3.9373213    1.0089258      8192000 
 2123000   0.78059177   -3.9376746   -3.9376746   -2.9283645  0.025660836   -3.9376746    1.0093101      8192000 
 2124000   0.78040184    -3.937386    -3.937386   -2.9283214  0.026281315    -3.937386    1.0090646      8192000 
 2125000   0.78067926   -3.9375234   -3.9375234   -2.9281002  0.024572037   -3.9375234    1.0094233      8192000 
 2126000   0.78002838   -3.9372926   -3.9372926   -2.9287109  0.025650928   -3.9372926    1.0085817      8192000 
 2127000   0.78075073   -3.9380692   -3.9380692   -2.9285535  0.023690474   -3.9380692    1.0095157      8192000 
 2128000   0.78021588   -3.9373533   -3.9373533   -2.9285292  0.027954681   -3.9373533    1.0088241      8192000 
 2129000   0.78055842   -3.9377574   -3.9377574   -2.9284904  0.022482284   -3.9377574     1.009267      8192000 
 2130000   0.77984761   -3.9368905   -3.9368905   -2.9285426   0.02477879   -3.9368905    1.0083479      8192000 
 2131000   0.78012306    -3.937495    -3.937495   -2.9287909  0.026314357    -3.937495    1.0087041      8192000 
 2132000     0.780334   -3.9371019   -3.9371019   -2.9281251  0.027015591   -3.9371019    1.0089768      8192000 
 2133000   0.78026951   -3.9369928   -3.9369928   -2.9280994  0.025202633   -3.9369928    1.0088934      8192000 
 2134000   0.78036702   -3.9369365   -3.9369365   -2.9279169  0.026373557   -3.9369365    1.0090195      8192000 
 2135000    0.7804735   -3.9370943   -3.9370943   -2.9279371  0.026333798   -3.9370943    1.0091572      8192000 
 2136000   0.78036595   -3.9370842   -3.9370842   -2.9280661  0.026580165   -3.9370842    1.0090181      8192000 
 2137000   0.78046468   -3.9374355   -3.9374355   -2.9282897  0.023702562   -3.9374355    1.0091458      8192000 
 2138000   0.78065763   -3.9373687   -3.9373687   -2.9279734  0.023038777   -3.9373687    1.0093953      8192000 
 2139000   0.78035603   -3.9370424   -3.9370424    -2.928037  0.026220935   -3.9370424    1.0090053      8192000 
 2140000   0.77966535   -3.9365091   -3.9365091   -2.9283968   0.02579101   -3.9365091    1.0081123      8192000 
 2141000    0.7800568   -3.9371997   -3.9371997   -2.9285813  0.025414034   -3.9371997    1.0086184      8192000 
 2142000   0.78021883   -3.9369762   -3.9369762   -2.9281483  0.026987844   -3.9369762    1.0088279      8192000 
 2143000   0.78063554   -3.9375228   -3.9375228   -2.9281561  0.024695582   -3.9375228    1.0093667      8192000 
 2144000   0.78094917   -3.9378498   -3.9378498   -2.9280776  0.023100716   -3.9378498    1.0097723      8192000 
 2145000   0.78053107   -3.9374573   -3.9374573   -2.9282256  0.026944556   -3.9374573    1.0092317      8192000 
 2146000   0.78079712   -3.9374882   -3.9374882   -2.9279125  0.028421471   -3.9374882    1.0095757      8192000 
 2147000   0.78069158   -3.9374702   -3.9374702    -2.928031  0.027974546   -3.9374702    1.0094392      8192000 
 2148000   0.78080265    -3.937773    -3.937773   -2.9281902  0.027846821    -3.937773    1.0095828      8192000 
 2149000   0.78064545   -3.9372896   -3.9372896   -2.9279101  0.026956531   -3.9372896    1.0093795      8192000 
 2150000   0.78140966   -3.9384279   -3.9384279   -2.9280602  0.026783137   -3.9384279    1.0103677      8192000 
 2151000   0.78062639   -3.9373642   -3.9373642   -2.9280093  0.026023836   -3.9373642    1.0093549      8192000 
 2152000   0.78059002   -3.9369385   -3.9369385   -2.9276306   0.02845051   -3.9369385    1.0093079      8192000 
 2153000   0.78103849   -3.9378634   -3.9378634   -2.9279757  0.025695354   -3.9378634    1.0098877      8192000 
 2154000   0.78057047   -3.9368484   -3.9368484   -2.9275658  0.029727801   -3.9368484    1.0092826      8192000 
 2155000   0.78110966   -3.9375555   -3.9375555   -2.9275757  0.026434434   -3.9375555    1.0099798      8192000 
 2156000   0.78074199   -3.9372117   -3.9372117   -2.9277073  0.026458808   -3.9372117    1.0095044      8192000 
 2157000   0.78101361   -3.9372298   -3.9372298   -2.9273743  0.029457879   -3.9372298    1.0098556      8192000 
 2158000   0.78101942   -3.9374969   -3.9374969   -2.9276338  0.029635911   -3.9374969    1.0098631      8192000 
 2159000   0.78076293   -3.9372487   -3.9372487   -2.9277173  0.028724469   -3.9372487    1.0095314      8192000 
 2160000   0.78099377   -3.9373218   -3.9373218   -2.9274919   0.02647293   -3.9373218    1.0098299      8192000 
 2161000   0.78115136     -3.93789     -3.93789   -2.9278563  0.026293995     -3.93789    1.0100337      8192000 
 2162000   0.78059255   -3.9368761   -3.9368761    -2.927565  0.031065268   -3.9368761    1.0093111      8192000 
 2163000   0.78080716      -3.9373      -3.9373   -2.9277114  0.026683926      -3.9373    1.0095886      8192000 
 2164000   0.78099445   -3.9371498   -3.9371498    -2.927319  0.026085288   -3.9371498    1.0098308      8192000 
 2165000     0.781045     -3.93726     -3.93726   -2.9273638  0.027267369     -3.93726    1.0098962      8192000 
 2166000   0.78060187   -3.9364585   -3.9364585   -2.9271354  0.028365874   -3.9364585    1.0093232      8192000 
 2167000   0.78110689   -3.9370589   -3.9370589   -2.9270827  0.024414483   -3.9370589    1.0099762      8192000 
 2168000   0.78043613    -3.936398    -3.936398   -2.9272891  0.026080801    -3.936398    1.0091089      8192000 
 2169000   0.78108588   -3.9372762   -3.9372762   -2.9273272  0.025546014   -3.9372762     1.009949      8192000 
 2170000   0.78101161   -3.9370693   -3.9370693   -2.9272163  0.025480943   -3.9370693     1.009853      8192000 
 2171000   0.78064003   -3.9366022   -3.9366022   -2.9272297   0.02449215   -3.9366022    1.0093725      8192000 
 2172000    0.7805823   -3.9365769   -3.9365769    -2.927279  0.026838139   -3.9365769    1.0092979      8192000 
 2173000   0.78094848   -3.9366947   -3.9366947   -2.9269233  0.027674978   -3.9366947    1.0097714      8192000 
 2174000   0.78052648   -3.9366515   -3.9366515   -2.9274257  0.026175745   -3.9366515    1.0092257      8192000 
 2175000   0.78051567   -3.9366166   -3.9366166   -2.9274049  0.026997134   -3.9366166    1.0092117      8192000 
 2176000   0.78074244   -3.9363343   -3.9363343   -2.9268293  0.027201823   -3.9363343     1.009505      8192000 
 2177000   0.78071682   -3.9364113   -3.9364113   -2.9269395  0.026717967   -3.9364113    1.0094718      8192000 
 2178000   0.78089225   -3.9366971   -3.9366971   -2.9269985  0.024968094   -3.9366971    1.0096987      8192000 
 2179000   0.78035317   -3.9359739   -3.9359739   -2.9269723  0.026893479   -3.9359739    1.0090016      8192000 
 2180000   0.78069111   -3.9357084   -3.9357084   -2.9262698  0.028208605   -3.9357084    1.0094386      8192000 
 2181000   0.78074304   -3.9358038   -3.9358038    -2.926298  0.026927456   -3.9358038    1.0095057      8192000 
 2182000   0.78013126   -3.9356361   -3.9356361   -2.9269214  0.028348745   -3.9356361    1.0087147      8192000 
 2183000   0.78073956   -3.9360746   -3.9360746   -2.9265734  0.025375085   -3.9360746    1.0095012      8192000 
 2184000   0.78056304   -3.9355896   -3.9355896   -2.9263167  0.024867784   -3.9355896     1.009273      8192000 
 2185000   0.78067071   -3.9361003   -3.9361003   -2.9266881  0.025216184   -3.9361003    1.0094122      8192000 
 2186000   0.78065258    -3.935893    -3.935893   -2.9265042  0.024565886    -3.935893    1.0093888      8192000 
 2187000   0.78072353    -3.935913    -3.935913   -2.9264325  0.025069969    -3.935913    1.0094805      8192000 
 2188000   0.78068485   -3.9353876   -3.9353876   -2.9259571   0.02587697   -3.9353876    1.0094305      8192000 
 2189000    0.7803172   -3.9352347   -3.9352347   -2.9262796  0.029652545   -3.9352347    1.0089551      8192000 
 2190000   0.78067143    -3.935573    -3.935573   -2.9261599  0.026276135    -3.935573    1.0094131      8192000 
 2191000   0.78093193   -3.9360232   -3.9360232   -2.9262733  0.023684892   -3.9360232      1.00975      8192000 
 2192000   0.78089133   -3.9360362   -3.9360362   -2.9263387  0.026384343   -3.9360362    1.0096975      8192000 
 2193000   0.78033311   -3.9359814   -3.9359814   -2.9270058  0.025927343   -3.9359814    1.0089757      8192000 
 2194000   0.78058697   -3.9358201   -3.9358201   -2.9265161  0.024490465   -3.9358201    1.0093039      8192000 
 2195000   0.78016172    -3.935609    -3.935609   -2.9268549  0.024554955    -3.935609    1.0087541      8192000 
 2196000   0.78025923   -3.9354466   -3.9354466   -2.9265664  0.025892867   -3.9354466    1.0088802      8192000 
 2197000   0.78066042   -3.9358543   -3.9358543   -2.9264554  0.025368413   -3.9358543    1.0093989      8192000 
 2198000    0.7805628   -3.9359492   -3.9359492   -2.9266765  0.024133773   -3.9359492    1.0092727      8192000 
 2199000    0.7809363   -3.9360979   -3.9360979   -2.9263423  0.023534653   -3.9360979    1.0097556      8192000 
 2200000    0.7809431   -3.9359169   -3.9359169   -2.9261525  0.024017538   -3.9359169    1.0097644      8192000 
 2201000   0.78086003   -3.9359297   -3.9359297   -2.9262727  0.025310839   -3.9359297     1.009657      8192000 
 2202000   0.78084532   -3.9360061   -3.9360061   -2.9263681  0.025439658   -3.9360061     1.009638      8192000 
 2203000   0.78021777   -3.9350959   -3.9350959   -2.9262694  0.025969538   -3.9350959    1.0088266      8192000 
 2204000   0.78090469   -3.9357688   -3.9357688    -2.926054  0.026175702   -3.9357688    1.0097147      8192000 
 2205000   0.78023318   -3.9351379   -3.9351379   -2.9262914   0.02697921   -3.9351379    1.0088465      8192000 
 2206000   0.78050811   -3.9356359   -3.9356359   -2.9264339  0.025912146   -3.9356359     1.009202      8192000 
 2207000   0.78093376   -3.9358818   -3.9358818   -2.9261295  0.024792908   -3.9358818    1.0097523      8192000 
 2208000   0.78040694   -3.9352019   -3.9352019   -2.9261308  0.027152814   -3.9352019    1.0090711      8192000 
 2209000   0.78028283   -3.9350779   -3.9350779   -2.9261672  0.028840529   -3.9350779    1.0089107      8192000 
 2210000   0.78129379   -3.9362508   -3.9362508    -2.926033  0.024280853   -3.9362508    1.0102179      8192000 
 2211000   0.78124029   -3.9357451   -3.9357451   -2.9255964  0.027449525   -3.9357451    1.0101487      8192000 
 2212000   0.78067213   -3.9356004   -3.9356004   -2.9261864  0.026948053   -3.9356004     1.009414      8192000 
 2213000   0.78142309   -3.9364852   -3.9364852   -2.9261001  0.022054064   -3.9364852     1.010385      8192000 
 2214000   0.78093674   -3.9357731   -3.9357731   -2.9260169  0.028541889   -3.9357731    1.0097562      8192000 
 2215000   0.78103068   -3.9361428   -3.9361428   -2.9262652  0.029655877   -3.9361428    1.0098777      8192000 
 2216000   0.78139306   -3.9361111   -3.9361111   -2.9257649  0.025897468   -3.9361111    1.0103462      8192000 
 2217000   0.78119051   -3.9361853   -3.9361853    -2.926101  0.029175039   -3.9361853    1.0100843      8192000 
 2218000   0.78145043   -3.9363137   -3.9363137   -2.9258933  0.026595722   -3.9363137    1.0104204      8192000 
 2219000    0.7813497   -3.9359416   -3.9359416   -2.9256515  0.027822345   -3.9359416    1.0102901      8192000 
 2220000   0.78142827    -3.936163    -3.936163   -2.9257712  0.025444793    -3.936163    1.0103917      8192000 
 2221000    0.7809697   -3.9354784   -3.9354784   -2.9256796  0.027979369   -3.9354784    1.0097988      8192000 
 2222000   0.78086048   -3.9358511   -3.9358511   -2.9261935  0.029275626   -3.9358511    1.0096576      8192000 
 2223000   0.78122849   -3.9357322   -3.9357322   -2.9255988  0.029294315   -3.9357322    1.0101334      8192000 
 2224000   0.78152777    -3.936176    -3.936176   -2.9256556  0.024889849    -3.936176    1.0105204      8192000 
 2225000    0.7815065   -3.9362048   -3.9362048   -2.9257119  0.029698436   -3.9362048    1.0104929      8192000 
 2226000   0.78110243   -3.9357505   -3.9357505     -2.92578  0.027981942   -3.9357505    1.0099704      8192000 
 2227000   0.78181417   -3.9361964   -3.9361964   -2.9253057  0.028197381   -3.9361964    1.0108907      8192000 
 2228000   0.78140235   -3.9360202   -3.9360202   -2.9256619  0.029705323   -3.9360202    1.0103582      8192000 
 2229000    0.7814312    -3.935725    -3.935725   -2.9253295  0.030963667    -3.935725    1.0103955      8192000 
 2230000   0.78172094   -3.9364655   -3.9364655   -2.9256954  0.028779948   -3.9364655    1.0107702      8192000 
 2231000   0.78136498   -3.9358771   -3.9358771   -2.9255672  0.029140591   -3.9358771    1.0103099      8192000 
 2232000   0.78153397   -3.9358276   -3.9358276   -2.9252992  0.027106363   -3.9358276    1.0105284      8192000 
 2233000   0.78122586   -3.9357355   -3.9357355   -2.9256054   0.02554661   -3.9357355      1.01013      8192000 
 2234000   0.78173983   -3.9355907   -3.9355907   -2.9247962  0.028470768   -3.9355907    1.0107946      8192000 
 2235000   0.78136821   -3.9354865   -3.9354865   -2.9251725  0.027751703   -3.9354865    1.0103141      8192000 
 2236000   0.78150401   -3.9356074   -3.9356074   -2.9251177  0.027191059   -3.9356074    1.0104897      8192000 
 2237000   0.78095219   -3.9349048   -3.9349048   -2.9251286  0.027238921   -3.9349048    1.0097762      8192000 
 2238000   0.78134291   -3.9348317   -3.9348317   -2.9245503  0.027454222   -3.9348317    1.0102814      8192000 
 2239000   0.78132996   -3.9355844   -3.9355844   -2.9253198  0.028184317   -3.9355844    1.0102646      8192000 
 2240000    0.7814966   -3.9354613   -3.9354613   -2.9249812  0.026230316   -3.9354613    1.0104801      8192000 
 2241000   0.78134926   -3.9353632   -3.9353632   -2.9250736  0.027254139   -3.9353632    1.0102896      8192000 
 2242000    0.7814871   -3.9353804   -3.9353804   -2.9249126  0.027333733   -3.9353804    1.0104678      8192000 
 2243000   0.78143728   -3.9356614   -3.9356614    -2.925258  0.027608824   -3.9356614    1.0104034      8192000 
 2244000   0.78116577   -3.9354281   -3.9354281   -2.9253758  0.027406371   -3.9354281    1.0100523      8192000 
 2245000   0.78125966   -3.9352731   -3.9352731   -2.9250993  0.025333097   -3.9352731    1.0101737      8192000 
 2246000   0.78148907   -3.9353029   -3.9353029   -2.9248325  0.026808576   -3.9353029    1.0104704      8192000 
 2247000   0.78110465   -3.9344343   -3.9344343    -2.924461  0.029743384   -3.9344343    1.0099733      8192000 
 2248000   0.78083412   -3.9343895   -3.9343895    -2.924766  0.026829959   -3.9343895    1.0096235      8192000 
 2249000   0.78148081   -3.9350907   -3.9350907    -2.924631  0.026321432   -3.9350907    1.0104597      8192000 
 2250000   0.78115538    -3.934836    -3.934836   -2.9247971  0.025668012    -3.934836    1.0100389      8192000 
 2251000   0.78094542   -3.9345618   -3.9345618   -2.9247944  0.023836389   -3.9345618    1.0097674      8192000 
 2252000   0.78092182   -3.9342527   -3.9342527   -2.9245158  0.025686533   -3.9342527    1.0097369      8192000 
 2253000   0.78060751   -3.9338722   -3.9338722   -2.9245417  0.025782657   -3.9338722    1.0093305      8192000 
 2254000   0.78116475   -3.9347451   -3.9347451   -2.9246941    0.0259397   -3.9347451     1.010051      8192000 
 2255000   0.78068232   -3.9343712   -3.9343712    -2.924944  0.024159164   -3.9343712    1.0094272      8192000 
 2256000    0.7808803   -3.9344677   -3.9344677   -2.9247845  0.024345756   -3.9344677    1.0096832      8192000 
 2257000   0.78119589   -3.9347301   -3.9347301   -2.9246389  0.024714716   -3.9347301    1.0100913      8192000 
 2258000   0.78061909   -3.9340335   -3.9340335    -2.924688  0.023932022   -3.9340335    1.0093455      8192000 
 2259000   0.78051216   -3.9337138   -3.9337138   -2.9245066  0.027073937   -3.9337138    1.0092072      8192000 
 2260000   0.78055599    -3.933881    -3.933881   -2.9246171  0.022675173    -3.933881    1.0092639      8192000 
 2261000   0.78100166   -3.9340516   -3.9340516   -2.9242115  0.022889932   -3.9340516    1.0098401      8192000 
 2262000   0.78097068   -3.9341458   -3.9341458   -2.9243457  0.022679458   -3.9341458    1.0098001      8192000 
 2263000   0.78073556   -3.9339324   -3.9339324   -2.9244363   0.02301561   -3.9339324    1.0094961      8192000 
 2264000    0.7806877   -3.9340026   -3.9340026   -2.9245684  0.022978042   -3.9340026    1.0094342      8192000 
 2265000   0.78073224   -3.9340999   -3.9340999   -2.9246081  0.023544877   -3.9340999    1.0094918      8192000 
 2266000   0.78106056    -3.934186    -3.934186   -2.9242697  0.023769383    -3.934186    1.0099163      8192000 
 2267000   0.78096872   -3.9342958   -3.9342958   -2.9244983  0.024872957   -3.9342958    1.0097975      8192000 
 2268000   0.78079399   -3.9337555   -3.9337555   -2.9241839  0.025486128   -3.9337555    1.0095716      8192000 
 2269000   0.78080211   -3.9334825   -3.9334825   -2.9239004  0.025672061   -3.9334825    1.0095821      8192000 
 2270000   0.78114369   -3.9340161   -3.9340161   -2.9239923  0.023679384   -3.9340161    1.0100238      8192000 
 2271000   0.78130678   -3.9343648   -3.9343648   -2.9241301  0.022349955   -3.9343648    1.0102346      8192000 
 2272000   0.78134751   -3.9345194   -3.9345194   -2.9242321  0.024179069   -3.9345194    1.0102873      8192000 
 2273000   0.78135504   -3.9340597   -3.9340597   -2.9237626  0.025675683   -3.9340597    1.0102971      8192000 
 2274000   0.78175242   -3.9348569   -3.9348569    -2.924046  0.024745344   -3.9348569    1.0108109      8192000 
 2275000   0.78110622   -3.9337855   -3.9337855   -2.9238102  0.027875072   -3.9337855    1.0099753      8192000 
 2276000   0.78169867   -3.9343792   -3.9343792   -2.9236378  0.025691091   -3.9343792    1.0107414      8192000 
 2277000   0.78140609   -3.9339844   -3.9339844   -2.9236213  0.027875689   -3.9339844    1.0103631      8192000 
 2278000   0.78139847   -3.9342274   -3.9342274   -2.9238742  0.028036868   -3.9342274    1.0103532      8192000 
 2279000    0.7813591   -3.9340928   -3.9340928   -2.9237905  0.028286832   -3.9340928    1.0103023      8192000 
 2280000   0.78069538   -3.9336784   -3.9336784   -2.9242343  0.027077719   -3.9336784    1.0094441      8192000 
 2281000   0.78129547   -3.9340757   -3.9340757   -2.9238557  0.023585627   -3.9340757      1.01022      8192000 
 2282000   0.78113375   -3.9338936   -3.9338936   -2.9238827  0.027628592   -3.9338936    1.0100109      8192000 
 2283000   0.78168584   -3.9344114   -3.9344114   -2.9236866  0.023583108   -3.9344114    1.0107248      8192000 
 2284000   0.78120684    -3.933922    -3.933922   -2.9238165  0.026343514    -3.933922    1.0101054      8192000 
 2285000   0.78170015   -3.9343443   -3.9343443   -2.9236011  0.026574496   -3.9343443    1.0107433      8192000 
 2286000   0.78188859   -3.9348798   -3.9348798   -2.9238928  0.024997344   -3.9348798    1.0109869      8192000 
 2287000    0.7819858   -3.9348395   -3.9348395   -2.9237269   0.02603725   -3.9348395    1.0111126      8192000 
 2288000   0.78171135   -3.9344009   -3.9344009   -2.9236432  0.028387909   -3.9344009    1.0107578      8192000 
 2289000   0.78180694   -3.9346093   -3.9346093    -2.923728  0.026232458   -3.9346093    1.0108814      8192000 
 2290000   0.78217302   -3.9347992   -3.9347992   -2.9234445   0.02868666   -3.9347992    1.0113547      8192000 
 2291000   0.78164859   -3.9343295   -3.9343295   -2.9236529   0.02921132   -3.9343295    1.0106766      8192000 
 2292000   0.78186365   -3.9344124   -3.9344124   -2.9234578  0.028235644   -3.9344124    1.0109547      8192000 
 2293000   0.78195337   -3.9347442   -3.9347442   -2.9236735  0.023948173   -3.9347442    1.0110707      8192000 
 2294000   0.78152842   -3.9341811   -3.9341811   -2.9236598  0.029190332   -3.9341811    1.0105212      8192000 
 2295000   0.78209927   -3.9352968   -3.9352968   -2.9240375  0.024939548   -3.9352968    1.0112593      8192000 
 2296000   0.78154104   -3.9343796   -3.9343796    -2.923842  0.029269066   -3.9343796    1.0105376      8192000 
 2297000   0.78191325   -3.9348713   -3.9348713   -2.9238525   0.02736458   -3.9348713    1.0110188      8192000 
 2298000   0.78197208   -3.9345846   -3.9345846   -2.9234897  0.026812058   -3.9345846    1.0110949      8192000 
 2299000   0.78165501   -3.9342938   -3.9342938   -2.9236088  0.026366793   -3.9342938    1.0106849      8192000 
 2300000   0.78152256   -3.9345841   -3.9345841   -2.9240704  0.028094903   -3.9345841    1.0105137      8192000 
 2301000   0.78164149   -3.9343847   -3.9343847   -2.9237173  0.029259516   -3.9343847    1.0106674      8192000 
 2302000   0.78201487   -3.9349139   -3.9349139   -2.9237637  0.024712265   -3.9349139    1.0111502      8192000 
 2303000   0.78167597   -3.9343571   -3.9343571   -2.9236451  0.028357349   -3.9343571     1.010712      8192000 
 2304000   0.78118589   -3.9339305   -3.9339305   -2.9238522  0.030805811   -3.9339305    1.0100783      8192000 
 2305000   0.78138411   -3.9341889   -3.9341889   -2.9238542  0.026316512   -3.9341889    1.0103346      8192000 
 2306000    0.7817977   -3.9345728   -3.9345728   -2.9237034  0.026799322   -3.9345728    1.0108694      8192000 
 2307000   0.78140298   -3.9341389   -3.9341389   -2.9237799  0.029065167   -3.9341389     1.010359      8192000 
 2308000   0.78208101   -3.9350829   -3.9350829   -2.9238472  0.026378079   -3.9350829    1.0112357      8192000 
 2309000   0.78159672   -3.9343113   -3.9343113   -2.9237018  0.027037073   -3.9343113    1.0106095      8192000 
 2310000   0.78153205   -3.9342465   -3.9342465   -2.9237206  0.027084026   -3.9342465    1.0105259      8192000 
 2311000   0.78130674   -3.9339343   -3.9339343   -2.9236997  0.026937874   -3.9339343    1.0102346      8192000 
 2312000   0.78205166   -3.9348033   -3.9348033   -2.9236055  0.028224587   -3.9348033    1.0111978      8192000 
 2313000   0.78236436   -3.9347325   -3.9347325   -2.9231304  0.025614791   -3.9347325    1.0116021      8192000 
 2314000    0.7816182   -3.9340764   -3.9340764   -2.9234391  0.027812841   -3.9340764    1.0106373      8192000 
 2315000   0.78167199   -3.9343744   -3.9343744   -2.9236675  0.028081174   -3.9343744    1.0107069      8192000 
 2316000   0.78116564   -3.9334285   -3.9334285   -2.9233763  0.028412409   -3.9334285    1.0100522      8192000 
 2317000   0.78194173   -3.9344224   -3.9344224   -2.9233668  0.023606489   -3.9344224    1.0110556      8192000 
 2318000   0.78156557   -3.9339351   -3.9339351   -2.9233659  0.028251644   -3.9339351    1.0105693      8192000 
 2319000    0.7816459   -3.9339367   -3.9339367   -2.9232635  0.026357464   -3.9339367    1.0106731      8192000 
 2320000   0.78167097   -3.9340398   -3.9340398   -2.9233342  0.026177209   -3.9340398    1.0107056      8192000 
 2321000   0.78198745   -3.9341732   -3.9341732   -2.9230584  0.025183267   -3.9341732    1.0111148      8192000 
 2322000   0.78197564   -3.9343648   -3.9343648   -2.9232653  0.025785848   -3.9343648    1.0110995      8192000 
 2323000   0.78174228   -3.9337578   -3.9337578   -2.9229601  0.027788033   -3.9337578    1.0107977      8192000 
 2324000   0.78126935   -3.9333716   -3.9333716   -2.9231854  0.026233628   -3.9333716    1.0101862      8192000 
 2325000   0.78097858    -3.932895    -3.932895   -2.9230847  0.026551588    -3.932895    1.0098103      8192000 
 2326000    0.7813029   -3.9333012   -3.9333012   -2.9230716  0.025167726   -3.9333012    1.0102296      8192000 
 2327000   0.78107148   -3.9331943   -3.9331943   -2.9232638  0.028351962   -3.9331943    1.0099304      8192000 
 2328000    0.7813855   -3.9335738   -3.9335738   -2.9232373  0.025016999   -3.9335738    1.0103364      8192000 
 2329000   0.78125058   -3.9333329   -3.9333329   -2.9231709  0.023971567   -3.9333329     1.010162      8192000 
 2330000   0.78158351   -3.9335787   -3.9335787   -2.9229863   0.02555997   -3.9335787    1.0105925      8192000 
 2331000   0.78181287   -3.9335986   -3.9335986   -2.9227096  0.025033447   -3.9335986     1.010889      8192000 
 2332000    0.7814994   -3.9335306   -3.9335306   -2.9230469  0.026576283   -3.9335306    1.0104837      8192000 
 2333000   0.78161573   -3.9335411   -3.9335411   -2.9229069  0.026144659   -3.9335411    1.0106341      8192000 
 2334000   0.78186975   -3.9332418   -3.9332418   -2.9222792  0.026541478   -3.9332418    1.0109626      8192000 
 2335000   0.78167719   -3.9332853   -3.9332853   -2.9225717  0.025820651   -3.9332853    1.0107136      8192000 
 2336000   0.78208281    -3.933714    -3.933714   -2.9224759  0.025906073    -3.933714    1.0112381      8192000 
 2337000   0.78166767    -3.933504    -3.933504   -2.9228028  0.026660786    -3.933504    1.0107013      8192000 
 2338000   0.78134516   -3.9330099   -3.9330099   -2.9227256   0.02558865   -3.9330099    1.0102843      8192000 
 2339000   0.78154381   -3.9333793   -3.9333793   -2.9228381  0.025361855   -3.9333793    1.0105411      8192000 
 2340000   0.78153658   -3.9331322   -3.9331322   -2.9226005  0.025500829   -3.9331322    1.0105318      8192000 
 2341000   0.78164595   -3.9335309   -3.9335309   -2.9228577  0.025698281   -3.9335309    1.0106732      8192000 
 2342000   0.78156207    -3.933207    -3.933207   -2.9226422    0.0279078    -3.933207    1.0105647      8192000 
 2343000   0.78114818   -3.9332384   -3.9332384   -2.9232088  0.024747968   -3.9332384    1.0100296      8192000 
 2344000   0.78175676   -3.9334078   -3.9334078   -2.9225913  0.025327441   -3.9334078    1.0108165      8192000 
 2345000     0.781333   -3.9328704   -3.9328704   -2.9226019  0.027654387   -3.9328704    1.0102685      8192000 
 2346000   0.78199091    -3.933712    -3.933712   -2.9225927  0.028252815    -3.933712    1.0111192      8192000 
 2347000   0.78221397   -3.9337582   -3.9337582   -2.9223506   0.02576943   -3.9337582    1.0114076      8192000 
 2348000   0.78192454   -3.9335612   -3.9335612   -2.9225278  0.026475737   -3.9335612    1.0110334      8192000 
 2349000     0.781815    -3.933337    -3.933337   -2.9224452  0.025792192    -3.933337    1.0108918      8192000 
 2350000   0.78178031   -3.9334696   -3.9334696   -2.9226227  0.026573097   -3.9334696    1.0108469      8192000 
 2351000    0.7818145   -3.9332455   -3.9332455   -2.9223544  0.028765889   -3.9332455    1.0108911      8192000 
 2352000   0.78198711   -3.9333384   -3.9333384   -2.9222241  0.028673112   -3.9333384    1.0111143      8192000 
 2353000   0.78189918   -3.9330363   -3.9330363   -2.9220357  0.026554254   -3.9330363    1.0110006      8192000 
 2354000   0.78171443   -3.9329656   -3.9329656   -2.9222039  0.028581999   -3.9329656    1.0107617      8192000 
 2355000   0.78220843   -3.9332081   -3.9332081   -2.9218076  0.025778633   -3.9332081    1.0114005      8192000 
 2356000   0.78164572   -3.9325884   -3.9325884   -2.9219155  0.028323531   -3.9325884    1.0106729      8192000 
 2357000   0.78147284   -3.9326264   -3.9326264    -2.922177  0.026932516   -3.9326264    1.0104494      8192000 
 2358000   0.78191765   -3.9331951   -3.9331951   -2.9221706  0.026371068   -3.9331951    1.0110245      8192000 
 2359000   0.78224935   -3.9337679   -3.9337679   -2.9223145  0.026159562   -3.9337679    1.0114534      8192000 
 2360000   0.78209769   -3.9332863   -3.9332863    -2.922029  0.025562461   -3.9332863    1.0112573      8192000 
 2361000   0.78245668   -3.9338852   -3.9338852   -2.9221638   0.02891683   -3.9338852    1.0117215      8192000 
 2362000   0.78171089   -3.9331697   -3.9331697   -2.9224126  0.028139352   -3.9331697    1.0107572      8192000 
 2363000   0.78178252   -3.9330354   -3.9330354   -2.9221857  0.030887102   -3.9330354    1.0108498      8192000 
 2364000    0.7822814   -3.9338164   -3.9338164   -2.9223215  0.026658079   -3.9338164    1.0114948      8192000 
 2365000   0.78196772   -3.9335149   -3.9335149   -2.9224257  0.027605913   -3.9335149    1.0110892      8192000 
 2366000   0.78220777   -3.9334112   -3.9334112   -2.9220116  0.030302843   -3.9334112    1.0113996      8192000 
 2367000   0.78204872   -3.9334744   -3.9334744   -2.9222805  0.029129844   -3.9334744     1.011194      8192000 
 2368000   0.78187431    -3.933041    -3.933041   -2.9220725  0.028448474    -3.933041    1.0109685      8192000 
 2369000   0.78167009   -3.9331734   -3.9331734    -2.922469  0.026932794   -3.9331734    1.0107044      8192000 
 2370000   0.78191601   -3.9333685   -3.9333685   -2.9223461  0.026054812   -3.9333685    1.0110224      8192000 
 2371000   0.78204624    -3.933398    -3.933398   -2.9222072   0.02688815    -3.933398    1.0111908      8192000 
 2372000   0.78132878   -3.9324615   -3.9324615   -2.9221984  0.028331567   -3.9324615    1.0102631      8192000 
 2373000   0.78215356   -3.9330936   -3.9330936   -2.9217641  0.027512764   -3.9330936    1.0113295      8192000 
 2374000    0.7818406   -3.9335352   -3.9335352   -2.9226103  0.023965098   -3.9335352    1.0109249      8192000 
 2375000   0.78207417   -3.9331668   -3.9331668   -2.9219399  0.024799585   -3.9331668    1.0112269      8192000 
 2376000   0.78156531   -3.9325771   -3.9325771   -2.9220082   0.02752375   -3.9325771    1.0105689      8192000 
 2377000   0.78219272   -3.9333115   -3.9333115   -2.9219314  0.027628771   -3.9333115    1.0113802      8192000 
 2378000   0.78193582   -3.9334268   -3.9334268   -2.9223788  0.025447148   -3.9334268     1.011048      8192000 
 2379000   0.78215823   -3.9335661   -3.9335661   -2.9222305  0.027000031   -3.9335661    1.0113356      8192000 
 2380000   0.78170359   -3.9327672   -3.9327672   -2.9220195  0.028522171   -3.9327672    1.0107477      8192000 
 2381000   0.78219339   -3.9333456   -3.9333456   -2.9219645  0.027335414   -3.9333456     1.011381      8192000 
 2382000   0.78224066   -3.9333322   -3.9333322     -2.92189  0.026231484   -3.9333322    1.0114422      8192000 
 2383000   0.78203818   -3.9331716   -3.9331716   -2.9219912  0.028589707   -3.9331716    1.0111804      8192000 
 2384000   0.78238776   -3.9331849   -3.9331849   -2.9215525  0.029256864   -3.9331849    1.0116324      8192000 
 2385000   0.78205854   -3.9329636   -3.9329636    -2.921757  0.027497443   -3.9329636    1.0112067      8192000 
 2386000   0.78217422   -3.9330708   -3.9330708   -2.9217145  0.028453882   -3.9330708    1.0113563      8192000 
 2387000   0.78180985   -3.9326172   -3.9326172    -2.921732  0.024953937   -3.9326172    1.0108851      8192000 
 2388000   0.78168696   -3.9326397   -3.9326397   -2.9219135  0.026622574   -3.9326397    1.0107262      8192000 
 2389000   0.78169838   -3.9328698   -3.9328698   -2.9221288  0.026477063   -3.9328698     1.010741      8192000 
 2390000   0.78182702   -3.9324633   -3.9324633    -2.921556  0.025782526   -3.9324633    1.0109073      8192000 
 2391000   0.78203068   -3.9327182   -3.9327182   -2.9215475  0.025753511   -3.9327182    1.0111707      8192000 
 2392000   0.78210917   -3.9328687   -3.9328687   -2.9215966  0.027712887   -3.9328687    1.0112721      8192000 
 2393000   0.78196736   -3.9326038   -3.9326038    -2.921515  0.025795726   -3.9326038    1.0110888      8192000 
 2394000    0.7820414   -3.9328912   -3.9328912   -2.9217066  0.025715081   -3.9328912    1.0111845      8192000 
 2395000   0.78179213   -3.9322378   -3.9322378   -2.9213756  0.026596669   -3.9322378    1.0108622      8192000 
 2396000   0.78164158   -3.9321859   -3.9321859   -2.9215184  0.026006173   -3.9321859    1.0106675      8192000 
 2397000   0.78230899   -3.9324013   -3.9324013   -2.9208708  0.026166301   -3.9324013    1.0115305      8192000 
 2398000   0.78185464   -3.9319382   -3.9319382   -2.9209952  0.026586333   -3.9319382     1.010943      8192000 
 2399000   0.78197198   -3.9323068   -3.9323068    -2.921212  0.028056972   -3.9323068    1.0110948      8192000 
 2400000   0.78201001   -3.9323135   -3.9323135   -2.9211696  0.024417485   -3.9323135    1.0111439      8192000 
 2401000   0.78225118   -3.9324748   -3.9324748   -2.9210191  0.025056895   -3.9324748    1.0114558      8192000 
 2402000   0.78263257   -3.9324969   -3.9324969    -2.920548  0.025629416   -3.9324969    1.0119489      8192000 
 2403000    0.7819834   -3.9321247   -3.9321247   -2.9210151  0.027542094   -3.9321247    1.0111095      8192000 
 2404000   0.78185489    -3.932293    -3.932293   -2.9213497  0.026315547    -3.932293    1.0109434      8192000 
 2405000   0.78179374   -3.9318463   -3.9318463   -2.9209821  0.026856802   -3.9318463    1.0108643      8192000 
 2406000   0.78193952   -3.9325025   -3.9325025   -2.9214497  0.026551497   -3.9325025    1.0110528      8192000 
 2407000   0.78148667   -3.9320728   -3.9320728   -2.9216056   0.02396508   -3.9320728    1.0104672      8192000 
 2408000   0.78225994   -3.9327186   -3.9327186   -2.9212515  0.024797161   -3.9327186    1.0114671      8192000 
 2409000   0.78187535   -3.9323205   -3.9323205   -2.9213507  0.022791227   -3.9323205    1.0109698      8192000 
 2410000   0.78175885   -3.9322147   -3.9322147   -2.9213955  0.024468313   -3.9322147    1.0108192      8192000 
 2411000   0.78202654   -3.9323046   -3.9323046   -2.9211393  0.023746633   -3.9323046    1.0111653      8192000 
 2412000   0.78216399   -3.9323894   -3.9323894   -2.9210463  0.027810852   -3.9323894     1.011343      8192000 
 2413000    0.7816659    -3.931824    -3.931824    -2.921125  0.026702308    -3.931824     1.010699      8192000 
 2414000   0.78167365   -3.9320006   -3.9320006   -2.9212916  0.023579366   -3.9320006     1.010709      8192000 
 2415000   0.78179529    -3.932287    -3.932287   -2.9214207   0.02410146    -3.932287    1.0108663      8192000 
 2416000   0.78177583   -3.9318644   -3.9318644   -2.9210233  0.027601614   -3.9318644    1.0108411      8192000 
 2417000   0.78179265   -3.9316828   -3.9316828   -2.9208199  0.023421894   -3.9316828    1.0108629      8192000 
 2418000   0.78193674   -3.9320787   -3.9320787   -2.9210295  0.022694003   -3.9320787    1.0110492      8192000 
 2419000   0.78162256   -3.9319319   -3.9319319   -2.9212889  0.023019436   -3.9319319     1.010643      8192000 
 2420000   0.78173161   -3.9316068   -3.9316068   -2.9208228  0.024898699   -3.9316068     1.010784      8192000 
 2421000   0.78206595     -3.93223     -3.93223   -2.9210138  0.026231651     -3.93223    1.0112163      8192000 
 2422000   0.78192356   -3.9321666   -3.9321666   -2.9211345  0.023411418   -3.9321666    1.0110321      8192000 
 2423000   0.78234863   -3.9322439   -3.9322439   -2.9206621  0.026406803   -3.9322439    1.0115818      8192000 
 2424000   0.78205291   -3.9322838   -3.9322838   -2.9210844  0.026380286   -3.9322838    1.0111994      8192000 
 2425000   0.78227138   -3.9323598   -3.9323598   -2.9208779  0.026129122   -3.9323598    1.0114819      8192000 
 2426000   0.78219972   -3.9324043   -3.9324043   -2.9210151  0.026856866   -3.9324043    1.0113892      8192000 
 2427000   0.78220303   -3.9325262   -3.9325262   -2.9211327  0.027841846   -3.9325262    1.0113935      8192000 
 2428000   0.78215791   -3.9321571   -3.9321571   -2.9208219  0.026061295   -3.9321571    1.0113352      8192000 
 2429000   0.78180973   -3.9316616   -3.9316616   -2.9207767  0.027094481   -3.9316616     1.010885      8192000 
 2430000   0.78186406   -3.9314381   -3.9314381   -2.9204828  0.029541375   -3.9314381    1.0109552      8192000 
 2431000   0.78206489   -3.9318972   -3.9318972   -2.9206823  0.028032477   -3.9318972    1.0112149      8192000 
 2432000   0.78219739   -3.9317441   -3.9317441   -2.9203578  0.028796657   -3.9317441    1.0113862      8192000 
 2433000   0.78275313   -3.9323755   -3.9323755   -2.9202707  0.025527439   -3.9323755    1.0121048      8192000 
 2434000   0.78232586   -3.9322031   -3.9322031   -2.9206508  0.027174741   -3.9322031    1.0115523      8192000 
 2435000   0.78221242   -3.9320743   -3.9320743   -2.9206687  0.029293177   -3.9320743    1.0114056      8192000 
 2436000    0.7820283   -3.9317069   -3.9317069   -2.9205393  0.029277757   -3.9317069    1.0111676      8192000 
 2437000   0.78244275   -3.9321458   -3.9321458   -2.9204424  0.027156016   -3.9321458    1.0117035      8192000 
 2438000   0.78232923   -3.9319062   -3.9319062   -2.9203496  0.027105031   -3.9319062    1.0115567      8192000 
 2439000   0.78180319   -3.9316155   -3.9316155    -2.920739  0.026468169   -3.9316155    1.0108765      8192000 
 2440000   0.78202308   -3.9316621   -3.9316621   -2.9205012   0.02585213   -3.9316621    1.0111608      8192000 
 2441000   0.78181897   -3.9316443   -3.9316443   -2.9207474  0.027439921   -3.9316443    1.0108969      8192000 
 2442000   0.78193331   -3.9313473   -3.9313473   -2.9203026  0.029132681   -3.9313473    1.0110447      8192000 
 2443000   0.78205077   -3.9319963   -3.9319963   -2.9207997  0.027225728   -3.9319963    1.0111966      8192000 
 2444000   0.78248823   -3.9322697   -3.9322697   -2.9205074  0.025710699   -3.9322697    1.0117623      8192000 
 2445000   0.78195064     -3.93143     -3.93143   -2.9203628   0.02837355     -3.93143    1.0110672      8192000 
 2446000   0.78228511   -3.9317984   -3.9317984   -2.9202988  0.028701962   -3.9317984    1.0114996      8192000 
 2447000   0.78216653   -3.9317823   -3.9317823    -2.920436  0.027547296   -3.9317823    1.0113463      8192000 
 2448000   0.78250273   -3.9322353   -3.9322353   -2.9204543  0.025970652   -3.9322353     1.011781      8192000 
 2449000   0.78257243   -3.9322385   -3.9322385   -2.9203674  0.026536574   -3.9322385    1.0118711      8192000 
 2450000   0.78241741   -3.9323694   -3.9323694   -2.9206987   0.02456233   -3.9323694    1.0116707      8192000 
 2451000   0.78234221   -3.9320939   -3.9320939   -2.9205204  0.024665658   -3.9320939    1.0115735      8192000 
 2452000   0.78224517   -3.9320838   -3.9320838   -2.9206358  0.026521918   -3.9320838     1.011448      8192000 
 2453000   0.78242331   -3.9320803   -3.9320803   -2.9204019   0.02541856   -3.9320803    1.0116783      8192000 
 2454000   0.78266521   -3.9321042   -3.9321042   -2.9201131  0.024046905   -3.9321042    1.0119911      8192000 
 2455000   0.78230899   -3.9314858   -3.9314858   -2.9199553  0.026909663   -3.9314858    1.0115305      8192000 
 2456000   0.78268292   -3.9320785   -3.9320785   -2.9200645  0.028369455   -3.9320785     1.012014      8192000 
 2457000   0.78274646   -3.9321088   -3.9321088   -2.9200126  0.023773073   -3.9321088    1.0120962      8192000 
 2458000    0.7826266   -3.9316757   -3.9316757   -2.9197345  0.025794443   -3.9316757    1.0119412      8192000 
 2459000   0.78238611   -3.9310901   -3.9310901   -2.9194599  0.029949243   -3.9310901    1.0116302      8192000 
 2460000   0.78246778   -3.9314249   -3.9314249    -2.919689  0.028467853   -3.9314249    1.0117358      8192000 
 2461000   0.78235105   -3.9316046   -3.9316046   -2.9200197   0.02492171   -3.9316046    1.0115849      8192000 
 2462000   0.78248216   -3.9316055   -3.9316055   -2.9198511  0.024802159   -3.9316055    1.0117544      8192000 
 2463000    0.7821322   -3.9310989   -3.9310989    -2.919797  0.026251188   -3.9310989    1.0113019      8192000 
 2464000   0.78229701   -3.9315575   -3.9315575   -2.9200425  0.026459926   -3.9315575     1.011515      8192000 
 2465000   0.78241878   -3.9315621   -3.9315621   -2.9198897  0.025468239   -3.9315621    1.0116725      8192000 
 2466000   0.78238282   -3.9314908   -3.9314908   -2.9198649  0.026519228   -3.9314908     1.011626      8192000 
 2467000    0.7822903   -3.9310888   -3.9310888   -2.9195824  0.029141318   -3.9310888    1.0115063      8192000 
 2468000   0.78213116   -3.9313807   -3.9313807   -2.9200802  0.030281455   -3.9313807    1.0113006      8192000 
 2469000     0.782543   -3.9314994   -3.9314994   -2.9196663  0.024031769   -3.9314994    1.0118331      8192000 
 2470000   0.78239768   -3.9312406   -3.9312406   -2.9195954  0.029427137   -3.9312406    1.0116452      8192000 
 2471000   0.78221355   -3.9309555   -3.9309555   -2.9195484  0.026535438   -3.9309555    1.0114071      8192000 
 2472000   0.78239158   -3.9313514   -3.9313514   -2.9197141  0.024845518   -3.9313514    1.0116373      8192000 
 2473000   0.78231768   -3.9312374   -3.9312374   -2.9196956  0.027807491   -3.9312374    1.0115418      8192000 
 2474000   0.78226956   -3.9308525   -3.9308525    -2.919373  0.029511355   -3.9308525    1.0114795      8192000 
 2475000   0.78229244   -3.9307257   -3.9307257   -2.9192166  0.024499893   -3.9307257    1.0115091      8192000 
 2476000   0.78194772   -3.9304716   -3.9304716   -2.9194082  0.027078591   -3.9304716    1.0110634      8192000 
 2477000   0.78238452   -3.9310841   -3.9310841   -2.9194559  0.024691619   -3.9310841    1.0116282      8192000 
 2478000   0.78273825   -3.9311609   -3.9311609   -2.9190753  0.024716665   -3.9311609    1.0120855      8192000 
 2479000   0.78226705   -3.9304002   -3.9304002   -2.9189239  0.029178512   -3.9304002    1.0114763      8192000 
 2480000   0.78284494   -3.9314538   -3.9314538   -2.9192303  0.022773962   -3.9314538    1.0122235      8192000 
 2481000   0.78244995   -3.9312468   -3.9312468    -2.919534  0.025970701   -3.9312468    1.0117128      8192000 
 2482000   0.78231887   -3.9308635   -3.9308635   -2.9193202  0.027963262   -3.9308635    1.0115433      8192000 
 2483000   0.78262355   -3.9308933   -3.9308933   -2.9189561  0.025994204   -3.9308933    1.0119372      8192000 
 2484000    0.7825296   -3.9311682   -3.9311682   -2.9193524  0.025530746   -3.9311682    1.0118158      8192000 
 2485000      0.78255   -3.9311358   -3.9311358   -2.9192937   0.02362485   -3.9311358    1.0118421      8192000 
 2486000   0.78226139   -3.9305242   -3.9305242   -2.9190552   0.02850921   -3.9305242     1.011469      8192000 
 2487000   0.78248512   -3.9308664   -3.9308664   -2.9191081  0.026397845   -3.9308664    1.0117582      8192000 
 2488000   0.78257369   -3.9312264   -3.9312264   -2.9193536  0.024647511   -3.9312264    1.0118728      8192000 
 2489000   0.78206972   -3.9305071   -3.9305071   -2.9192859  0.028428834   -3.9305071    1.0112211      8192000 
 2490000   0.78248771   -3.9311416   -3.9311416     -2.91938  0.023629457   -3.9311416    1.0117616      8192000 
 2491000   0.78225187   -3.9309894   -3.9309894   -2.9195327  0.023053147   -3.9309894    1.0114567      8192000 
 2492000   0.78175092   -3.9301064   -3.9301064   -2.9192975   0.02670747   -3.9301064    1.0108089      8192000 
 2493000   0.78217088   -3.9304183   -3.9304183   -2.9190664  0.025020592   -3.9304183    1.0113519      8192000 
 2494000   0.78216478   -3.9305301   -3.9305301    -2.919186   0.02551923   -3.9305301     1.011344      8192000 
 2495000   0.78189006   -3.9306977   -3.9306977   -2.9197089  0.025321985   -3.9306977    1.0109888      8192000 
 2496000    0.7820214   -3.9303313   -3.9303313   -2.9191727  0.025751837   -3.9303313    1.0111587      8192000 
 2497000   0.78238906    -3.930918    -3.930918   -2.9192839  0.023161611    -3.930918     1.011634      8192000 
 2498000   0.78247346   -3.9309716   -3.9309716   -2.9192284    0.0239278   -3.9309716    1.0117432      8192000 
 2499000   0.78184373   -3.9306678   -3.9306678   -2.9197388  0.025581956   -3.9306678    1.0109289      8192000 
 2500000   0.78214245   -3.9307629   -3.9307629   -2.9194478  0.025149217   -3.9307629    1.0113152      8192000 
 2501000   0.78251666   -3.9312084   -3.9312084   -2.9194093  0.024052522   -3.9312084     1.011799      8192000 
 2502000   0.78230336   -3.9309795   -3.9309795   -2.9194562   0.02596793   -3.9309795    1.0115232      8192000 
 2503000   0.78212618   -3.9308424   -3.9308424   -2.9195483  0.023895555   -3.9308424    1.0112941      8192000 
 2504000   0.78247622   -3.9313737   -3.9313737    -2.919627  0.024350272   -3.9313737    1.0117467      8192000 
 2505000   0.78211409   -3.9309465   -3.9309465    -2.919668  0.028081141   -3.9309465    1.0112785      8192000 
 2506000   0.78234719   -3.9310763   -3.9310763   -2.9194964  0.024153841   -3.9310763    1.0115799      8192000 
 2507000   0.78283078   -3.9316001   -3.9316001   -2.9193949  0.025411742   -3.9316001    1.0122052      8192000 
 2508000   0.78270682   -3.9311871   -3.9311871   -2.9191422  0.029950263   -3.9311871    1.0120449      8192000 
 2509000   0.78246892   -3.9314814   -3.9314814   -2.9197441  0.025915391   -3.9314814    1.0117373      8192000 
 2510000   0.78278945   -3.9311112   -3.9311112   -2.9189595  0.028247505   -3.9311112    1.0121518      8192000 
 2511000   0.78269121   -3.9312924   -3.9312924   -2.9192676  0.027527292   -3.9312924    1.0120247      8192000 
 2512000   0.78238025   -3.9308947   -3.9308947   -2.9192721   0.02717135   -3.9308947    1.0116227      8192000 
 2513000   0.78273602    -3.931195    -3.931195   -2.9191124   0.02780005    -3.931195    1.0120827      8192000 
 2514000   0.78230473   -3.9309203   -3.9309203   -2.9193953  0.025863855   -3.9309203     1.011525      8192000 
 2515000   0.78266016   -3.9308867   -3.9308867   -2.9189021  0.025663366   -3.9308867    1.0119846      8192000 
 2516000   0.78269191   -3.9312363   -3.9312363   -2.9192107   0.02676147   -3.9312363    1.0120256      8192000 
 2517000    0.7826793   -3.9311612   -3.9311612   -2.9191519  0.027317723   -3.9311612    1.0120093      8192000 
 2518000   0.78254112   -3.9313219   -3.9313219   -2.9194912  0.027215851   -3.9313219    1.0118307      8192000 
 2519000   0.78289062   -3.9314048   -3.9314048   -2.9191222  0.030305765   -3.9314048    1.0122826      8192000 
 2520000   0.78293155   -3.9311937   -3.9311937   -2.9188582  0.029668064   -3.9311937    1.0123355      8192000 
 2521000   0.78245161   -3.9312114   -3.9312114   -2.9194965  0.026941786   -3.9312114    1.0117149      8192000 
 2522000   0.78291092   -3.9317153   -3.9317153   -2.9194065  0.028536472   -3.9317153    1.0123088      8192000 
 2523000   0.78257042   -3.9309847   -3.9309847   -2.9191161  0.029159309   -3.9309847    1.0118685      8192000 
 2524000   0.78272089   -3.9309049   -3.9309049   -2.9188418  0.031348334   -3.9309049    1.0120631      8192000 
 2525000   0.78302097   -3.9316292   -3.9316292   -2.9191781  0.026229672   -3.9316292    1.0124511      8192000 
 2526000   0.78293234   -3.9314032   -3.9314032   -2.9190666  0.030279808   -3.9314032    1.0123365      8192000 
 2527000   0.78290898   -3.9312884   -3.9312884   -2.9189821  0.026288346   -3.9312884    1.0123063      8192000 
 2528000   0.78318097   -3.9314695   -3.9314695   -2.9188115  0.030092443   -3.9314695     1.012658      8192000 
 2529000   0.78273855   -3.9311015   -3.9311015   -2.9190155  0.029806533   -3.9311015    1.0120859      8192000 
 2530000   0.78290435    -3.931046    -3.931046   -2.9187457  0.029379036    -3.931046    1.0123003      8192000 
 2531000   0.78330001   -3.9316751   -3.9316751   -2.9188632  0.025501769   -3.9316751    1.0128119      8192000 
 2532000   0.78282587   -3.9309575   -3.9309575   -2.9187586  0.028039931   -3.9309575    1.0121988      8192000 
 2533000   0.78340239   -3.9315549   -3.9315549   -2.9186106    0.0260584   -3.9315549    1.0129443      8192000 
 2534000   0.78340613    -3.931731    -3.931731   -2.9187819  0.026328812    -3.931731    1.0129491      8192000 
 2535000   0.78304223   -3.9309247   -3.9309247   -2.9184461  0.028509128   -3.9309247    1.0124786      8192000 
 2536000   0.78268173   -3.9307795   -3.9307795    -2.918767  0.026874491   -3.9307795    1.0120125      8192000 
 2537000    0.7826885   -3.9308363   -3.9308363    -2.918815  0.026731527   -3.9308363    1.0120212      8192000 
 2538000   0.78301053   -3.9310479   -3.9310479   -2.9186103   0.02715041   -3.9310479    1.0124376      8192000 
 2539000   0.78293451   -3.9307346   -3.9307346   -2.9183953  0.026154191   -3.9307346    1.0123393      8192000 
 2540000   0.78273015   -3.9307626   -3.9307626   -2.9186875  0.028874265   -3.9307626    1.0120751      8192000 
 2541000   0.78251318   -3.9301807   -3.9301807   -2.9183862  0.027114677   -3.9301807    1.0117945      8192000 
 2542000    0.7825802   -3.9301458   -3.9301458   -2.9182646   0.02780807   -3.9301458    1.0118812      8192000 
 2543000   0.78277482   -3.9307528   -3.9307528   -2.9186199  0.023252262   -3.9307528    1.0121328      8192000 
 2544000   0.78267883   -3.9305222   -3.9305222   -2.9185135  0.025803388   -3.9305222    1.0120087      8192000 
 2545000   0.78275359   -3.9304445   -3.9304445   -2.9183391  0.025332085   -3.9304445    1.0121054      8192000 
 2546000   0.78321899   -3.9308775   -3.9308775   -2.9181704  0.023968028   -3.9308775    1.0127071      8192000 
 2547000   0.78279353   -3.9307107   -3.9307107   -2.9185537  0.023984016   -3.9307107     1.012157      8192000 
 2548000   0.78262457    -3.930284    -3.930284   -2.9183454  0.024353455    -3.930284    1.0119386      8192000 
 2549000   0.78243227   -3.9302322   -3.9302322   -2.9185422   0.02361749   -3.9302322    1.0116899      8192000 
 2550000   0.78228652   -3.9297146   -3.9297146   -2.9182131  0.026184449   -3.9297146    1.0115015      8192000 
 2551000   0.78242523   -3.9299235   -3.9299235   -2.9182427  0.026276077   -3.9299235    1.0116808      8192000 
 2552000   0.78266931   -3.9298405   -3.9298405   -2.9178441  0.024148444   -3.9298405    1.0119964      8192000 
 2553000   0.78258674   -3.9298571   -3.9298571   -2.9179675  0.026123367   -3.9298571    1.0118896      8192000 
 2554000   0.78268779   -3.9301253   -3.9301253    -2.918105  0.027338782   -3.9301253    1.0120203      8192000 
 2555000   0.78249188    -3.929863    -3.929863    -2.918096  0.026848935    -3.929863     1.011767      8192000 
 2556000     0.782589   -3.9295651   -3.9295651   -2.9176726  0.024461435   -3.9295651    1.0118926      8192000 
 2557000   0.78221592   -3.9293939   -3.9293939   -2.9179837   0.02504397   -3.9293939    1.0114102      8192000 
 2558000   0.78240131   -3.9292477   -3.9292477   -2.9175978  0.025794072   -3.9292477    1.0116499      8192000 
 2559000   0.78232151   -3.9292703   -3.9292703   -2.9177236  0.024698707   -3.9292703    1.0115467      8192000 
 2560000   0.78266263   -3.9296064   -3.9296064   -2.9176187  0.024320402   -3.9296064    1.0119878      8192000 
 2561000   0.78249688   -3.9293723   -3.9293723   -2.9175988  0.026350037   -3.9293723    1.0117735      8192000 
 2562000   0.78233335   -3.9293941   -3.9293941   -2.9178321  0.023086392   -3.9293941     1.011562      8192000 
 2563000   0.78239325   -3.9294359   -3.9294359   -2.9177964  0.024467668   -3.9294359    1.0116395      8192000 
 2564000   0.78273484   -3.9295164   -3.9295164   -2.9174353  0.024681087   -3.9295164    1.0120811      8192000 
 2565000   0.78291744   -3.9297971   -3.9297971   -2.9174799  0.026358968   -3.9297971    1.0123172      8192000 
 2566000   0.78241878   -3.9290844   -3.9290844   -2.9174119  0.027619317   -3.9290844    1.0116725      8192000 
 2567000   0.78297454   -3.9298024   -3.9298024   -2.9174113  0.027464491   -3.9298024    1.0123911      8192000 
 2568000    0.7830056   -3.9300545   -3.9300545   -2.9176233  0.025907333   -3.9300545    1.0124312      8192000 
 2569000   0.78316359   -3.9298721   -3.9298721   -2.9172366  0.023510432   -3.9298721    1.0126355      8192000 
 2570000   0.78279059   -3.9298019   -3.9298019   -2.9176486  0.026211214   -3.9298019    1.0121532      8192000 
 2571000   0.78288273   -3.9298994   -3.9298994    -2.917627  0.025099287   -3.9298994    1.0122724      8192000 
 2572000   0.78249178   -3.9288225   -3.9288225   -2.9170556   0.02758139   -3.9288225    1.0117669      8192000 
 2573000   0.78265415   -3.9296714   -3.9296714   -2.9176946  0.023492062   -3.9296714    1.0119768      8192000 
 2574000   0.78296271   -3.9296421   -3.9296421   -2.9172664  0.022441755   -3.9296421    1.0123758      8192000 
 2575000   0.78283837   -3.9295692   -3.9295692   -2.9173542  0.025356804   -3.9295692     1.012215      8192000 
 2576000   0.78295892   -3.9297062   -3.9297062   -2.9173353  0.026350247   -3.9297062    1.0123709      8192000 
 2577000   0.78284792   -3.9295801   -3.9295801   -2.9173528  0.025251017   -3.9295801    1.0122274      8192000 
 2578000   0.78256642   -3.9289391   -3.9289391   -2.9170758  0.027505067   -3.9289391    1.0118634      8192000 
 2579000   0.78236119   -3.9291544   -3.9291544   -2.9175564  0.022967276   -3.9291544     1.011598      8192000 
 2580000   0.78259823   -3.9290728   -3.9290728   -2.9171683  0.026547859   -3.9290728    1.0119045      8192000 
 2581000   0.78310646   -3.9296847   -3.9296847    -2.917123  0.024843312   -3.9296847    1.0125616      8192000 
 2582000    0.7830598   -3.9298433   -3.9298433    -2.917342  0.025432845   -3.9298433    1.0125013      8192000 
 2583000   0.78259213   -3.9290666   -3.9290666     -2.91717  0.030319181   -3.9290666    1.0118966      8192000 
 2584000     0.783235   -3.9299708   -3.9299708   -2.9172429  0.027495882   -3.9299708    1.0127278      8192000 
 2585000   0.78308784   -3.9296388   -3.9296388   -2.9171012  0.027208267   -3.9296388    1.0125376      8192000 
 2586000   0.78298031   -3.9297335   -3.9297335    -2.917335  0.026458186   -3.9297335    1.0123985      8192000 
 2587000    0.7828347   -3.9294244   -3.9294244   -2.9172141  0.029019413   -3.9294244    1.0122103      8192000 
 2588000   0.78342971   -3.9299743   -3.9299743   -2.9169947  0.027972457   -3.9299743    1.0129796      8192000 
 2589000   0.78294551   -3.9292092   -3.9292092   -2.9168557  0.029531774   -3.9292092    1.0123535      8192000 
 2590000   0.78315167   -3.9294426   -3.9294426   -2.9168225  0.027647842   -3.9294426    1.0126201      8192000 
 2591000   0.78340549   -3.9296024   -3.9296024   -2.9166541  0.027890515   -3.9296024    1.0129483      8192000 
 2592000    0.7833923   -3.9297406   -3.9297406   -2.9168094   0.02595818   -3.9297406    1.0129312      8192000 
 2593000   0.78335886    -3.929996    -3.929996    -2.917108  0.028535836    -3.929996     1.012888      8192000 
 2594000   0.78347762   -3.9297503   -3.9297503   -2.9167088  0.028850509   -3.9297503    1.0130416      8192000 
 2595000   0.78369294   -3.9300814   -3.9300814   -2.9167614  0.026971975   -3.9300814      1.01332      8192000 
 2596000   0.78348955   -3.9298648   -3.9298648   -2.9168078  0.026275033   -3.9298648     1.013057      8192000 
 2597000   0.78360694   -3.9301933   -3.9301933   -2.9169846   0.02584155   -3.9301933    1.0132088      8192000 
 2598000   0.78309034   -3.9296427   -3.9296427   -2.9171019  0.027898366   -3.9296427    1.0125408      8192000 
 2599000   0.78302085   -3.9296474   -3.9296474   -2.9171965  0.025045038   -3.9296474     1.012451      8192000 
 2600000   0.78344494   -3.9298725   -3.9298725   -2.9168732  0.027382463   -3.9298725    1.0129993      8192000 
 2601000   0.78291589   -3.9298145   -3.9298145   -2.9174992  0.027538856   -3.9298145    1.0123152      8192000 
 2602000   0.78276749   -3.9291909   -3.9291909   -2.9170675   0.02761653   -3.9291909    1.0121233      8192000 
 2603000   0.78302125   -3.9293468   -3.9293468   -2.9168953  0.025144392   -3.9293468    1.0124515      8192000 
 2604000   0.78262106   -3.9288918   -3.9288918   -2.9169577  0.027875686   -3.9288918     1.011934      8192000 
 2605000   0.78335978   -3.9300826   -3.9300826   -2.9171934  0.024929579   -3.9300826    1.0128892      8192000 
 2606000   0.78345225   -3.9301498   -3.9301498   -2.9171411  0.025443294   -3.9301498    1.0130088      8192000 
 2607000   0.78309144   -3.9294246   -3.9294246   -2.9168823  0.027720087   -3.9294246    1.0125422      8192000 
 2608000   0.78309934   -3.9296633   -3.9296633   -2.9171108  0.025500643   -3.9296633    1.0125524      8192000 
 2609000    0.7830133    -3.929271    -3.929271   -2.9168298  0.026374101    -3.929271    1.0124412      8192000 
 2610000   0.78348952   -3.9296327   -3.9296327   -2.9165757   0.02441259   -3.9296327    1.0130569      8192000 
 2611000   0.78297369   -3.9293999   -3.9293999   -2.9170099  0.026187776   -3.9293999      1.01239      8192000 
 2612000   0.78329549   -3.9295507   -3.9295507   -2.9167446  0.025939244   -3.9295507    1.0128061      8192000 
 2613000   0.78305379   -3.9292374   -3.9292374   -2.9167438  0.026449991   -3.9292374    1.0124935      8192000 
 2614000   0.78352771   -3.9296276   -3.9296276   -2.9165212  0.027833642   -3.9296276    1.0131063      8192000 
 2615000   0.78331143   -3.9293516   -3.9293516   -2.9165249  0.025994682   -3.9293516    1.0128267      8192000 
 2616000    0.7830736   -3.9290802   -3.9290802   -2.9165611  0.027769948   -3.9290802    1.0125192      8192000 
 2617000   0.78347784   -3.9296804   -3.9296804   -2.9166386  0.023735611   -3.9296804    1.0130418      8192000 
 2618000   0.78273951   -3.9290056   -3.9290056   -2.9169184  0.028155747   -3.9290056    1.0120872      8192000 
 2619000   0.78283675   -3.9290579   -3.9290579    -2.916845  0.027237862   -3.9290579    1.0122129      8192000 
 2620000   0.78277767   -3.9289552   -3.9289552   -2.9168187  0.025945027   -3.9289552    1.0121365      8192000 
 2621000   0.78273274   -3.9290828   -3.9290828   -2.9170044   0.02689684   -3.9290828    1.0120784      8192000 
 2622000   0.78277246    -3.929096    -3.929096   -2.9169662  0.026155985    -3.929096    1.0121298      8192000 
 2623000   0.78268351   -3.9291468   -3.9291468   -2.9171321  0.026827374   -3.9291468    1.0120148      8192000 
 2624000   0.78261234   -3.9290171   -3.9290171   -2.9170944  0.025558227   -3.9290171    1.0119227      8192000 
 2625000   0.78292802    -3.929498    -3.929498   -2.9171671  0.022975989    -3.929498    1.0123309      8192000 
 2626000   0.78264521   -3.9287702   -3.9287702    -2.916805  0.027284446   -3.9287702    1.0119652      8192000 
 2627000   0.78323865   -3.9292131   -3.9292131   -2.9164805   0.02677943   -3.9292131    1.0127326      8192000 
 2628000   0.78263784   -3.9290856   -3.9290856   -2.9171299  0.025482278   -3.9290856    1.0119557      8192000 
 2629000     0.782491   -3.9285899   -3.9285899    -2.916824  0.024323923   -3.9285899    1.0117659      8192000 
 2630000    0.7828043   -3.9293411   -3.9293411   -2.9171701   0.02334389   -3.9293411     1.012171      8192000 
 2631000   0.78216629   -3.9282406   -3.9282406   -2.9168946  0.025612879   -3.9282406     1.011346      8192000 
 2632000   0.78226176   -3.9282588   -3.9282588   -2.9167893  0.025227537   -3.9282588    1.0114694      8192000 
 2633000   0.78315808   -3.9294149   -3.9294149   -2.9167865  0.023094755   -3.9294149    1.0126284      8192000 
 2634000   0.78290658   -3.9289984   -3.9289984   -2.9166952  0.023652145   -3.9289984    1.0123032      8192000 
 2635000   0.78318069   -3.9290999   -3.9290999   -2.9164422  0.029074052   -3.9290999    1.0126576      8192000 
 2636000   0.78310115   -3.9290145   -3.9290145   -2.9164598  0.028619283   -3.9290145    1.0125548      8192000 
 2637000   0.78362354   -3.9297141   -3.9297141   -2.9164838  0.026029083   -3.9297141    1.0132302      8192000 
 2638000   0.78349446   -3.9297886   -3.9297886   -2.9167253   0.02569508   -3.9297886    1.0130633      8192000 
 2639000   0.78281386   -3.9289417   -3.9289417   -2.9167584  0.025996611   -3.9289417    1.0121833      8192000 
 2640000   0.78324691    -3.929554    -3.929554   -2.9168108  0.026227275    -3.929554    1.0127432      8192000 
 2641000   0.78318268   -3.9295904   -3.9295904   -2.9169302  0.025346992   -3.9295904    1.0126602      8192000 
 2642000   0.78319626   -3.9292688   -3.9292688   -2.9165911  0.026889181   -3.9292688    1.0126778      8192000 
 2643000   0.78326102   -3.9292464   -3.9292464   -2.9164849  0.027977321   -3.9292464    1.0127615      8192000 
 2644000   0.78284158   -3.9286414   -3.9286414   -2.9164223  0.028092847   -3.9286414    1.0122191      8192000 
 2645000   0.78309187   -3.9287837   -3.9287837   -2.9162409   0.02675617   -3.9287837    1.0125428      8192000 
 2646000   0.78324238   -3.9292923   -3.9292923   -2.9165549  0.026189095   -3.9292923    1.0127374      8192000 
 2647000   0.78345291   -3.9291696   -3.9291696     -2.91616  0.028019477   -3.9291696    1.0130096      8192000 
 2648000   0.78328695   -3.9287274   -3.9287274   -2.9159324  0.028350543   -3.9287274     1.012795      8192000 
 2649000   0.78361173   -3.9293382   -3.9293382   -2.9161232  0.027578885   -3.9293382     1.013215      8192000 
 2650000   0.78289511   -3.9286811   -3.9286811   -2.9163927  0.028845591   -3.9286811    1.0122884      8192000 
 2651000   0.78329467   -3.9292692   -3.9292692   -2.9164642  0.027352183   -3.9292692     1.012805      8192000 
 2652000   0.78350552   -3.9297436   -3.9297436    -2.916666  0.026640672   -3.9297436    1.0130776      8192000 
 2653000   0.78290387    -3.928707    -3.928707   -2.9164073  0.029394177    -3.928707    1.0122997      8192000 
 2654000   0.78358167   -3.9297968   -3.9297968   -2.9166207   0.02361678   -3.9297968    1.0131761      8192000 
 2655000   0.78329227   -3.9295437   -3.9295437   -2.9167418  0.024601603   -3.9295437    1.0128019      8192000 
 2656000   0.78318959    -3.929188    -3.929188   -2.9165189  0.025126908    -3.929188    1.0126691      8192000 
[...]
 2838000   0.78429529   -3.9268496   -3.9268496   -2.9127508  0.025501953   -3.9268496    1.0140988      8192000 
 2839000   0.78360092   -3.9258518   -3.9258518   -2.9126508  0.029097092   -3.9258518     1.013201      8192000 
 2840000   0.78393276   -3.9265828   -3.9265828   -2.9129528  0.025688554   -3.9265828    1.0136301      8192000 
 2841000   0.78363267   -3.9261577   -3.9261577   -2.9129156  0.026018664   -3.9261577     1.013242      8192000 
 2842000   0.78307367   -3.9256761   -3.9256761   -2.9131568  0.026725082   -3.9256761    1.0125193      8192000 
 2843000   0.78365624   -3.9260991   -3.9260991   -2.9128266  0.026686666   -3.9260991    1.0132725      8192000 
 2844000   0.78335594   -3.9261231   -3.9261231   -2.9132389  0.026017684   -3.9261231    1.0128842      8192000 
 2845000   0.78353915   -3.9263523   -3.9263523   -2.9132312  0.024074645   -3.9263523    1.0131211      8192000 
 2846000   0.78375715    -3.926213    -3.926213     -2.91281  0.024268019    -3.926213     1.013403      8192000 
 2847000   0.78392521    -3.926453    -3.926453   -2.9128327   0.02578517    -3.926453    1.0136203      8192000 
 2848000   0.78383697   -3.9263343   -3.9263343   -2.9128281  0.025593367   -3.9263343    1.0135062      8192000 
 2849000   0.78375356   -3.9261899   -3.9261899   -2.9127915  0.026109501   -3.9261899    1.0133984      8192000 
 2850000   0.78412083   -3.9267785   -3.9267785   -2.9129053  0.024514534   -3.9267785    1.0138732      8192000 
 2851000   0.78367339   -3.9263257   -3.9263257    -2.913031  0.026277355   -3.9263257    1.0132947      8192000 
 2852000   0.78356825   -3.9261301   -3.9261301   -2.9129714  0.027341498   -3.9261301    1.0131587      8192000 
 2853000   0.78392517   -3.9263583   -3.9263583   -2.9127381   0.02614171   -3.9263583    1.0136202      8192000 
 2854000    0.7834982   -3.9261132   -3.9261132    -2.913045  0.025245323   -3.9261132    1.0130682      8192000 
 2855000   0.78418644   -3.9267022   -3.9267022   -2.9127441   0.02741575   -3.9267022    1.0139581      8192000 
 2856000   0.78422387   -3.9268094   -3.9268094    -2.912803    0.0265383   -3.9268094    1.0140065      8192000 
 2857000   0.78444278   -3.9269199   -3.9269199   -2.9126304  0.026389497   -3.9269199    1.0142895      8192000 
 2858000   0.78458169   -3.9273405   -3.9273405   -2.9128714  0.025783027   -3.9273405    1.0144691      8192000 
 2859000   0.78467663   -3.9269198   -3.9269198   -2.9123279  0.026727391   -3.9269198    1.0145919      8192000 
 2860000   0.78446523   -3.9267214   -3.9267214   -2.9124029  0.027954493   -3.9267214    1.0143185      8192000 
 2861000   0.78419655   -3.9265201   -3.9265201    -2.912549  0.026419552   -3.9265201    1.0139711      8192000 
 2862000   0.78439112   -3.9268274   -3.9268274   -2.9126046  0.028476125   -3.9268274    1.0142227      8192000 
 2863000   0.78430573   -3.9265315   -3.9265315   -2.9124192  0.027463285   -3.9265315    1.0141123      8192000 
 2864000   0.78445114   -3.9266792   -3.9266792   -2.9123788  0.027661831   -3.9266792    1.0143003      8192000 
 2865000   0.78473694   -3.9269515   -3.9269515   -2.9122817  0.026421159   -3.9269515    1.0146699      8192000 
 2866000   0.78465319   -3.9269945   -3.9269945    -2.912433  0.026272474   -3.9269945    1.0145616      8192000 
 2867000   0.78469786    -3.926712    -3.926712   -2.9120926  0.029758039    -3.926712    1.0146193      8192000 
 2868000   0.78445424   -3.9263955   -3.9263955   -2.9120912  0.027851371   -3.9263955    1.0143043      8192000 
 2869000   0.78464013   -3.9266964   -3.9266964   -2.9121517  0.029253643   -3.9266964    1.0145447      8192000 
 2870000   0.78488657   -3.9266876   -3.9266876   -2.9118243  0.025822232   -3.9266876    1.0148633      8192000 
 2871000   0.78436995   -3.9263453   -3.9263453   -2.9121499   0.02794004   -3.9263453    1.0141954      8192000 
 2872000   0.78429484   -3.9264384   -3.9264384   -2.9123402  0.028384077   -3.9264384    1.0140982      8192000 
 2873000   0.78422795   -3.9265056   -3.9265056   -2.9124939  0.027894071   -3.9265056    1.0140117      8192000 
 2874000   0.78447387   -3.9262248   -3.9262248   -2.9118951  0.026863102   -3.9262248    1.0143297      8192000 
 2875000   0.78406281   -3.9264497   -3.9264497   -2.9126515  0.026615044   -3.9264497    1.0137982      8192000 
 2876000   0.78436469   -3.9267869   -3.9267869   -2.9125983  0.027803673   -3.9267869    1.0141885      8192000 
 2877000    0.7840706   -3.9258292   -3.9258292   -2.9120209  0.029678735   -3.9258292    1.0138083      8192000 
 2878000   0.78466691   -3.9268569   -3.9268569   -2.9122776  0.025226853   -3.9268569    1.0145793      8192000 
 2879000   0.78401934   -3.9259424   -3.9259424   -2.9122004  0.029544956   -3.9259424     1.013742      8192000 
 2880000   0.78464209   -3.9264863   -3.9264863    -2.911939  0.025500153   -3.9264863    1.0145472      8192000 
 2881000   0.78401516   -3.9257681   -3.9257681   -2.9120315  0.028863284   -3.9257681    1.0137366      8192000 
 2882000   0.78421746   -3.9262437   -3.9262437   -2.9122455  0.028316554   -3.9262437    1.0139982      8192000 
 2883000    0.7840631   -3.9258158   -3.9258158   -2.9120172  0.028526498   -3.9258158    1.0137986      8192000 
 2884000   0.78447089   -3.9262715   -3.9262715   -2.9119456   0.02727941   -3.9262715    1.0143259      8192000 
 2885000   0.78405891   -3.9258617   -3.9258617   -2.9120685  0.027032069   -3.9258617    1.0137932      8192000 
 2886000   0.78431432    -3.925578    -3.925578   -2.9114546  0.028728893    -3.925578    1.0141234      8192000 
 2887000   0.78364919   -3.9251956   -3.9251956   -2.9119322  0.028059692   -3.9251956    1.0132634      8192000 
 2888000   0.78443755   -3.9264565   -3.9264565   -2.9121737  0.024179755   -3.9264565    1.0142828      8192000 
 2889000   0.78450862   -3.9261175   -3.9261175   -2.9117429  0.025721416   -3.9261175    1.0143746      8192000 
 2890000    0.7839111   -3.9255453   -3.9255453   -2.9119433  0.026739157   -3.9255453    1.0136021      8192000 
 2891000   0.78394051   -3.9256966   -3.9256966   -2.9120565  0.026677286   -3.9256966    1.0136401      8192000 
 2892000   0.78428985   -3.9260597   -3.9260597   -2.9119679  0.026594681   -3.9260597    1.0140918      8192000 
 2893000   0.78364758   -3.9251953   -3.9251953    -2.911934  0.030805542   -3.9251953    1.0132613      8192000 
 2894000   0.78401037   -3.9256969   -3.9256969   -2.9119665  0.024118289   -3.9256969    1.0137304      8192000 
 2895000    0.7837001   -3.9252012   -3.9252012    -2.911872  0.026311023   -3.9252012    1.0133292      8192000 
 2896000   0.78392811   -3.9256584   -3.9256584   -2.9120343  0.025487713   -3.9256584     1.013624      8192000 
 2897000   0.78386917   -3.9254011   -3.9254011   -2.9118533  0.029167199   -3.9254011    1.0135478      8192000 
 2898000   0.78412793   -3.9255546   -3.9255546   -2.9116722  0.025990254   -3.9255546    1.0138824      8192000 
 2899000   0.78438152   -3.9259388   -3.9259388   -2.9117285  0.025556731   -3.9259388    1.0142103      8192000 
 2900000   0.78428881   -3.9254973   -3.9254973   -2.9114069  0.025698849   -3.9254973    1.0140904      8192000 
 2901000   0.78449032   -3.9259429   -3.9259429    -2.911592  0.024800412   -3.9259429     1.014351      8192000 
 2902000   0.78405774   -3.9252031   -3.9252031   -2.9114114  0.026680627   -3.9252031    1.0137917      8192000 
 2903000   0.78372421   -3.9249444   -3.9249444    -2.911584  0.024482931   -3.9249444    1.0133604      8192000 
 2904000   0.78419232   -3.9250995   -3.9250995   -2.9111338  0.024183603   -3.9250995    1.0139657      8192000 
 2905000   0.78448664   -3.9256433   -3.9256433   -2.9112971  0.023587904   -3.9256433    1.0143462      8192000 
 2906000   0.78434852   -3.9253276   -3.9253276   -2.9111599  0.023457213   -3.9253276    1.0141676      8192000 
 2907000   0.78428123   -3.9252334   -3.9252334   -2.9111527  0.026500758   -3.9252334    1.0140806      8192000 
 2908000   0.78420365   -3.9252462   -3.9252462   -2.9112659  0.025964867   -3.9252462    1.0139803      8192000 
 2909000   0.78412712   -3.9253415   -3.9253415   -2.9114601  0.023708616   -3.9253415    1.0138814      8192000 
 2910000   0.78437178   -3.9250781   -3.9250781   -2.9108803  0.027772593   -3.9250781    1.0141977      8192000 
 2911000   0.78395251   -3.9249353   -3.9249353   -2.9112797  0.023242716   -3.9249353    1.0136556      8192000 
 2912000   0.78427501   -3.9255061   -3.9255061   -2.9114335  0.021997585   -3.9255061    1.0140726      8192000 
 2913000   0.78402795   -3.9249562   -3.9249562   -2.9112031  0.024974553   -3.9249562    1.0137531      8192000 
 2914000   0.78439112   -3.9252152   -3.9252152   -2.9109925  0.023360635   -3.9252152    1.0142227      8192000 
 2915000   0.78433337   -3.9251449   -3.9251449   -2.9109968    0.0263819   -3.9251449     1.014148      8192000 
 2916000   0.78478289   -3.9256644   -3.9256644   -2.9109351  0.025324959   -3.9256644    1.0147293      8192000 
 2917000   0.78477655   -3.9253228   -3.9253228   -2.9106017  0.025628162   -3.9253228    1.0147211      8192000 
 2918000    0.7842828   -3.9251764   -3.9251764   -2.9110937  0.025384214   -3.9251764    1.0140827      8192000 
 2919000   0.78455302   -3.9248608   -3.9248608   -2.9104288   0.02604676   -3.9248608    1.0144321      8192000 
 2920000   0.78430796   -3.9251135   -3.9251135   -2.9109984  0.024586676   -3.9251135    1.0141152      8192000 
 2921000   0.78424163   -3.9247431   -3.9247431   -2.9107137  0.028467235   -3.9247431    1.0140294      8192000 
 2922000   0.78423938    -3.924733    -3.924733   -2.9107065  0.027182692    -3.924733    1.0140265      8192000 
 2923000     0.784274   -3.9248525   -3.9248525   -2.9107812  0.028118794   -3.9248525    1.0140713      8192000 
 2924000   0.78426865   -3.9249687   -3.9249687   -2.9109043  0.025992603   -3.9249687    1.0140644      8192000 
 2925000   0.78410043   -3.9249821   -3.9249821   -2.9111353  0.025993198   -3.9249821    1.0138469      8192000 
 2926000    0.7844027   -3.9253284   -3.9253284   -2.9110907  0.024980968   -3.9253284    1.0142377      8192000 
 2927000   0.78465518   -3.9254927   -3.9254927   -2.9109285  0.025252058   -3.9254927    1.0145642      8192000 
 2928000   0.78469831   -3.9253168   -3.9253168   -2.9106969  0.023149333   -3.9253168    1.0146199      8192000 
 2929000   0.78428639   -3.9250916   -3.9250916   -2.9110043  0.027445286   -3.9250916    1.0140873      8192000 
 2930000   0.78445209   -3.9249387   -3.9249387   -2.9106372  0.026484725   -3.9249387    1.0143016      8192000 
 2931000   0.78394669   -3.9248287   -3.9248287   -2.9111806  0.025957529   -3.9248287    1.0136481      8192000 
 2932000   0.78441103    -3.925137    -3.925137   -2.9108886  0.027597071    -3.925137    1.0142485      8192000 
 2933000    0.7839828   -3.9248113   -3.9248113   -2.9111166  0.027695518   -3.9248113    1.0136948      8192000 
 2934000   0.78400825    -3.924987    -3.924987   -2.9112593  0.027147884    -3.924987    1.0137277      8192000 
 2935000   0.78443595   -3.9255179   -3.9255179   -2.9112373  0.025391688   -3.9255179    1.0142807      8192000 
 2936000   0.78432986   -3.9252016   -3.9252016   -2.9110581  0.026299742   -3.9252016    1.0141435      8192000 
 2937000   0.78412803   -3.9249461   -3.9249461   -2.9110636  0.026615588   -3.9249461    1.0138825      8192000 
 2938000   0.78412734   -3.9250875   -3.9250875   -2.9112059  0.028087404   -3.9250875    1.0138816      8192000 
 2939000   0.78413453   -3.9248524   -3.9248524   -2.9109614  0.028484311   -3.9248524    1.0138909      8192000 
 2940000   0.78443138   -3.9249225   -3.9249225   -2.9106477  0.028053864   -3.9249225    1.0142748      8192000 
 2941000   0.78384606   -3.9246289   -3.9246289    -2.911111   0.02846382   -3.9246289     1.013518      8192000 
 2942000   0.78466021   -3.9255773   -3.9255773   -2.9110067  0.029196047   -3.9255773    1.0145707      8192000 
 2943000   0.78446032   -3.9250869   -3.9250869   -2.9107747  0.028390504   -3.9250869    1.0143122      8192000 
 2944000   0.78443535   -3.9251255   -3.9251255   -2.9108456  0.024857186   -3.9251255    1.0142799      8192000 
 2945000    0.7846158   -3.9251025   -3.9251025   -2.9105893  0.027674154   -3.9251025    1.0145132      8192000 
 2946000    0.7846692    -3.925155    -3.925155   -2.9105727  0.026445687    -3.925155    1.0145823      8192000 
 2947000   0.78429721   -3.9247101   -3.9247101   -2.9106088   0.02963747   -3.9247101    1.0141013      8192000 
 2948000    0.7847494   -3.9252391   -3.9252391   -2.9105531  0.026055919   -3.9252391     1.014686      8192000 
 2949000   0.78485653   -3.9254122   -3.9254122   -2.9105877  0.027486496   -3.9254122    1.0148245      8192000 
 2950000   0.78502116   -3.9257317   -3.9257317   -2.9106944   0.02766354   -3.9257317    1.0150374      8192000 
 2951000   0.78468514   -3.9254595   -3.9254595   -2.9108566  0.027442655   -3.9254595    1.0146029      8192000 
 2952000   0.78485038   -3.9250739   -3.9250739   -2.9102574  0.027326474   -3.9250739    1.0148165      8192000 
 2953000   0.78466734   -3.9254006   -3.9254006   -2.9108207  0.027672845   -3.9254006    1.0145799      8192000 
 2954000    0.7846119   -3.9251288   -3.9251288   -2.9106207  0.028100568   -3.9251288    1.0145082      8192000 
 2955000   0.78464526   -3.9252129   -3.9252129   -2.9106616  0.025769113   -3.9252129    1.0145513      8192000 
 2956000   0.78480163   -3.9253465   -3.9253465    -2.910593  0.026566554   -3.9253465    1.0147535      8192000 
 2957000   0.78443344   -3.9246584   -3.9246584    -2.910381   0.02591719   -3.9246584    1.0142774      8192000 
 2958000   0.78437727   -3.9246447   -3.9246447   -2.9104399  0.028214279   -3.9246447    1.0142048      8192000 
 2959000   0.78439581   -3.9243881   -3.9243881   -2.9101593  0.026262036   -3.9243881    1.0142288      8192000 
 2960000   0.78476522   -3.9249786   -3.9249786   -2.9102722  0.028742527   -3.9249786    1.0147064      8192000 
 2961000     0.784892   -3.9248556   -3.9248556   -2.9099853  0.029847258   -3.9248556    1.0148704      8192000 
 2962000   0.78473177   -3.9248454   -3.9248454   -2.9101822  0.026311062   -3.9248454    1.0146632      8192000 
 2963000   0.78433252   -3.9242062   -3.9242062   -2.9100592  0.029698095   -3.9242062     1.014147      8192000 
 2964000   0.78487935   -3.9251273   -3.9251273   -2.9102733  0.025546441   -3.9251273     1.014854      8192000 
 2965000   0.78443733    -3.924545    -3.924545   -2.9102626  0.025487484    -3.924545    1.0142825      8192000 
 2966000   0.78460895   -3.9247754   -3.9247754    -2.910271  0.027135029   -3.9247754    1.0145044      8192000 
 2967000   0.78468876   -3.9248272   -3.9248272   -2.9102196  0.027526152   -3.9248272    1.0146076      8192000 
 2968000   0.78440575   -3.9247431   -3.9247431   -2.9105014  0.024840976   -3.9247431    1.0142416      8192000 
 2969000   0.78442164   -3.9247196   -3.9247196   -2.9104574  0.027324673   -3.9247196    1.0142622      8192000 
 2970000   0.78436683   -3.9244443   -3.9244443    -2.910253  0.027723596   -3.9244443    1.0141913      8192000 
 2971000   0.78403312   -3.9242713   -3.9242713   -2.9105115  0.024556835   -3.9242713    1.0137598      8192000 
 2972000    0.7843776   -3.9244957   -3.9244957   -2.9102904  0.026181999   -3.9244957    1.0142052      8192000 
 2973000   0.78426917    -3.924636    -3.924636    -2.910571  0.024072081    -3.924636     1.014065      8192000 
 2974000   0.78457886   -3.9245727   -3.9245727   -2.9101072  0.025705938   -3.9245727    1.0144655      8192000 
 2975000   0.78404393   -3.9237678   -3.9237678    -2.909994   0.02633252   -3.9237678    1.0137738      8192000 
 2976000   0.78428008   -3.9238985   -3.9238985   -2.9098194  0.026824414   -3.9238985    1.0140791      8192000 
 2977000   0.78457043   -3.9243035   -3.9243035   -2.9098489  0.023733236   -3.9243035    1.0144546      8192000 
 2978000    0.7850174   -3.9245348   -3.9245348   -2.9095023  0.025531055   -3.9245348    1.0150325      8192000 
 2979000    0.7842656   -3.9239513   -3.9239513   -2.9098909  0.025023089   -3.9239513    1.0140604      8192000 
 2980000   0.78454018   -3.9238657   -3.9238657   -2.9094503  0.026573639   -3.9238657    1.0144155      8192000 
 2981000   0.78470555   -3.9240097   -3.9240097   -2.9093805  0.025270351   -3.9240097    1.0146293      8192000 
 2982000   0.78442616   -3.9239393   -3.9239393   -2.9096713  0.022700614   -3.9239393     1.014268      8192000 
 2983000   0.78407941   -3.9235623   -3.9235623   -2.9097426  0.025463182   -3.9235623    1.0138197      8192000 
 2984000   0.78433606   -3.9239703   -3.9239703   -2.9098188  0.024974543   -3.9239703    1.0141515      8192000 
 2985000   0.78432378   -3.9237098   -3.9237098   -2.9095742  0.025619346   -3.9237098    1.0141357      8192000 
 2986000   0.78466009   -3.9240417   -3.9240417   -2.9094712  0.026111971   -3.9240417    1.0145705      8192000 
 2987000   0.78467559   -3.9243846   -3.9243846   -2.9097941  0.024674706   -3.9243846    1.0145905      8192000 
 2988000   0.78478916   -3.9239913   -3.9239913   -2.9092539  0.025607186   -3.9239913    1.0147374      8192000 
 2989000    0.7842415   -3.9237194   -3.9237194   -2.9096901  0.027010267   -3.9237194    1.0140293      8192000 
 2990000   0.78425402   -3.9235333   -3.9235333   -2.9094879     0.026432   -3.9235333    1.0140454      8192000 
 2991000   0.78448479   -3.9236041   -3.9236041   -2.9092603  0.025340788   -3.9236041    1.0143438      8192000 
 2992000    0.7847291   -3.9243561   -3.9243561   -2.9096963  0.024538192   -3.9243561    1.0146597      8192000 
 2993000   0.78450564   -3.9236112   -3.9236112   -2.9092404  0.029364565   -3.9236112    1.0143708      8192000 
 2994000   0.78447755   -3.9240513   -3.9240513   -2.9097168  0.024835464   -3.9240513    1.0143345      8192000 
 2995000   0.78436182   -3.9237695   -3.9237695   -2.9095847  0.025566432   -3.9237695    1.0141848      8192000 
 2996000   0.78457023   -3.9238974   -3.9238974   -2.9094431  0.025300104   -3.9238974    1.0144543      8192000 
 2997000   0.78436118   -3.9236802   -3.9236802   -2.9094962  0.026464101   -3.9236802     1.014184      8192000 
 2998000   0.78469897   -3.9240182   -3.9240182   -2.9093974  0.025054163   -3.9240182    1.0146208      8192000 
 2999000   0.78460593   -3.9237358   -3.9237358   -2.9092354  0.027882142   -3.9237358    1.0145005      8192000 
 3000000   0.78482476   -3.9243719   -3.9243719   -2.9095884  0.026540387   -3.9243719    1.0147834      8192000 
Loop time of 16733 on 240 procs for 1000000 steps with 4233413 atoms

Performance: 12908.604 tau/day, 59.762 timesteps/s
98.1% CPU use with 240 MPI tasks x 1 OpenMP threads

MPI task timing breakdown:
Section |  min time  |  avg time  |  max time  |%varavg|  %CPU | %total
-----------------------------------------------------------------------
Pair    | 6841.1     | 7736.6     | 9274.4     | 659.2 |  99.5 | 46.24
Bond    | 0.81915    | 0.91535    | 1.1098     |   4.2 | 100.0 |  0.01
Neigh   | 2877.9     | 3809.4     | 4636.1     | 580.2 |  99.6 | 22.77
Comm    | 1309.7     | 2963.4     | 4807.3     |1323.0 |  95.0 | 17.71
Output  | 310.65     | 312.3      | 314.25     |   7.2 |  93.2 |  1.87
Modify  | 910.75     | 1550.4     | 2442.4     | 887.5 |  95.8 |  9.27
Other   |            | 360.1      |            |       |       |  2.15

Nlocal:        17639.2 ave       19367 max       15965 min
Histogram: 5 7 22 31 62 56 28 19 7 3
Nghost:        16195.6 ave       21078 max        9737 min
Histogram: 26 11 3 20 10 28 50 51 34 7
Neighs:        576326.0 ave      662762 max      503475 min
Histogram: 5 9 45 87 33 1 6 17 17 20

Total # of neighbors = 1.383183e+08
Ave neighs/atom = 32.672999
Ave special neighs/atom = 0.0000000
Neighbor list builds = 62349
Dangerous builds = 0
Total wall time: 4:38:58
