LAMMPS (29 Oct 2020)
  using 1 OpenMP thread(s) per MPI task
#Read the equilibrated lj fluid and add nanocubes

units           lj
atom_style      full
atom_modify     map array first cubes
dimension       3
boundary        p p f
pair_style      lj/cut/opt 2.5

variable        sigma           equal 1.0
variable        epsilon         equal 1.0
read_restart	restart.dat.10000000
Reading restart file ...
  restart file = 24 Dec 2020, LAMMPS = 29 Oct 2020
WARNING: Restart file used different # of processors: 192 vs. 64 (src/read_restart.cpp:697)
  restoring atom style full from restart
  orthogonal box = (0.0000000 0.0000000 0.0000000) to (80.000000 80.000000 160.00000)
  2 by 4 by 8 MPI processor grid
  restoring pair style lj/cut/opt from restart
  443961 atoms
Finding 1-2 1-3 1-4 neighbors ...
  special bond factors lj:    0.0      0.0      0.0     
  special bond factors coul:  0.0      0.0      0.0     
     0 = max # of 1-2 neighbors
     0 = max # of 1-3 neighbors
     0 = max # of 1-4 neighbors
     1 = max # of special neighbors
  special bonds CPU = 1.316 seconds
  read_restart CPU = 4.333 seconds

group		solvent type 1
443961 atoms in group solvent

read_data	data_150_s2.cubes group cubes add append
Reading data file ...
  orthogonal box = (0.0000000 0.0000000 0.0000000) to (80.000000 80.000000 160.00000)
  2 by 4 by 8 MPI processor grid
  reading atoms ...
  200025 atoms
  reading velocities ...
  200025 velocities
Finding 1-2 1-3 1-4 neighbors ...
  special bond factors lj:    0.0      0.0      0.0     
  special bond factors coul:  0.0      0.0      0.0     
     0 = max # of 1-2 neighbors
     0 = max # of 1-3 neighbors
     0 = max # of 1-4 neighbors
     1 = max # of special neighbors
  special bonds CPU = 0.012 seconds
  read_data CPU = 0.599 seconds

group 		hull  type 2
78050 atoms in group hull
group 		dummy type 3
121975 atoms in group dummy

neighbor      0.4 bin
neigh_modify  exclude molecule/intra cubes


pair_modify   shift yes

pair_coeff    1 1 1.0 1.0 #solvent
pair_coeff    2 2 1.0 1.0 1.12 #np
pair_coeff    3 3 0.0 0.0 0.0 #dummy
pair_coeff    2 3 0.0 0.0 0.0 #np dummy
pair_coeff    1 2 ${sol} 1.0  #np solvent
pair_coeff    1 2 .55 1.0  
pair_coeff    1 3 0.0 0.0 2.5 #dummy solvent

# delete solvent where the cubes are
delete_atoms  overlap 1.0 solvent cubes
System init for delete_atoms ...
Unused restart file peratom fix info:
  fix style: STORE, fix ID: bin1_COMPUTE_STORE
Neighbor list info ...
  update every 1 steps, delay 10 steps, check yes
  max neighbors/atom: 2000, page size: 100000
  master list distance cutoff = 2.9
  ghost atom cutoff = 2.9
  binsize = 1.45, bins = 56 56 111
  2 neighbor lists, perpetual/occasional/extra = 1 1 0
  (1) command delete_atoms, occasional
      attributes: full, newton on
      pair build: full/bin
      stencil: full/bin/3d
      bin: standard
  (2) pair lj/cut/opt, perpetual
      attributes: half, newton on
      pair build: half/bin/newton
      stencil: half/bin/3d/newton
      bin: standard
WARNING: Delete_atoms cutoff > minimum neighbor cutoff (src/delete_atoms.cpp:307)
WARNING: Ignoring 'compress yes' for molecular system (src/delete_atoms.cpp:125)
Deleted 136462 atoms, new total = 507524

pair_coeff    1 1 1.0 1.0 #solvent
pair_coeff    2 2 1.0 1.0 1.12 #np
pair_coeff    3 3 0.0 0.0 0.0 #dummy
pair_coeff    2 3 0.0 0.0 0.0 #np dummy
pair_coeff    1 2 ${sol} 1.0  #np solvent
pair_coeff    1 2 .55 1.0  
pair_coeff    1 3 0.0 0.0 0.0 #dummy solvent


comm_modify   mode multi cutoff/multi 1 2.5 cutoff/multi 2 2.5 cutoff/multi 3 6.95

reset_timestep 	0

balance 	1.05 shift z 10 1.05
Balancing ...
Neighbor list info ...
  update every 1 steps, delay 10 steps, check yes
  max neighbors/atom: 2000, page size: 100000
  master list distance cutoff = 2.9
  ghost atom cutoff = 6.95
  binsize = 1.45, bins = 56 56 111
  1 neighbor lists, perpetual/occasional/extra = 1 0 0
  (1) pair lj/cut/opt, perpetual
      attributes: half, newton on
      pair build: half/bin/newton
      stencil: half/bin/3d/newton
      bin: standard
 rebalancing time: 0.016 seconds
  iteration count = 4
  initial/final maximal load/proc = 10743.000 8939.0000
  initial/final imbalance factor  = 1.3547182 1.1272295
  x cuts: 0.0000000 0.5 1.0000000
  y cuts: 0.0000000 0.25 0.5 0.75 1.0000000
  z cuts: 0.0000000 0.1015625 0.1953125 0.2890625 0.3828125 0.484375 0.578125 0.671875 1.0000000

####################### WALLS ###########################

variable       epsilonWall equal 2*${epsilon}
variable       epsilonWall equal 2*1
variable       repulsive   equal   0.7147*${sigma}
variable       repulsive   equal   0.7147*1
variable       full	   equal   3*${sigma}
variable       full	   equal   3*1
region         lowWall block EDGE EDGE EDGE EDGE EDGE 2

fix            topWall all wall/lj93 zhi EDGE 	       ${epsilonWall} ${sigma} ${repulsive} units box
fix            topWall all wall/lj93 zhi EDGE 	       2 ${sigma} ${repulsive} units box
fix            topWall all wall/lj93 zhi EDGE 	       2 1 ${repulsive} units box
fix            topWall all wall/lj93 zhi EDGE 	       2 1 0.7147 units box
fix            lowSol solvent wall/lj93 zlo EDGE                ${epsilonWall} ${sigma} ${full} units box
fix            lowSol solvent wall/lj93 zlo EDGE                2 ${sigma} ${full} units box
fix            lowSol solvent wall/lj93 zlo EDGE                2 1 ${full} units box
fix            lowSol solvent wall/lj93 zlo EDGE                2 1 3 units box
fix 	       lowCub cubes wall/lj93 zlo EDGE                ${epsilonWall} ${sigma} ${repulsive} units box
fix 	       lowCub cubes wall/lj93 zlo EDGE                2 ${sigma} ${repulsive} units box
fix 	       lowCub cubes wall/lj93 zlo EDGE                2 1 ${repulsive} units box
fix 	       lowCub cubes wall/lj93 zlo EDGE                2 1 0.7147 units box


###################### COMPUTES ##########################

compute        bin1 solvent chunk/atom bin/1d z lower 1.0 units box
compute        bin3 solvent chunk/atom bin/3d x lower 1.0 y lower 1.0 z lower 1.0 units box

compute 	pe solvent 	   pe/atom
compute 	pe2 all 	   pe/atom

######################  FIXES ############################


fix             peclet solvent ave/chunk 10 10 10000 bin1 density/number norm                  none ave one file density.profile

fix              temp solvent ave/chunk 10 10 10000 bin1 temp norm                  none ave one file temp.profile

fix 		 dens solvent ave/chunk 10 10 500000 bin3 density/number norm 		 none ave one file dens3.profile

fix		 temp2 solvent ave/chunk 10 10 500000 bin3 temp norm none ave one file temp3.profile

fix 		pe solvent ave/chunk 1 1 500000 bin3 c_pe norm none ave one file pe3.profile

fix             1 cubes rigid/nve/small molecule
  create bodies CPU = 0.008 seconds
  175 rigid bodies with 200025 atoms
  6.9282032 = max distance from body owner to body atom

fix             2 solvent nve# temp ${temp} ${temp} 10


## Thermostat
region          regthermo block EDGE EDGE EDGE EDGE 0 15
group           thermo dynamic solvent region regthermo every 1000
dynamic group thermo defined
fix             3 thermo langevin ${temp} ${temp} 10 156453
fix             3 thermo langevin 1.0 ${temp} 10 156453
fix             3 thermo langevin 1.0 1.0 10 156453


#### Load balancing

fix             bal all balance 1000 1.05 shift z 10 1.05

############### Diagnostics and computes ###################

compute        	com cubes          rigid/local   1 mol x y z
compute        	quat cubes         rigid/local   1 mol quatw quati quatj quatk

compute 	cc2 cubes 	   chunk/atom 	 molecule
compute 	msd cubes 	   msd/chunk 	 cc2

fix 		msd all ave/time  1 1 10000 c_msd[*] file dump.msd ave one mode vector

dump            1 all custom 500000 dump.lammpstrj id mol type x y z vx vy vz c_pe2
dump		sol  solvent custom 500000 dump.soltrj id x y z vx vy vz c_pe
dump		cubetrj cubes custom 500000 cubes.lammpstrj id mol type x y z vx vy vz
dump            com cubes local 100000 dump.*.xyz c_com[*]
dump	        xyz hull xyz 100000 cubes.xyz
dump            quat cubes      local 100000 dump.*.quat c_quat[*]
dump		order cubes 	local 100000 dump.*.order c_com[*] c_quat[*]
#dump		mol cubes molfile 10000 mol.xyz xyz


dump            2 all image 100000 image.*.png type type zoom 1.5 size 1280 720
dump_modify     2 pad 8
dump		image cubes image 100000 image_cubes.*.png type type zoom 1.5 size 1280 720
dump_modify	image pad 8
dump            3 all movie 5000 movie.avi type type zoom 1.5 size 1280 720
dump		4 cubes movie 5000 movie_cubes.avi type type size 1280 720


thermo          1000
thermo_style    custom step temp epair evdwl etotal press pe ke atoms

restart         1000000 restart.dat
timestep        0.005
timer           full
New timer settings: style=full  mode=nosync  timeout=off

run 		10000000
Per MPI rank memory allocation (min/avg/max) = 91.72 | 101.4 | 102.8 Mbytes
Step Temp E_pair E_vdwl TotEng Press PotEng KinEng Atoms 
       0    1.0158521   -1.8625589   -1.8625589  -0.93828321  -0.03567864   -1.8625589   0.92427565   507524 
    1000    1.0106975   -1.8580455   -1.8580455  -0.93845982  0.081413634   -1.8580455   0.91958565   507524 
    2000    1.0094468   -1.8558336   -1.8558336  -0.93738585  0.080585988   -1.8558336   0.91844771   507524 
    3000    1.0092162   -1.8554997   -1.8554997  -0.93726171  0.074210464   -1.8554997   0.91823795   507524 
    4000    1.0075572   -1.8540634   -1.8540634  -0.93733491  0.067414722   -1.8540634    0.9167285   507524 
    5000    1.0055868   -1.8538584   -1.8538584  -0.93892265  0.071200315   -1.8538584   0.91493575   507524 
    6000       1.0047   -1.8517869   -1.8517869  -0.93765803  0.077552857   -1.8517869   0.91412887   507524 
    7000    1.0046132   -1.8517238   -1.8517238  -0.93767393  0.075654415   -1.8517238    0.9140499   507524 
    8000    1.0052177   -1.8522374   -1.8522374  -0.93763756  0.069535904   -1.8522374   0.91459984   507524 
    9000    1.0033195   -1.8511016   -1.8511016  -0.93822884  0.068739918   -1.8511016   0.91287279   507524 
   10000    1.0013514   -1.8493219   -1.8493219  -0.93823971  0.071711499   -1.8493219   0.91108215   507524 
   11000    1.0018388   -1.8499261   -1.8499261  -0.93840055  0.065588525   -1.8499261   0.91152553   507524 
   12000      1.00174   -1.8493761   -1.8493761  -0.93794048  0.070351159   -1.8493761   0.91143564   507524 
   13000    1.0015041   -1.8498403   -1.8498403  -0.93861923  0.067211159   -1.8498403   0.91122107   507524 
   14000   0.99925759   -1.8466086   -1.8466086  -0.93743153  0.062501509   -1.8466086   0.90917705   507524 
   15000     1.000773   -1.8467373   -1.8467373  -0.93618138  0.063690851   -1.8467373   0.91055588   507524 
   16000   0.99883674   -1.8449564   -1.8449564  -0.93616227  0.061139305   -1.8449564   0.90879415   507524 
   17000   0.99810031   -1.8448358   -1.8448358  -0.93671173  0.057629431   -1.8448358    0.9081241   507524 
   18000    0.9979051    -1.844208    -1.844208  -0.93626151  0.063567637    -1.844208   0.90794648   507524 
   19000   0.99873549   -1.8452813   -1.8452813  -0.93657924  0.059895872   -1.8452813   0.90870202   507524 
   20000   0.99740406   -1.8435253   -1.8435253  -0.93603473  0.060100637   -1.8435253   0.90749062   507524 
   21000   0.99834752   -1.8437988   -1.8437988   -0.9354498  0.060991867   -1.8437988   0.90834903   507524 
   22000   0.99928983   -1.8433436   -1.8433436  -0.93413723  0.063020238   -1.8433436   0.90920639   507524 
   23000   0.99932301   -1.8434319   -1.8434319  -0.93419535  0.066207645   -1.8434319   0.90923658   507524 
   24000   0.99905309   -1.8426442   -1.8426442  -0.93365323  0.071204637   -1.8426442   0.90899099   507524 
   25000    1.0024534   -1.8455596   -1.8455596  -0.93347484  0.062550836   -1.8455596   0.91208478   507524 
   26000    1.0016368   -1.8442675   -1.8442675  -0.93292573  0.062648647   -1.8442675   0.91134177   507524 
   27000    1.0020611   -1.8446804   -1.8446804  -0.93295254  0.063477212   -1.8446804   0.91172787   507524 
   28000    1.0000894   -1.8434462   -1.8434462  -0.93351237  0.066315049   -1.8434462   0.90993386   507524 
   29000    1.0022194   -1.8451785   -1.8451785  -0.93330664  0.066580682   -1.8451785   0.91187187   507524 
   30000    1.0015991   -1.8448951   -1.8448951  -0.93358766  0.061431074   -1.8448951   0.91130747   507524 
   31000    1.0002174   -1.8434688   -1.8434688  -0.93341849  0.073394216   -1.8434688   0.91005033   507524 
   32000    1.0008704   -1.8440322   -1.8440322  -0.93338775  0.067220464   -1.8440322   0.91064447   507524 
   33000    1.0013992   -1.8447323   -1.8447323  -0.93360672  0.066426948   -1.8447323   0.91112558   507524 
   34000     1.001431   -1.8448905   -1.8448905  -0.93373605  0.060350044   -1.8448905   0.91115449   507524 
   35000    1.0024803   -1.8448424   -1.8448424  -0.93273309  0.071300871   -1.8448424   0.91210929   507524 
   36000    1.0033424   -1.8461595   -1.8461595  -0.93326589  0.069853907   -1.8461595    0.9128936   507524 
   37000    1.0019319    -1.845396    -1.845396  -0.93378572  0.074986803    -1.845396   0.91161027   507524 
   38000    1.0044721   -1.8478827   -1.8478827  -0.93396126  0.068488815   -1.8478827   0.91392146   507524 
   39000    1.0033496   -1.8468037   -1.8468037  -0.93390351  0.067831243   -1.8468037   0.91290023   507524 
   40000    1.0041067   -1.8479109   -1.8479109  -0.93432191   0.07555602   -1.8479109   0.91358899   507524 
   41000    1.0073009   -1.8495235   -1.8495235  -0.93302825  0.067132338   -1.8495235   0.91649525   507524 
   42000    1.0043237   -1.8479156   -1.8479156  -0.93412914  0.076295773   -1.8479156   0.91378645   507524 
   43000    1.0056815   -1.8495197   -1.8495197   -0.9344979  0.071008712   -1.8495197   0.91502182   507524 
   44000    1.0042648   -1.8483886   -1.8483886  -0.93465572  0.073052288   -1.8483886    0.9137329   507524 
   45000    1.0057941   -1.8498162   -1.8498162   -0.9346918  0.071909885   -1.8498162   0.91512436   507524 
   46000    1.0046404   -1.8489045   -1.8489045  -0.93482993  0.072694812   -1.8489045    0.9140746   507524 
   47000     1.006654   -1.8513868   -1.8513868  -0.93548016  0.061883157   -1.8513868   0.91590667   507524 
   48000    1.0052681   -1.8498273   -1.8498273   -0.9351816  0.067856964   -1.8498273   0.91464572   507524 
   49000    1.0043243   -1.8502087   -1.8502087  -0.93642163  0.069731006   -1.8502087   0.91378704   507524 
   50000    1.0064131   -1.8517754   -1.8517754  -0.93608785  0.069282259   -1.8517754    0.9156875   507524 
   51000    1.0049867   -1.8511372   -1.8511372  -0.93674748  0.071910227   -1.8511372   0.91438969   507524 
   52000    1.0031857   -1.8487001   -1.8487001  -0.93594911  0.071901174   -1.8487001   0.91275102   507524 
   53000    1.0041849   -1.8491749   -1.8491749   -0.9355147  0.067649939   -1.8491749   0.91366022   507524 
   54000    1.0017112   -1.8472347   -1.8472347  -0.93582528  0.076540172   -1.8472347   0.91140947   507524 
   55000    1.0036141   -1.8487418   -1.8487418  -0.93560103  0.075256632   -1.8487418    0.9131408   507524 
   56000    1.0040708   -1.8485071   -1.8485071  -0.93495076  0.071983471   -1.8485071   0.91355637   507524 
   57000    1.0043766   -1.8492477   -1.8492477   -0.9354131  0.071590055   -1.8492477    0.9138346   507524 
   58000    1.0020517   -1.8468248   -1.8468248  -0.93510558  0.066749011   -1.8468248   0.91171927   507524 
   59000    1.0030479   -1.8476767   -1.8476767  -0.93505105  0.069347843   -1.8476767   0.91262563   507524 
   60000    1.0000322   -1.8450018   -1.8450018  -0.93511991  0.069497896   -1.8450018   0.90988187   507524 
   61000    1.0015535    -1.846056    -1.846056  -0.93479006  0.077676887    -1.846056   0.91126598   507524 
   62000    1.0023389   -1.8463331   -1.8463331  -0.93435253  0.069411971   -1.8463331   0.91198062   507524 
   63000    1.0026874    -1.846789    -1.846789  -0.93449139  0.065805304    -1.846789   0.91229764   507524 
   64000   0.99969898     -1.84422     -1.84422  -0.93464135  0.069989106     -1.84422   0.90957866   507524 
   65000    1.0008742   -1.8458337   -1.8458337  -0.93518568   0.06204803   -1.8458337   0.91064798   507524 
   66000   0.99926961   -1.8443482   -1.8443482  -0.93516026  0.067082689   -1.8443482   0.90918799   507524 
   67000   0.99949602    -1.845239    -1.845239  -0.93584503   0.06409683    -1.845239   0.90939399   507524 
   68000   0.99931727   -1.8445003   -1.8445003  -0.93526892  0.055807684   -1.8445003   0.90923135   507524 
   69000    1.0008439   -1.8449678   -1.8449678  -0.93434739  0.071930563   -1.8449678    0.9106204   507524 
   70000    1.0007831   -1.8454595   -1.8454595  -0.93489453  0.062139883   -1.8454595   0.91056501   507524 
   71000    1.0019649   -1.8462438   -1.8462438  -0.93460348  0.066299224   -1.8462438    0.9116403   507524 
   72000    1.0010042   -1.8451102   -1.8451102  -0.93434404  0.066859768   -1.8451102    0.9107662   507524 
   73000      1.00127   -1.8453414   -1.8453414  -0.93433337  0.066140084   -1.8453414   0.91100806   507524 
   74000    1.0007503   -1.8446215   -1.8446215  -0.93408624  0.066401612   -1.8446215   0.91053524   507524 
   75000    1.0014881   -1.8456336   -1.8456336  -0.93442709  0.063536826   -1.8456336   0.91120648   507524 
   76000   0.99934475   -1.8437765   -1.8437765  -0.93452018  0.067279306   -1.8437765   0.90925636   507524 
   77000    1.0023371   -1.8472973   -1.8472973  -0.93531838  0.069497255   -1.8472973   0.91197893   507524 
   78000    1.0039405   -1.8473893   -1.8473893  -0.93395151  0.064815722   -1.8473893   0.91343779   507524 
   79000    1.0012793   -1.8452959   -1.8452959  -0.93427942  0.068715712   -1.8452959    0.9110165   507524 
   80000    1.0021689   -1.8454656   -1.8454656  -0.93363974  0.072589567   -1.8454656   0.91182589   507524 
   81000    1.0017377   -1.8457336   -1.8457336  -0.93430002  0.069501902   -1.8457336    0.9114336   507524 
   82000    1.0038352   -1.8479244   -1.8479244  -0.93458238  0.068810245   -1.8479244   0.91334202   507524 
   83000    1.0025187   -1.8466213   -1.8466213  -0.93447715   0.06761081   -1.8466213   0.91214418   507524 
   84000    1.0024034   -1.8470961   -1.8470961  -0.93505685  0.072041457   -1.8470961   0.91203925   507524 
   85000    1.0015216   -1.8461998   -1.8461998  -0.93496287  0.077624569   -1.8461998   0.91123694   507524 
   86000   0.99994873   -1.8445423   -1.8445423  -0.93473645  0.072932352   -1.8445423   0.90980589   507524 
   87000    1.0009851   -1.8456521   -1.8456521  -0.93490332  0.069669245   -1.8456521   0.91074879   507524 
   88000    1.0032682   -1.8479647   -1.8479647  -0.93513863  0.065784969   -1.8479647   0.91282611   507524 
   89000    1.0034416   -1.8485863   -1.8485863  -0.93560236   0.06923737   -1.8485863   0.91298392   507524 
   90000    1.0036574   -1.8480783   -1.8480783  -0.93489809  0.078861879   -1.8480783    0.9131802   507524 
   91000    1.0018605   -1.8475474   -1.8475474  -0.93600213  0.063231876   -1.8475474   0.91154529   507524 
   92000    1.0026318   -1.8481719   -1.8481719  -0.93592481  0.069578817   -1.8481719   0.91224706   507524 
   93000    1.0000647   -1.8458626   -1.8458626  -0.93595117  0.070975031   -1.8458626   0.90991139   507524 
   94000    1.0027733   -1.8480441   -1.8480441  -0.93566827  0.064430267   -1.8480441   0.91237581   507524 
   95000    1.0005521   -1.8460522   -1.8460522  -0.93569733  0.073378028   -1.8460522   0.91035485   507524 
   96000    1.0021863   -1.8474863   -1.8474863  -0.93564464  0.069973637   -1.8474863   0.91184171   507524 
   97000     1.002535   -1.8483048   -1.8483048  -0.93614579  0.071909028   -1.8483048   0.91215905   507524 
   98000      1.00286   -1.8482328   -1.8482328  -0.93577803  0.070975726   -1.8482328   0.91245473   507524 
   99000    1.0039642   -1.8487294   -1.8487294  -0.93527003   0.06734767   -1.8487294   0.91345939   507524 
  100000    1.0033201   -1.8480056   -1.8480056  -0.93513228  0.064360313   -1.8480056    0.9128733   507524 
  101000    1.0036842   -1.8492885   -1.8492885  -0.93608386  0.069917249   -1.8492885   0.91320464   507524 
  102000    1.0030735   -1.8488802   -1.8488802  -0.93623131  0.068196381   -1.8488802   0.91264893   507524 
  103000    1.0051234   -1.8491265   -1.8491265  -0.93461247  0.069150987   -1.8491265   0.91451407   507524 
  104000    1.0023529   -1.8476745   -1.8476745   -0.9356812  0.081007937   -1.8476745   0.91199335   507524 
  105000    1.0048191   -1.8493431   -1.8493431  -0.93510595   0.06953034   -1.8493431   0.91423717   507524 
  106000    1.0025483   -1.8468402   -1.8468402  -0.93466905  0.072243877   -1.8468402   0.91217112   507524 
  107000    1.0036781   -1.8485244   -1.8485244  -0.93532531  0.065985997   -1.8485244   0.91319909   507524 
  108000    1.0015324   -1.8464614   -1.8464614  -0.93521463  0.067024527   -1.8464614    0.9112468   507524 
  109000    1.0028247   -1.8478345   -1.8478345  -0.93541195   0.07464755   -1.8478345   0.91242258   507524 
  110000    1.0007131    -1.845962    -1.845962  -0.93546068  0.068000078    -1.845962   0.91050137   507524 
  111000     1.001772   -1.8468243   -1.8468243   -0.9353595  0.068407009   -1.8468243   0.91146475   507524 
  112000    1.0039278   -1.8495911   -1.8495911  -0.93616487  0.070607731   -1.8495911   0.91342623   507524 
  113000    1.0022479   -1.8475367   -1.8475367  -0.93563891  0.064582394   -1.8475367   0.91189778   507524 
  114000    1.0009546   -1.8468251   -1.8468251  -0.93610406  0.063525929   -1.8468251   0.91072107   507524 
  115000    1.0017393   -1.8469667   -1.8469667  -0.93553168  0.067692552   -1.8469667   0.91143502   507524 
  116000    1.0029321    -1.848189    -1.848189  -0.93566872  0.067767008    -1.848189   0.91252029   507524 
  117000     1.002555   -1.8478563   -1.8478563  -0.93567912  0.063192842   -1.8478563   0.91217721   507524 
  118000    1.0025851   -1.8475368   -1.8475368  -0.93533222  0.065511846   -1.8475368   0.91220459   507524 
  119000    1.0018661    -1.846435    -1.846435  -0.93488454  0.075125326    -1.846435   0.91155046   507524 
  120000    1.0030006   -1.8473858   -1.8473858   -0.9348032  0.066302396   -1.8473858    0.9125826   507524 
  121000    1.0016528   -1.8454784   -1.8454784    -0.934122  0.064251259   -1.8454784   0.91135637   507524 
  122000    1.0016117   -1.8454883   -1.8454883  -0.93416929  0.070204321   -1.8454883   0.91131897   507524 
  123000    1.0043091   -1.8478583   -1.8478583  -0.93408519  0.070727324   -1.8478583   0.91377315   507524 
  124000    1.0029219   -1.8465083   -1.8465083  -0.93399728  0.074904994   -1.8465083   0.91251107   507524 
  125000    1.0026895   -1.8469602   -1.8469602  -0.93466062  0.066815704   -1.8469602   0.91229961   507524 
  126000    1.0007142   -1.8450352   -1.8450352  -0.93453284  0.074469856   -1.8450352   0.91050237   507524 
  127000    1.0027418   -1.8469678   -1.8469678  -0.93462058  0.070446609   -1.8469678   0.91234718   507524 
  128000    1.0030168   -1.8479575   -1.8479575  -0.93536009  0.066509851   -1.8479575   0.91259742   507524 
  129000    1.0013686   -1.8465774   -1.8465774  -0.93547964   0.06772414   -1.8465774   0.91109774   507524 
  130000    1.0018769    -1.846739    -1.846739  -0.93517878  0.062718195    -1.846739   0.91156023   507524 
  131000    1.0030039   -1.8478092   -1.8478092  -0.93522361  0.061063929   -1.8478092    0.9125856   507524 
  132000    1.0013118   -1.8470286   -1.8470286  -0.93598254  0.067191233   -1.8470286   0.91104606   507524 
  133000    1.0007005   -1.8461986   -1.8461986  -0.93570865  0.063569773   -1.8461986   0.91048993   507524 
  134000     1.000795   -1.8460257   -1.8460257   -0.9354498  0.064174097   -1.8460257   0.91057587   507524 
  135000    1.0012373   -1.8465407   -1.8465407   -0.9355624  0.064331939   -1.8465407   0.91097827   507524 
  136000   0.99984696    -1.845259    -1.845259  -0.93554575  0.063174447    -1.845259   0.90971329   507524 
  137000     1.000975    -1.845935    -1.845935  -0.93519537  0.061626063    -1.845935   0.91073962   507524 
  138000    1.0014894   -1.8450216   -1.8450216  -0.93381393  0.063779755   -1.8450216    0.9112077   507524 
  139000    1.0017394   -1.8456687   -1.8456687   -0.9342336  0.074831939   -1.8456687   0.91143511   507524 
  140000     1.001692   -1.8452789   -1.8452789  -0.93388696  0.068385964   -1.8452789   0.91139197   507524 
  141000    1.0014044    -1.845568    -1.845568  -0.93443768  0.064108806    -1.845568   0.91113029   507524 
  142000    1.0023284   -1.8459936   -1.8459936  -0.93402252  0.068976234   -1.8459936   0.91197104   507524 
  143000    1.0027531   -1.8465238   -1.8465238  -0.93416635   0.06590557   -1.8465238   0.91235748   507524 
  144000    1.0020709   -1.8457991   -1.8457991  -0.93406239  0.064945525   -1.8457991   0.91173675   507524 
  145000     1.001444    -1.845267    -1.845267  -0.93410059  0.067802212    -1.845267   0.91116638   507524 
  146000    1.0012894   -1.8448635   -1.8448635  -0.93383783  0.067094547   -1.8448635   0.91102569   507524 
  147000    1.0029147   -1.8466926   -1.8466926   -0.9341881  0.065963299   -1.8466926   0.91250447   507524 
  148000    1.0036461   -1.8472125   -1.8472125  -0.93404259  0.076160603   -1.8472125   0.91316991   507524 
  149000    1.0017724   -1.8450779   -1.8450779  -0.93361267  0.072355431   -1.8450779   0.91146518   507524 
  150000    1.0035989   -1.8470699   -1.8470699   -0.9339429   0.06835367   -1.8470699   0.91312701   507524 
  151000    1.0013328   -1.8455472   -1.8455472  -0.93448199  0.072217508   -1.8455472   0.91106521   507524 
  152000    1.0044824    -1.847607    -1.847607  -0.93367615  0.064994884    -1.847607   0.91393082   507524 
  153000    1.0037014   -1.8474364   -1.8474364  -0.93421613  0.069646264   -1.8474364   0.91322026   507524 
  154000     1.002412   -1.8460802   -1.8460802  -0.93403312   0.06916541   -1.8460802   0.91204708   507524 
  155000    1.0020874   -1.8460269   -1.8460269  -0.93427508  0.073379957   -1.8460269   0.91175178   507524 
  156000    1.0027896   -1.8474824   -1.8474824  -0.93509176  0.068596262   -1.8474824   0.91239062   507524 
  157000    1.0045552   -1.8490252   -1.8490252   -0.9350281  0.069203452   -1.8490252   0.91399711   507524 
  158000    1.0022125   -1.8471135   -1.8471135  -0.93524793  0.073448059   -1.8471135   0.91186557   507524 
  159000    1.0031107   -1.8489123   -1.8489123  -0.93622956  0.065924858   -1.8489123   0.91268279   507524 
  160000    1.0026813   -1.8476722   -1.8476722  -0.93538007  0.070575759   -1.8476722   0.91229212   507524 
  161000    1.0011781   -1.8456648   -1.8456648  -0.93474043  0.065505124   -1.8456648   0.91092441   507524 
  162000     1.003867   -1.8476528   -1.8476528  -0.93428184  0.063902407   -1.8476528   0.91337097   507524 
  163000    1.0030629   -1.8459543   -1.8459543  -0.93331501  0.065474868   -1.8459543   0.91263928   507524 
  164000    1.0019745   -1.8458874   -1.8458874  -0.93423833  0.068871072   -1.8458874   0.91164904   507524 
  165000    1.0052679   -1.8480567   -1.8480567  -0.93341113  0.066561438   -1.8480567   0.91464556   507524 
  166000    1.0045164   -1.8475354   -1.8475354  -0.93357357  0.071477201   -1.8475354   0.91396183   507524 
  167000    1.0049118   -1.8487573   -1.8487573  -0.93443581  0.069570816   -1.8487573   0.91432151   507524 
  168000    1.0030166    -1.847328    -1.847328  -0.93473085  0.067126587    -1.847328   0.91259718   507524 
  169000    1.0025144   -1.8468952   -1.8468952  -0.93475493  0.065568086   -1.8468952   0.91214026   507524 
  170000    1.0036091   -1.8480676   -1.8480676  -0.93493127  0.069185344   -1.8480676   0.91313631   507524 
  171000    1.0027954   -1.8466891   -1.8466891  -0.93429322  0.075224998   -1.8466891   0.91239592   507524 
  172000   0.99989301   -1.8445934   -1.8445934  -0.93483818   0.07027729   -1.8445934   0.90975519   507524 
  173000    1.0016348   -1.8459379   -1.8459379  -0.93459786  0.062021646   -1.8459379   0.91134001   507524 
  174000    1.0006305   -1.8458787   -1.8458787  -0.93545249  0.069957084   -1.8458787   0.91042625   507524 
  175000    1.0011595   -1.8451986   -1.8451986  -0.93429112  0.066735454   -1.8451986   0.91090752   507524 
  176000    1.0011793    -1.845268    -1.845268  -0.93434244  0.069113213    -1.845268   0.91092557   507524 
  177000    1.0044392   -1.8474441   -1.8474441  -0.93355255  0.063431324   -1.8474441   0.91389156   507524 
  178000    1.0020788   -1.8451397   -1.8451397  -0.93339576  0.072811368   -1.8451397   0.91174391   507524 
  179000    1.0016796   -1.8452203   -1.8452203  -0.93383956  0.072210328   -1.8452203    0.9113807   507524 
  180000    1.0017198   -1.8453792   -1.8453792  -0.93396187  0.068353362   -1.8453792    0.9114173   507524 
  181000   0.99973802   -1.8433832   -1.8433832  -0.93376904  0.063137742   -1.8433832   0.90961417   507524 
  182000    1.0037559   -1.8464628   -1.8464628   -0.9331929  0.069652655   -1.8464628   0.91326988   507524 
  183000    1.0012163   -1.8449204   -1.8449204  -0.93396124  0.075773747   -1.8449204   0.91095915   507524 
  184000    1.0027675   -1.8465316   -1.8465316  -0.93416103  0.068813688   -1.8465316   0.91237052   507524 
  185000    1.0023157   -1.8460294   -1.8460294  -0.93406991  0.062285783   -1.8460294   0.91195947   507524 
  186000    1.0005592   -1.8447486   -1.8447486  -0.93438732  0.068210681   -1.8447486    0.9103613   507524 
  187000    1.0018792   -1.8453539   -1.8453539  -0.93379158  0.065327159   -1.8453539   0.91156232   507524 
  188000     1.000913   -1.8445901   -1.8445901   -0.9339069    0.0724346   -1.8445901   0.91068321   507524 
  189000    1.0026605   -1.8453193   -1.8453193  -0.93304611  0.065901517   -1.8453193   0.91227316   507524 
  190000    1.0057965   -1.8472382   -1.8472382  -0.93211169   0.06688944   -1.8472382   0.91512648   507524 
  191000    1.0046076   -1.8471664   -1.8471664  -0.93312166  0.071774083   -1.8471664   0.91404476   507524 
  192000     1.002951   -1.8459478   -1.8459478  -0.93341028  0.076346311   -1.8459478   0.91253756   507524 
  193000    1.0024209   -1.8458078   -1.8458078  -0.93375265  0.069574623   -1.8458078   0.91205518   507524 
  194000    1.0037707   -1.8471277   -1.8471277  -0.93384437  0.066588423   -1.8471277   0.91328333   507524 
  195000    1.0048233   -1.8477409   -1.8477409  -0.93349986  0.061737249   -1.8477409   0.91424106   507524 
  196000     1.002515   -1.8467731   -1.8467731  -0.93463229    0.0723088   -1.8467731   0.91214078   507524 
  197000    1.0039404   -1.8479607   -1.8479607  -0.93452299  0.066303314   -1.8479607   0.91343774   507524 
  198000     1.000697   -1.8451001   -1.8451001  -0.93461341  0.071134551   -1.8451001   0.91048671   507524 
  199000   0.99985516   -1.8437639   -1.8437639  -0.93404317  0.071637807   -1.8437639   0.90972075   507524 
  200000    1.0027791    -1.845898    -1.845898  -0.93351689  0.064008882    -1.845898   0.91238114   507524 
  201000      1.00187   -1.8459528   -1.8459528  -0.93439878  0.067005831   -1.8459528     0.911554   507524 
  202000    1.0021932    -1.844893    -1.844893  -0.93304495  0.067129767    -1.844893   0.91184803   507524 
  203000    1.0000617   -1.8433558   -1.8433558   -0.9334472  0.063195067   -1.8433558   0.90990864   507524 
  204000    1.0020116   -1.8451138   -1.8451138  -0.93343095  0.061110661   -1.8451138   0.91168284   507524 
  205000    1.0025315   -1.8458989   -1.8458989  -0.93374304  0.065017357   -1.8458989   0.91215586   507524 
  206000    1.0033924   -1.8468054   -1.8468054  -0.93386627  0.062156216   -1.8468054    0.9129391   507524 
  207000    1.0031164   -1.8463901   -1.8463901  -0.93370213  0.072734356   -1.8463901   0.91268799   507524 
  208000    1.0021204   -1.8461675   -1.8461675  -0.93438572  0.073317045   -1.8461675   0.91178182   507524 
  209000    1.0018872   -1.8449384   -1.8449384  -0.93336873  0.070423144   -1.8449384   0.91156964   507524 
  210000    1.0032341   -1.8465619   -1.8465619  -0.93376674  0.066852768   -1.8465619   0.91279512   507524 
  211000    1.0023698   -1.8467475   -1.8467475  -0.93473882  0.066514886   -1.8467475    0.9120087   507524 
  212000    1.0019833   -1.8458181   -1.8458181  -0.93416098  0.064396608   -1.8458181   0.91165708   507524 
  213000    1.0023002    -1.845588    -1.845588   -0.9336426  0.067956943    -1.845588   0.91194536   507524 
  214000    1.0016826   -1.8448613   -1.8448613  -0.93347781  0.066707056   -1.8448613   0.91138349   507524 
  215000     1.001921   -1.8452736   -1.8452736  -0.93367328  0.064418515   -1.8452736   0.91160037   507524 
  216000     1.000648   -1.8443988   -1.8443988  -0.93395666  0.070848506   -1.8443988   0.91044213   507524 
  217000    1.0025264   -1.8463987   -1.8463987  -0.93424751   0.06644024   -1.8463987   0.91215118   507524 
  218000    1.0003452    -1.843873    -1.843873  -0.93370641  0.063596792    -1.843873    0.9101666   507524 
  219000    1.0012683   -1.8447253   -1.8447253  -0.93371873  0.066413658   -1.8447253   0.91100653   507524 
  220000    1.0009131    -1.844155    -1.844155  -0.93347161  0.070604719    -1.844155   0.91068336   507524 
  221000    1.0029285   -1.8450901   -1.8450901  -0.93257308  0.074701144   -1.8450901   0.91251705   507524 
  222000    1.0022098   -1.8452176   -1.8452176  -0.93335442  0.068134268   -1.8452176   0.91186315   507524 
  223000    1.0019853   -1.8451242   -1.8451242  -0.93346534  0.064670004   -1.8451242   0.91165889   507524 
  224000    1.0009618   -1.8451089   -1.8451089  -0.93438126  0.066769985   -1.8451089   0.91072766   507524 
  225000     1.001119   -1.8449327   -1.8449327  -0.93406198  0.068452918   -1.8449327   0.91087068   507524 
  226000    1.0024226    -1.846319    -1.846319  -0.93426225  0.065679017    -1.846319   0.91205673   507524 
  227000   0.99978826   -1.8433969   -1.8433969    -0.933737    0.0706205   -1.8433969   0.90965989   507524 
  228000    1.0014431   -1.8449723   -1.8449723  -0.93380676  0.070383896   -1.8449723   0.91116557   507524 
  229000    1.0017706   -1.8450554   -1.8450554  -0.93359181  0.071305668   -1.8450554   0.91146355   507524 
  230000    1.0012241   -1.8443102   -1.8443102  -0.93334388  0.065816233   -1.8443102   0.91096629   507524 
  231000     1.002723    -1.845034    -1.845034  -0.93270391  0.067095115    -1.845034   0.91233006   507524 
  232000     1.002234   -1.8443917   -1.8443917  -0.93250653  0.074239908   -1.8443917   0.91188515   507524 
  233000    1.0019531    -1.843887    -1.843887  -0.93225741  0.071912351    -1.843887   0.91162955   507524 
  234000    1.0021156   -1.8445152   -1.8445152  -0.93273787  0.066303129   -1.8445152   0.91177738   507524 
  235000    1.0024006   -1.8442879   -1.8442879  -0.93225119  0.070533197   -1.8442879   0.91203674   507524 
  236000    1.0036223   -1.8451924   -1.8451924  -0.93204411  0.064932253   -1.8451924    0.9131483   507524 
  237000    1.0040884   -1.8462171   -1.8462171  -0.93264464  0.068422614   -1.8462171   0.91357241   507524 
  238000    1.0008952   -1.8437345   -1.8437345  -0.93306751  0.069299249   -1.8437345   0.91066703   507524 
  239000    1.0028644   -1.8449931   -1.8449931   -0.9325343  0.064480544   -1.8449931   0.91245876   507524 
  240000    1.0041615   -1.8462319   -1.8462319  -0.93259299  0.071906318   -1.8462319   0.91363891   507524 
  241000   0.99881176   -1.8414734   -1.8414734  -0.93270197   0.07152364   -1.8414734   0.90877141   507524 
  242000    1.0021872    -1.844748    -1.844748  -0.93290544  0.067181391    -1.844748   0.91184261   507524 
  243000    1.0020807   -1.8451126   -1.8451126  -0.93336698  0.064964462   -1.8451126   0.91174565   507524 
  244000    1.0020206   -1.8450669   -1.8450669  -0.93337583  0.066066416   -1.8450669   0.91169102   507524 
  245000    1.0024737    -1.845642    -1.845642  -0.93353875  0.071817992    -1.845642   0.91210328   507524 
  246000    1.0018708   -1.8448249   -1.8448249  -0.93327023  0.068832504   -1.8448249   0.91155469   507524 
  247000     1.003447   -1.8466109   -1.8466109  -0.93362209  0.075382525   -1.8466109   0.91298881   507524 
  248000    1.0044288   -1.8459034   -1.8459034  -0.93202134  0.072480851   -1.8459034   0.91388206   507524 
  249000    1.0050098   -1.8470316   -1.8470316  -0.93262083  0.070979136   -1.8470316   0.91441073   507524 
  250000    1.0037247    -1.845841    -1.845841  -0.93259945  0.072055533    -1.845841   0.91324151   507524 
  251000    1.0031256   -1.8447311   -1.8447311  -0.93203474  0.064349934   -1.8447311   0.91269635   507524 
  252000    1.0036194    -1.844925    -1.844925  -0.93177935  0.068203751    -1.844925   0.91314569   507524 
  253000     1.002293   -1.8447208   -1.8447208  -0.93278203  0.070000693   -1.8447208   0.91193881   507524 
  254000    1.0048122   -1.8475549   -1.8475549  -0.93332404   0.06619609   -1.8475549   0.91423091   507524 
  255000   0.99879309   -1.8418627   -1.8418627  -0.93310827  0.075063904   -1.8418627   0.90875443   507524 
  256000   0.99987603   -1.8431874   -1.8431874  -0.93344769   0.06463288   -1.8431874   0.90973974   507524 
  257000    1.0021043   -1.8445428   -1.8445428  -0.93277564  0.069807244   -1.8445428   0.91176715   507524 
  258000    1.0026195   -1.8451425   -1.8451425  -0.93290664  0.068141789   -1.8451425   0.91223589   507524 
  259000    1.0026412    -1.845165    -1.845165  -0.93290938   0.06740764    -1.845165   0.91225565   507524 
  260000    1.0022221   -1.8448212   -1.8448212  -0.93294684  0.061946403   -1.8448212   0.91187431   507524 
  261000    1.0009657   -1.8440458   -1.8440458  -0.93331462  0.068539143   -1.8440458   0.91073115   507524 
  262000    1.0022777   -1.8446759   -1.8446759  -0.93275091  0.066581591   -1.8446759   0.91192495   507524 
  263000    1.0017771   -1.8441418   -1.8441418  -0.93267233   0.05997133   -1.8441418   0.91146945   507524 
  264000    1.0001857   -1.8427596   -1.8427596  -0.93273812  0.062880189   -1.8427596   0.91002147   507524 
  265000    1.0019014   -1.8441731   -1.8441731  -0.93259055  0.061074795   -1.8441731   0.91158256   507524 
  266000    1.0038086   -1.8440588   -1.8440588  -0.93074103  0.065845414   -1.8440588    0.9133178   507524 
  267000    1.0032422   -1.8438662   -1.8438662   -0.9310638  0.071142631   -1.8438662   0.91280243   507524 
  268000    1.0032638   -1.8435896   -1.8435896  -0.93076746  0.070364001   -1.8435896   0.91282214   507524 
  269000    1.0042602   -1.8448317   -1.8448317  -0.93110298  0.067306428   -1.8448317   0.91372867   507524 
  270000    1.0023133   -1.8429989   -1.8429989   -0.9310416  0.070230226   -1.8429989   0.91195729   507524 
  271000    1.0034473   -1.8431305   -1.8431305  -0.93014143  0.068380098   -1.8431305   0.91298904   507524 
  272000     1.002913   -1.8423863   -1.8423863  -0.92988332  0.072482893   -1.8423863   0.91250298   507524 
  273000    1.0023795   -1.8417994   -1.8417994  -0.92978188  0.068331104   -1.8417994   0.91201754   507524 
  274000      1.00314   -1.8430531   -1.8430531  -0.93034354  0.064667859   -1.8430531   0.91270952   507524 
  275000    1.0036956   -1.8423648   -1.8423648  -0.92914979  0.072603907   -1.8423648   0.91321501   507524 
  276000    1.0030934   -1.8415892   -1.8415892  -0.92892212  0.074410978   -1.8415892   0.91266709   507524 
  277000    1.0051764   -1.8439766   -1.8439766  -0.92941433  0.061201598   -1.8439766   0.91456232   507524 
  278000    1.0032456   -1.8432656   -1.8432656  -0.93046001  0.069290102   -1.8432656   0.91280556   507524 
  279000    1.0032077   -1.8433352   -1.8433352  -0.93056409  0.066437326   -1.8433352    0.9127711   507524 
  280000    1.0018303   -1.8426237   -1.8426237  -0.93110589  0.074781009   -1.8426237   0.91151783   507524 
  281000    1.0033962   -1.8434236   -1.8434236  -0.93048098   0.06678196   -1.8434236   0.91294258   507524 
  282000    1.0023517   -1.8424843   -1.8424843  -0.93049197  0.073960298   -1.8424843   0.91199228   507524 
  283000    1.0023729   -1.8435222   -1.8435222  -0.93151067  0.060796328   -1.8435222   0.91201154   507524 
  284000    1.0003838   -1.8419006   -1.8419006  -0.93169886  0.068230149   -1.8419006   0.91020178   507524 
  285000    1.0012993   -1.8431642   -1.8431642  -0.93212946   0.06963381   -1.8431642    0.9110347   507524 
  286000    1.0020107   -1.8436084   -1.8436084  -0.93192642   0.07123706   -1.8436084   0.91168198   507524 
  287000    1.0013019   -1.8431025   -1.8431025  -0.93206541  0.067212342   -1.8431025   0.91103706   507524 
  288000    1.0018017   -1.8436988   -1.8436988  -0.93220702  0.059100897   -1.8436988    0.9114918   507524 
  289000    1.0013306   -1.8435329   -1.8435329  -0.93246967    0.0697418   -1.8435329   0.91106323   507524 
  290000    1.0002346   -1.8429674   -1.8429674  -0.93290141  0.065286905   -1.8429674   0.91006602   507524 
  291000    1.0013389   -1.8433998   -1.8433998  -0.93232899  0.069095809   -1.8433998   0.91107077   507524 
  292000    1.0014917   -1.8432815   -1.8432815  -0.93207175  0.066707936   -1.8432815   0.91120979   507524 
  293000    1.0017114   -1.8435588   -1.8435588   -0.9321491  0.064808992   -1.8435588   0.91140967   507524 
  294000    1.0027157   -1.8441973   -1.8441973  -0.93187391  0.068610824   -1.8441973    0.9123234   507524 
  295000    1.0024763   -1.8436496   -1.8436496  -0.93154394  0.068046961   -1.8436496   0.91210561   507524 
  296000     1.000967   -1.8429893   -1.8429893  -0.93225698  0.062358434   -1.8429893   0.91073237   507524 
  297000    1.0015205   -1.8432217   -1.8432217   -0.9319857  0.070207764   -1.8432217   0.91123601   507524 
  298000    1.0039197   -1.8433002   -1.8433002  -0.92988125  0.065717945   -1.8433002   0.91341892   507524 
  299000    1.0025906   -1.8426412   -1.8426412  -0.93043156  0.070626496   -1.8426412   0.91220965   507524 
  300000    1.0045772    -1.844376    -1.844376  -0.93035886  0.071870821    -1.844376   0.91401714   507524 
  301000    1.0018137   -1.8419006   -1.8419006  -0.93039784  0.078626358   -1.8419006   0.91150275   507524 
  302000    1.0029384   -1.8424111   -1.8424111  -0.92988509  0.069187455   -1.8424111   0.91252606   507524 
  303000    1.0013598   -1.8427652   -1.8427652  -0.93167547  0.061074434   -1.8427652   0.91108971   507524 
  304000    1.0023875   -1.8432564   -1.8432564  -0.93123156  0.066549593   -1.8432564   0.91202484   507524 
  305000    1.0016193   -1.8426766   -1.8426766  -0.93135074  0.066471863   -1.8426766   0.91132584   507524 
  306000    1.0012861    -1.841561    -1.841561  -0.93053836  0.067987551    -1.841561   0.91102267   507524 
  307000    1.0029803   -1.8435105   -1.8435105  -0.93094632  0.065508959   -1.8435105   0.91256418   507524 
  308000    1.0033891   -1.8442948   -1.8442948  -0.93135868   0.06991483   -1.8442948   0.91293615   507524 
  309000    1.0041218   -1.8434408   -1.8434408    -0.929838  0.068825989   -1.8434408   0.91360275   507524 
  310000    1.0036219   -1.8429944   -1.8429944  -0.92984647  0.067060624   -1.8429944   0.91314795   507524 
  311000    1.0039119   -1.8440921   -1.8440921  -0.93068034  0.063008364   -1.8440921   0.91341177   507524 
  312000    1.0018548   -1.8426089   -1.8426089  -0.93106874  0.076592773   -1.8426089   0.91154012   507524 
  313000    1.0030733   -1.8424511   -1.8424511  -0.92980235  0.070740255   -1.8424511   0.91264878   507524 
  314000    1.0024027   -1.8438406   -1.8438406  -0.93180198  0.068480148   -1.8438406   0.91203862   507524 
  315000    1.0015878   -1.8432894   -1.8432894  -0.93199219  0.065097766   -1.8432894   0.91129723   507524 
  316000    1.0017655    -1.843337    -1.843337  -0.93187806  0.073220441    -1.843337   0.91145891   507524 
  317000    1.0018906   -1.8433508   -1.8433508  -0.93177808  0.063003677   -1.8433508   0.91157274   507524 
  318000     1.000822   -1.8427134   -1.8427134  -0.93211291  0.066937128   -1.8427134   0.91060046   507524 
  319000    1.0028681   -1.8437609   -1.8437609   -0.9312988  0.070494432   -1.8437609   0.91246207   507524 
  320000    1.0057627   -1.8459465   -1.8459465  -0.93085071  0.065487773   -1.8459465   0.91509576   507524 
  321000    1.0027794   -1.8432185   -1.8432185  -0.93083706  0.061850283   -1.8432185    0.9123814   507524 
  322000    1.0022151   -1.8417323   -1.8417323  -0.92986437  0.064564664   -1.8417323   0.91186791   507524 
  323000    1.0031533   -1.8421592   -1.8421592  -0.92943764   0.07065464   -1.8421592   0.91272158   507524 
  324000     1.004199   -1.8424988   -1.8424988  -0.92882577  0.070979732   -1.8424988   0.91367298   507524 
  325000    1.0050871   -1.8434419   -1.8434419  -0.92896088   0.06593777   -1.8434419     0.914481   507524 
  326000    1.0032722   -1.8428697   -1.8428697  -0.93003992  0.069721936   -1.8428697   0.91282977   507524 
  327000    1.0032997   -1.8423957   -1.8423957  -0.92954092  0.068901241   -1.8423957   0.91285474   507524 
  328000    1.0016779   -1.8415213   -1.8415213  -0.93014216    0.0610873   -1.8415213   0.91137914   507524 
  329000    1.0025357   -1.8423166   -1.8423166  -0.93015693  0.070156694   -1.8423166   0.91215965   507524 
  330000    1.0037479    -1.843149    -1.843149  -0.92988639  0.071875162    -1.843149   0.91326257   507524 
  331000    1.0043203   -1.8436474   -1.8436474  -0.92986397  0.069300791   -1.8436474   0.91378339   507524 
  332000    1.0019592   -1.8421094   -1.8421094  -0.93047429   0.07582051   -1.8421094   0.91163515   507524 
  333000    1.0019588   -1.8422538   -1.8422538  -0.93061908  0.066612031   -1.8422538   0.91163477   507524 
  334000    1.0029555   -1.8439838   -1.8439838  -0.93144222  0.063137951   -1.8439838   0.91254158   507524 
  335000    1.0016262   -1.8422529   -1.8422529  -0.93092084  0.067579222   -1.8422529    0.9113321   507524 
  336000    1.0026063   -1.8423023   -1.8423023  -0.93007836  0.066953546   -1.8423023    0.9122239   507524 
  337000    1.0037175   -1.8431992   -1.8431992  -0.92996422  0.067332763   -1.8431992   0.91323495   507524 
  338000    1.0007894   -1.8406448   -1.8406448  -0.93007405  0.077889372   -1.8406448   0.91057078   507524 
  339000    1.0029045   -1.8432186   -1.8432186  -0.93072346  0.068470116   -1.8432186   0.91249519   507524 
  340000    1.0031106   -1.8425453   -1.8425453  -0.92986253   0.07430143   -1.8425453   0.91268272   507524 
  341000    1.0045381   -1.8429762   -1.8429762  -0.92899464  0.067496752   -1.8429762   0.91398152   507524 
  342000    1.0030058   -1.8420593   -1.8420593  -0.92947192  0.066018822   -1.8420593   0.91258742   507524 
  343000    1.0035505   -1.8422686   -1.8422686  -0.92918563  0.069376289   -1.8422686   0.91308293   507524 
  344000    1.0028707   -1.8418928   -1.8418928  -0.92942828  0.071978705   -1.8418928   0.91246449   507524 
  345000    1.0022572   -1.8407539   -1.8407539  -0.92884762  0.072669594   -1.8407539   0.91190627   507524 
  346000    1.0020282   -1.8419537   -1.8419537  -0.93025577  0.058971907   -1.8419537   0.91169793   507524 
  347000    1.0012894    -1.842132    -1.842132  -0.93110627  0.064046034    -1.842132   0.91102574   507524 
  348000    1.0030943   -1.8423933   -1.8423933  -0.92972542   0.07130203   -1.8423933   0.91266787   507524 
  349000    1.0031437   -1.8432378   -1.8432378  -0.93052499  0.077499747   -1.8432378   0.91271284   507524 
  350000    1.0043664   -1.8443388   -1.8443388  -0.93051346  0.067660646   -1.8443388   0.91382534   507524 
  351000    1.0055647   -1.8449476   -1.8449476  -0.93003203  0.064774119   -1.8449476   0.91491562   507524 
  352000    1.0039164   -1.8438849   -1.8438849  -0.93046896  0.061628501   -1.8438849   0.91341591   507524 
  353000    1.0046314   -1.8431045   -1.8431045  -0.92903811  0.059367132   -1.8431045    0.9140664   507524 
  354000    1.0052547   -1.8435803   -1.8435803  -0.92894675  0.065506441   -1.8435803   0.91463354   507524 
  355000     1.003509   -1.8420974   -1.8420974  -0.92905221  0.069244122   -1.8420974   0.91304523   507524 
  356000    1.0023129   -1.8416925   -1.8416925  -0.92973564  0.070274762   -1.8416925    0.9119569   507524 
  357000    1.0020475   -1.8411417   -1.8411417  -0.92942626  0.071894449   -1.8411417   0.91171545   507524 
  358000    1.0030923   -1.8433028   -1.8433028   -0.9306367  0.068949541   -1.8433028   0.91266612   507524 
  359000    1.0028741   -1.8431838   -1.8431838  -0.93071629  0.069482813   -1.8431838   0.91246755   507524 
  360000    1.0043343   -1.8438439   -1.8438439   -0.9300478  0.063012118   -1.8438439   0.91379607   507524 
  361000    1.0021652   -1.8427974   -1.8427974  -0.93097485   0.06738978   -1.8427974   0.91182259   507524 
  362000    1.0036428   -1.8438799   -1.8438799  -0.93071299  0.071186511   -1.8438799   0.91316693   507524 
  363000    1.0029167   -1.8432268   -1.8432268  -0.93072049  0.066762334   -1.8432268    0.9125063   507524 
  364000    1.0011907   -1.8416681   -1.8416681  -0.93073218  0.060823997   -1.8416681   0.91093587   507524 
  365000    1.0029811   -1.8430215   -1.8430215  -0.93045658  0.064126848   -1.8430215    0.9125649   507524 
  366000    1.0036284   -1.8433003   -1.8433003  -0.93014652  0.075849259   -1.8433003   0.91315381   507524 
  367000    1.0048636   -1.8440848   -1.8440848  -0.92980716  0.065719346   -1.8440848   0.91427766   507524 
  368000    1.0030917   -1.8432526   -1.8432526  -0.93058708  0.069388215   -1.8432526   0.91266556   507524 
  369000    1.0032106   -1.8433972   -1.8433972  -0.93062349  0.069084384   -1.8433972   0.91277371   507524 
  370000    1.0045948   -1.8439437   -1.8439437  -0.92991056  0.076703484   -1.8439437   0.91403314   507524 
  371000    1.0052872   -1.8433286   -1.8433286  -0.92866547  0.071709632   -1.8433286   0.91466312   507524 
  372000    1.0040093   -1.8428977   -1.8428977  -0.92939725   0.06900687   -1.8428977   0.91350042   507524 
  373000    1.0028822   -1.8416655   -1.8416655  -0.92919058   0.06893036   -1.8416655   0.91247494   507524 
  374000    1.0039686   -1.8429349   -1.8429349  -0.92947156   0.07365687   -1.8429349   0.91346336   507524 
  375000    1.0026249   -1.8416374   -1.8416374  -0.92939666  0.068242005   -1.8416374   0.91224079   507524 
  376000    1.0025623   -1.8413467   -1.8413467   -0.9291628  0.072275238   -1.8413467   0.91218389   507524 
  377000    1.0042146   -1.8439354   -1.8439354   -0.9302482  0.071760828   -1.8439354   0.91368718   507524 
  378000    1.0018524   -1.8413739   -1.8413739  -0.92983595  0.073448538   -1.8413739   0.91153792   507524 
  379000    1.0020424   -1.8425277   -1.8425277  -0.93081692  0.063116947   -1.8425277   0.91171079   507524 
  380000    1.0016886   -1.8426409   -1.8426409  -0.93125198  0.068196236   -1.8426409   0.91138891   507524 
  381000    1.0042689   -1.8443266   -1.8443266  -0.93059004  0.062790001   -1.8443266   0.91373656   507524 
  382000    1.0044005   -1.8441656   -1.8441656  -0.93030922  0.075554679   -1.8441656   0.91385635   507524 
  383000    1.0028472   -1.8436835   -1.8436835  -0.93124046  0.068960263   -1.8436835   0.91244309   507524 
  384000    1.0013706   -1.8425006   -1.8425006  -0.93140106  0.066300216   -1.8425006   0.91109958   507524 
  385000    1.0016988   -1.8421887   -1.8421887  -0.93079054  0.065568871   -1.8421887   0.91139816   507524 
  386000    1.0032362   -1.8431758   -1.8431758  -0.93037877  0.071498173   -1.8431758     0.912797   507524 
  387000    1.0033258   -1.8437942   -1.8437942  -0.93091569  0.065395137   -1.8437942   0.91287851   507524 
  388000    1.0041245   -1.8441101   -1.8441101  -0.93050482  0.070640346   -1.8441101   0.91360525   507524 
  389000    1.0034896    -1.842891    -1.842891  -0.92986341  0.069690343    -1.842891   0.91302757   507524 
  390000    1.0017769   -1.8420754   -1.8420754  -0.93060613  0.063100441   -1.8420754   0.91146928   507524 
  391000    1.0026359   -1.8433938   -1.8433938  -0.93114298  0.072436029   -1.8433938   0.91225086   507524 
  392000    1.0014301   -1.8421967   -1.8421967  -0.93104299  0.067698848   -1.8421967   0.91115373   507524 
  393000    1.0044991   -1.8453247   -1.8453247  -0.93137864   0.05730635   -1.8453247   0.91394609   507524 
  394000     1.001967   -1.8429067   -1.8429067  -0.93126453   0.06226359   -1.8429067   0.91164218   507524 
  395000    1.0008992   -1.8427904   -1.8427904  -0.93211971   0.06844412   -1.8427904   0.91067071   507524 
  396000    1.0008057   -1.8422506   -1.8422506  -0.93166501  0.072393937   -1.8422506   0.91058561   507524 
  397000    1.0026112   -1.8426385   -1.8426385  -0.93041023  0.065756952   -1.8426385    0.9122283   507524 
  398000    1.0016049   -1.8418362   -1.8418362  -0.93052347  0.072359311   -1.8418362   0.91131277   507524 
  399000    1.0035302   -1.8431321   -1.8431321  -0.93006766  0.065655249   -1.8431321   0.91306448   507524 
  400000    1.0036226   -1.8432104   -1.8432104  -0.93006186  0.058400246   -1.8432104   0.91314858   507524 
  401000    1.0038777   -1.8443048   -1.8443048  -0.93092409  0.071508978   -1.8443048   0.91338068   507524 
  402000    1.0041523   -1.8449914   -1.8449914  -0.93136081  0.065222095   -1.8449914   0.91363055   507524 
  403000    1.0020672   -1.8431649   -1.8431649  -0.93143155  0.071349526   -1.8431649   0.91173334   507524 
  404000    1.0038018   -1.8439881   -1.8439881  -0.93067644  0.071311705   -1.8439881   0.91331163   507524 
  405000    1.0027559   -1.8422586   -1.8422586  -0.92989859  0.069462244   -1.8422586      0.91236   507524 
  406000    1.0027696   -1.8429722   -1.8429722   -0.9305997   0.06851299   -1.8429722   0.91237251   507524 
  407000    1.0044333   -1.8440067   -1.8440067  -0.93012049  0.066223619   -1.8440067   0.91388616   507524 
  408000     1.003486   -1.8432268   -1.8432268  -0.93020251  0.063627655   -1.8432268   0.91302426   507524 
  409000    1.0034375   -1.8435971   -1.8435971  -0.93061694  0.070316097   -1.8435971   0.91298018   507524 
  410000    1.0030809   -1.8442559   -1.8442559  -0.93160027  0.070257995   -1.8442559   0.91265566   507524 
  411000    1.0040553   -1.8447867   -1.8447867   -0.9312445  0.069976233   -1.8447867   0.91354223   507524 
  412000    1.0021534   -1.8434957   -1.8434957  -0.93168383  0.066382353   -1.8434957   0.91181184   507524 
  413000    1.0057992   -1.8455256   -1.8455256  -0.93039664  0.063690058   -1.8455256   0.91512899   507524 
  414000      1.00281   -1.8442757   -1.8442757  -0.93186653  0.072238825   -1.8442757   0.91240919   507524 
  415000    1.0032908   -1.8448819   -1.8448819  -0.93203516  0.072136204   -1.8448819   0.91284669   507524 
  416000    1.0032275   -1.8439975   -1.8439975   -0.9312084  0.069952874   -1.8439975   0.91278912   507524 
  417000    1.0043088   -1.8447565   -1.8447565  -0.93098359  0.067340247   -1.8447565   0.91377294   507524 
  418000     1.006285   -1.8461213   -1.8461213  -0.93055029  0.065956061   -1.8461213   0.91557099   507524 
  419000    1.0027896   -1.8432601   -1.8432601  -0.93086942  0.075305378   -1.8432601   0.91239068   507524 
  420000    1.0032593    -1.843881    -1.843881  -0.93106297  0.073758605    -1.843881   0.91281802   507524 
  421000    1.0031379    -1.842644    -1.842644   -0.9299364  0.067746458    -1.842644    0.9127076   507524 
  422000    1.0019352   -1.8422665   -1.8422665  -0.93065315  0.074776127   -1.8422665   0.91161331   507524 
  423000    1.0044251   -1.8429515   -1.8429515  -0.92907276  0.069269095   -1.8429515    0.9138787   507524 
  424000    1.0045618   -1.8440206   -1.8440206  -0.93001748  0.068223741   -1.8440206    0.9140031   507524 
  425000    1.0024201   -1.8415637   -1.8415637  -0.92950925   0.06944151   -1.8415637   0.91205448   507524 
  426000    1.0048753   -1.8435909   -1.8435909  -0.92930255  0.063328202   -1.8435909   0.91428837   507524 
  427000    1.0027141   -1.8423773   -1.8423773  -0.93005538  0.062036469   -1.8423773   0.91232197   507524 
  428000    1.0026762   -1.8430214   -1.8430214  -0.93073392  0.061802981   -1.8430214   0.91228753   507524 
  429000    1.0042756   -1.8441427   -1.8441427  -0.93039998  0.072853493   -1.8441427   0.91374275   507524 
  430000    1.0038357   -1.8439167   -1.8439167  -0.93057424  0.072357644   -1.8439167    0.9133425   507524 
  431000    1.0012696   -1.8421761   -1.8421761  -0.93116844  0.068669966   -1.8421761   0.91100766   507524 
  432000    1.0021257   -1.8429068   -1.8429068  -0.93112019  0.065824879   -1.8429068    0.9117866   507524 
  433000     1.003824   -1.8446927   -1.8446927  -0.93136094  0.065926684   -1.8446927   0.91333177   507524 
  434000    1.0017528   -1.8425146   -1.8425146  -0.93106731  0.064762899   -1.8425146   0.91144731   507524 
  435000    1.0019134   -1.8432367   -1.8432367  -0.93164331  0.067543417   -1.8432367   0.91159341   507524 
  436000     1.001054   -1.8419181   -1.8419181  -0.93110664   0.07205318   -1.8419181    0.9108115   507524 
  437000    1.0031489   -1.8437911   -1.8437911  -0.93107357  0.065948433   -1.8437911   0.91271756   507524 
  438000    1.0015135   -1.8423187   -1.8423187  -0.93108909  0.063055656   -1.8423187    0.9112296   507524 
  439000    1.0019999   -1.8428936   -1.8428936  -0.93122145  0.065770282   -1.8428936   0.91167216   507524 
  440000     1.001672    -1.843289    -1.843289  -0.93191519  0.065300363    -1.843289   0.91137379   507524 
  441000    1.0036729   -1.8437981   -1.8437981  -0.93060373  0.071800192   -1.8437981   0.91319433   507524 
  442000    1.0031707   -1.8444042   -1.8444042   -0.9316668  0.072169442   -1.8444042   0.91273737   507524 
  443000    1.0034249   -1.8438969   -1.8438969  -0.93092823  0.066714483   -1.8438969   0.91296868   507524 
  444000     1.003433   -1.8443309   -1.8443309  -0.93135478  0.066227812   -1.8443309   0.91297609   507524 
  445000    1.0019127   -1.8436155   -1.8436155   -0.9320226  0.066706736   -1.8436155   0.91159286   507524 
  446000     1.005202   -1.8465847   -1.8465847  -0.93199903  0.069757054   -1.8465847   0.91458564   507524 
  447000    1.0060974   -1.8464455   -1.8464455  -0.93104526   0.06713739   -1.8464455   0.91540028   507524 
  448000    1.0023297   -1.8416784   -1.8416784  -0.92970618  0.068959653   -1.8416784   0.91197222   507524 
  449000    1.0031956   -1.8439543   -1.8439543  -0.93119425  0.080207204   -1.8439543   0.91276007   507524 
  450000    1.0048752   -1.8460101   -1.8460101  -0.93172183  0.066470483   -1.8460101   0.91428826   507524 
  451000    1.0041152   -1.8449496   -1.8449496  -0.93135286  0.063511333   -1.8449496   0.91359676   507524 
  452000    1.0035305   -1.8442552   -1.8442552  -0.93119047  0.072363124   -1.8442552   0.91306474   507524 
  453000    1.0025798   -1.8436578   -1.8436578  -0.93145809  0.067478517   -1.8436578   0.91219975   507524 
  454000    1.0019164   -1.8437581   -1.8437581  -0.93216191   0.06642471   -1.8437581   0.91159618   507524 
  455000    1.0031936   -1.8440468   -1.8440468  -0.93128857  0.065381936   -1.8440468   0.91275821   507524 
  456000    1.0033325   -1.8438935   -1.8438935  -0.93100882  0.072331321   -1.8438935   0.91288466   507524 
  457000    1.0024323   -1.8426856   -1.8426856  -0.93061998  0.069561737   -1.8426856   0.91206558   507524 
  458000    1.0019262   -1.8424653   -1.8424653  -0.93086027  0.068895122   -1.8424653   0.91160505   507524 
  459000    1.0030413   -1.8424859   -1.8424859  -0.92986629  0.067344429   -1.8424859   0.91261965   507524 
  460000    1.0026046   -1.8417358   -1.8417358  -0.92951344  0.071834683   -1.8417358   0.91222233   507524 
  461000    1.0023987   -1.8407952   -1.8407952   -0.9287602  0.069256395   -1.8407952     0.912035   507524 
  462000    1.0034657   -1.8425392   -1.8425392  -0.92953336  0.071831636   -1.8425392   0.91300579   507524 
  463000    1.0031917   -1.8428926   -1.8428926  -0.93013611  0.066754542   -1.8428926   0.91275652   507524 
  464000    1.0027154   -1.8418375   -1.8418375  -0.92951436  0.061439624   -1.8418375   0.91232318   507524 
  465000    1.0047547   -1.8437529   -1.8437529   -0.9295743  0.068310582   -1.8437529   0.91417862   507524 
  466000    1.0038904   -1.8424551   -1.8424551  -0.92906293  0.069901904   -1.8424551    0.9133922   507524 
  467000    1.0039829    -1.841417    -1.841417  -0.92794063  0.069102552    -1.841417   0.91347636   507524 
  468000    1.0039644   -1.8419284   -1.8419284  -0.92846881  0.069498551   -1.8419284   0.91345957   507524 
  469000     1.000693    -1.840176    -1.840176  -0.92969298  0.067280477    -1.840176   0.91048306   507524 
  470000    1.0028699   -1.8412327   -1.8412327  -0.92876896  0.065938261   -1.8412327   0.91246377   507524 
  471000    1.0027159    -1.840322    -1.840322  -0.92799844  0.069139253    -1.840322   0.91232361   507524 
  472000    1.0013547   -1.8394582   -1.8394582  -0.92837309  0.071050483   -1.8394582   0.91108508   507524 
  473000    1.0018319   -1.8395557   -1.8395557  -0.92803635  0.069354473   -1.8395557   0.91151933   507524 
  474000    1.0032633   -1.8409367   -1.8409367  -0.92811496  0.068352864   -1.8409367    0.9128217   507524 
  475000    1.0050193    -1.842741    -1.842741  -0.92832169   0.06352747    -1.842741   0.91441935   507524 
  476000    1.0038194   -1.8414953   -1.8414953  -0.92816775  0.072751391   -1.8414953   0.91332759   507524 
  477000     1.004935   -1.8430775   -1.8430775  -0.92873475  0.070845381   -1.8430775    0.9143427   507524 
  478000    1.0023711   -1.8410636   -1.8410636   -0.9290537  0.075071838   -1.8410636    0.9120099   507524 
  479000    1.0029077   -1.8414091   -1.8414091  -0.92891099  0.064246964   -1.8414091   0.91249809   507524 
  480000    1.0027204    -1.841354    -1.841354   -0.9290263   0.07054056    -1.841354   0.91232766   507524 
  481000    1.0042894   -1.8416715   -1.8416715   -0.9279163  0.074693152   -1.8416715   0.91375525   507524 
  482000    1.0031395   -1.8401474   -1.8401474  -0.92743834   0.07153275   -1.8401474   0.91270904   507524 
  483000    1.0009601    -1.839284    -1.839284  -0.92855792  0.067200965    -1.839284   0.91072613   507524 
  484000    1.0034957   -1.8412826   -1.8412826   -0.9282495  0.067601242   -1.8412826   0.91303309   507524 
  485000    1.0046127   -1.8420393   -1.8420393  -0.92798987  0.068510059   -1.8420393   0.91404938   507524 
  486000    1.0057687     -1.84362     -1.84362  -0.92851882  0.064308142     -1.84362   0.91510122   507524 
  487000    1.0040585    -1.842767    -1.842767  -0.92922185  0.067725731    -1.842767   0.91354517   507524 
  488000    1.0048979   -1.8445947   -1.8445947  -0.93028583  0.077151765   -1.8445947   0.91430892   507524 
  489000    1.0030565   -1.8428533   -1.8428533  -0.93021975  0.068840921   -1.8428533   0.91263351   507524 
  490000    1.0024283   -1.8430119   -1.8430119  -0.93094997  0.063864184   -1.8430119   0.91206193   507524 
  491000    1.0026813   -1.8433469   -1.8433469  -0.93105485  0.065344236   -1.8433469   0.91229208   507524 
  492000    1.0023314    -1.843558    -1.843558  -0.93158427  0.072045703    -1.843558   0.91197373   507524 
  493000    1.0037643    -1.845178    -1.845178  -0.93190048  0.065779104    -1.845178   0.91327754   507524 
  494000    1.0024767   -1.8448497   -1.8448497  -0.93274373   0.07362815   -1.8448497   0.91210593   507524 
  495000    1.0032596    -1.844175    -1.844175  -0.93135666  0.061955056    -1.844175    0.9128183   507524 
  496000    1.0028263   -1.8442391   -1.8442391   -0.9318151  0.061575674   -1.8442391   0.91242401   507524 
  497000    1.0039989   -1.8449323   -1.8449323  -0.93144134  0.066159086   -1.8449323   0.91349097   507524 
  498000    1.0038661    -1.844272    -1.844272  -0.93090188  0.073176508    -1.844272   0.91337015   507524 
  499000    1.0032735   -1.8441976   -1.8441976  -0.93136668  0.070447853   -1.8441976   0.91283091   507524 
  500000    1.0023151   -1.8441287   -1.8441287  -0.93216978  0.068679502   -1.8441287   0.91195893   507524 
  501000     1.003103   -1.8444109   -1.8444109  -0.93173511  0.070082592   -1.8444109   0.91267584   507524 
  502000    1.0034343   -1.8448105   -1.8448105  -0.93183325  0.069072863   -1.8448105   0.91297724   507524 
  503000    1.0039285   -1.8452877   -1.8452877  -0.93186082  0.068423932   -1.8452877    0.9134269   507524 
  504000    1.0029309   -1.8437363   -1.8437363  -0.93121707  0.063475004   -1.8437363   0.91251918   507524 
  505000    1.0063558   -1.8465399   -1.8465399   -0.9309045  0.070298993   -1.8465399   0.91563535   507524 
  506000    1.0065031   -1.8450723   -1.8450723  -0.92930292  0.065988739   -1.8450723   0.91576941   507524 
  507000    1.0044598   -1.8430051   -1.8430051  -0.92909485  0.077775131   -1.8430051   0.91391029   507524 
  508000    1.0056012   -1.8440848   -1.8440848  -0.92913606  0.073471152   -1.8440848   0.91494878   507524 
  509000    1.0064369    -1.844998    -1.844998  -0.92928883  0.065663195    -1.844998   0.91570915   507524 
  510000    1.0036461    -1.843673    -1.843673  -0.93050297  0.068764838    -1.843673      0.91317   507524 
  511000    1.0052489   -1.8448453   -1.8448453  -0.93021704  0.071810293   -1.8448453   0.91462828   507524 
  512000    1.0035618   -1.8440204   -1.8440204  -0.93092714  0.071294812   -1.8440204   0.91309324   507524 
  513000    1.0055005   -1.8450712   -1.8450712  -0.93021406  0.060610704   -1.8450712   0.91485716   507524 
  514000    1.0037024   -1.8430875   -1.8430875  -0.92986639  0.078004759   -1.8430875   0.91322115   507524 
  515000    1.0059344    -1.844964    -1.844964    -0.929712   0.06685644    -1.844964   0.91525199   507524 
  516000    1.0046346   -1.8434776   -1.8434776  -0.92940828  0.069836633   -1.8434776   0.91406935   507524 
  517000    1.0048282   -1.8447894   -1.8447894   -0.9305439   0.06788416   -1.8447894   0.91424545   507524 
  518000    1.0035327   -1.8433797   -1.8433797  -0.93031288  0.067139049   -1.8433797   0.91306682   507524 
  519000    1.0025475   -1.8428124   -1.8428124  -0.93064205  0.067481772   -1.8428124   0.91217038   507524 
  520000     1.001828   -1.8421802   -1.8421802  -0.93066441  0.070186315   -1.8421802   0.91151576   507524 
  521000    1.0017507   -1.8418787   -1.8418787   -0.9304333  0.070460217   -1.8418787   0.91144541   507524 
  522000    1.0041537   -1.8439016   -1.8439016  -0.93026978  0.068060438   -1.8439016   0.91363181   507524 
  523000    1.0037386    -1.841824    -1.841824  -0.92856981  0.070506227    -1.841824   0.91325415   507524 
  524000    1.0029494   -1.8412715   -1.8412715   -0.9287355  0.067878341   -1.8412715   0.91253604   507524 
  525000    1.0041156   -1.8422596   -1.8422596  -0.92866252  0.063890754   -1.8422596   0.91359711   507524 
  526000    1.0031314   -1.8406366   -1.8406366  -0.92793496  0.066902891   -1.8406366   0.91270161   507524 
  527000    1.0034144   -1.8408468   -1.8408468  -0.92788769  0.070260304   -1.8408468   0.91295915   507524 
  528000    1.0029515   -1.8415864   -1.8415864  -0.92904849  0.068596966   -1.8415864   0.91253794   507524 
  529000    1.0030357   -1.8415447   -1.8415447  -0.92893021  0.064357915   -1.8415447   0.91261454   507524 
  530000    1.0012948   -1.8406445   -1.8406445  -0.92961392  0.064178908   -1.8406445   0.91103057   507524 
  531000    1.0019443   -1.8402135   -1.8402135  -0.92859187  0.060841311   -1.8402135    0.9116216   507524 
  532000    1.0042442   -1.8425507   -1.8425507  -0.92883652  0.059670443   -1.8425507   0.91371413   507524 
  533000    1.0039152   -1.8424737   -1.8424737  -0.92905892  0.068255946   -1.8424737   0.91341481   507524 
  534000    1.0040598   -1.8422694   -1.8422694  -0.92872296  0.067524583   -1.8422694    0.9135464   507524 
  535000    1.0028875   -1.8414825   -1.8414825   -0.9290027  0.075023425   -1.8414825   0.91247977   507524 
  536000    1.0030448   -1.8421836   -1.8421836  -0.92956073  0.067930984   -1.8421836   0.91262289   507524 
  537000     1.004957    -1.843404    -1.843404  -0.92904129  0.068032056    -1.843404    0.9143627   507524 
  538000    1.0031188   -1.8413713   -1.8413713  -0.92868111  0.067998353   -1.8413713   0.91269019   507524 
  539000    1.0035516   -1.8415499   -1.8415499  -0.92846586  0.067081558   -1.8415499   0.91308401   507524 
  540000    1.0034097   -1.8407561   -1.8407561  -0.92780126  0.073258475   -1.8407561   0.91295485   507524 
  541000    1.0052972   -1.8421997   -1.8421997  -0.92752752  0.076599346   -1.8421997   0.91467216   507524 
  542000    1.0037203   -1.8409905   -1.8409905  -0.92775303  0.064624505   -1.8409905   0.91323747   507524 
  543000    1.0044288   -1.8420804   -1.8420804  -0.92819825  0.072554768   -1.8420804    0.9138821   507524 
  544000     1.004922   -1.8427121   -1.8427121  -0.92838121   0.07342534   -1.8427121   0.91433087   507524 
  545000    1.0051899   -1.8425258   -1.8425258  -0.92795118  0.072618377   -1.8425258    0.9145746   507524 
  546000    1.0061779   -1.8441643   -1.8441643  -0.92869077  0.069209622   -1.8441643   0.91547353   507524 
  547000    1.0056309   -1.8446889   -1.8446889  -0.92971305  0.062115907   -1.8446889   0.91497582   507524 
  548000    1.0037154   -1.8426404   -1.8426404  -0.92940741  0.066496186   -1.8426404   0.91323298   507524 
  549000    1.0031162   -1.8429156   -1.8429156  -0.93022779  0.069950932   -1.8429156   0.91268784   507524 
  550000    1.0046438   -1.8438293   -1.8438293  -0.92975165  0.069258002   -1.8438293   0.91407768   507524 
  551000    1.0042717   -1.8424387   -1.8424387  -0.92869953  0.067172923   -1.8424387   0.91373917   507524 
  552000    1.0024899   -1.8412378   -1.8412378  -0.92911977  0.073475879   -1.8412378   0.91211801   507524 
  553000    1.0033954   -1.8425781   -1.8425781  -0.92963626  0.071917815   -1.8425781   0.91294187   507524 
  554000    1.0028537   -1.8427329   -1.8427329  -0.93028393  0.071918124   -1.8427329   0.91244899   507524 
  555000    1.0021679   -1.8419042   -1.8419042  -0.93007919  0.066782101   -1.8419042   0.91182497   507524 
  556000    1.0041516    -1.843796    -1.843796   -0.9301661  0.071724134    -1.843796   0.91362991   507524 
  557000    1.0035625   -1.8438057   -1.8438057  -0.93071188   0.06696333   -1.8438057   0.91309384   507524 
  558000    1.0052266   -1.8448714   -1.8448714  -0.93026336  0.076695749   -1.8448714     0.914608   507524 
  559000    1.0050098   -1.8444194   -1.8444194  -0.93000869  0.071663756   -1.8444194   0.91441071   507524 
  560000    1.0051448    -1.844224    -1.844224  -0.92969045  0.071055691    -1.844224   0.91453359   507524 
  561000    1.0041717   -1.8429159   -1.8429159  -0.92926769  0.063777505   -1.8429159    0.9136482   507524 
  562000     1.003341   -1.8421934   -1.8421934  -0.92930104  0.071249656   -1.8421934   0.91289236   507524 
  563000     1.004556   -1.8434404   -1.8434404  -0.92944258  0.071512774   -1.8434404   0.91399785   507524 
  564000    1.0038576   -1.8423389   -1.8423389  -0.92897653  0.067117604   -1.8423389   0.91336239   507524 
  565000    1.0039768   -1.8436474   -1.8436474  -0.93017652  0.069329493   -1.8436474   0.91347084   507524 
  566000    1.0028191   -1.8420896   -1.8420896  -0.92967212  0.070167582   -1.8420896   0.91241748   507524 
  567000    1.0039425   -1.8434905   -1.8434905  -0.93005095  0.068669235   -1.8434905   0.91343959   507524 
  568000    1.0037989   -1.8425684   -1.8425684  -0.92925939  0.066153913   -1.8425684   0.91330898   507524 
  569000     1.002798   -1.8416607   -1.8416607  -0.92926241  0.069415661   -1.8416607   0.91239831   507524 
  570000    1.0044866   -1.8428429   -1.8428429  -0.92890829  0.072358761   -1.8428429   0.91393465   507524 
  571000    1.0045718   -1.8432255   -1.8432255  -0.92921329  0.070903433   -1.8432255   0.91401217   507524 
  572000     1.003077   -1.8421662   -1.8421662  -0.92951407  0.070557979   -1.8421662   0.91265217   507524 
  573000    1.0014228   -1.8417942   -1.8417942   -0.9306472  0.062603057   -1.8417942   0.91114704   507524 
  574000    1.0044165    -1.843999    -1.843999  -0.93012811  0.068806833    -1.843999    0.9138709   507524 
  575000    1.0025068   -1.8428855   -1.8428855  -0.93075216  0.063531217   -1.8428855   0.91213334   507524 
  576000     1.001438   -1.8424353   -1.8424353  -0.93127436  0.072818517   -1.8424353   0.91116092   507524 
  577000    1.0021667   -1.8435055   -1.8435055  -0.93168161  0.060469339   -1.8435055   0.91182393   507524 
  578000    1.0029546   -1.8438967   -1.8438967  -0.93135586  0.065824625   -1.8438967   0.91254082   507524 
  579000    1.0034875    -1.843308    -1.843308  -0.93028241  0.073704296    -1.843308   0.91302562   507524 
  580000    1.0030606   -1.8428486   -1.8428486  -0.93021128  0.068158706   -1.8428486   0.91263728   507524 
  581000    1.0043249   -1.8423716   -1.8423716  -0.92858401  0.063781271   -1.8423716   0.91378759   507524 
  582000     1.004048   -1.8428193   -1.8428193  -0.92928373   0.06705814   -1.8428193   0.91353561   507524 
  583000    1.0069774   -1.8457945   -1.8457945  -0.92959353  0.068178178   -1.8457945   0.91620095   507524 
  584000    1.0052769   -1.8446127   -1.8446127  -0.92995891  0.065035666   -1.8446127   0.91465375   507524 
  585000    1.0031989   -1.8432521   -1.8432521  -0.93048906  0.072782335   -1.8432521   0.91276308   507524 
  586000    1.0039167   -1.8429563   -1.8429563  -0.92954012  0.070105761   -1.8429563   0.91341619   507524 
  587000    1.0054862   -1.8440496   -1.8440496  -0.92920539  0.075477251   -1.8440496   0.91484421   507524 
  588000    1.0033548       -1.844       -1.844   -0.9310951  0.069559473       -1.844   0.91290492   507524 
  589000    1.0046926   -1.8449795   -1.8449795  -0.93085741  0.071788003   -1.8449795   0.91412207   507524 
  590000    1.0041788   -1.8449772   -1.8449772  -0.93132261   0.06668865   -1.8449772    0.9136546   507524 
  591000    1.0039385   -1.8445698   -1.8445698  -0.93113385  0.062767952   -1.8445698   0.91343598   507524 
  592000    1.0047423   -1.8441693   -1.8441693  -0.93000201  0.069746921   -1.8441693   0.91416732   507524 
  593000    1.0044595   -1.8437728   -1.8437728  -0.92986278  0.075284286   -1.8437728   0.91390998   507524 
  594000     1.005799   -1.8454678   -1.8454678  -0.93033905  0.069766687   -1.8454678   0.91512879   507524 
  595000    1.0045748   -1.8440558   -1.8440558  -0.93004088  0.074721397   -1.8440558   0.91401492   507524 
  596000    1.0060449   -1.8449609   -1.8449609  -0.92960839  0.068660089   -1.8449609   0.91535251   507524 
  597000    1.0038553   -1.8434217   -1.8434217  -0.93006143  0.069601527   -1.8434217   0.91336031   507524 
  598000    1.0051726   -1.8442307   -1.8442307  -0.92967188  0.067321392   -1.8442307    0.9145588   507524 
  599000    1.0072101   -1.8456257   -1.8456257  -0.92921304  0.071712963   -1.8456257   0.91641268   507524 
  600000    1.0069985   -1.8450702   -1.8450702  -0.92885002  0.073152826   -1.8450702   0.91622014   507524 
  601000    1.0075859   -1.8451164   -1.8451164  -0.92836182  0.067583075   -1.8451164   0.91675463   507524 
  602000    1.0066721   -1.8453057   -1.8453057  -0.92938251  0.073500019   -1.8453057   0.91592318   507524 
  603000    1.0067349   -1.8456677   -1.8456677  -0.92968736  0.080137141   -1.8456677   0.91598032   507524 
  604000    1.0052816   -1.8445238   -1.8445238   -0.9298658  0.075182775   -1.8445238   0.91465799   507524 
  605000    1.0054666   -1.8450596   -1.8450596   -0.9302333  0.069022866   -1.8450596    0.9148263   507524 
  606000    1.0061498   -1.8449942   -1.8449942  -0.92954627  0.069135825   -1.8449942   0.91544795   507524 
  607000    1.0047314   -1.8433821   -1.8433821  -0.92922471   0.06989933   -1.8433821   0.91415739   507524 
  608000    1.0047883   -1.8434408   -1.8434408  -0.92923161  0.071804651   -1.8434408   0.91420915   507524 
  609000    1.0049769   -1.8433755   -1.8433755  -0.92899474  0.066438071   -1.8433755   0.91438079   507524 
  610000     1.004881   -1.8436733   -1.8436733   -0.9293798  0.071515008   -1.8436733   0.91429349   507524 
  611000    1.0044254   -1.8429372   -1.8429372  -0.92905814  0.067850614   -1.8429372   0.91387904   507524 
  612000    1.0022756   -1.8414585   -1.8414585  -0.92953554  0.068744833   -1.8414585   0.91192296   507524 
  613000    1.0044917   -1.8437055   -1.8437055  -0.92976612  0.066523481   -1.8437055   0.91393934   507524 
  614000    1.0052698   -1.8433632   -1.8433632   -0.9287159  0.076543812   -1.8433632   0.91464729   507524 
  615000    1.0026391   -1.8409429   -1.8409429  -0.92868922  0.074779126   -1.8409429   0.91225372   507524 
  616000    1.0042878   -1.8426545   -1.8426545  -0.92890071  0.068195082   -1.8426545   0.91375379   507524 
  617000    1.0012161   -1.8411564   -1.8411564  -0.93019747   0.06519356   -1.8411564   0.91095897   507524 
  618000    1.0048557   -1.8441856   -1.8441856  -0.92991509  0.068633672   -1.8441856    0.9142705   507524 
  619000    1.0007172   -1.8404254   -1.8404254   -0.9299203  0.074335807   -1.8404254   0.91050511   507524 
  620000    1.0016986   -1.8409303   -1.8409303  -0.92953229  0.073651147   -1.8409303   0.91139804   507524 
  621000    1.0050375    -1.843741    -1.843741  -0.92930506  0.071316115    -1.843741   0.91443594   507524 
  622000    1.0050183   -1.8444967   -1.8444967  -0.93007832  0.060916366   -1.8444967   0.91441841   507524 
  623000    1.0016822   -1.8407895   -1.8407895  -0.92940641  0.063773354   -1.8407895   0.91138312   507524 
  624000    1.0034039   -1.8415865   -1.8415865  -0.92863697  0.064091586   -1.8415865   0.91294956   507524 
  625000    1.0041017   -1.8420425   -1.8420425  -0.92845809  0.070884515   -1.8420425   0.91358446   507524 
  626000    1.0037107   -1.8412849   -1.8412849  -0.92805613   0.07310065   -1.8412849   0.91322874   507524 
  627000    1.0029821   -1.8402285   -1.8402285  -0.92766277  0.067492906   -1.8402285   0.91256577   507524 
  628000    1.0030219   -1.8408851   -1.8408851  -0.92828305  0.068282803   -1.8408851     0.912602   507524 
  629000    1.0060703   -1.8427211   -1.8427211  -0.92734548  0.075361417   -1.8427211   0.91537565   507524 
  630000    1.0073908   -1.8445826   -1.8445826  -0.92800551  0.065308574   -1.8445826   0.91657711   507524 
  631000    1.0049004   -1.8426743   -1.8426743   -0.9283631  0.062420404   -1.8426743   0.91431121   507524 
  632000     1.004057   -1.8426013   -1.8426013  -0.92905752   0.07204672   -1.8426013   0.91354379   507524 
  633000    1.0046112    -1.843268    -1.843268  -0.92921997  0.068584573    -1.843268   0.91404808   507524 
  634000    1.0053074    -1.844298    -1.844298  -0.92961655   0.06581612    -1.844298    0.9146815   507524 
  635000    1.0033674   -1.8423162   -1.8423162  -0.92939973   0.06912213   -1.8423162   0.91291642   507524 
  636000    1.0031525   -1.8417273   -1.8417273  -0.92900647  0.068369251   -1.8417273   0.91272081   507524 
  637000    1.0049953   -1.8430006   -1.8430006  -0.92860307  0.065949708   -1.8430006   0.91439752   507524 
  638000    1.0071446   -1.8441641   -1.8441641  -0.92781104  0.070676829   -1.8441641   0.91635305   507524 
  639000    1.0043422   -1.8419695   -1.8419695  -0.92816622  0.073667065   -1.8419695    0.9138033   507524 
  640000     1.004492   -1.8414166   -1.8414166  -0.92747709  0.075304677   -1.8414166   0.91393956   507524 
  641000    1.0052304   -1.8432577   -1.8432577   -0.9286462  0.071432408   -1.8432577   0.91461147   507524 
  642000    1.0043498    -1.840702    -1.840702   -0.9268918  0.070129805    -1.840702    0.9138102   507524 
  643000    1.0052362    -1.842278    -1.842278  -0.92766132  0.072233406    -1.842278   0.91461672   507524 
  644000    1.0069174   -1.8429753   -1.8429753  -0.92682888  0.072861535   -1.8429753   0.91614637   507524 
[...]
 7631000     1.006753   -1.8328456   -1.8328456  -0.91684883   0.06990973   -1.8328456   0.91599679   507524 
 7632000    1.0074612   -1.8328046   -1.8328046  -0.91616347  0.065358675   -1.8328046   0.91664116   507524 
 7633000    1.0077149   -1.8330709   -1.8330709  -0.91619893  0.068926985   -1.8330709   0.91687197   507524 
 7634000    1.0079448   -1.8315186   -1.8315186  -0.91443743  0.070327005   -1.8315186   0.91708114   507524 
 7635000    1.0086188   -1.8327486   -1.8327486  -0.91505423  0.071627357   -1.8327486   0.91769441   507524 
 7636000    1.0078976   -1.8317956   -1.8317956   -0.9147574  0.070867137   -1.8317956   0.91703823   507524 
 7637000    1.0098171   -1.8336053   -1.8336053  -0.91482063  0.071454207   -1.8336053   0.91878463   507524 
 7638000    1.0094018   -1.8323907   -1.8323907  -0.91398394  0.073236341   -1.8323907   0.91840676   507524 
 7639000    1.0088522   -1.8323385   -1.8323385  -0.91443178  0.067664924   -1.8323385   0.91790674   507524 
 7640000    1.0092629   -1.8313961   -1.8313961  -0.91311564  0.075353823   -1.8313961   0.91828046   507524 
 7641000    1.0102058   -1.8313964   -1.8313964  -0.91225813  0.080086414   -1.8313964   0.91913827   507524 
 7642000    1.0114606   -1.8326181   -1.8326181  -0.91233809  0.075049285   -1.8326181   0.92027996   507524 
 7643000    1.0100545    -1.831198    -1.831198  -0.91219734  0.070097472    -1.831198   0.91900069   507524 
 7644000    1.0118187   -1.8341306   -1.8341306  -0.91352478  0.061970432   -1.8341306   0.92060586   507524 
 7645000    1.0101815    -1.832497    -1.832497   -0.9133808  0.081459362    -1.832497   0.91911621   507524 
 7646000    1.0106101   -1.8337804   -1.8337804  -0.91427431  0.060927488   -1.8337804   0.91950614   507524 
 7647000    1.0115757   -1.8347669   -1.8347669  -0.91438216  0.074053987   -1.8347669   0.92038475   507524 
 7648000    1.0092936   -1.8336655   -1.8336655  -0.91535719  0.069459604   -1.8336655   0.91830836   507524 
 7649000    1.0102441   -1.8351037   -1.8351037  -0.91593054  0.076149549   -1.8351037   0.91917315   507524 
 7650000    1.0084949   -1.8330259   -1.8330259  -0.91544429  0.070273687   -1.8330259   0.91758164   507524 
 7651000     1.009487   -1.8330803   -1.8330803  -0.91459602   0.07449476   -1.8330803   0.91848433   507524 
 7652000    1.0113115    -1.835117    -1.835117  -0.91497266  0.071597199    -1.835117   0.92014437   507524 
 7653000    1.0107761    -1.834646    -1.834646  -0.91498886  0.071409241    -1.834646   0.91965717   507524 
 7654000    1.0080346   -1.8333889   -1.8333889  -0.91622601  0.078945891   -1.8333889   0.91716285   507524 
 7655000    1.0086337   -1.8340917   -1.8340917  -0.91638375  0.072848616   -1.8340917   0.91770796   507524 
 7656000    1.0105957   -1.8359075   -1.8359075  -0.91641444  0.063692482   -1.8359075   0.91949304   507524 
 7657000    1.0097607    -1.834375    -1.834375  -0.91564164  0.066979931    -1.834375   0.91873337   507524 
 7658000     1.010248   -1.8344145   -1.8344145  -0.91523779   0.06838449   -1.8344145   0.91917669   507524 
 7659000    1.0118563   -1.8346941   -1.8346941  -0.91405407   0.06690671   -1.8346941   0.92064004   507524 
 7660000    1.0111545   -1.8339177   -1.8339177  -0.91391618  0.073076135   -1.8339177   0.92000153   507524 
 7661000    1.0100568   -1.8324445   -1.8324445  -0.91344176  0.072407087   -1.8324445   0.91900271   507524 
 7662000    1.0109411   -1.8327761   -1.8327761  -0.91296875  0.074973867   -1.8327761   0.91980735   507524 
 7663000    1.0126425   -1.8342901   -1.8342901  -0.91293476   0.07362813   -1.8342901   0.92135531   507524 
 7664000    1.0129469   -1.8341253   -1.8341253  -0.91249304   0.07936338   -1.8341253   0.92163229   507524 
 7665000    1.0104758   -1.8325026   -1.8325026  -0.91311866  0.075150792   -1.8325026   0.91938398   507524 
 7666000    1.0083911   -1.8309765   -1.8309765  -0.91348924  0.069241181   -1.8309765   0.91748723   507524 
 7667000    1.0087227   -1.8305445   -1.8305445  -0.91275558  0.073937733   -1.8305445   0.91778894   507524 
 7668000    1.0079707   -1.8309989   -1.8309989  -0.91389427  0.061959964   -1.8309989   0.91710466   507524 
 7669000    1.0084974   -1.8314004   -1.8314004  -0.91381651  0.079231882   -1.8314004   0.91758388   507524 
 7670000    1.0096269   -1.8310469   -1.8310469  -0.91243531   0.06848982   -1.8310469   0.91861162   507524 
 7671000    1.0090288    -1.831262    -1.831262  -0.91319457  0.074956686    -1.831262   0.91806746   507524 
 7672000    1.0100856   -1.8326337   -1.8326337  -0.91360479  0.074169058   -1.8326337   0.91902891   507524 
 7673000    1.0096931   -1.8322626   -1.8322626  -0.91359075  0.071390327   -1.8322626   0.91867182   507524 
 7674000    1.0084633   -1.8321965   -1.8321965  -0.91464361    0.0798968   -1.8321965    0.9175529   507524 
 7675000    1.0106688   -1.8331202   -1.8331202  -0.91356063  0.068270843   -1.8331202    0.9195596   507524 
 7676000    1.0078723   -1.8314981   -1.8314981  -0.91448287  0.063152169   -1.8314981   0.91701521   507524 
 7677000    1.0094445    -1.832779    -1.832779  -0.91433334  0.074823945    -1.832779   0.91844563   507524 
 7678000    1.0095791   -1.8320677   -1.8320677  -0.91349962  0.073467469   -1.8320677   0.91856812   507524 
 7679000    1.0084201   -1.8312837   -1.8312837  -0.91377015  0.066257704   -1.8312837   0.91751358   507524 
 7680000    1.0100941   -1.8332422   -1.8332422  -0.91420549  0.063586385   -1.8332422   0.91903672   507524 
 7681000    1.0080804   -1.8312259   -1.8312259  -0.91402141   0.07587205   -1.8312259    0.9172045   507524 
 7682000    1.0089433   -1.8323712   -1.8323712  -0.91438158   0.07198874   -1.8323712   0.91798964   507524 
 7683000    1.0095854    -1.832653    -1.832653  -0.91407914  0.065633242    -1.832653   0.91857387   507524 
 7684000    1.0099728   -1.8331343   -1.8331343    -0.914208  0.073570259   -1.8331343    0.9189263   507524 
 7685000    1.0088031   -1.8332933   -1.8332933  -0.91543117  0.066267396   -1.8332933    0.9178621   507524 
 7686000    1.0078787   -1.8327958   -1.8327958  -0.91577483  0.072506739   -1.8327958   0.91702098   507524 
 7687000    1.0095726   -1.8350127   -1.8350127  -0.91645045  0.069847032   -1.8350127   0.91856224   507524 
 7688000     1.008783   -1.8345071   -1.8345071  -0.91666329  0.074546138   -1.8345071   0.91784378   507524 
 7689000    1.0071308   -1.8323782   -1.8323782  -0.91603767  0.074040186   -1.8323782   0.91634056   507524 
 7690000    1.0098961   -1.8341702   -1.8341702  -0.91531367  0.067801826   -1.8341702   0.91885657   507524 
 7691000    1.0096051   -1.8347616   -1.8347616  -0.91616986  0.072727108   -1.8347616   0.91859177   507524 
 7692000    1.0089218   -1.8336306   -1.8336306  -0.91566056  0.066282444   -1.8336306   0.91797004   507524 
 7693000    1.0090432   -1.8337806   -1.8337806  -0.91570012  0.074179103   -1.8337806   0.91808051   507524 
 7694000    1.0089969   -1.8342811   -1.8342811  -0.91624269  0.073137985   -1.8342811   0.91803839   507524 
 7695000    1.0089902   -1.8347927   -1.8347927   -0.9167604  0.073018228   -1.8347927   0.91803227   507524 
 7696000    1.0092577   -1.8346214   -1.8346214  -0.91634571  0.073103404   -1.8346214   0.91827568   507524 
 7697000    1.0105794   -1.8365801   -1.8365801  -0.91710183  0.076880715   -1.8365801   0.91947825   507524 
 7698000    1.0080533   -1.8347615   -1.8347615  -0.91758159  0.072528821   -1.8347615   0.91717987   507524 
 7699000    1.0084928   -1.8347567   -1.8347567  -0.91717693  0.071812869   -1.8347567   0.91757978   507524 
 7700000     1.007896   -1.8343537   -1.8343537  -0.91731704  0.071292404   -1.8343537    0.9170367   507524 
 7701000    1.0093696   -1.8352993   -1.8352993  -0.91692184  0.069482771   -1.8352993    0.9183775   507524 
 7702000    1.0100414   -1.8357487   -1.8357487  -0.91675999  0.072074261   -1.8357487   0.91898875   507524 
 7703000    1.0096534     -1.83455     -1.83455  -0.91591429  0.075200991     -1.83455   0.91863573   507524 
 7704000    1.0101167   -1.8350813   -1.8350813  -0.91602414  0.074137135   -1.8350813    0.9190572   507524 
 7705000    1.0110608   -1.8358432   -1.8358432  -0.91592701  0.068994662   -1.8358432    0.9199162   507524 
 7706000    1.0120319     -1.83749     -1.83749  -0.91669025  0.070844015     -1.83749    0.9207998   507524 
 7707000    1.0107675   -1.8366073   -1.8366073  -0.91695788  0.074628267   -1.8366073   0.91964939   507524 
 7708000    1.0105371   -1.8353369   -1.8353369  -0.91589712  0.079870135   -1.8353369   0.91943976   507524 
 7709000    1.0103167   -1.8358385   -1.8358385  -0.91659926  0.073264658   -1.8358385   0.91923925   507524 
 7710000    1.0119606   -1.8365956   -1.8365956  -0.91586074  0.072860115   -1.8365956   0.92073489   507524 
 7711000    1.0096053   -1.8345558   -1.8345558  -0.91596391  0.074808835   -1.8345558   0.91859191   507524 
 7712000    1.0107574   -1.8357494   -1.8357494  -0.91610923  0.080981181   -1.8357494   0.91964016   507524 
 7713000    1.0083855    -1.833341    -1.833341  -0.91585891  0.078760826    -1.833341   0.91748208   507524 
 7714000    1.0091893   -1.8346812   -1.8346812  -0.91646782  0.074726919   -1.8346812   0.91821341   507524 
 7715000    1.0089682   -1.8343175   -1.8343175  -0.91630527  0.072363769   -1.8343175   0.91801225   507524 
 7716000    1.0086485   -1.8346428   -1.8346428  -0.91692143  0.070007231   -1.8346428   0.91772141   507524 
 7717000    1.0083395   -1.8343417   -1.8343417  -0.91690142  0.069190586   -1.8343417   0.91744027   507524 
 7718000    1.0078165   -1.8334889   -1.8334889   -0.9165245  0.068610131   -1.8334889   0.91696436   507524 
 7719000    1.0081237   -1.8342066   -1.8342066  -0.91696264  0.070831327   -1.8342066   0.91724393   507524 
 7720000    1.0064755   -1.8325947   -1.8325947  -0.91685042  0.067902836   -1.8325947   0.91574427   507524 
 7721000     1.007589   -1.8333476   -1.8333476  -0.91659017  0.065119204   -1.8333476   0.91675745   507524 
 7722000    1.0082565   -1.8336112   -1.8336112  -0.91624651  0.068175682   -1.8336112   0.91736473   507524 
 7723000     1.007012   -1.8319973   -1.8319973  -0.91576485  0.071868753   -1.8319973   0.91623245   507524 
 7724000    1.0079645   -1.8327604   -1.8327604  -0.91566136  0.070853192   -1.8327604   0.91709907   507524 
 7725000    1.0106289   -1.8339831   -1.8339831  -0.91445982  0.071873247   -1.8339831   0.91952328   507524 
 7726000    1.0108216   -1.8329863   -1.8329863  -0.91328768  0.071059132   -1.8329863   0.91969861   507524 
 7727000    1.0105631   -1.8329147   -1.8329147  -0.91345128  0.065065551   -1.8329147    0.9194634   507524 
 7728000    1.0096317   -1.8335084   -1.8335084  -0.91489252  0.076111999   -1.8335084   0.91861592   507524 
 7729000    1.0084034    -1.832509    -1.832509  -0.91501063  0.073567692    -1.832509   0.91749839   507524 
 7730000     1.009369   -1.8338503   -1.8338503  -0.91547337  0.074979905   -1.8338503   0.91837694   507524 
 7731000    1.0084535    -1.832362    -1.832362  -0.91481802  0.078717533    -1.832362     0.917544   507524 
 7732000    1.0091941   -1.8332584   -1.8332584  -0.91504052   0.06082945   -1.8332584   0.91821785   507524 
 7733000     1.007817   -1.8319586   -1.8319586  -0.91499377  0.069806772   -1.8319586   0.91696482   507524 
 7734000    1.0087671   -1.8325062   -1.8325062  -0.91467697  0.075039607   -1.8325062   0.91782928   507524 
 7735000    1.0083613   -1.8335035   -1.8335035  -0.91604341  0.073128668   -1.8335035   0.91746004   507524 
 7736000    1.0068854   -1.8317279   -1.8317279  -0.91561064  0.066739529   -1.8317279   0.91611728   507524 
 7737000    1.0088001   -1.8328248   -1.8328248  -0.91496539  0.068529365   -1.8328248   0.91785937   507524 
 7738000    1.0068596   -1.8321678   -1.8321678  -0.91607397  0.069874942   -1.8321678   0.91609379   507524 
 7739000    1.0072557   -1.8331154   -1.8331154  -0.91666124  0.068009706   -1.8331154   0.91645412   507524 
 7740000    1.0067441   -1.8324229   -1.8324229  -0.91643419  0.074955725   -1.8324229    0.9159887   507524 
 7741000        1.008   -1.8334755   -1.8334755  -0.91634414  0.070472666   -1.8334755   0.91713136   507524 
 7742000    1.0080199   -1.8328393   -1.8328393  -0.91568987  0.064975077   -1.8328393   0.91714944   507524 
 7743000    1.0078601   -1.8319075   -1.8319075   -0.9149035  0.072115977   -1.8319075   0.91700403   507524 
 7744000    1.0092746   -1.8335885   -1.8335885  -0.91529745  0.063117859   -1.8335885   0.91829105   507524 
 7745000    1.0071291   -1.8318824   -1.8318824  -0.91554341  0.074101067   -1.8318824   0.91633897   507524 
 7746000    1.0066102   -1.8307216   -1.8307216  -0.91485478   0.06603152   -1.8307216   0.91586687   507524 
 7747000    1.0089394   -1.8323904   -1.8323904  -0.91440434  0.071876707   -1.8323904   0.91798611   507524 
 7748000    1.0079902   -1.8314891   -1.8314891  -0.91436661  0.072634951   -1.8314891   0.91712245   507524 
 7749000      1.00675   -1.8308447   -1.8308447  -0.91485069  0.062280971   -1.8308447   0.91599404   507524 
 7750000    1.0089136   -1.8314473   -1.8314473  -0.91348468  0.064599569   -1.8314473   0.91796263   507524 
 7751000    1.0088836   -1.8314678   -1.8314678  -0.91353252  0.071687536   -1.8314678    0.9179353   507524 
 7752000    1.0080293   -1.8317641   -1.8317641  -0.91460601  0.071158618   -1.8317641   0.91715804   507524 
 7753000    1.0065788   -1.8292091   -1.8292091  -0.91337078  0.069498556   -1.8292091    0.9158383   507524 
 7754000     1.009342    -1.833044    -1.833044  -0.91469165  0.073920856    -1.833044   0.91835236   507524 
 7755000    1.0095503   -1.8337012   -1.8337012  -0.91515924   0.07269895   -1.8337012   0.91854193   507524 
 7756000      1.01075   -1.8353009   -1.8353009  -0.91566748  0.070585726   -1.8353009   0.91963346   507524 
 7757000     1.007073   -1.8322016   -1.8322016  -0.91591363  0.073552537   -1.8322016   0.91628794   507524 
 7758000    1.0075502   -1.8324747   -1.8324747  -0.91575265  0.067987222   -1.8324747   0.91672206   507524 
 7759000    1.0082139   -1.8318765   -1.8318765  -0.91455043  0.067821994   -1.8318765   0.91732602   507524 
 7760000    1.0090986   -1.8325321   -1.8325321   -0.9144012  0.075780425   -1.8325321   0.91813091   507524 
 7761000    1.0098868   -1.8331842   -1.8331842  -0.91433608  0.071021037   -1.8331842   0.91884807   507524 
 7762000    1.0085555   -1.8321202   -1.8321202  -0.91448346  0.069613727   -1.8321202   0.91763677   507524 
 7763000    1.0067862   -1.8304304   -1.8304304  -0.91440335  0.071862814   -1.8304304   0.91602702   507524 
 7764000    1.0088344   -1.8329073   -1.8329073  -0.91501679   0.07015178   -1.8329073   0.91789053   507524 
 7765000    1.0081226     -1.83206     -1.83206  -0.91481714  0.073059713     -1.83206   0.91724289   507524 
 7766000    1.0101529   -1.8343326   -1.8343326  -0.91524236  0.066477617   -1.8343326   0.91909019   507524 
 7767000      1.00992   -1.8344046   -1.8344046  -0.91552629  0.072050223   -1.8344046   0.91887829   507524 
 7768000    1.0111558   -1.8353406   -1.8353406  -0.91533788  0.064829433   -1.8353406   0.92000271   507524 
 7769000    1.0108491   -1.8346934   -1.8346934  -0.91496976   0.06623378   -1.8346934   0.91972363   507524 
 7770000    1.0106971   -1.8349162   -1.8349162  -0.91533089  0.079469904   -1.8349162   0.91958533   507524 
 7771000    1.0102421   -1.8346532   -1.8346532  -0.91548183   0.07111877   -1.8346532   0.91917134   507524 
 7772000     1.009115   -1.8331985   -1.8331985  -0.91505267  0.076119396   -1.8331985    0.9181458   507524 
 7773000    1.0093193   -1.8334552   -1.8334552  -0.91512341  0.065721283   -1.8334552   0.91833176   507524 
 7774000    1.0086427   -1.8329419   -1.8329419  -0.91522584  0.079518985   -1.8329419    0.9177161   507524 
 7775000    1.0085182   -1.8328122   -1.8328122   -0.9152094  0.074004624   -1.8328122    0.9176028   507524 
 7776000    1.0100697   -1.8337551   -1.8337551   -0.9147406  0.079142961   -1.8337551   0.91901448   507524 
 7777000    1.0095013   -1.8330313   -1.8330313  -0.91453398  0.076584937   -1.8330313   0.91849729   507524 
 7778000    1.0092746   -1.8340961   -1.8340961  -0.91580506  0.074294214   -1.8340961   0.91829106   507524 
 7779000    1.0090505   -1.8330158   -1.8330158  -0.91492864  0.074284302   -1.8330158   0.91808719   507524 
 7780000    1.0103486   -1.8338321   -1.8338321  -0.91456378  0.067965233   -1.8338321   0.91926828   507524 
 7781000    1.0082559   -1.8318919   -1.8318919  -0.91452772  0.071054465   -1.8318919   0.91736423   507524 
 7782000    1.0107472   -1.8338402   -1.8338402  -0.91420925   0.07033742   -1.8338402   0.91963094   507524 
 7783000    1.0096667   -1.8333027   -1.8333027  -0.91465491  0.067454833   -1.8333027   0.91864783   507524 
 7784000    1.0104126   -1.8341353   -1.8341353  -0.91480886  0.075539044   -1.8341353   0.91932642   507524 
 7785000    1.0080377   -1.8333526   -1.8333526  -0.91618693  0.069222369   -1.8333526   0.91716567   507524 
 7786000    1.0066354   -1.8326087   -1.8326087  -0.91671898  0.067124883   -1.8326087   0.91588976   507524 
 7787000    1.0066393   -1.8339451   -1.8339451  -0.91805176  0.073808342   -1.8339451   0.91589329   507524 
 7788000    1.0088567   -1.8354445   -1.8354445  -0.91753362   0.07198047   -1.8354445   0.91791085   507524 
 7789000    1.0079634    -1.834297    -1.834297  -0.91719893  0.069855484    -1.834297   0.91709809   507524 
 7790000    1.0091979   -1.8342351   -1.8342351  -0.91601382   0.06756057   -1.8342351   0.91822124   507524 
 7791000    1.0095383   -1.8353845   -1.8353845  -0.91685349  0.074835198   -1.8353845   0.91853098   507524 
 7792000    1.0090399   -1.8350471   -1.8350471  -0.91696959  0.069659491   -1.8350471   0.91807754   507524 
 7793000    1.0101479   -1.8349654   -1.8349654  -0.91587983  0.068247645   -1.8349654    0.9190856   507524 
 7794000    1.0093903   -1.8346441   -1.8346441  -0.91624778  0.063841082   -1.8346441   0.91839636   507524 
 7795000    1.0071299   -1.8332097   -1.8332097  -0.91687006  0.078856863   -1.8332097   0.91633968   507524 
 7796000    1.0079162     -1.83402     -1.83402  -0.91696487  0.075746256     -1.83402   0.91705515   507524 
 7797000    1.0088368   -1.8344192   -1.8344192  -0.91652649  0.071786184   -1.8344192   0.91789268   507524 
 7798000    1.0088975   -1.8349927   -1.8349927  -0.91704475  0.074404893   -1.8349927   0.91794796   507524 
 7799000    1.0092651   -1.8343271   -1.8343271  -0.91604473   0.07294245   -1.8343271   0.91828239   507524 
 7800000     1.007852   -1.8332165   -1.8332165  -0.91621986  0.076349072   -1.8332165   0.91699667   507524 
 7801000    1.0089818   -1.8339548   -1.8339548  -0.91593013  0.070913914   -1.8339548    0.9180247   507524 
 7802000    1.0103041   -1.8345462   -1.8345462  -0.91531843  0.075180789   -1.8345462   0.91922777   507524 
 7803000    1.0093859   -1.8349645   -1.8349645  -0.91657219  0.070645636   -1.8349645    0.9183923   507524 
 7804000    1.0089791   -1.8345728   -1.8345728  -0.91655064  0.070620738   -1.8345728   0.91802218   507524 
 7805000    1.0080837   -1.8327301   -1.8327301  -0.91552259  0.072302948   -1.8327301   0.91720749   507524 
 7806000     1.010121   -1.8352072   -1.8352072  -0.91614604  0.075019435   -1.8352072   0.91906112   507524 
 7807000     1.009793   -1.8348897   -1.8348897  -0.91612694  0.074032127   -1.8348897   0.91876272   507524 
 7808000    1.0095884   -1.8347527   -1.8347527  -0.91617609   0.07750631   -1.8347527   0.91857656   507524 
 7809000    1.0084121   -1.8344033   -1.8344033  -0.91689697  0.067695888   -1.8344033   0.91750629   507524 
 7810000    1.0079782   -1.8342538   -1.8342538  -0.91714229  0.070491497   -1.8342538   0.91711149   507524 
 7811000    1.0067153   -1.8334838   -1.8334838   -0.9175214  0.068060625   -1.8334838   0.91596245   507524 
 7812000    1.0074841   -1.8331824   -1.8331824  -0.9165