LAMMPS (24 Dec 2020)
OMP_NUM_THREADS environment is not set. Defaulting to 1 thread. (src/comm.cpp:94)
  using 1 OpenMP thread(s) per MPI task
#Read the equilibrated lj fluid and add nanocubes

units           lj
atom_style      full
#atom_modify     map array first cubes
dimension       3
boundary        p p f
pair_style      lj/cut/opt 2.5

variable        sigma           equal 1.0
variable        epsilon         equal 1.0
read_restart	restart.dat.10000000
Reading restart file ...
  restart file = 24 Dec 2020, LAMMPS = 24 Dec 2020
WARNING: Restart file used different # of processors: 288 vs. 384 (src/read_restart.cpp:697)
  restoring atom style full from restart
  orthogonal box = (0.0000000 0.0000000 0.0000000) to (80.000000 80.000000 160.00000)
  4 by 6 by 16 MPI processor grid
  restoring pair style lj/cut/opt from restart
  475860 atoms
Finding 1-2 1-3 1-4 neighbors ...
  special bond factors lj:    0        0        0       
  special bond factors coul:  0        0        0       
     0 = max # of 1-2 neighbors
     0 = max # of 1-3 neighbors
     0 = max # of 1-4 neighbors
     1 = max # of special neighbors
  special bonds CPU = 3.412 seconds
  read_restart CPU = 4.016 seconds

group		solvent type 1
366132 atoms in group solvent
group 		hull  type 2
42816 atoms in group hull
group 		dummy type 3
66912 atoms in group dummy

neighbor      0.4 bin
neigh_modify  exclude molecule/intra cubes

pair_modify   shift yes

pair_coeff    1 1 1.0 1.0 #solvent
pair_coeff    2 2 1.0 1.0 1.12 #np
pair_coeff    3 3 0.0 0.0 0.0 #dummy
pair_coeff    2 3 0.0 0.0 0.0 #np dummy
pair_coeff    1 2 ${sol} 1.0  #np solvent
pair_coeff    1 2 0.5 1.0  
pair_coeff    1 3 0.0 0.0 0.0 #dummy solvent


comm_modify   mode multi cutoff/multi 1 2.5 cutoff/multi 2 2.5 cutoff/multi 3 6.95

reset_timestep 	0

balance 	1.05 shift z 10 1.05
Balancing ...
Unused restart file global fix info:
  fix style: STORE, fix ID: msd_COMPUTE_STORE
Unused restart file peratom fix info:
  fix style: STORE, fix ID: bin1_COMPUTE_STORE
  fix style: STORE, fix ID: bin3_COMPUTE_STORE
Neighbor list info ...
  update every 1 steps, delay 10 steps, check yes
  max neighbors/atom: 2000, page size: 100000
  master list distance cutoff = 2.9
  ghost atom cutoff = 6.95
  binsize = 1.45, bins = 56 56 111
  1 neighbor lists, perpetual/occasional/extra = 1 0 0
  (1) pair lj/cut/opt, perpetual
      attributes: half, newton on
      pair build: half/bin/newton
      stencil: half/bin/3d/newton
      bin: standard
 rebalancing time: 0.058 seconds
  iteration count = 3
  initial/final maximal load/proc = 1885.0000 2879.0000
  initial/final imbalance factor  = 1.5211197 2.3232379
  x cuts: 0.0000000 0.25000000 0.50000000 0.75000000 1.0000000
  y cuts: 0.0000000 0.16666667 0.33333333 0.50000000 0.66666667 0.83333333 1.0000000
  z cuts: 0.0000000 0.054687500 0.10156250 0.14843750 0.21093750 0.25781250 0.29687500 0.35937500 0.39062500 0.45312500 0.50781250 0.57031250 0.58593750 0.64843750 0.71093750 0.77343750 1.0000000

####################### WALLS ###########################

variable       epsilonWall equal 2*${epsilon}
variable       epsilonWall equal 2*1
variable       repulsive   equal   0.7147*${sigma}
variable       repulsive   equal   0.7147*1
variable       full	   equal   3*${sigma}
variable       full	   equal   3*1
region         lowWall block EDGE EDGE EDGE EDGE EDGE 2

fix            topWall all wall/lj93 zhi EDGE 	       ${epsilonWall} ${sigma} ${repulsive} units box
fix            topWall all wall/lj93 zhi EDGE 	       2 ${sigma} ${repulsive} units box
fix            topWall all wall/lj93 zhi EDGE 	       2 1 ${repulsive} units box
fix            topWall all wall/lj93 zhi EDGE 	       2 1 0.7147 units box
fix            lowSol solvent wall/lj93 zlo EDGE                ${epsilonWall} ${sigma} ${full} units box
fix            lowSol solvent wall/lj93 zlo EDGE                2 ${sigma} ${full} units box
fix            lowSol solvent wall/lj93 zlo EDGE                2 1 ${full} units box
fix            lowSol solvent wall/lj93 zlo EDGE                2 1 3 units box
fix 	       lowCub cubes wall/lj93 zlo EDGE                ${epsilonWall} ${sigma} ${repulsive} units box
fix 	       lowCub cubes wall/lj93 zlo EDGE                2 ${sigma} ${repulsive} units box
fix 	       lowCub cubes wall/lj93 zlo EDGE                2 1 ${repulsive} units box
fix 	       lowCub cubes wall/lj93 zlo EDGE                2 1 0.7147 units box


###################### COMPUTES ##########################

compute        bin1 solvent chunk/atom bin/1d z lower 1.0 units box
compute        bin3 solvent chunk/atom bin/3d x lower 5.0 y lower 5.0 z lower 5.0 units box

compute 	pe solvent 	   pe/atom
compute 	pe2 all 	   pe/atom

######################  FIXES ############################


fix             peclet solvent ave/chunk 10 10 10000 bin1 density/number norm                  none ave one file density.profile

fix              temp solvent ave/chunk 10 10 10000 bin1 temp norm                  none ave one file temp.profile

fix 		 dens solvent ave/chunk 10 10 500000 bin3 density/number norm 		 none ave one file dens3.profile

fix		 temp2 solvent ave/chunk 10 10 500000 bin3 temp norm none ave one file temp3.profile

fix 		pe solvent ave/chunk 1 1 500000 bin3 c_pe norm none ave one file pe3.profile



################### INTEGRATION

fix             1 cubes rigid/nve/small molecule
  create bodies CPU = 0.046 seconds
  96 rigid bodies with 109728 atoms
  6.9282032 = max distance from body owner to body atom

fix             2 solvent nve



## Thermostat
region          regthermo block EDGE EDGE EDGE EDGE 0 15
group           thermo dynamic solvent region regthermo every 1000
dynamic group thermo defined
fix             3 thermo langevin ${temp} ${temp} 10 156453
fix             3 thermo langevin 1.0 ${temp} 10 156453
fix             3 thermo langevin 1.0 1.0 10 156453

## Evaporation
region		regevap block EDGE EDGE EDGE EDGE 140 EDGE
fix 		4 solvent evaporate ${evap} 1 regevap 156415
fix 		4 solvent evaporate 85 1 regevap 156415


#### Load balancing

fix             bal all balance 1000 1.05 shift z 10 1.05

############### Diagnostics and computes ###################

compute        	com cubes          rigid/local   1 mol x y z
compute        	quat cubes         rigid/local   1 mol quatw quati quatj quatk

compute 	cc2 cubes 	   chunk/atom 	 molecule
compute 	msd cubes 	   msd/chunk 	 cc2

fix 		msd all ave/time  1 1 10000 c_msd[*] file dump.msd ave one mode vector

dump            1 all custom 500000 dump.lammpstrj id mol type x y z vx vy vz c_pe2
dump		sol  solvent custom 500000 dump.soltrj id x y z vx vy vz c_pe
dump		cubetrj cubes custom 500000 cubes.lammpstrj id mol type x y z vx vy vz
dump            com cubes local 500000 dump.*.xyz c_com[*]
dump	        xyz hull xyz 500000 cubes.xyz
#dump            quat cubes      local 100000 dump.*.quat c_quat[*]
dump		order cubes 	local 100000 dump.*.order c_com[*] c_quat[*]
#dump		mol cubes molfile 10000 mol.xyz xyz


dump            2 all image 100000 image.*.png type type zoom 1.5 size 1280 720
dump_modify     2 pad 8
dump		image cubes image 100000 image_cubes.*.png type type zoom 1.5 size 1280 720
dump_modify	image pad 8
dump            3 all movie 5000 movie.avi type type zoom 1.5 size 1280 720
dump		4 cubes movie 5000 movie_cubes.avi type type size 1280 720


thermo          1000
thermo_style    custom step temp epair evdwl etotal press pe ke atoms

restart         1000000 restart.dat
timestep        0.005
timer           full
New timer settings: style=full  mode=nosync  timeout=off

run 		${steps}
run 		30000000
Per MPI rank memory allocation (min/avg/max) = 16.75 | 20.57 | 25.85 Mbytes
Step Temp E_pair E_vdwl TotEng Press PotEng KinEng Atoms 
       0    1.0059033   -2.4030041   -2.4030041   -1.2414686  0.067979679   -2.4030041    1.1615354   475860 
    1000    1.0056646   -2.4020786   -2.4020786   -1.2407919    0.0676228   -2.4020786    1.1612867   475849 
    2000    1.0052522   -2.4031415   -2.4031415   -1.2423017   0.06762109   -2.4031415    1.1608398   475837 
    3000     1.005644   -2.4020989   -2.4020989   -1.2407774  0.069887662   -2.4020989    1.1613215   475825 
    4000    1.0067127   -2.4031009   -2.4031009    -1.240516  0.064733825   -2.4031009    1.1625849   475813 
    5000    1.0078079   -2.4040612   -2.4040612   -1.2401846  0.067526114   -2.4040612    1.1638766   475802 
    6000    1.0055738   -2.4029269   -2.4029269    -1.241601  0.074627193   -2.4029269    1.1613258   475790 
    7000    1.0073455   -2.4045011   -2.4045011   -1.2410999  0.066052208   -2.4045011    1.1634013   475778 
    8000     1.005859   -2.4032971   -2.4032971   -1.2415832  0.069758401   -2.4032971    1.1617139   475766 
    9000    1.0069119   -2.4035498   -2.4035498   -1.2405931  0.074953893   -2.4035498    1.1629567   475755 
   10000     1.004948   -2.4033145   -2.4033145   -1.2425967  0.066756878   -2.4033145    1.1607178   475743 
   11000    1.0052161   -2.4032438   -2.4032438   -1.2421872  0.065374064   -2.4032438    1.1610567   475731 
   12000    1.0052195   -2.4025247   -2.4025247   -1.2414349  0.067591796   -2.4025247    1.1610899   475719 
   13000    1.0068219   -2.4040618   -2.4040618   -1.2410941  0.064074053   -2.4040618    1.1629676   475708 
   14000    1.0056007   -2.4020267   -2.4020267   -1.2404403  0.071568358   -2.4020267    1.1615864   475696 
   15000    1.0046703   -2.4021268   -2.4021268   -1.2415859  0.071561472   -2.4021268    1.1605409   475684 
   16000    1.0048926    -2.403289    -2.403289    -1.242462   0.07117622    -2.403289     1.160827   475672 
   17000    1.0067587   -2.4037612   -2.4037612   -1.2407492  0.071494305   -2.4037612    1.1630121   475660 
   18000    1.0064326   -2.4034711   -2.4034711   -1.2408089  0.064970856   -2.4034711    1.1626622   475649 
   19000    1.0069492   -2.4033996   -2.4033996   -1.2401112  0.065038547   -2.4033996    1.1632884   475637 
   20000    1.0049697   -2.4027546   -2.4027546   -1.2417237  0.070515175   -2.4027546    1.1610308   475625 
   21000    1.0056244   -2.4029714   -2.4029714   -1.2411548  0.064673664   -2.4029714    1.1618165   475613 
   22000    1.0052873   -2.4027497   -2.4027497   -1.2412959  0.067730199   -2.4027497    1.1614539   475602 
   23000    1.0064816   -2.4047059   -2.4047059   -1.2418428  0.071955923   -2.4047059    1.1628631   475590 
   24000    1.0062269   -2.4037077   -2.4037077   -1.2411096  0.070370626   -2.4037077    1.1625981   475578 
   25000    1.0062861   -2.4049193   -2.4049193   -1.2422234  0.067267731   -2.4049193    1.1626959   475566 
   26000    1.0047428   -2.4029561   -2.4029561   -1.2420166  0.072152757   -2.4029561    1.1609395   475555 
   27000    1.0069942   -2.4043117   -2.4043117   -1.2407415  0.071115709   -2.4043117    1.1635702   475543 
   28000    1.0049069   -2.4036447   -2.4036447    -1.242457  0.072453096   -2.4036447    1.1611877   475531 
   29000    1.0058985   -2.4046825   -2.4046825   -1.2423196  0.067557588   -2.4046825    1.1623628   475519 
   30000    1.0045502   -2.4031911   -2.4031911   -1.2423593  0.069120941   -2.4031911    1.1608317   475508 
   31000    1.0060725   -2.4049342   -2.4049342    -1.242314  0.065915992   -2.4049342    1.1626202   475496 
   32000    1.0053214    -2.403769    -2.403769   -1.2419874  0.071917671    -2.403769    1.1617815   475484 
   33000    1.0045936    -2.403517    -2.403517   -1.2425472  0.067635332    -2.403517    1.1609698   475472 
   34000    1.0042712   -2.4037881   -2.4037881   -1.2431616  0.072000347   -2.4037881    1.1606265   475460 
   35000    1.0047278   -2.4045073   -2.4045073   -1.2433263  0.068223606   -2.4045073     1.161181   475449 
   36000     1.005516   -2.4060872   -2.4060872   -1.2439659  0.068143587   -2.4060872    1.1621213   475437 
   37000     1.005905   -2.4076289   -2.4076289   -1.2450287  0.067646435   -2.4076289    1.1626003   475425 
   38000     1.005654   -2.4070196   -2.4070196   -1.2446802  0.070149305   -2.4070196    1.1623394   475413 
   39000    1.0041665   -2.4053081   -2.4053081   -1.2446611  0.073843092   -2.4053081     1.160647   475402 
   40000    1.0053994   -2.4090467   -2.4090467   -1.2469452  0.070009013   -2.4090467    1.1621014   475390 
   41000    1.0045116   -2.4078586   -2.4078586    -1.246754  0.065350778   -2.4078586    1.1611046   475378 
   42000    1.0037407   -2.4073748   -2.4073748    -1.247132  0.070984459   -2.4073748    1.1602428   475366 
   43000    1.0031036   -2.4072483   -2.4072483   -1.2477151  0.070363269   -2.4072483    1.1595332   475355 
   44000    1.0055912   -2.4088273   -2.4088273   -1.2463893  0.067220843   -2.4088273     1.162438   475343 
   45000    1.0031034   -2.4050605   -2.4050605    -1.245469  0.073117561   -2.4050605    1.1595915   475331 
   46000    1.0041828   -2.4063216   -2.4063216   -1.2454531  0.068718666   -2.4063216    1.1608685   475319 
   47000    1.0054611    -2.408162    -2.408162   -1.2457888  0.066242613    -2.408162    1.1623732   475308 
   48000    1.0032376   -2.4044431   -2.4044431   -1.2446111  0.072813903   -2.4044431     1.159832   475296 
   49000    1.0060774   -2.4077263   -2.4077263   -1.2445819  0.064843227   -2.4077263    1.1631444   475284 
   50000    1.0067476   -2.4076035   -2.4076035   -1.2436548  0.068682122   -2.4076035    1.1639487   475272 
   51000    1.0053313   -2.4058846   -2.4058846    -1.243544     0.076006   -2.4058846    1.1623405   475260 
   52000    1.0055024   -2.4071241   -2.4071241   -1.2445589  0.070511817   -2.4071241    1.1625652   475249 
   53000    1.0061839   -2.4079725   -2.4079725   -1.2445899  0.072474651   -2.4079725    1.1633827   475237 
   54000     1.004779   -2.4069103   -2.4069103   -1.2451228  0.067212963   -2.4069103    1.1617876   475225 
   55000    1.0027908    -2.404607    -2.404607   -1.2450891  0.073391914    -2.404607     1.159518   475213 
   56000     1.004528   -2.4062004   -2.4062004   -1.2446468  0.071654999   -2.4062004    1.1615536   475202 
   57000    1.0051906   -2.4065147   -2.4065147   -1.2441657  0.064609012   -2.4065147     1.162349   475190 
   58000    1.0042189   -2.4052315   -2.4052315   -1.2439767  0.069447284   -2.4052315    1.1612548   475178 
   59000    1.0043117   -2.4068679   -2.4068679   -1.2454765  0.067935371   -2.4068679    1.1613914   475166 
   60000     1.004258   -2.4069998   -2.4069998   -1.2456436  0.065482588   -2.4069998    1.1613562   475155 
   61000    1.0042452   -2.4062779   -2.4062779   -1.2449072  0.065193787   -2.4062779    1.1613707   475143 
   62000    1.0033039   -2.4052215   -2.4052215     -1.24491  0.066703536   -2.4052215    1.1603114   475131 
   63000    1.0032294   -2.4054591   -2.4054591   -1.2452045  0.064852953   -2.4054591    1.1602546   475119 
   64000    1.0036752   -2.4060699   -2.4060699   -1.2452728  0.065551812   -2.4060699    1.1607971   475108 
   65000    1.0019657    -2.404131    -2.404131   -1.2452818  0.060656522    -2.404131    1.1588492   475096 
   66000    1.0016286   -2.4038142   -2.4038142   -1.2453257  0.071256625   -2.4038142    1.1584885   475084 
   67000    1.0038153   -2.4050006   -2.4050006   -1.2439535  0.073466632   -2.4050006     1.161047   475072 
   68000     1.002112   -2.4046924   -2.4046924   -1.2455861   0.06834648   -2.4046924    1.1591063   475060 
   69000    1.0040209   -2.4064283   -2.4064283   -1.2450872  0.069583957   -2.4064283     1.161341   475049 
   70000    1.0036782   -2.4055618   -2.4055618   -1.2445878  0.068827007   -2.4055618     1.160974   475037 
   71000    1.0034989   -2.4058964   -2.4058964   -1.2451004  0.068171539   -2.4058964    1.1607959   475025 
   72000    1.0028068   -2.4057735   -2.4057735   -1.2457489  0.070222287   -2.4057735    1.1600246   475013 
   73000    1.0040062   -2.4079314   -2.4079314   -1.2464924  0.068654711   -2.4079314    1.1614389   475002 
   74000    1.0029342   -2.4056104   -2.4056104   -1.2453822  0.069917612   -2.4056104    1.1602282   474990 
   75000     1.003688   -2.4060858   -2.4060858   -1.2449562  0.068341637   -2.4060858    1.1611296   474978 
   76000    1.0027754   -2.4050196   -2.4050196   -1.2449165  0.068849569   -2.4050196    1.1601031   474966 
   77000    1.0028595   -2.4057469   -2.4057469   -1.2455196  0.072499275   -2.4057469    1.1602273   474955 
   78000    1.0013412   -2.4053364   -2.4053364   -1.2468363  0.062675853   -2.4053364       1.1585   474943 
   79000   0.99984541   -2.4026597   -2.4026597    -1.245861  0.064204849   -2.4026597    1.1567987   474931 
   80000     1.001728   -2.4049265   -2.4049265   -1.2459205   0.06743411   -2.4049265    1.1590061   474919 
   81000     1.003519   -2.4064883   -2.4064883    -1.245383  0.063782251   -2.4064883    1.1611052   474908 
   82000    1.0026201   -2.4051468   -2.4051468   -1.2450524   0.07084808   -2.4051468    1.1600944   474896 
   83000    1.0044261    -2.407013    -2.407013   -1.2447995  0.067378298    -2.407013    1.1622135   474884 
   84000    1.0026075   -2.4050551   -2.4050551   -1.2449166  0.069373715   -2.4050551    1.1601385   474872 
   85000    1.0038881   -2.4059747   -2.4059747    -1.244325  0.070710376   -2.4059747    1.1616497   474860 
   86000    1.0029242   -2.4047009   -2.4047009   -1.2441397  0.061134843   -2.4047009    1.1605612   474849 
   87000    1.0019866   -2.4042336   -2.4042336    -1.244728  0.061231852   -2.4042336    1.1595055   474837 
   88000    1.0020122   -2.4038807   -2.4038807   -1.2443163  0.070329507   -2.4038807    1.1595644   474825 
   89000    1.0021577   -2.4048868   -2.4048868   -1.2451247  0.065110934   -2.4048868    1.1597621   474813 
   90000    1.0029095   -2.4060703   -2.4060703   -1.2454113  0.068225273   -2.4060703     1.160659   474802 
   91000    1.0028254   -2.4061971   -2.4061971   -1.2456061   0.06110233   -2.4061971     1.160591   474790 
   92000    1.0024451   -2.4061234   -2.4061234   -1.2459432  0.065406966   -2.4061234    1.1601802   474778 
   93000    1.0036636   -2.4079368   -2.4079368    -1.246317   0.07205187   -2.4079368    1.1616198   474766 
   94000     1.002594   -2.4066938   -2.4066938   -1.2462851  0.068514473   -2.4066938    1.1604087   474755 
   95000    1.0024172   -2.4070866   -2.4070866   -1.2468531  0.063023398   -2.4070866    1.1602334   474743 
   96000    1.0020297   -2.4065518   -2.4065518   -1.2467375  0.065243041   -2.4065518    1.1598143   474731 
   97000    1.0031955   -2.4068761   -2.4068761   -1.2456831  0.072304258   -2.4068761     1.161193   474719 
   98000    1.0041598   -2.4074056   -2.4074056   -1.2450695  0.067789393   -2.4074056    1.1623361   474708 
   99000    1.0021183    -2.406696    -2.406696   -1.2466937  0.063924977    -2.406696    1.1600024   474696 
  100000    1.0015707   -2.4064803   -2.4064803   -1.2470825  0.065905609   -2.4064803    1.1593978   474684 
  101000    1.0024799   -2.4073781   -2.4073781   -1.2468985   0.06838044   -2.4073781    1.1604796   474672 
  102000    1.0023228   -2.4075985   -2.4075985   -1.2472714  0.068997772   -2.4075985    1.1603271   474660 
  103000    1.0022063   -2.4068153   -2.4068153   -1.2465962  0.072755408   -2.4068153    1.1602191   474649 
  104000    1.0026765   -2.4078318   -2.4078318    -1.247039  0.067849234   -2.4078318    1.1607928   474637 
  105000    1.0039498   -2.4092406   -2.4092406   -1.2469444  0.067606197   -2.4092406    1.1622962   474625 
  106000    1.0028127   -2.4079204   -2.4079204   -1.2469112  0.067163432   -2.4079204    1.1610092   474613 
  107000    1.0008169   -2.4062759   -2.4062759   -1.2475505  0.069822595   -2.4062759    1.1587254   474602 
  108000    1.0002918   -2.4053103   -2.4053103   -1.2471637  0.065739732   -2.4053103    1.1581467   474590 
  109000    1.0014102    -2.405583    -2.405583   -1.2461121  0.062062804    -2.405583     1.159471   474578 
  110000    1.0013793    -2.405984    -2.405984   -1.2465195  0.065079773    -2.405984    1.1594645   474566 
  111000   0.99985995   -2.4053644   -2.4053644   -1.2476323  0.067421431   -2.4053644    1.1577321   474555 
  112000    1.0012464   -2.4059938   -2.4059938    -1.246627  0.069005961   -2.4059938    1.1593668   474543 
  113000    1.0006447   -2.4051002   -2.4051002   -1.2464008  0.070648463   -2.4051002    1.1586994   474531 
  114000    1.0014129   -2.4061874   -2.4061874   -1.2465692  0.066999301   -2.4061874    1.1596181   474519 
  115000    1.0025642   -2.4082263   -2.4082263    -1.247248  0.069540659   -2.4082263    1.1609783   474508 
  116000    1.0027466   -2.4080921   -2.4080921   -1.2468732  0.070360398   -2.4080921    1.1612188   474496 
  117000    1.0017488   -2.4077093   -2.4077093   -1.2476166  0.071287328   -2.4077093    1.1600927   474484 
  118000    1.0015143   -2.4067397   -2.4067397   -1.2468892  0.063961436   -2.4067397    1.1598505   474472 
  119000    1.0006532   -2.4050857   -2.4050857   -1.2462032  0.073000831   -2.4050857    1.1588825   474460 
  120000    1.0008919   -2.4047555   -2.4047555   -1.2455696  0.070036738   -2.4047555    1.1591858   474449 
  121000    1.0024004   -2.4064048   -2.4064048   -1.2454426  0.070070564   -2.4064048    1.1609623   474437 
  122000     1.000084   -2.4049095   -2.4049095   -1.2466008  0.065397351   -2.4049095    1.1583088   474425 
  123000      1.00067    -2.405722    -2.405722   -1.2467052  0.069489929    -2.405722    1.1590168   474413 
  124000   0.99909095     -2.40406     -2.40406   -1.2468453  0.061123426     -2.40406    1.1572148   474402 
  125000   0.99901883    -2.403568    -2.403568   -1.2464075  0.062965499    -2.403568    1.1571605   474390 
  126000   0.99922051   -2.4041972   -2.4041972   -1.2467738  0.064331452   -2.4041972    1.1574234   474378 
  127000    1.0013764    -2.404666    -2.404666    -1.244716  0.071336035    -2.404666      1.15995   474366 
  128000    1.0033394   -2.4059885   -2.4059885   -1.2437378  0.067291996   -2.4059885    1.1622507   474355 
  129000     1.001978   -2.4042759   -2.4042759   -1.2435729  0.072251497   -2.4042759     1.160703   474343 
  130000    1.0026861   -2.4051513   -2.4051513   -1.2435985  0.068039525   -2.4051513    1.1615527   474331 
  131000    1.0015726   -2.4037601   -2.4037601    -1.243468  0.068258643   -2.4037601    1.1602921   474319 
  132000    1.0011762   -2.4036424   -2.4036424   -1.2437826  0.064259116   -2.4036424    1.1598598   474308 
  133000    1.0005687   -2.4029604   -2.4029604   -1.2437751  0.066254769   -2.4029604    1.1591853   474296 
  134000    1.0024181   -2.4048813   -2.4048813    -1.243524  0.070856774   -2.4048813    1.1613573   474284 
  135000    1.0006152    -2.403497    -2.403497   -1.2441991  0.070340619    -2.403497    1.1592979   474272 
  136000    1.0023416   -2.4058387   -2.4058387   -1.2445112  0.073636455   -2.4058387    1.1613275   474260 
  137000    1.0024359   -2.4053621   -2.4053621   -1.2438984  0.067658148   -2.4053621    1.1614637   474249 
  138000     1.001159   -2.4050333   -2.4050333   -1.2450197  0.072625358   -2.4050333    1.1600136   474237 
  139000    1.0009626   -2.4054609   -2.4054609   -1.2456455  0.064016737   -2.4054609    1.1598154   474225 
  140000   0.99895787   -2.4029587   -2.4029587    -1.245437  0.066978662   -2.4029587    1.1575218   474213 
  141000    0.9995993   -2.4032547   -2.4032547   -1.2449628  0.063000634   -2.4032547    1.1582919   474202 
  142000   0.99904341   -2.4020384   -2.4020384   -1.2443614  0.068223849   -2.4020384     1.157677   474190 
  143000   0.99950603   -2.4031304   -2.4031304    -1.244888  0.064542938   -2.4031304    1.1582424   474178 
  144000    1.0020283   -2.4057268   -2.4057268   -1.2445322  0.065335308   -2.4057268    1.1611946   474166 
  145000   0.99950492   -2.4025297   -2.4025297   -1.2442323  0.060851983   -2.4025297    1.1582973   474155 
  146000    1.0003936   -2.4037998   -2.4037998   -1.2444432    0.0714762   -2.4037998    1.1593566   474143 
  147000     1.000553   -2.4035294   -2.4035294   -1.2439588  0.063743348   -2.4035294    1.1595706   474131 
  148000    1.0005852   -2.4031289   -2.4031289   -1.2434916  0.066998145   -2.4031289    1.1596373   474119 
  149000    1.0008155   -2.4023549   -2.4023549   -1.2424238  0.065743787   -2.4023549    1.1599311   474108 
  150000    1.0009774   -2.4024298   -2.4024298   -1.2422818  0.062609128   -2.4024298     1.160148   474096 
  151000    1.0003289   -2.4026986   -2.4026986   -1.2432729  0.068117625   -2.4026986    1.1594258   474084 
  152000    1.0017173   -2.4037062   -2.4037062   -1.2426417  0.065144263   -2.4037062    1.1610644   474072 
  153000    1.0010427   -2.4024997   -2.4024997   -1.2421878  0.070867367   -2.4024997    1.1603119   474060 
  154000    1.0011691    -2.403411    -2.403411   -1.2429257  0.068096697    -2.403411    1.1604853   474049 
  155000    1.0015261   -2.4033162   -2.4033162   -1.2423877  0.071972025   -2.4033162    1.1609285   474037 
  156000    1.0008567   -2.4033604   -2.4033604   -1.2431785  0.075062142   -2.4033604     1.160182   474025 
  157000    1.0005131   -2.4028683   -2.4028683   -1.2430554  0.069700944   -2.4028683    1.1598129   474013 
  158000    1.0023312   -2.4046439   -2.4046439   -1.2426964  0.074198071   -2.4046439    1.1619475   474002 
  159000    1.0020402   -2.4036515   -2.4036515   -1.2420119  0.063009889   -2.4036515    1.1616396   473990 
  160000    1.0011775   -2.4035149   -2.4035149    -1.242846  0.066129839   -2.4035149    1.1606689   473978 
  161000    1.0007944   -2.4034384   -2.4034384   -1.2431842  0.072341547   -2.4034384    1.1602542   473966 
  162000   0.99985618   -2.4031001   -2.4031001   -1.2439067  0.070829528   -2.4031001    1.1591933   473955 
  163000   0.99965154   -2.4031064   -2.4031064    -1.244121  0.064655086   -2.4031064    1.1589854   473943 
  164000    1.0001935   -2.4031628   -2.4031628   -1.2435196  0.066302835   -2.4031628    1.1596431   473931 
  165000    1.0008906   -2.4032035   -2.4032035   -1.2427227  0.063717779   -2.4032035    1.1604808   473919 
  166000    1.0011613   -2.4031018   -2.4031018   -1.2422803  0.069707044   -2.4031018    1.1608215   473908 
  167000   0.99944462   -2.4023049   -2.4023049   -1.2434445  0.071656503   -2.4023049    1.1588604   473896 
  168000   0.99945347   -2.4030356   -2.4030356   -1.2441355   0.06588059   -2.4030356       1.1589   473884 
  169000    1.0001831   -2.4032422   -2.4032422   -1.2434667  0.068245112   -2.4032422    1.1597755   473872 
  170000    1.0008961   -2.4039217   -2.4039217   -1.2432901  0.067622964   -2.4039217    1.1606316   473860 
  171000    1.0015195   -2.4045241   -2.4045241   -1.2431427  0.070137326   -2.4045241    1.1613814   473849 
  172000     1.001695   -2.4064621   -2.4064621   -1.2448477  0.069123145   -2.4064621    1.1616144   473837 
  173000    1.0006877   -2.4056294   -2.4056294   -1.2451538  0.071288393   -2.4056294    1.1604756   473825 
  174000    1.0003356   -2.4055819   -2.4055819   -1.2454852  0.060828995   -2.4055819    1.1600967   473813 
  175000    1.0002158   -2.4048746   -2.4048746   -1.2448899  0.065682076   -2.4048746    1.1599847   473802 
  176000   0.99845118    -2.403201    -2.403201   -1.2452334  0.072339808    -2.403201    1.1579676   473790 
  177000   0.99858136   -2.4038168   -2.4038168   -1.2456689  0.066997942   -2.4038168    1.1581479   473778 
  178000   0.99923101   -2.4042758   -2.4042758   -1.2453451  0.067147682   -2.4042758    1.1589307   473766 
  179000   0.99901979   -2.4058868   -2.4058868   -1.2471742  0.061888026   -2.4058868    1.1587126   473755 
  180000   0.99889972   -2.4053241   -2.4053241   -1.2467214  0.063007745   -2.4053241    1.1586027   473743 
  181000   0.99720514   -2.4039736   -2.4039736   -1.2473071  0.065239305   -2.4039736    1.1566665   473731 
  182000    1.0013445   -2.4067556   -2.4067556   -1.2452583  0.067005748   -2.4067556    1.1614972   473719 
  183000    1.0027952   -2.4085934   -2.4085934   -1.2453864  0.065849622   -2.4085934    1.1632069   473708 
  184000    1.0005141   -2.4052933   -2.4052933   -1.2447031  0.068767564   -2.4052933    1.1605903   473696 
  185000    1.0023136   -2.4085632   -2.4085632    -1.245856  0.068107578   -2.4085632    1.1627071   473684 
  186000     1.001462   -2.4077099   -2.4077099   -1.2459611  0.061396578   -2.4077099    1.1617487   473672 
  187000    1.0012624   -2.4073437   -2.4073437   -1.2457972  0.064671227   -2.4073437    1.1615466   473660 
  188000    1.0023866   -2.4087408   -2.4087408   -1.2458629  0.073569735   -2.4087408    1.1628778   473649 
  189000    1.0006321   -2.4068445   -2.4068445   -1.2459727  0.066810149   -2.4068445    1.1608718   473637 
  190000    1.0014039   -2.4068487   -2.4068487   -1.2450521  0.067997392   -2.4068487    1.1617966   473625 
  191000    1.0003709    -2.406145    -2.406145   -1.2455175   0.06390462    -2.406145    1.1606275   473613 
  192000   0.99934309   -2.4044786   -2.4044786   -1.2450165  0.068529089   -2.4044786     1.159462   473602 
  193000    1.0013561   -2.4062287   -2.4062287   -1.2444017  0.062248593   -2.4062287    1.1618271   473590 
  194000   0.99934314   -2.4049348   -2.4049348    -1.245414  0.069148643   -2.4049348    1.1595209   473578 
  195000    1.0005608   -2.4062332   -2.4062332   -1.2452702  0.071586226   -2.4062332     1.160963   473566 
  196000   0.99921546   -2.4049148   -2.4049148   -1.2454858  0.074016812   -2.4049148     1.159429   473555 
  197000   0.99865762   -2.4045623   -2.4045623   -1.2457512  0.063989384   -2.4045623    1.1588111   473543 
  198000   0.99893566   -2.4052508   -2.4052508   -1.2460877  0.066774509   -2.4052508    1.1591631   473531 
  199000    1.0000044   -2.4068419   -2.4068419   -1.2464093  0.066544594   -2.4068419    1.1604326   473519 
  200000   0.99932932   -2.4059609   -2.4059609   -1.2462847  0.069255585   -2.4059609    1.1596762   473508 
  201000   0.99911872   -2.4050872   -2.4050872    -1.245626  0.066747173   -2.4050872    1.1594612   473496 
  202000   0.99931562   -2.4053219   -2.4053219   -1.2456028  0.064772913   -2.4053219    1.1597191   473484 
  203000   0.99890078   -2.4061306   -2.4061306   -1.2468635  0.067668941   -2.4061306    1.1592671   473472 
  204000   0.99931938   -2.4067963   -2.4067963    -1.247014   0.06788705   -2.4067963    1.1597823   473460 
  205000   0.99883157   -2.4051058   -2.4051058   -1.2458628  0.068063018   -2.4051058    1.1592431   473449 
  206000    0.9979981   -2.4041186   -2.4041186   -1.2458135  0.065696395   -2.4041186    1.1583051   473437 
  207000   0.99877382   -2.4046601   -2.4046601   -1.2454253  0.065994125   -2.4046601    1.1592348   473425 
  208000   0.99759897   -2.4027176   -2.4027176   -1.2448171  0.066944791   -2.4027176    1.1579005   473413 
  209000   0.99820326   -2.4025269   -2.4025269    -1.243898  0.061939335   -2.4025269    1.1586289   473402 
  210000   0.99832216   -2.4026628   -2.4026628   -1.2438666  0.067261907   -2.4026628    1.1587962   473390 
  211000     0.998407   -2.4033447   -2.4033447   -1.2444206  0.067089279   -2.4033447    1.1589241   473378 
  212000   0.99948581   -2.4044041   -2.4044041   -1.2441983  0.067977395   -2.4044041    1.1602058   473366 
  213000   0.99990438    -2.403764    -2.403764   -1.2430454  0.064903121    -2.403764    1.1607186   473355 
  214000   0.99906022   -2.4046319   -2.4046319   -1.2448638   0.06709259   -2.4046319    1.1597681   473343 
  215000   0.99915853   -2.4055822   -2.4055822   -1.2456706  0.068645079   -2.4055822    1.1599116   473331 
  216000   0.99879864   -2.4048168   -2.4048168   -1.2452935  0.066772837   -2.4048168    1.1595232   473319 
  217000   0.99868075   -2.4048649   -2.4048649   -1.2454516  0.069047195   -2.4048649    1.1594133   473308 
  218000   0.99731019   -2.4043269   -2.4043269   -1.2464754  0.068318276   -2.4043269    1.1578515   473296 
  219000   0.99820281   -2.4053759   -2.4053759   -1.2464587  0.063017036   -2.4053759    1.1589172   473284 
  220000   0.99875591    -2.406042    -2.406042   -1.2464532  0.068187096    -2.406042    1.1595888   473272 
  221000   0.99820557   -2.4062039   -2.4062039   -1.2472247  0.073541081   -2.4062039    1.1589792   473260 
  222000   0.99792037   -2.4063428   -2.4063428   -1.2476678  0.065735805   -2.4063428     1.158675   473249 
  223000   0.99681198   -2.4048011   -2.4048011   -1.2473837  0.067155902   -2.4048011    1.1574174   473237 
  224000   0.99711525   -2.4058393   -2.4058393   -1.2480404  0.066187766   -2.4058393    1.1577989   473225 
  225000   0.99787435   -2.4057173   -2.4057173   -1.2470076  0.066426537   -2.4057173    1.1587097   473213 
  226000   0.99752078   -2.4056276   -2.4056276   -1.2473015  0.068114209   -2.4056276    1.1583261   473202 
  227000   0.99831852   -2.4063786   -2.4063786   -1.2470968  0.072010424   -2.4063786    1.1592818   473190 
  228000   0.99844169   -2.4069308   -2.4069308   -1.2474766  0.065535504   -2.4069308    1.1594542   473178 
  229000     0.999867    -2.407617    -2.407617   -1.2464782  0.063653552    -2.407617    1.1611388   473166 
  230000   0.99925895   -2.4073931   -2.4073931   -1.2469334  0.065217623   -2.4073931    1.1604597   473155 
  231000   0.99898371   -2.4087303   -2.4087303   -1.2485608  0.070145729   -2.4087303    1.1601695   473143 
  232000   0.99713595   -2.4059875   -2.4059875   -1.2479346  0.066573488   -2.4059875    1.1580529   473131 
  233000   0.99968627   -2.4082817   -2.4082817   -1.2472375  0.070281302   -2.4082817    1.1610443   473119 
  234000   0.99857444   -2.4072097   -2.4072097   -1.2474297  0.071936024   -2.4072097      1.15978   473108 
  235000   0.99861025   -2.4073593   -2.4073593   -1.2475083  0.066488062   -2.4073593     1.159851   473096 
  236000   0.99792024   -2.4074295   -2.4074295   -1.2483506  0.066706899   -2.4074295    1.1590789   473084 
  237000   0.99813253   -2.4085014   -2.4085014   -1.2491465  0.066118924   -2.4085014    1.1593549   473072 
  238000   0.99638334   -2.4071187   -2.4071187   -1.2497661  0.067239547   -2.4071187    1.1573526   473060 
  239000   0.99766625   -2.4075472   -2.4075472   -1.2486776  0.060247263   -2.4075472    1.1588697   473049 
  240000   0.99420557   -2.4038744   -2.4038744   -1.2489953  0.074027767   -2.4038744    1.1548791   473037 
  241000   0.99704516    -2.407091    -2.407091    -1.248884  0.065591027    -2.407091     1.158207   473025 
  242000   0.99755138   -2.4067639   -2.4067639   -1.2479395  0.070601423   -2.4067639    1.1588244   473013 
  243000   0.99771462   -2.4069464   -2.4069464   -1.2479054  0.066562562   -2.4069464     1.159041   473002 
  244000   0.99673357   -2.4066615   -2.4066615   -1.2487308  0.064614372   -2.4066615    1.1579307   472990 
  245000   0.99653446   -2.4065122   -2.4065122   -1.2487835  0.065528653   -2.4065122    1.1577288   472978 
  246000    0.9991714   -2.4090814   -2.4090814   -1.2482597  0.063566778   -2.4090814    1.1608217   472966 
  247000   0.99788569   -2.4073193   -2.4073193   -1.2479643  0.071429372   -2.4073193    1.1593549   472955 
  248000   0.99826423   -2.4079658   -2.4079658   -1.2481416  0.071337452   -2.4079658    1.1598242   472943 
  249000   0.99947318   -2.4100257   -2.4100257   -1.2487674  0.075779646   -2.4100257    1.1612582   472931 
  250000   0.99996944   -2.4094798   -2.4094798   -1.2476155  0.065713295   -2.4094798    1.1618643   472919 
  251000   0.99738138   -2.4078256   -2.4078256   -1.2489414  0.066616065   -2.4078256    1.1588842   472908 
  252000   0.99691255   -2.4081254   -2.4081254   -1.2497565  0.064068232   -2.4081254    1.1583689   472896 
  253000   0.99595902   -2.4071852   -2.4071852   -1.2498949  0.064003781   -2.4071852    1.1572903   472884 
  254000   0.99542573   -2.4079392   -2.4079392   -1.2512393  0.060952972   -2.4079392    1.1566999   472872 
  255000    0.9961661   -2.4077096   -2.4077096     -1.25012  0.066596646   -2.4077096    1.1575896   472860 
  256000   0.99637374   -2.4079929   -2.4079929   -1.2501351  0.062033931   -2.4079929    1.1578579   472849 
  257000   0.99633767   -2.4070405   -2.4070405   -1.2491951  0.064604031   -2.4070405    1.1578453   472837 
  258000   0.99473985   -2.4067717   -2.4067717   -1.2507539  0.059131147   -2.4067717    1.1560178   472825 
  259000   0.99580417   -2.4068138   -2.4068138   -1.2495297  0.066156356   -2.4068138    1.1572841   472813 
  260000   0.99507376   -2.4066273   -2.4066273   -1.2501652  0.070263455   -2.4066273    1.1564621   472802 
  261000   0.99769766   -2.4094226   -2.4094226   -1.2498816  0.064654944   -2.4094226     1.159541   472790 
  262000   0.99647847   -2.4083924   -2.4083924    -1.250239  0.063751526   -2.4083924    1.1581535   472778 
  263000   0.99485614   -2.4072349   -2.4072349   -1.2509376  0.067625041   -2.4072349    1.1562973   472766 
  264000   0.99503252   -2.4072643   -2.4072643   -1.2507351  0.066521545   -2.4072643    1.1565292   472755 
  265000   0.99552804   -2.4065849   -2.4065849   -1.2494504  0.059008853   -2.4065849    1.1571345   472743 
  266000   0.99551263   -2.4071364   -2.4071364   -1.2499904  0.063161669   -2.4071364    1.1571459   472731 
  267000   0.99546266   -2.4066522   -2.4066522   -1.2495349  0.069049688   -2.4066522    1.1571172   472719 
  268000   0.99748436   -2.4089008   -2.4089008   -1.2494065  0.064764258   -2.4089008    1.1594942   472708 
  269000    0.9971554    -2.409567    -2.409567   -1.2504258  0.067325069    -2.409567    1.1591413   472696 
  270000   0.99684161   -2.4099607   -2.4099607   -1.2511548  0.068266153   -2.4099607    1.1588059   472684 
  271000   0.99458535   -2.4077859   -2.4077859   -1.2515735  0.066834918   -2.4077859    1.1562124   472672 
  272000   0.99477668   -2.4086076   -2.4086076   -1.2521434  0.065789581   -2.4086076    1.1564642   472660 
  273000   0.99495888   -2.4078989   -2.4078989    -1.251196   0.06668449   -2.4078989    1.1567029   472649 
  274000   0.99600714   -2.4087812   -2.4087812   -1.2508302  0.070083446   -2.4087812     1.157951   472637 
  275000   0.99517181   -2.4076757   -2.4076757   -1.2506664    0.0668009   -2.4076757    1.1570092   472625 
  276000   0.99567624   -2.4094095   -2.4094095   -1.2517844  0.062162304   -2.4094095    1.1576251   472613 
  277000   0.99362223   -2.4069641   -2.4069641   -1.2517002  0.064323912   -2.4069641    1.1552639   472602 
  278000   0.99414854   -2.4071662   -2.4071662   -1.2512611  0.066903919   -2.4071662    1.1559051   472590 
  279000   0.99345077   -2.4075556   -2.4075556   -1.2524324  0.065986676   -2.4075556    1.1551232   472578 
  280000   0.99230644   -2.4053512   -2.4053512   -1.2515293  0.070370354   -2.4053512    1.1538219   472566 
  281000   0.99533183   -2.4093627   -2.4093627    -1.251996  0.069815533   -2.4093627    1.1573667   472555 
  282000   0.99544706   -2.4098118   -2.4098118   -1.2522817  0.070804937   -2.4098118    1.1575301   472543 
  283000   0.99617091   -2.4103929   -2.4103929   -1.2519917  0.073787183   -2.4103929    1.1584012   472531 
  284000   0.99690325    -2.411113    -2.411113   -1.2518308  0.062826101    -2.411113    1.1592822   472519 
  285000   0.99531141   -2.4103177   -2.4103177   -1.2528596  0.071817353   -2.4103177    1.1574581   472508 
  286000   0.99470764   -2.4090231   -2.4090231   -1.2522378  0.074042259   -2.4090231    1.1567853   472496 
  287000   0.99584765   -2.4103107   -2.4103107   -1.2521702  0.073886166   -2.4103107    1.1581405   472484 
  288000   0.99384254   -2.4089967   -2.4089967   -1.2531587  0.067693777   -2.4089967     1.155838   472472 
  289000   0.99352897   -2.4084624   -2.4084624   -1.2529598  0.067063798   -2.4084624    1.1555026   472460 
  290000    0.9954482   -2.4100184   -2.4100184   -1.2522567   0.06768655   -2.4100184    1.1577617   472449 
  291000   0.99521472   -2.4095201   -2.4095201   -1.2520006  0.066249074   -2.4095201    1.1575195   472437 
  292000   0.99544639   -2.4094959   -2.4094959   -1.2516775  0.062154969   -2.4094959    1.1578184   472425 
  293000   0.99361834   -2.4084471   -2.4084471   -1.2527255  0.063384648   -2.4084471    1.1557215   472413 
  294000   0.99487283   -2.4095825   -2.4095825   -1.2523749  0.072779706   -2.4095825    1.1572076   472402 
  295000   0.99386701   -2.4080866   -2.4080866   -1.2520195  0.066465926   -2.4080866    1.1560671   472390 
  296000   0.99532727   -2.4093308   -2.4093308   -1.2515357  0.072868637   -2.4093308     1.157795   472378 
  297000   0.99269874   -2.4067269   -2.4067269   -1.2519601  0.065013644   -2.4067269    1.1547668   472366 
  298000   0.99350784   -2.4078725   -2.4078725   -1.2521376  0.066970293   -2.4078725    1.1557349   472355 
  299000   0.99499479     -2.40939     -2.40939    -1.251896  0.069427401     -2.40939    1.1574941   472343 
  300000   0.99380933   -2.4072914   -2.4072914    -1.251147  0.060184318   -2.4072914    1.1561444   472331 
  301000   0.99472117   -2.4073954   -2.4073954   -1.2501608  0.063006084   -2.4073954    1.1572346   472319 
  302000    0.9934386   -2.4057071   -2.4057071   -1.2499378  0.065202698   -2.4057071    1.1557694   472308 
  303000   0.99503434   -2.4083772   -2.4083772    -1.250722   0.06559648   -2.4083772    1.1576553   472296 
  304000   0.99334131   -2.4071564   -2.4071564   -1.2514415  0.062610936   -2.4071564    1.1557149   472284 
  305000   0.99112149   -2.4046188   -2.4046188   -1.2514573  0.065443194   -2.4046188    1.1531615   472272 
  306000   0.99188554   -2.4053914   -2.4053914   -1.2513116  0.064563244   -2.4053914    1.1540798   472260 
  307000   0.99367874   -2.4088484   -2.4088484   -1.2526552    0.0617585   -2.4088484    1.1561932   472249 
  308000   0.99198509   -2.4072598   -2.4072598   -1.2530079  0.061014657   -2.4072598    1.1542518   472237 
  309000   0.99306694   -2.4077814   -2.4077814   -1.2522414  0.066747252   -2.4077814      1.15554   472225 
  310000   0.99439004   -2.4079605   -2.4079605   -1.2508515  0.069197846   -2.4079605     1.157109   472213 
  311000   0.99243927   -2.4041207   -2.4041207   -1.2492548  0.072766334   -2.4041207    1.1548659   472202 
  312000   0.99284338   -2.4046216   -2.4046216   -1.2492561  0.065611944   -2.4046216    1.1553655   472190 
  313000   0.99272123   -2.4035705   -2.4035705   -1.2483178  0.067526685   -2.4035705    1.1552527   472178 
  314000   0.99357619   -2.4050073   -2.4050073   -1.2487302  0.068305592   -2.4050073    1.1562771   472166 
  315000   0.99392512   -2.4046299   -2.4046299   -1.2479198   0.07048759   -2.4046299    1.1567101   472155 
  316000   0.99508867   -2.4059181   -2.4059181   -1.2478245  0.071137507   -2.4059181    1.1580936   472143 
  317000   0.99482421   -2.4062835   -2.4062835   -1.2484682  0.071100204   -2.4062835    1.1578153   472131 
  318000   0.99470523   -2.4065833   -2.4065833   -1.2488771  0.065836016   -2.4065833    1.1577062   472119 
  319000   0.99308462   -2.4038425   -2.4038425   -1.2479956  0.067700397   -2.4038425     1.155847   472108 
  320000   0.99273987   -2.4034709   -2.4034709   -1.2479958  0.063939169   -2.4034709    1.1554751   472096 
  321000   0.99289045   -2.4053744   -2.4053744   -1.2496947  0.061082004   -2.4053744    1.1556797   472084 
  322000   0.99275547   -2.4043051   -2.4043051   -1.2487531  0.065745896   -2.4043051     1.155552   472072 
  323000   0.99373569   -2.4041126   -2.4041126   -1.2473903  0.066565712   -2.4041126    1.1567224   472060 
  324000   0.99411585   -2.4043021   -2.4043021   -1.2471103  0.067814759   -2.4043021    1.1571918   472049 
  325000   0.99451594   -2.4050021   -2.4050021   -1.2473151  0.066156007   -2.4050021     1.157687   472037 
  326000   0.99503665   -2.4048046   -2.4048046   -1.2464821  0.067780556   -2.4048046    1.1583226   472025 
  327000   0.99398104   -2.4044054   -2.4044054   -1.2472822  0.065073531   -2.4044054    1.1571232   472013 
  328000   0.99217677    -2.402221    -2.402221   -1.2471713  0.063700859    -2.402221    1.1550497   472002 
  329000   0.99320764   -2.4035626   -2.4035626   -1.2472835  0.059926994   -2.4035626    1.1562792   471990 
  330000   0.99241003   -2.4018057   -2.4018057   -1.2464257  0.071089479   -2.4018057      1.15538   471978 
  331000   0.99209608   -2.4020205   -2.4020205   -1.2469767  0.066872938   -2.4020205    1.1550438   471966 
  332000   0.99336032   -2.4039866   -2.4039866    -1.247444  0.069252367   -2.4039866    1.1565427   471955 
  333000    0.9951361   -2.4053088   -2.4053088   -1.2466692  0.065705403   -2.4053088    1.1586396   471943 
  334000   0.99168603   -2.4023906   -2.4023906   -1.2477386  0.075124104   -2.4023906    1.1546521   471931 
  335000   0.99220359   -2.4037095   -2.4037095   -1.2484255  0.064517904   -2.4037095    1.1552841   471919 
  336000   0.99255165   -2.4049835   -2.4049835   -1.2492672  0.059428106   -2.4049835    1.1557163   471908 
  337000   0.99263993   -2.4046923   -2.4046923   -1.2488438  0.066717361   -2.4046923    1.1558484   471896 
  338000    0.9939265   -2.4051325   -2.4051325   -1.2477565  0.062673198   -2.4051325     1.157376   471884 
  339000   0.99496787   -2.4064768   -2.4064768   -1.2478587  0.067962354   -2.4064768    1.1586181   471872 
  340000   0.99412229   -2.4049377   -2.4049377   -1.2472749   0.07304843   -2.4049377    1.1576628   471860 
  341000   0.99322888   -2.4045418   -2.4045418   -1.2478924  0.065932029   -2.4045418    1.1566494   471849 
  342000     0.994581   -2.4058118   -2.4058118   -1.2475584  0.064439362   -2.4058118    1.1582535   471837 
  343000   0.99383697   -2.4052486   -2.4052486   -1.2478321  0.068233462   -2.4052486    1.1574164   471825 
  344000   0.99384693   -2.4047084   -2.4047084    -1.247251  0.064341474   -2.4047084    1.1574575   471813 
  345000   0.99287307   -2.4043917   -2.4043917   -1.2480414  0.064552787   -2.4043917    1.1563503   471802 
  346000   0.99245648   -2.4025054   -2.4025054   -1.2466109  0.071001623   -2.4025054    1.1558945   471790 
  347000   0.99333866   -2.4048151   -2.4048151   -1.2478638  0.065714012   -2.4048151    1.1569514   471778 
  348000   0.99457291   -2.4069435   -2.4069435   -1.2485251  0.063487854   -2.4069435    1.1584184   471766 
  349000   0.99367975   -2.4055946   -2.4055946   -1.2481895  0.070283352   -2.4055946     1.157405   471755 
  350000   0.99337066    -2.406343    -2.406343   -1.2492685  0.064741236    -2.406343    1.1570745   471743 
  351000   0.99516927    -2.408054    -2.408054    -1.248855  0.060983804    -2.408054     1.159199   471731 
  352000   0.98992895   -2.4027214   -2.4027214   -1.2495972   0.07076853   -2.4027214    1.1531242   471719 
  353000   0.99228628   -2.4058038   -2.4058038   -1.2499066  0.068144884   -2.4058038    1.1558971   471708 
  354000   0.99345069   -2.4081551   -2.4081551   -1.2508721  0.067574772   -2.4081551     1.157283   471696 
  355000   0.99267205   -2.4064565   -2.4064565   -1.2500511  0.067113533   -2.4064565    1.1564054   471684 
  356000   0.99196771   -2.4060609   -2.4060609   -1.2504467  0.068683135   -2.4060609    1.1556142   471672 
  357000   0.99358454   -2.4083938   -2.4083938   -1.2508666  0.060125618   -2.4083938    1.1575273   471660 
  358000   0.99185898    -2.406799    -2.406799   -1.2512551  0.062412623    -2.406799    1.1555439   471649 
  359000   0.98910641   -2.4033585   -2.4033585   -1.2509921  0.068263918   -2.4033585    1.1523664   471637 
  360000   0.99202136   -2.4080944   -2.4080944   -1.2523024   0.06507114   -2.4080944    1.1557919   471625 
  361000   0.99139847   -2.4060915   -2.4060915   -1.2509959  0.063395727   -2.4060915    1.1550956   471613 
  362000   0.99092911   -2.4060358   -2.4060358   -1.2514601   0.07133052   -2.4060358    1.1545757   471602 
  363000   0.99314649   -2.4080136   -2.4080136    -1.250825  0.067336476   -2.4080136    1.1571887   471590 
  364000   0.99268083   -2.4078489   -2.4078489   -1.2511734  0.067600069   -2.4078489    1.1566755   471578 
  365000   0.99057519   -2.4074106   -2.4074106   -1.2531592  0.067618894   -2.4074106    1.1542514   471566 
  366000   0.99101376   -2.4077547   -2.4077547   -1.2529653  0.069053655   -2.4077547    1.1547894   471555 
  367000   0.99129958   -2.4083023   -2.4083023   -1.2531505  0.071022833   -2.4083023    1.1551518   471543 
  368000   0.99227468   -2.4118144   -2.4118144   -1.2554969  0.065931549   -2.4118144    1.1563175   471531 
  369000   0.99234506   -2.4112725   -2.4112725   -1.2548435  0.066186927   -2.4112725     1.156429   471519 
  370000   0.99277024   -2.4117489   -2.4117489   -1.2547975  0.059056929   -2.4117489    1.1569514   471508 
  371000   0.99209627   -2.4105741   -2.4105741   -1.2543787  0.063520649   -2.4105741    1.1561954   471496 
  372000   0.99150746   -2.4098367   -2.4098367    -1.254298  0.059535891   -2.4098367    1.1555386   471484 
  373000   0.98959251   -2.4078989   -2.4078989   -1.2545627  0.065722026   -2.4078989    1.1533362   471472 
  374000   0.99034142   -2.4085875   -2.4085875   -1.2543491  0.065172295   -2.4085875    1.1542384   471460 
  375000   0.99173192   -2.4101418   -2.4101418   -1.2542558   0.06743761   -2.4101418     1.155886   471449 
  376000   0.99026551   -2.4097133   -2.4097133    -1.255507  0.063428307   -2.4097133    1.1542063   471437 
  377000   0.99144823   -2.4109403   -2.4109403   -1.2553261  0.068764564   -2.4109403    1.1556142   471425 
  378000    0.9906945   -2.4097115   -2.4097115   -1.2549465  0.073628244   -2.4097115    1.1547651   471413 
  379000    0.9933902   -2.4131182   -2.4131182   -1.2551839  0.069792447   -2.4131182    1.1579342   471402 
  380000   0.99491423   -2.4142572   -2.4142572   -1.2545169  0.067023687   -2.4142572    1.1597402   471390 
  381000   0.99130117   -2.4096035   -2.4096035   -1.2540455  0.066778037   -2.4096035     1.155558   471378 
  382000    0.9916278   -2.4096591   -2.4096591   -1.2536909  0.066548991   -2.4096591    1.1559682   471366 
  383000   0.98971465   -2.4082448   -2.4082448   -1.2544798  0.058423483   -2.4082448    1.1537649   471355 
  384000   0.99010759   -2.4088696   -2.4088696   -1.2546172  0.064074316   -2.4088696    1.1542524   471343 
  385000   0.98984523   -2.4087963   -2.4087963   -1.2548205  0.065456779   -2.4087963    1.1539759   471331 
  386000    0.9902569   -2.4099059   -2.4099059   -1.2554207  0.058913493   -2.4099059    1.1544852   471319 
  387000   0.99236666    -2.411519    -2.411519   -1.2545471   0.06383195    -2.411519    1.1569719   471308 
  388000   0.99126655    -2.410171    -2.410171   -1.2544522  0.063999405    -2.410171    1.1557187   471296 
  389000   0.99114299   -2.4100109   -2.4100109   -1.2544068  0.065931907   -2.4100109    1.1556041   471284 
  390000   0.98956672   -2.4093058   -2.4093058   -1.2555101  0.064326691   -2.4093058    1.1537956   471272 
  391000   0.98960484   -2.4093103   -2.4093103   -1.2554408  0.066531442   -2.4093103    1.1538695   471260 
  392000   0.98924572   -2.4082969   -2.4082969   -1.2548192  0.063221756   -2.4082969    1.1534776   471249 
  393000   0.99003868   -2.4085992   -2.4085992   -1.2541675  0.061232984   -2.4085992    1.1544316   471237 
  394000   0.98946574   -2.4080172   -2.4080172   -1.2542243   0.06459622   -2.4080172     1.153793   471225 
  395000   0.98886407   -2.4086771   -2.4086771   -1.2555564   0.06134007   -2.4086771    1.1531207   471213 
  396000   0.98859154   -2.4082958   -2.4082958    -1.255466  0.062623807   -2.4082958    1.1528298   471202 
  397000   0.98979042    -2.408823    -2.408823   -1.2545657  0.066739377    -2.408823    1.1542573   471190 
  398000   0.99020918   -2.4086787   -2.4086787   -1.2539036  0.063613101   -2.4086787     1.154775   471178 
  399000     0.990302   -2.4093844   -2.4093844   -1.2544717  0.066847435   -2.4093844    1.1549127   471166 
  400000   0.99213819   -2.4106963   -2.4106963   -1.2536152  0.066999949   -2.4106963    1.1570811   471155 
  401000   0.99024786   -2.4093138   -2.4093138   -1.2544079  0.070082781   -2.4093138    1.1549059   471143 
  402000   0.98959144    -2.406974    -2.406974   -1.2528043  0.070115142    -2.406974    1.1541698   471131 
  403000   0.99017508   -2.4066771   -2.4066771   -1.2517972  0.067517045   -2.4066771    1.1548799   471119 
  404000   0.99140017   -2.4089936   -2.4089936   -1.2526579   0.06351343   -2.4089936    1.1563358   471108 
  405000   0.99136583   -2.4084652   -2.4084652     -1.25214  0.068219058   -2.4084652    1.1563252   471096 
  406000   0.98963657   -2.4069592   -2.4069592   -1.2526216  0.060529061   -2.4069592    1.1543376   471084 
  407000   0.98961737   -2.4064931   -2.4064931   -1.2521485  0.072010168   -2.4064931    1.1543446   471072 
  408000   0.98979234   -2.4073451   -2.4073451   -1.2527671  0.067061593   -2.4073451    1.1545781   471060 
  409000   0.98766639   -2.4045254   -2.4045254   -1.2524003  0.071967562   -2.4045254    1.1521251   471049 
  410000   0.99020461   -2.4084427   -2.4084427   -1.2533273   0.06704288   -2.4084427    1.1551154   471037 
  411000   0.98869162    -2.407699    -2.407699   -1.2543192  0.072103848    -2.407699    1.1533798   471025 
  412000   0.99005445   -2.4080917   -2.4080917   -1.2530926  0.063614128   -2.4080917    1.1549991   471013 
  413000   0.98801517   -2.4063126   -2.4063126   -1.2536656  0.067745062   -2.4063126     1.152647   471002 
  414000   0.98759174   -2.4059838   -2.4059838   -1.2538015  0.064566436   -2.4059838    1.1521823   470990 
  415000   0.98929021   -2.4068889   -2.4068889   -1.2526956  0.063126287   -2.4068889    1.1541933   470978 
  416000   0.98892365   -2.4058751   -2.4058751   -1.2520801  0.063903468   -2.4058751     1.153795   470966 
  417000   0.98910671   -2.4053669   -2.4053669   -1.2513314  0.069630674   -2.4053669    1.1540355   470955 
  418000   0.98840482   -2.4061945   -2.4061945   -1.2529485  0.061971976   -2.4061945     1.153246   470943 
  419000    0.9885859   -2.4064847   -2.4064847    -1.252998  0.060755253   -2.4064847    1.1534867   470931 
  420000   0.98887669   -2.4071569   -2.4071569   -1.2533015  0.066720015   -2.4071569    1.1538554   470919 
  421000   0.98855515    -2.405974    -2.405974   -1.2524669  0.061299966    -2.405974    1.1535071   470908 
  422000   0.98907838   -2.4073338   -2.4073338   -1.2531867  0.064536984   -2.4073338    1.1541471   470896 
  423000   0.98683717   -2.4053557   -2.4053557   -1.2537945  0.067808507   -2.4053557    1.1515612   470884 
  424000   0.98789969   -2.4064648   -2.4064648   -1.2536344  0.061269305   -2.4064648    1.1528304   470872 
  425000   0.98747655   -2.4069884   -2.4069884   -1.2546223   0.07052379   -2.4069884     1.152366   470860 
  426000   0.98852488   -2.4089335   -2.4089335   -1.2553172  0.059619897   -2.4089335    1.1536163   470849 
  427000   0.98838329   -2.4085279   -2.4085279   -1.2550474  0.063413674   -2.4085279    1.1534805   470837 
  428000   0.98932002   -2.4089704   -2.4089704   -1.2543673  0.065897467   -2.4089704    1.1546031   470825 
  429000   0.98914704   -2.4099383   -2.4099383   -1.2555077  0.061425042   -2.4099383    1.1544307   470813 
  430000     0.988827    -2.409788    -2.409788   -1.2557039  0.064231464    -2.409788    1.1540841   470802 
  431000   0.98733309   -2.4083705   -2.4083705   -1.2560006  0.067960167   -2.4083705    1.1523699   470790 
  432000   0.98722737   -2.4087376   -2.4087376   -1.2564617  0.068140288   -2.4087376    1.1522759   470778 
  433000   0.98572639   -2.4084222   -2.4084222   -1.2578689  0.062355703   -2.4084222    1.1505533   470766 
  434000   0.98832564   -2.4108742   -2.4108742     -1.25726  0.060886489   -2.4108742    1.1536141   470755 
  435000   0.98783379   -2.4107796   -2.4107796   -1.2577101  0.056779785   -2.4107796    1.1530694   470743 
  436000   0.98714305   -2.4097097   -2.4097097   -1.2574172  0.061665945   -2.4097097    1.1522925   470731 
  437000   0.98618891    -2.407922    -2.407922   -1.2567139  0.064953076    -2.407922    1.1512081   470719 
  438000   0.99007116   -2.4129049   -2.4129049    -1.257138  0.061467519   -2.4129049     1.155767   470708 
  439000   0.99003748   -2.4131149   -2.4131149   -1.2573578   0.06276382   -2.4131149    1.1557571   470696 
  440000    0.9893581   -2.4129166   -2.4129166   -1.2579231  0.061932954   -2.4129166    1.1549935   470684 
  441000   0.98861938   -2.4115886   -2.4115886   -1.2574282  0.062377726   -2.4115886    1.1541605   470672 
  442000   0.98842407    -2.410028    -2.410028   -1.2560661  0.066295885    -2.410028    1.1539619   470660 
  443000   0.98874302   -2.4105501   -2.4105501   -1.2561888  0.063860207   -2.4105501    1.1543612   470649 
  444000   0.98843815   -2.4101743   -2.4101743   -1.2561396  0.064093193   -2.4101743    1.1540347   470637 
  445000   0.98749038   -2.4085908   -2.4085908   -1.2556332  0.069846269   -2.4085908    1.1529576   470625 
  446000    0.9887644   -2.4095551   -2.4095551   -1.2550806  0.059773313   -2.4095551    1.1544745   470613 
  447000   0.98859653   -2.4090245   -2.4090245    -1.254719  0.064153509   -2.4090245    1.1543055   470602 
  448000   0.98803699   -2.4094721   -2.4094721   -1.2557905  0.068239025   -2.4094721    1.1536816   470590 
  449000   0.98769293    -2.408818    -2.408818   -1.2555087  0.065624176    -2.408818    1.1533092   470578 
  450000   0.98749112   -2.4091488   -2.4091488   -1.2560458  0.061689172   -2.4091488     1.153103   470566 
  451000   0.98794434    -2.410721    -2.410721   -1.2570619  0.065405514    -2.410721    1.1536592   470555 
  452000   0.98719631   -2.4103135   -2.4103135   -1.2574985  0.062807067   -2.4103135    1.1528151   470543 
  453000    0.9870025   -2.4100583   -2.4100583   -1.2574402  0.059141588   -2.4100583    1.1526182   470531 
  454000   0.98623626   -2.4091068   -2.4091068   -1.2573541   0.06487615   -2.4091068    1.1517527   470519 
  455000   0.98696249   -2.4099405   -2.4099405   -1.2573127  0.064474711   -2.4099405    1.1526278   470508 
  456000   0.98640841   -2.4080479   -2.4080479   -1.2560378  0.062640328   -2.4080479    1.1520101   470496 
  457000   0.98883224    -2.411074    -2.411074   -1.2562038  0.064886639    -2.411074    1.1548703   470484 
  458000   0.98877655   -2.4113278   -2.4113278   -1.2564932  0.064969122   -2.4113278    1.1548347   470472 
  459000   0.98808051   -2.4095505   -2.4095505   -1.2554993  0.063386274   -2.4095505    1.1540512   470460 
  460000   0.98723673   -2.4094283   -2.4094283   -1.2563356  0.061685372   -2.4094283    1.1530926   470449 
  461000   0.98808723   -2.4105264   -2.4105264   -1.2564109  0.062786554   -2.4105264    1.1541155   470437 
  462000   0.98864337   -2.4101543   -2.4101543   -1.2553597  0.064200385   -2.4101543    1.1547945   470425 
  463000   0.98984232   -2.4123861   -2.4123861   -1.2561617  0.057620349   -2.4123861    1.1562244   470413 
  464000   0.98751887   -2.4097371   -2.4097371   -1.2561997  0.067086531   -2.4097371    1.1535374   470402 
  465000    0.9882667   -2.4102567   -2.4102567   -1.2558162  0.064151389   -2.4102567    1.1544404   470390 
  466000   0.98553588   -2.4080101   -2.4080101   -1.2567303  0.065013409   -2.4080101    1.1512798   470378 
  467000   0.98773845   -2.4102163   -2.4102163    -1.256334  0.065204033   -2.4102163    1.1538822   470366 
  468000   0.98843032   -2.4100382   -2.4100382   -1.2553207  0.070125828   -2.4100382    1.1547175   470355 
  469000   0.98791266   -2.4099577   -2.4099577   -1.2558155  0.061608254   -2.4099577    1.1541422   470343 
  470000   0.98988925   -2.4113693   -2.4113693   -1.2548884  0.069894967   -2.4113693    1.1564809   470331 
  471000   0.98980193   -2.4113366   -2.4113366   -1.2549283   0.06234799   -2.4113366    1.1564084   470319 
  472000   0.98761312   -2.4103647   -2.4103647   -1.2564866  0.061425659   -2.4103647    1.1538781   470308 
  473000   0.98735501   -2.4104617   -2.4104617   -1.2568557  0.063316903   -2.4104617     1.153606   470296 
  474000   0.98824529   -2.4104652   -2.4104652   -1.2557896  0.061387249   -2.4104652    1.1546756   470284 
  475000   0.98803993   -2.4106059   -2.4106059   -1.2561408  0.065148042   -2.4106059    1.1544651   470272 
  476000    0.9880535   -2.4095907   -2.4095907   -1.2550803  0.066007385   -2.4095907    1.1545105   470260 
  477000   0.98669258   -2.4078517   -2.4078517   -1.2549045  0.071801033   -2.4078517    1.1529472   470249 
  478000   0.98609857   -2.4072718   -2.4072718   -1.2549893  0.066567598   -2.4072718    1.1522825   470237 
  479000   0.98737094   -2.4078834   -2.4078834   -1.2540846    0.0674795   -2.4078834    1.1537988   470225 
  480000   0.98775037   -2.4071591   -2.4071591   -1.2528875  0.066173892   -2.4071591    1.1542716   470213 
  481000   0.98701765    -2.407782    -2.407782   -1.2543396   0.06046298    -2.407782    1.1534424   470202 
  482000   0.98925441   -2.4105591   -2.4105591   -1.2544733  0.062000422   -2.4105591    1.1560858   470190 
  483000   0.98598617   -2.4062622   -2.4062622   -1.2539665  0.068066389   -2.4062622    1.1522958   470178 
  484000   0.98638502   -2.4073978   -2.4073978   -1.2546065    0.0627971   -2.4073978    1.1527913   470166 
  485000   0.98739199   -2.4089752   -2.4089752   -1.2549801  0.068653902   -2.4089752    1.1539952   470155 
  486000   0.98590236   -2.4083997   -2.4083997   -1.2561161  0.062500196   -2.4083997    1.1522836   470143 
  487000   0.98738807   -2.4083718   -2.4083718   -1.2543224  0.057110925   -2.4083718    1.1540495   470131 
  488000   0.98805662   -2.4093217   -2.4093217   -1.2544613  0.063849421   -2.4093217    1.1548604   470119 
  489000    0.9879571   -2.4107657   -2.4107657   -1.2559947  0.062038008   -2.4107657    1.1547711   470108 
  490000   0.98682311    -2.409764    -2.409764    -1.256289   0.05773365    -2.409764     1.153475   470096 
  491000   0.98571217   -2.4086984   -2.4086984   -1.2564925  0.067052528   -2.4086984    1.1522059   470084 
  492000   0.98562899   -2.4086883   -2.4086883   -1.2565502  0.062059139   -2.4086883    1.1521381   470072 
  493000   0.98597676   -2.4095621   -2.4095621   -1.2569881  0.065365706   -2.4095621     1.152574   470060 
  494000   0.98646751   -2.4108582   -2.4108582   -1.2576835  0.061386044   -2.4108582    1.1531747   470049 
  495000   0.98562912   -2.4094185   -2.4094185   -1.2571945  0.066819819   -2.4094185     1.152224   470037 
  496000   0.98470122   -2.4085644   -2.4085644   -1.2573957  0.065529383   -2.4085644    1.1511687   470025 
  497000   0.98587438   -2.4098079   -2.4098079   -1.2572383   0.06393135   -2.4098079    1.1525696   470013 
  498000   0.98688668   -2.4105676   -2.4105676   -1.2567875  0.060148982   -2.4105676    1.1537801   470002 
  499000   0.98608656   -2.4117549   -2.4117549   -1.2588809   0.05710732   -2.4117549    1.1528741   469990 
  500000   0.98697429   -2.4123504   -2.4123504    -1.258409  0.070331416   -2.4123504    1.1539414   469978 
  501000   0.98743557    -2.412638    -2.412638   -1.2581278  0.067246631    -2.412638    1.1545102   469966 
  502000   0.98538969   -2.4105664   -2.4105664   -1.2584213   0.06713059   -2.4105664    1.1521451   469955 
  503000   0.98621668   -2.4117994   -2.4117994   -1.2586579  0.068807065   -2.4117994    1.1531415   469943 
  504000   0.98643312   -2.4107817   -2.4107817   -1.2573577  0.060133681   -2.4107817     1.153424   469931 
  505000   0.98604846   -2.4113562   -2.4113562   -1.2583525   0.05845896   -2.4113562    1.1530037   469919 
  506000    0.9868351   -2.4121832   -2.4121832   -1.2582327  0.063328174   -2.4121832    1.1539505   469908 
  507000   0.98665237   -2.4127189   -2.4127189   -1.2589526  0.062026047   -2.4127189    1.1537663   469896 
  508000   0.98425767   -2.4107799   -2.4107799   -1.2597844  0.065765097   -2.4107799    1.1509954   469884 
  509000   0.98524832   -2.4112241   -2.4112241   -1.2590408  0.062883931   -2.4112241    1.1521833   469872 
  510000   0.98539122   -2.4113169   -2.4113169   -1.2589371  0.064670653   -2.4113169    1.1523799   469860 
  511000   0.98571143   -2.4103228   -2.4103228   -1.2575414  0.064370124   -2.4103228    1.1527813   469849 
  512000   0.98657563   -2.4116867   -2.4116867   -1.2578652  0.068977432   -2.4116867    1.1538215   469837 
  513000   0.98519689   -2.4101379   -2.4101379   -1.2578994  0.064752969   -2.4101379    1.1522384   469825 
  514000   0.98563816   -2.4100453   -2.4100453   -1.2572614   0.06419883   -2.4100453     1.152784   469813 
  515000   0.98628579   -2.4117217   -2.4117217   -1.2581533   0.06371633   -2.4117217    1.1535684   469802 
  516000   0.98554757   -2.4106341   -2.4106341   -1.2578997  0.064203492   -2.4106341    1.1527344   469790 
  517000   0.98505765   -2.4084749   -2.4084749   -1.2562841  0.064387998   -2.4084749    1.1521908   469778 
  518000   0.98618285   -2.4100511   -2.4100511   -1.2565147  0.063682412   -2.4100511    1.1535364   469766 
  519000   0.98512281   -2.4095387   -2.4095387   -1.2572152   0.06358934   -2.4095387    1.1523235   469755 
  520000    0.9837764   -2.4096005   -2.4096005   -1.2588225  0.064321926   -2.4096005    1.1507779   469743 
  521000   0.98427367   -2.4101117   -2.4101117   -1.2587227  0.068218976   -2.4101117     1.151389   469731 
  522000   0.98466109   -2.4105849   -2.4105849   -1.2587132      0.06203   -2.4105849    1.1518717   469719 
  523000   0.98506267   -2.4106682   -2.4106682   -1.2582998  0.064883035   -2.4106682    1.1523684   469708 
  524000   0.98439438   -2.4105368   -2.4105368   -1.2589207  0.061164042   -2.4105368    1.1516161   469696 
  525000   0.98496174   -2.4107151   -2.4107151   -1.2584059  0.064135501   -2.4107151    1.1523092   469684 
  526000   0.98658363   -2.4116638   -2.4116638   -1.2574276  0.060322762   -2.4116638    1.1542362   469672 
  527000   0.98521392    -2.409825    -2.409825   -1.2571619  0.065539193    -2.409825    1.1526632   469660 
  528000   0.98560756   -2.4096354   -2.4096354   -1.2564847  0.072563018   -2.4096354    1.1531507   469649 
  529000   0.98474353   -2.4086419   -2.4086419   -1.2564726  0.067645638   -2.4086419    1.1521692   469637 
  530000   0.98383233    -2.408634    -2.408634   -1.2575015  0.060064579    -2.408634    1.1511325   469625 
  531000   0.98373827   -2.4089247   -2.4089247   -1.2578728  0.060842803   -2.4089247    1.1510519   469613 
  532000   0.98389374   -2.4084426   -2.4084426   -1.2571818  0.060566362   -2.4084426    1.1512608   469602 
  533000   0.98239815   -2.4073902   -2.4073902     -1.25785  0.069503151   -2.4073902    1.1495401   469590 
  534000   0.98349156   -2.4087236   -2.4087236   -1.2578746  0.070809388   -2.4087236     1.150849   469578 
  535000   0.98371447   -2.4090961   -2.4090961   -1.2579569  0.064194446   -2.4090961    1.1511393   469566 
  536000   0.98482535    -2.410102    -2.410102   -1.2576358  0.066361971    -2.410102    1.1524662   469555 
  537000   0.98492241   -2.4101053   -2.4101053   -1.2574961  0.060784411   -2.4101053    1.1526092   469543 
  538000    0.9862292   -2.4117493   -2.4117493   -1.2575812  0.062386442   -2.4117493     1.154168   469531 
  539000   0.98532395   -2.4117813   -2.4117813   -1.2586432  0.060095379   -2.4117813    1.1531381   469519 
  540000    0.9853542   -2.4111752   -2.4111752   -1.2579747  0.064989454   -2.4111752    1.1532005   469508 
  541000   0.98477042   -2.4100703   -2.4100703   -1.2575235  0.066374432   -2.4100703    1.1525467   469496 
  542000   0.98520024   -2.4092173   -2.4092173    -1.256138  0.069156477   -2.4092173    1.1530793   469484 
  543000   0.98455628   -2.4092761   -2.4092761   -1.2569211  0.060295023   -2.4092761     1.152355   469472 
  544000   0.98369616   -2.4089549   -2.4089549   -1.2575771  0.064848816   -2.4089549    1.1513777   469460 
  545000   0.98505656   -2.4091863   -2.4091863   -1.2561892  0.060059556   -2.4091863    1.1529971   469449 
  546000   0.98368572   -2.4076957   -2.4076957   -1.2562738  0.065297324   -2.4076957    1.1514219   469437 
  547000   0.98434549   -2.4089394   -2.4089394   -1.2567158  0.064779316   -2.4089394    1.1522237   469425 
  548000    0.9840387   -2.4089849   -2.4089849   -1.2570909   0.06432868   -2.4089849     1.151894   469413 
  549000   0.98262079   -2.4074555   -2.4074555   -1.2571943  0.061700651   -2.4074555    1.1502612   469402 
  550000   0.98388859   -2.4095629   -2.4095629   -1.2577882  0.058517609   -2.4095629    1.1517747   469390 
  551000   0.98297608   -2.4076745   -2.4076745   -1.2569386  0.060826377   -2.4076745    1.1507359   469378 
  552000   0.98273663   -2.4080717   -2.4080717   -1.2575867  0.061313475   -2.4080717     1.150485   469366 
  553000   0.98300429   -2.4082702   -2.4082702   -1.2574448  0.063730355   -2.4082702    1.1508253   469355 
  554000   0.98308337   -2.4089132   -2.4089132   -1.2579658  0.064058598   -2.4089132    1.1509473   469343 
  555000   0.98321698   -2.4089697   -2.4089697   -1.2578365  0.058463512   -2.4089697    1.1511332   469331 
  556000   0.98458075   -2.4110033   -2.4110033    -1.258244  0.064996251   -2.4110033    1.1527593   469319 
  557000   0.98389403   -2.4100798   -2.4100798   -1.2580975  0.060978214   -2.4100798    1.1519823   469308 
  558000   0.98406794   -2.4114792   -2.4114792   -1.2592638  0.061192302   -2.4114792    1.1522154   469296 
  559000   0.98334994   -2.4109553   -2.4109553   -1.2595512   0.05838801   -2.4109553    1.1514042   469284 
  560000   0.98421769   -2.4111407   -2.4111407    -1.258691  0.061019627   -2.4111407    1.1524497   469272 
  561000   0.98184566   -2.4086219   -2.4086219   -1.2589203  0.061552569   -2.4086219    1.1497016   469260 
  562000   0.98217467   -2.4073033   -2.4073033   -1.2571894  0.064539658   -2.4073033    1.1501138   469249 
  563000   0.98367138     -2.40849     -2.40849   -1.2565941  0.063418281     -2.40849    1.1518959   469237 
  564000   0.98349265   -2.4078455   -2.4078455   -1.2561295  0.062448401   -2.4078455    1.1517161   469225 
  565000   0.98421481   -2.4085226   -2.4085226   -1.2559313  0.058071044   -2.4085226    1.1525912   469213 
  566000   0.98393774   -2.4092576   -2.4092576   -1.2569638   0.06416606   -2.4092576    1.1522938   469202 
  567000   0.98581478   -2.4105302   -2.4105302   -1.2560087  0.057933372   -2.4105302    1.1545215   469190 
  568000   0.98154275   -2.4060825   -2.4060825   -1.2565347  0.067082859   -2.4060825    1.1495478   469178 
  569000    0.9845111   -2.4091299   -2.4091299   -1.2560762   0.06514477   -2.4091299    1.1530537   469166 
  570000   0.98068764   -2.4058558   -2.4058558   -1.2572532  0.057058578   -2.4058558    1.1486026   469155 
  571000   0.98281806   -2.4088809   -2.4088809   -1.2577536  0.062408079   -2.4088809    1.1511272   469143 
  572000   0.98305121   -2.4089896   -2.4089896   -1.2575598  0.060070359   -2.4089896    1.1514298   469131 
  573000   0.98259477   -2.4091852   -2.4091852   -1.2582606  0.065646572   -2.4091852    1.1509246   469119 
  574000   0.98584945    -2.412623    -2.412623   -1.2578591  0.059759279    -2.412623    1.1547639   469108 
  575000   0.98317539    -2.409831    -2.409831   -1.2581699  0.063105032    -2.409831    1.1516611   469096 
  576000   0.98274439   -2.4103138   -2.4103138   -1.2591281  0.060291379   -2.4103138    1.1511857   469084 
  577000   0.98300679   -2.4107847   -2.4107847   -1.2592621  0.064965181   -2.4107847    1.1515226   469072 
  578000   0.98200268   -2.4096076   -2.4096076   -1.2592319  0.064784942   -2.4096076    1.1503757   469060 
  579000    0.9817916   -2.4107307   -2.4107307   -1.2605753  0.058935518   -2.4107307    1.1501555   469049 
  580000   0.98238869   -2.4113761   -2.4113761   -1.2604917  0.063049679   -2.4113761    1.1508844   469037 
  581000   0.98513999   -2.4126067   -2.4126067   -1.2584696  0.056741533   -2.4126067    1.1541371   469025 
  582000   0.98205417   -2.4088588   -2.4088588   -1.2583075  0.064863682   -2.4088588    1.1505514   469013 
  583000   0.98236201   -2.4091652   -2.4091652   -1.2582262  0.056420871   -2.4091652     1.150939   469002 
  584000   0.98200274   -2.4089331   -2.4089331   -1.2583856  0.060419939   -2.4089331    1.1505475   468990 
  585000   0.98187004   -2.4096357   -2.4096357   -1.2592142  0.061927631   -2.4096357    1.1504215   468978 
  586000   0.98288586   -2.4095765   -2.4095765   -1.2579354  0.059378345   -2.4095765    1.1516412   468966 
  587000   0.98407243   -2.4109036   -2.4109036   -1.2578452  0.059576478   -2.4109036    1.1530585   468955 
  588000   0.98393858   -2.4097019   -2.4097019   -1.2567707  0.063858348   -2.4097019    1.1529312   468943 
  589000   0.98451503   -2.4112245   -2.4112245   -1.2575883  0.068184984   -2.4112245    1.1536361   468931 
  590000   0.98453693   -2.4114314   -2.4114314   -1.2577401  0.066899586   -2.4114314    1.1536913   468919 
  591000   0.98361795   -2.4097187   -2.4097187   -1.2570772  0.067027563   -2.4097187    1.1526415   468908 
  592000   0.98223427   -2.4085475   -2.4085475    -1.257498  0.070586693   -2.4085475    1.1510495   468896 
  593000   0.98361214   -2.4100482   -2.4100482   -1.2573545   0.06476993   -2.4100482    1.1526937   468884 
  594000   0.98357926   -2.4099639   -2.4099639   -1.2572793  0.063763057   -2.4099639    1.1526847   468872 
  595000   0.98279139   -2.4093287   -2.4093287   -1.2575379  0.067078019   -2.4093287    1.1517908   468860 
  596000   0.98226859   -2.4094336   -2.4094336   -1.2582285  0.063521803   -2.4094336    1.1512051   468849 
  597000   0.98214113   -2.4111393   -2.4111393   -1.2600541   0.06311633   -2.4111393    1.1510852   468837 
  598000   0.98270484   -2.4109853   -2.4109853     -1.25921  0.061266801   -2.4109853    1.1517754   468825 
  599000   0.98328156   -2.4114826   -2.4114826   -1.2590018  0.063270942   -2.4114826    1.1524808   468813 
  600000   0.98265565   -2.4109878   -2.4109878   -1.2592136  0.062464649   -2.4109878    1.1517742   468802 
  601000   0.98105948   -2.4097774   -2.4097774   -1.2598446  0.063970488   -2.4097774    1.1499328   468790 
  602000   0.98077386   -2.4112555   -2.4112555   -1.2616281  0.058867145   -2.4112555    1.1496274   468778 
  603000   0.98270735   -2.4128164   -2.4128164   -1.2608931  0.063608492   -2.4128164    1.1519233   468766 
  604000    0.9819947   -2.4106612   -2.4106612   -1.2595463  0.063482523   -2.4106612    1.1511149   468755 
  605000    0.9810912   -2.4084362   -2.4084362    -1.258351  0.060085065   -2.4084362    1.1500852   468743 
  606000    0.9820323   -2.4082955   -2.4082955   -1.2570776  0.063641125   -2.4082955    1.1512179   468731 
  607000   0.98262771   -2.4096088   -2.4096088   -1.2576634  0.059395367   -2.4096088    1.1519454   468719 
  608000   0.98122838    -2.407581    -2.407581    -1.257249   0.06131991    -2.407581    1.1503319   468708 
  609000   0.98189224   -2.4070067   -2.4070067    -1.255867  0.063536052   -2.4070067    1.1511397   468696 
  610000   0.98148309   -2.4067508   -2.4067508   -1.2560614  0.055207114   -2.4067508    1.1506895   468684 
  611000   0.98176642   -2.4066789   -2.4066789   -1.2556278  0.063997151   -2.4066789    1.1510511   468672 
  612000   0.98282945   -2.4083295   -2.4083295   -1.2560026  0.066500152   -2.4083295    1.1523269   468660 
  613000   0.98198968    -2.407389    -2.407389   -1.2560196  0.063331403    -2.407389    1.1513694   468649 
  614000   0.98152384   -2.4082545   -2.4082545   -1.2574018  0.069023253   -2.4082545    1.1508527   468637 
  615000   0.98130013   -2.4075378   -2.4075378    -1.256918  0.060878785   -2.4075378    1.1506198   468625 
  616000   0.98287965   -2.4097669   -2.4097669   -1.2572655   0.05868794   -2.4097669    1.1525014   468613 
  617000   0.98366798    -2.410438    -2.410438   -1.2569851  0.056026997    -2.410438    1.1534528   468602 
  618000   0.98246126   -2.4094859   -2.4094859   -1.2574186  0.064337207   -2.4094859    1.1520673   468590 
  619000   0.98144727   -2.4073805   -2.4073805   -1.2564727  0.069498623   -2.4073805    1.1509078   468578 
  620000    0.9808684   -2.4070862   -2.4070862   -1.2568278  0.066315606   -2.4070862    1.1502584   468566 
  621000   0.98183347   -2.4085418   -2.4085418   -1.2571247  0.063344028   -2.4085418    1.1514172   468555 
  622000   0.98106346   -2.4074893   -2.4074893   -1.2569456  0.065897379   -2.4074893    1.1505436   468543 
  623000   0.98057903   -2.4078758   -2.4078758   -1.2578709  0.065258421   -2.4078758     1.150005   468531 
  624000   0.97820454   -2.4049904   -2.4049904   -1.2577408  0.061990816   -2.4049904    1.1472496   468519 
  625000   0.98133174   -2.4079426   -2.4079426   -1.2569984   0.06272654   -2.4079426    1.1509442   468508 
  626000    0.9819792   -2.4082655   -2.4082655   -1.2565324  0.066524547   -2.4082655    1.1517331   468496 
  627000   0.98241999   -2.4084024   -2.4084024   -1.2561228  0.065716672   -2.4084024    1.1522796   468484 
  628000   0.98283138   -2.4086319   -2.4086319   -1.2558403  0.059902227   -2.4086319    1.1527917   468472 
  629000   0.98172003   -2.4080868   -2.4080868   -1.2565692  0.069541965   -2.4080868    1.1515176   468460 
  630000    0.9812146   -2.4081558   -2.4081558    -1.257204   0.06354227   -2.4081558    1.1509518   468449 
  631000   0.98179507   -2.4083422   -2.4083422     -1.25668  0.062282671   -2.4083422    1.1516622   468437 
  632000   0.98087205   -2.4068845   -2.4068845   -1.2562756  0.065971939   -2.4068845    1.1506089   468425 
  633000   0.98188502   -2.4091874   -2.4091874   -1.2573607  0.062609591   -2.4091874    1.1518267   468413 
  634000   0.98147183   -2.4083304   -2.4083304   -1.2569614   0.06094456   -2.4083304     1.151369   468402 
  635000   0.97946372   -2.4071865   -2.4071865   -1.2581437    0.0654718   -2.4071865    1.1490427   468390 
  636000   0.98150304    -2.409786    -2.409786   -1.2583213  0.061610929    -2.409786    1.1514646   468378 
  637000   0.98154868   -2.4096318   -2.4096318   -1.2580841  0.057182915   -2.4096318    1.1515477   468366 
  638000   0.98240517   -2.4094877   -2.4094877   -1.2569082  0.068218869   -2.4094877    1.1525796   468355 
  639000   0.98163082   -2.4095109   -2.4095109   -1.2578103  0.070231163   -2.4095109    1.1517006   468343 
  640000   0.98177159   -2.4083371   -2.4083371   -1.2564418  0.063806733   -2.4083371    1.1518953   468331 
  641000   0.98238919   -2.4089064   -2.4089064   -1.2562569  0.064723799   -2.4089064    1.1526494   468319 
  642000   0.98090021   -2.4077012   -2.4077012   -1.2567717  0.058235549   -2.4077012    1.1509294   468308 
  643000   0.97980513   -2.4070693   -2.4070693   -1.2573953  0.057673149   -2.4070693     1.149674   468296 
  644000    0.9808824   -2.4074329   -2.4074329   -1.2564654  0.063655904   -2.4074329    1.1509675   468284 
  645000   0.98182362   -2.4079413   -2.4079413   -1.2558398  0.061997108   -2.4079413    1.1521015   468272 
  646000   0.98218939   -2.4093388   -2.4093388   -1.2567786  0.063725394   -2.4093388    1.1525602   468260 
  647000   0.98280193   -2.4092372   -2.4092372   -1.2559311  0.063127626   -2.4092372    1.1533061   468249 
  648000   0.98255992   -2.4095911   -2.4095911   -1.2565394  0.066698557   -2.4095911    1.1530516   468237 
  649000    0.9821061   -2.4100475   -2.4100475   -1.2574988  0.065212101   -2.4100475    1.1525486   468225 
  650000   0.98087844   -2.4087454   -2.4087454    -1.257608  0.064005026   -2.4087454    1.1511374   468213 
  651000    0.9799261   -2.4081814   -2.4081814   -1.2581347  0.062060496   -2.4081814    1.1500468   468202 
  652000   0.97913002   -2.4077559   -2.4077559   -1.2586139  0.069105395   -2.4077559    1.1491419   468190 
  653000   0.97986976   -2.4095922   -2.4095922   -1.2595526  0.061772591   -2.4095922    1.1500396   468178 
  654000    0.9788414   -2.4087171   -2.4087171    -1.259855  0.064459622   -2.4087171    1.1488621   468166 
  655000   0.97907421   -2.4083296   -2.4083296   -1.2591672  0.062095453   -2.4083296    1.1491624   468155 
[...]
29832000  0.042561479 -0.030387514 -0.030387514   0.15686326  0.014907542 -0.030387514   0.18725078   124896 
29833000  0.042508941 -0.030140046 -0.030140046   0.15689756  0.015393681 -0.030140046    0.1870376   124884 
29834000  0.042249753 -0.030156365 -0.030156365   0.15575869  0.014741105 -0.030156365   0.18591505   124872 
29835000  0.042527491  -0.03090986  -0.03090986   0.15624533  0.014331556  -0.03090986   0.18715519   124860 
29836000  0.042576164 -0.031056434 -0.031056434   0.15632946  0.014443458 -0.031056434    0.1873859   124849 
29837000  0.042192028  -0.03053508  -0.03053508   0.15517801  0.015536339  -0.03053508   0.18571309   124837 
29838000  0.042427335 -0.030731397 -0.030731397   0.15603538  0.015708287 -0.030731397   0.18676678   124825 
29839000  0.042309441 -0.030821889 -0.030821889   0.15544382  0.015010246 -0.030821889   0.18626571   124813 
29840000   0.04245631 -0.030689186 -0.030689186   0.15623959  0.015510394 -0.030689186   0.18692877   124802 
29841000  0.042319684 -0.030299653 -0.030299653   0.15604549  0.014652479 -0.030299653   0.18634514   124790 
29842000  0.042244584 -0.030347693 -0.030347693   0.15568465  0.014985221 -0.030347693   0.18603235   124778 
29843000  0.042330069 -0.030314511 -0.030314511   0.15611221  0.014441732 -0.030314511   0.18642673   124766 
29844000  0.042213408 -0.030380182 -0.030380182   0.15554915  0.014815145 -0.030380182   0.18592933   124755 
29845000   0.04231866 -0.030960946 -0.030960946    0.1554499  0.015417511 -0.030960946   0.18641084   124743 
29846000   0.04210743 -0.030397639 -0.030397639   0.15510059  0.015006839 -0.030397639   0.18549823   124731 
29847000  0.042103349 -0.030496366 -0.030496366   0.15500174  0.014445196 -0.030496366    0.1854981   124719 
29848000  0.042026923 -0.030299436 -0.030299436   0.15487828   0.01566074 -0.030299436   0.18517772   124708 
29849000  0.042023131 -0.030853814 -0.030853814   0.15432501  0.014760735 -0.030853814   0.18517883   124696 
29850000   0.04191755  -0.02978514  -0.02978514   0.15494621  0.015394167  -0.02978514   0.18473135   124684 
29851000  0.041746882  -0.02978936  -0.02978936   0.15420756  0.015990329  -0.02978936   0.18399692   124672 
29852000    0.0415443 -0.029584551 -0.029584551   0.15353713  0.016521609 -0.029584551   0.18312168   124660 
29853000  0.041804349 -0.030049519 -0.030049519   0.15423468  0.015235281 -0.030049519    0.1842842   124649 
29854000   0.04169522 -0.029416315 -0.029416315   0.15440452  0.015258465 -0.029416315   0.18382083   124637 
29855000  0.041502639 -0.028929566 -0.028929566   0.15405986  0.015930206 -0.028929566   0.18298942   124625 
29856000  0.041865154 -0.029946285 -0.029946285   0.15465928  0.014159961 -0.029946285   0.18460556   124613 
29857000   0.04168037 -0.029574534 -0.029574534   0.15423245  0.014328069 -0.029574534   0.18380698   124602 
29858000  0.041944593 -0.030229176 -0.030229176   0.15476082  0.014534907 -0.030229176      0.18499   124590 
29859000  0.041678768 -0.029836967 -0.029836967   0.15399836  0.014432394 -0.029836967   0.18383532   124578 
29860000  0.041449144 -0.029214394 -0.029214394   0.15362572  0.014457015 -0.029214394   0.18284012   124566 
29861000  0.041705774 -0.030434438 -0.030434438   0.15355397  0.014806187 -0.030434438   0.18398841   124555 
29862000  0.041531714 -0.030060605 -0.030060605   0.15317758  0.014897349 -0.030060605   0.18323818   124543 
29863000  0.041556507 -0.029262488 -0.029262488   0.15410275  0.015347754 -0.029262488   0.18336524   124531 
29864000  0.041538555 -0.029651673 -0.029651673   0.15365201  0.014687678 -0.029651673   0.18330369   124519 
29865000  0.041510275 -0.029498865 -0.029498865   0.15369621  0.015355242 -0.029498865   0.18319508   124508 
29866000  0.041308641 -0.029401129 -0.029401129   0.15292166  0.015797235 -0.029401129   0.18232279   124496 
29867000  0.041231149 -0.029093209 -0.029093209    0.1529051  0.015038791 -0.029093209   0.18199831   124484 
29868000  0.041166005 -0.028947213 -0.028947213   0.15278106  0.015623224 -0.028947213   0.18172827   124472 
29869000   0.04115735 -0.028990493 -0.028990493   0.15271709  0.014153805 -0.028990493   0.18170759   124460 
29870000  0.041338484 -0.029265916 -0.029265916    0.1532575  0.014671278 -0.029265916   0.18252341   124449 
29871000  0.041182385 -0.028949358 -0.028949358   0.15290236  0.013140485 -0.028949358   0.18185172   124437 
29872000  0.041508167  -0.03008006  -0.03008006   0.15322791  0.014087575  -0.03008006   0.18330797   124425 
29873000  0.041162298 -0.029506631 -0.029506631   0.15229145  0.013380088 -0.029506631   0.18179808   124413 
29874000  0.041074418 -0.029000035 -0.029000035   0.15242596  0.014723641 -0.029000035   0.18142599   124402 
29875000  0.040984286 -0.028539952 -0.028539952   0.15250539  0.015133775 -0.028539952   0.18104534   124390 
29876000   0.04127348 -0.028957197 -0.028957197   0.15338323  0.014002124 -0.028957197   0.18234043   124378 
29877000  0.041030871 -0.028585786 -0.028585786   0.15270032  0.014843452 -0.028585786    0.1812861   124366 
29878000  0.041132771 -0.028830236 -0.028830236   0.15292217  0.013515073 -0.028830236    0.1817524   124355 
29879000  0.041074415 -0.029051367 -0.029051367   0.15246069   0.01428455 -0.029051367   0.18151206   124343 
29880000  0.040935335 -0.029188136 -0.029188136   0.15172678  0.015466908 -0.029188136   0.18091491   124331 
29881000  0.041050313 -0.029132481 -0.029132481   0.15230809  0.015119508 -0.029132481   0.18144057   124319 
29882000  0.041110777 -0.029082736 -0.029082736   0.15264116  0.015157614 -0.029082736    0.1817239   124308 
29883000  0.040913793 -0.028743723 -0.028743723    0.1521269  0.015491639 -0.028743723   0.18087062   124296 
29884000  0.040883718 -0.028688739 -0.028688739   0.15206638  0.015374246 -0.028688739   0.18075512   124284 
29885000  0.040894748 -0.028702074 -0.028702074   0.15211927  0.014376856 -0.028702074   0.18082134   124272 
29886000  0.040700295  -0.02863876  -0.02863876   0.15134016  0.013129339  -0.02863876   0.17997892   124260 
29887000  0.040719549 -0.029058329 -0.029058329   0.15102168  0.014731155 -0.029058329   0.18008001   124249 
29888000  0.040612704 -0.028591692 -0.028591692   0.15103315  0.013940874 -0.028591692   0.17962484   124237 
29889000  0.040612163 -0.028731768 -0.028731768   0.15090803   0.01475115 -0.028731768    0.1796398   124225 
29890000  0.040341413 -0.028521438 -0.028521438   0.14993799  0.014948523 -0.028521438   0.17845943   124213 
29891000  0.040552973 -0.028812098 -0.028812098    0.1505991  0.013564254 -0.028812098    0.1794112   124202 
29892000  0.040500464 -0.028678695 -0.028678695   0.15051751  0.014291771 -0.028678695   0.17919621   124190 
29893000  0.040558049 -0.028957429 -0.028957429   0.15051091  0.014316648 -0.028957429   0.17946834   124178 
29894000  0.040358256 -0.028087946 -0.028087946   0.15051357  0.014783327 -0.028087946   0.17860152   124166 
29895000  0.040176769 -0.028194713 -0.028194713   0.14961941   0.01481123 -0.028194713   0.17781412   124155 
29896000  0.040342185 -0.028471416 -0.028471416   0.15009206  0.013665056 -0.028471416   0.17856347   124143 
29897000  0.040296982 -0.028258464 -0.028258464   0.15012217  0.014921191 -0.028258464   0.17838064   124131 
29898000  0.040431556 -0.028144837 -0.028144837   0.15084882  0.014673117 -0.028144837   0.17899365   124119 
29899000  0.040229226 -0.028368244 -0.028368244   0.14974546  0.014653543 -0.028368244   0.17811371   124108 
29900000   0.04010824  -0.02765266  -0.02765266   0.14994256  0.014307216  -0.02765266   0.17759522   124096 
29901000  0.040231404 -0.027930736 -0.027930736   0.15022707  0.014865124 -0.027930736   0.17815781   124084 
29902000  0.040149947 -0.028286873 -0.028286873   0.14952741  0.014188885 -0.028286873   0.17781428   124072 
29903000  0.039918577 -0.027433247 -0.027433247   0.14937346  0.015293574 -0.027433247    0.1768067   124060 
29904000  0.039971528 -0.027692179 -0.027692179   0.14936475  0.015239475 -0.027692179   0.17705693   124049 
29905000  0.040153233 -0.028183934 -0.028183934   0.14969508  0.015548813 -0.028183934   0.17787901   124037 
29906000  0.040125385 -0.028323785 -0.028323785   0.14944906  0.013394229 -0.028323785   0.17777284   124025 
29907000  0.040086172 -0.028401347 -0.028401347   0.14921495  0.014682266 -0.028401347    0.1776163   124013 
29908000  0.040178168 -0.028857811 -0.028857811    0.1491819  0.015166442 -0.028857811   0.17803971   124002 
29909000  0.039801063 -0.027663908 -0.027663908   0.14872183  0.013477167 -0.027663908   0.17638574   123990 
29910000  0.039998532 -0.028491236 -0.028491236   0.14878677  0.013708627 -0.028491236   0.17727801   123978 
29911000  0.039817152 -0.028051815 -0.028051815   0.14843938  0.014730156 -0.028051815    0.1764912   123966 
29912000  0.039833686 -0.027694271 -0.027694271   0.14888588  0.014041012 -0.027694271   0.17658016   123955 
29913000  0.039878903  -0.02803185  -0.02803185   0.14876586  0.014271485  -0.02803185   0.17679771   123943 
29914000  0.039800189 -0.028133699 -0.028133699   0.14833213  0.013389011 -0.028133699   0.17646583   123931 
29915000  0.039926318 -0.027841375 -0.027841375   0.14920083  0.014684934 -0.027841375    0.1770422   123919 
29916000  0.039941582 -0.027665508 -0.027665508    0.1494601  0.014149911 -0.027665508   0.17712561   123908 
29917000   0.03981006 -0.027616449 -0.027616449   0.14894301  0.014500422 -0.027616449   0.17655946   123896 
29918000  0.039680006 -0.027420575 -0.027420575   0.14857913  0.014190465 -0.027420575   0.17599971   123884 
29919000  0.039665469 -0.027507118 -0.027507118   0.14844516  0.013892098 -0.027507118   0.17595227   123872 
29920000  0.039739435 -0.027465245 -0.027465245   0.14883221  0.013282777 -0.027465245   0.17629746   123860 
29921000  0.039764425  -0.02796228  -0.02796228   0.14846172  0.013675842  -0.02796228     0.176424   123849 
29922000  0.039547183  -0.02752292  -0.02752292   0.14795423  0.013749614  -0.02752292   0.17547715   123837 
29923000  0.039624941 -0.027132999 -0.027132999   0.14870622   0.01362845 -0.027132999   0.17583922   123825 
29924000  0.039407636 -0.027346554 -0.027346554    0.1475453  0.014196186 -0.027346554   0.17489185   123813 
29925000  0.039639717 -0.027419056 -0.027419056   0.14851841  0.012902406 -0.027419056   0.17593746   123802 
29926000  0.039401693 -0.027465815 -0.027465815   0.14743216  0.014788025 -0.027465815   0.17489797   123790 
29927000  0.039402627 -0.027044877 -0.027044877    0.1478742  0.013723943 -0.027044877   0.17491907   123778 
29928000  0.039451724 -0.027242151 -0.027242151   0.14791186  0.014862389 -0.027242151   0.17515401   123766 
29929000   0.03944261 -0.026955142 -0.026955142   0.14817396  0.013106025 -0.026955142   0.17512911   123755 
29930000   0.03935266 -0.027104903 -0.027104903   0.14764176  0.014196614 -0.027104903   0.17474667   123743 
29931000  0.039314931  -0.02775313  -0.02775313   0.14684293  0.014696392  -0.02775313   0.17459606   123731 
29932000  0.039450576 -0.027193098 -0.027193098   0.14802235  0.014093656 -0.027193098   0.17521545   123719 
29933000  0.039515125 -0.027554188 -0.027554188   0.14796355  0.014812795 -0.027554188   0.17551774   123708 
29934000  0.039433405 -0.027338855 -0.027338855    0.1478329    0.0133185 -0.027338855   0.17517175   123696 
29935000  0.039445036 -0.027299633 -0.027299633   0.14794078  0.013848568 -0.027299633   0.17524042   123684 
29936000  0.039155426 -0.027070243 -0.027070243   0.14690042  0.014019874 -0.027070243   0.17397066   123672 
29937000  0.039383432 -0.027329019 -0.027329019   0.14767167  0.012837421 -0.027329019   0.17500069   123660 
29938000  0.039288154 -0.026513994 -0.026513994   0.14807886  0.014788273 -0.026513994   0.17459285   123649 
29939000  0.039213948 -0.026924292 -0.026924292   0.14735571  0.014084693 -0.026924292      0.17428   123637 
29940000  0.039123627 -0.026290374 -0.026290374   0.14760509  0.014828014 -0.026290374   0.17389546   123625 
29941000  0.039321485 -0.027146425 -0.027146425   0.14764544  0.013775067 -0.027146425   0.17479186   123613 
29942000  0.039064949 -0.026491308 -0.026491308   0.14717565  0.013983646 -0.026491308   0.17366696   123602 
29943000  0.039150218 -0.027028674 -0.027028674   0.14703426    0.0141759 -0.027028674   0.17406293   123590 
29944000  0.039192575 -0.026487049 -0.026487049   0.14778112   0.01351192 -0.026487049   0.17426817   123578 
29945000  0.039139741 -0.026616927 -0.026616927   0.14743322  0.013888074 -0.026616927   0.17405015   123566 
29946000  0.038980952  -0.02641436  -0.02641436   0.14694511   0.01466337  -0.02641436   0.17335947   123555 
29947000   0.03902371 -0.026472803 -0.026472803   0.14709368  0.014604361 -0.026472803   0.17356648   123543 
29948000  0.038853674 -0.026647627 -0.026647627   0.14617937  0.013259274 -0.026647627     0.172827   123531 
29949000  0.038854346 -0.026478379 -0.026478379    0.1463684  0.013769355 -0.026478379   0.17284677   123519 
29950000   0.03884915 -0.026497479 -0.026497479   0.14634157  0.014510778 -0.026497479   0.17283905   123508 
29951000  0.038967023  -0.02659298  -0.02659298   0.14678733  0.014726672  -0.02659298   0.17338031   123496 
29952000  0.038637805 -0.026206693 -0.026206693    0.1457255  0.013248877 -0.026206693   0.17193219   123484 
29953000  0.038799768 -0.026005861 -0.026005861   0.14666382   0.01471292 -0.026005861   0.17266968   123472 
29954000  0.038896817  -0.02655686  -0.02655686   0.14656154  0.014459234  -0.02655686    0.1731184   123460 
29955000   0.03897904 -0.026816658 -0.026816658   0.14668316  0.014849511 -0.026816658   0.17349981   123449 
29956000  0.038721764 -0.025763639 -0.025763639   0.14660776  0.014556026 -0.025763639    0.1723714   123437 
29957000  0.038864323 -0.026342125 -0.026342125   0.14668071  0.013708319 -0.026342125   0.17302283   123425 
29958000  0.038648041  -0.02616188  -0.02616188    0.1459148  0.013188804  -0.02616188   0.17207668   123413 
29959000  0.038460977 -0.026015923 -0.026015923   0.14524314  0.014437099 -0.026015923   0.17125906   123402 
29960000  0.038633089 -0.026061831 -0.026061831   0.14598034   0.01368416 -0.026061831   0.17204217   123390 
29961000   0.03872797 -0.026477671 -0.026477671    0.1460038   0.01429368 -0.026477671   0.17248147   123378 
29962000  0.038533554 -0.025662747 -0.025662747   0.14596956  0.014077718 -0.025662747    0.1716323   123366 
29963000  0.038415825 -0.025957804 -0.025957804   0.14516538  0.014231158 -0.025957804   0.17112318   123355 
29964000  0.038476147 -0.025975443 -0.025975443   0.14543312  0.014261018 -0.025975443   0.17140856   123343 
29965000  0.038248431 -0.025940472 -0.025940472   0.14447021  0.013623745 -0.025940472   0.17041068   123331 
29966000  0.038258514 -0.025806337 -0.025806337   0.14466586  0.014299872 -0.025806337   0.17047219   123319 
29967000  0.038415981 -0.025802491 -0.025802491   0.14538661  0.014299732 -0.025802491    0.1711891   123308 
29968000  0.038183701 -0.025509574 -0.025509574     0.144661  0.013585318 -0.025509574   0.17017058   123296 
29969000  0.038061761 -0.025179291 -0.025179291   0.14446436   0.01495326 -0.025179291   0.16964365   123284 
29970000  0.038153064 -0.025792517 -0.025792517   0.14427463  0.013058533 -0.025792517   0.17006715   123272 
29971000  0.038011842 -0.025110586 -0.025110586   0.14434356   0.01403272 -0.025110586   0.16945415   123260 
29972000  0.038227094 -0.025680286 -0.025680286   0.14474865  0.013001694 -0.025680286   0.17042893   123249 
29973000  0.038184905 -0.025753882 -0.025753882   0.14450354  0.013949865 -0.025753882   0.17025742   123237 
29974000  0.038013511 -0.025650075 -0.025650075   0.14385964  0.013385435 -0.025650075   0.16950972   123225 
29975000  0.037829673 -0.024917094 -0.024917094   0.14378928  0.012930369 -0.024917094   0.16870638   123213 
29976000  0.037794052  -0.02518661  -0.02518661   0.14337596  0.013603481  -0.02518661   0.16856257   123202 
29977000  0.037860569   -0.0254678   -0.0254678   0.14340789  0.013067883   -0.0254678   0.16887569   123190 
29978000  0.038145429 -0.025170835 -0.025170835   0.14499203   0.01369261 -0.025170835   0.17016287   123178 
29979000   0.03803577 -0.025395005 -0.025395005   0.14429522  0.013983987 -0.025395005   0.16969022   123166 
29980000  0.037733127 -0.024549005 -0.024549005   0.14380606  0.013786784 -0.024549005   0.16835507   123155 
29981000  0.037840766 -0.025135661 -0.025135661   0.14371612  0.013774825 -0.025135661   0.16885178   123143 
29982000  0.037789896 -0.025234914 -0.025234914    0.1434063  0.013734193 -0.025234914   0.16864122   123131 
29983000  0.037663379 -0.025375666 -0.025375666   0.14271734  0.012822745 -0.025375666   0.16809301   123119 
29984000  0.037601309 -0.025135003 -0.025135003   0.14269598  0.014091253 -0.025135003   0.16783098   123108 
29985000   0.03750467  -0.02495638  -0.02495638   0.14245958  0.015003945  -0.02495638   0.16741596   123096 
29986000   0.03762526 -0.025304542 -0.025304542   0.14266609  0.013127675 -0.025304542   0.16797063   123084 
29987000  0.037267297  -0.02485057  -0.02485057   0.14153823  0.013678175  -0.02485057    0.1663888   123072 
29988000  0.037262646 -0.025069934 -0.025069934   0.14131432  0.013540839 -0.025069934   0.16638425   123060 
29989000   0.03733615 -0.024687453 -0.024687453   0.14203991  0.013493335 -0.024687453   0.16672737   123049 
29990000  0.037029564  -0.02437373  -0.02437373   0.14100068  0.013324745  -0.02437373   0.16537441   123037 
29991000  0.037102738 -0.025243564 -0.025243564   0.14047381  0.013538347 -0.025243564   0.16571737   123025 
29992000  0.037018376 -0.024441065 -0.024441065   0.14091563   0.01464425 -0.024441065    0.1653567   123013 
29993000  0.037057074 -0.025211615 -0.025211615   0.14033275  0.013352273 -0.025211615   0.16554437   123002 
29994000   0.03695965 -0.024813531 -0.024813531   0.14031172  0.013367695 -0.024813531   0.16512525   122990 
29995000  0.037008515 -0.024844942 -0.024844942   0.14051476  0.012794982 -0.024844942    0.1653597   122978 
29996000  0.036909404 -0.024344957 -0.024344957   0.14058799   0.01361578 -0.024344957   0.16493295   122966 
29997000  0.036848372 -0.024666503 -0.024666503   0.14000845     0.013382 -0.024666503   0.16467496   122955 
29998000  0.036960988 -0.024357539 -0.024357539   0.14083682  0.012955262 -0.024357539   0.16519436   122943 
29999000  0.036682689 -0.024041134 -0.024041134   0.13992539  0.013093942 -0.024041134   0.16396653   122931 
30000000    0.0367425 -0.024837493 -0.024837493   0.13941241  0.011537911 -0.024837493   0.16424991   122919 
Loop time of 30578.4 on 384 procs for 30000000 steps with 122919 atoms

Performance: 423828.992 tau/day, 981.086 timesteps/s
88.6% CPU use with 384 MPI tasks x 1 OpenMP threads

MPI task timing breakdown:
Section |  min time  |  avg time  |  max time  |%varavg|  %CPU | %total
-----------------------------------------------------------------------
Pair    | 792.48     | 3460.2     | 6491.4     |3156.4 |  91.5 | 11.32
Bond    | 18.612     | 19.494     | 20.563     |   8.3 | 100.0 |  0.06
Neigh   | 2425.9     | 3919.4     | 4899.1     |1006.3 |  97.0 | 12.82
Comm    | 8358.1     | 12040      | 15297      |1729.7 |  87.3 | 39.37
Output  | 2454.1     | 2459.3     | 2468.3     |   7.6 |  81.6 |  8.04
Modify  | 6828.8     | 8048.3     | 10985      |1030.2 |  87.1 | 26.32
Other   |            | 632.2      |            |       |       |  2.07

Nlocal:        320.102 ave        1372 max          18 min
Histogram: 110 89 69 66 23 13 7 4 1 2
Nghost:        2198.77 ave        4485 max          92 min
Histogram: 30 40 34 48 44 41 65 46 25 11
Neighs:        116.568 ave         669 max          10 min
Histogram: 156 113 61 33 12 4 2 2 0 1

Total # of neighbors = 44762
Ave neighs/atom = 0.36415851
Ave special neighs/atom = 0.0000000
Neighbor list builds = 3176471
Dangerous builds = 2795294

Total wall time: 8:29:44
