LAMMPS (29 Oct 2020)
  using 1 OpenMP thread(s) per MPI task
Created orthogonal box = (0.0000000 0.0000000 0.0000000) to (40.000000 40.000000 80.000000)
  1 by 1 by 4 MPI processor grid
Lattice spacing in x,y,z = 1.1485556 1.1485556 1.1485556
Created 49000 atoms
  create_atoms CPU = 0.020 seconds
Lattice spacing in x,y,z = 2.8114422 2.8114422 2.8114422
Created 0 atoms
  create_atoms CPU = 0.006 seconds
49000 atoms in group solvent
Balancing ...
Neighbor list info ...
  update every 1 steps, delay 10 steps, check yes
  max neighbors/atom: 2000, page size: 100000
  master list distance cutoff = 1.9
  ghost atom cutoff = 1.9
  binsize = 0.95, bins = 43 43 85
  1 neighbor lists, perpetual/occasional/extra = 1 0 0
  (1) pair lj/smooth/linear, perpetual
      attributes: half, newton on
      pair build: half/bin/newton
      stencil: half/bin/3d/newton
      bin: standard
 rebalancing time: 0.029 seconds
  iteration count = 3
  initial/final maximal load/proc = 20825.000 13475.000
  initial/final imbalance factor  = 1.7000000 1.1000000
  x cuts: 0.0000000 1.0000000
  y cuts: 0.0000000 1.0000000
  z cuts: 0.0000000 0.15625 0.28125 0.4375 1.0000000
Setting up Verlet run ...
  Unit style    : lj
  Current step  : 0
  Time step     : 0.005
Per MPI rank memory allocation (min/avg/max) = 12.96 | 13.24 | 13.58 Mbytes
Step Temp E_pair E_mol TotEng Press 
       0          0.5  -0.57754581            0   0.17243888   0.60677542 
  100000    0.3369227   -0.3207188            0   0.18465493   0.21058545 
Loop time of 492.235 on 4 procs for 100000 steps with 49000 atoms

Performance: 87762.899 tau/day, 203.155 timesteps/s
100.0% CPU use with 4 MPI tasks x 1 OpenMP threads

MPI task timing breakdown:
Section |  min time  |  avg time  |  max time  |%varavg| %total
---------------------------------------------------------------
Pair    | 61.729     | 128.69     | 297.25     | 860.2 | 26.14
Bond    | 0.0087699  | 0.011987   | 0.018235   |   3.4 |  0.00
Neigh   | 24.877     | 50.788     | 116.58     | 534.3 | 10.32
Comm    | 24.303     | 259.91     | 378.09     | 867.4 | 52.80
Output  | 0.00015852 | 0.00017052 | 0.00017507 |   0.0 |  0.00
Modify  | 9.0493     | 19.447     | 45.138     | 337.3 |  3.95
Other   |            | 33.39      |            |       |  6.78

Nlocal:        12250.0 ave       27675 max        5976 min
Histogram: 3 0 0 0 0 0 0 0 0 1
Nghost:        4555.25 ave        7067 max        2881 min
Histogram: 1 0 1 1 0 0 0 0 0 1
Neighs:        62433.5 ave      141492 max       29605 min
Histogram: 3 0 0 0 0 0 0 0 0 1

Total # of neighbors = 249734
Ave neighs/atom = 5.0966122
Ave special neighs/atom = 0.0000000
Neighbor list builds = 7451
Dangerous builds = 433
dynamic group thermo defined
New timer settings: style=full  mode=nosync  timeout=off
Setting up Verlet run ...
  Unit style    : lj
  Current step  : 100000
  Time step     : 0.005
Per MPI rank memory allocation (min/avg/max) = 17.87 | 22.68 | 29.87 Mbytes
Step Temp E_pair E_vdwl TotEng Press PotEng KinEng Volume 
  100000    0.3369227   -0.3207188   -0.3207188   0.18465493   0.21058545   -0.3207188   0.50537374       128000 
  101000   0.42835044  -0.29154153  -0.29154153   0.35097101   0.29594612  -0.29154153   0.64251254       128000 
  102000   0.46821968  -0.27830949  -0.27830949   0.42400569   0.33633565  -0.27830949   0.70231519       128000 
  103000   0.48720444  -0.27229734  -0.27229734    0.4584944   0.35344593  -0.27229734   0.73079174       128000 
  104000   0.49309966  -0.27040035  -0.27040035   0.46923405   0.35990566  -0.27040035    0.7396344       128000 
  105000   0.50252028  -0.26943334  -0.26943334   0.48433169   0.36982547  -0.26943334   0.75376503       128000 
  106000   0.49971698  -0.26808189  -0.26808189   0.48147828   0.36492441  -0.26808189   0.74956017       128000 
  107000   0.49765283  -0.26755828  -0.26755828   0.47890573   0.37056768  -0.26755828   0.74646401       128000 
  108000     0.498412  -0.26846747  -0.26846747   0.47913528    0.3682419  -0.26846747   0.74760274       128000 
  109000   0.50180374  -0.26864457  -0.26864457   0.48404568   0.37026316  -0.26864457   0.75269025       128000 
  110000   0.50135249  -0.26867957  -0.26867957   0.48333382   0.37164276  -0.26867957   0.75201339       128000 
  111000   0.49968425  -0.26808177  -0.26808177    0.4814293    0.3659767  -0.26808177   0.74951107       128000 
  112000   0.50214175  -0.26762245  -0.26762245    0.4855748   0.37121503  -0.26762245   0.75319725       128000 
  113000   0.50261342  -0.26863594  -0.26863594   0.48526881    0.3646326  -0.26863594   0.75390474       128000 
  114000   0.50445357  -0.26823224  -0.26823224   0.48843267   0.36419223  -0.26823224   0.75666492       128000 
  115000   0.50514901  -0.26607797  -0.26607797   0.49163008   0.37466238  -0.26607797   0.75770805       128000 
  116000   0.50470174  -0.26514208  -0.26514208   0.49189507   0.37426741  -0.26514208   0.75703715       128000 
  117000   0.50350286  -0.26645686  -0.26645686   0.48878202   0.36760284  -0.26645686   0.75523888       128000 
  118000   0.50333446    -0.266665    -0.266665   0.48832128    0.3755674    -0.266665   0.75498628       128000 
  119000   0.50504923  -0.26655802  -0.26655802   0.49100037    0.3737526  -0.26655802   0.75755839       128000 
  120000   0.50378462  -0.26912775  -0.26912775   0.48653375   0.36604237  -0.26912775    0.7556615       128000 
  121000   0.50381615  -0.26835871  -0.26835871   0.48735008   0.36480921  -0.26835871    0.7557088       128000 
  122000   0.50373808  -0.26696549  -0.26696549   0.48862622     0.372011  -0.26696549    0.7555917       128000 
  123000    0.5045293   -0.2685584   -0.2685584    0.4882201   0.36749939   -0.2685584    0.7567785       128000 
  124000   0.50592284  -0.26653765  -0.26653765   0.49233112   0.36993275  -0.26653765   0.75886877       128000 
  125000    0.5033032  -0.26679536  -0.26679536   0.48814404   0.36593386  -0.26679536    0.7549394       128000 
  126000   0.50335167  -0.26619309  -0.26619309     0.488819   0.37223212  -0.26619309   0.75501209       128000 
  127000   0.50506155  -0.26545167  -0.26545167    0.4921252   0.37630778  -0.26545167   0.75757687       128000 
  128000   0.50359219  -0.26619189  -0.26619189   0.48918098   0.36952011  -0.26619189   0.75537287       128000 
  129000   0.50588324  -0.26547407  -0.26547407   0.49333531   0.37642956  -0.26547407   0.75880938       128000 
  130000   0.50741376  -0.26599311  -0.26599311   0.49511201   0.37593718  -0.26599311   0.76110511       128000 
  131000   0.50490136  -0.26663155  -0.26663155   0.49070503   0.36932388  -0.26663155   0.75733658       128000 
  132000    0.5066352  -0.26680292  -0.26680292   0.49313437   0.37178412  -0.26680292   0.75993729       128000 
  133000   0.50537736  -0.26331446  -0.26331446   0.49473611   0.38492636  -0.26331446   0.75805057       128000 
  134000   0.50658643  -0.26884473  -0.26884473   0.49101941   0.37004745  -0.26884473   0.75986414       128000 
  135000   0.50689278  -0.26652202  -0.26652202   0.49380164   0.37441937  -0.26652202   0.76032366       128000 
  136000   0.50850292  -0.26663126  -0.26663126   0.49610755   0.37434771  -0.26663126   0.76273881       128000 
  137000   0.50602034  -0.26557013  -0.26557013   0.49344489   0.37358224  -0.26557013   0.75901502       128000 
  138000    0.5073398  -0.26499098  -0.26499098   0.49600319   0.38120423  -0.26499098   0.76099417       128000 
  139000   0.50552704   -0.2634371   -0.2634371   0.49483799   0.37555298   -0.2634371   0.75827509       128000 
  140000   0.50778839  -0.26708824  -0.26708824   0.49457879   0.37408372  -0.26708824   0.76166703       128000 
  141000   0.50935399  -0.26718286  -0.26718286   0.49683254    0.3746143  -0.26718286    0.7640154       128000 
  142000   0.50692466  -0.26709072  -0.26709072   0.49328075   0.36924683  -0.26709072   0.76037147       128000 
  143000   0.51005471  -0.26539993  -0.26539993   0.49966652   0.38004137  -0.26539993   0.76506646       128000 
  144000   0.50864579  -0.26713506  -0.26713506   0.49581806   0.37432787  -0.26713506   0.76295312       128000 
  145000    0.5093096  -0.26704428  -0.26704428   0.49690452   0.37295822  -0.26704428   0.76394881       128000 
  146000   0.50908275  -0.26792102  -0.26792102   0.49568753   0.37426038  -0.26792102   0.76360855       128000 
  147000   0.51135475  -0.26744204  -0.26744204   0.49957443   0.37512527  -0.26744204   0.76701647       128000 
  148000   0.51043429   -0.2668451   -0.2668451   0.49879071   0.37289514   -0.2668451    0.7656358       128000 
  149000   0.51057389  -0.26481093  -0.26481093   0.50103428   0.38030047  -0.26481093   0.76584521       128000 
  150000   0.51187375  -0.26508762  -0.26508762   0.50270733    0.3777129  -0.26508762   0.76779495       128000 
  151000   0.51304494  -0.26511699  -0.26511699   0.50443472   0.38054865  -0.26511699   0.76955171       128000 
  152000   0.51357517  -0.26514206  -0.26514206   0.50520498   0.37879178  -0.26514206   0.77034704       128000 
  153000   0.51099806  -0.26592765  -0.26592765    0.5005538   0.37642072  -0.26592765   0.76648144       128000 
  154000   0.50930885  -0.26382936  -0.26382936   0.50011832   0.37621354  -0.26382936   0.76394769       128000 
  155000   0.50867087  -0.26442123  -0.26442123    0.4985695   0.38346291  -0.26442123   0.76299073       128000 
  156000   0.51063161  -0.26472381  -0.26472381   0.50120797    0.3786619  -0.26472381   0.76593178       128000 
  157000   0.51103034  -0.26520607  -0.26520607    0.5013238   0.38129459  -0.26520607   0.76652987       128000 
  158000   0.51003082  -0.26494426  -0.26494426   0.50008636   0.37663095  -0.26494426   0.76503062       128000 
  159000   0.51191405  -0.26550913  -0.26550913   0.50234628   0.37683883  -0.26550913   0.76785541       128000 
  160000   0.51369276  -0.26506387  -0.26506387   0.50545955   0.38330015  -0.26506387   0.77052342       128000 
  161000   0.51329528  -0.26584807  -0.26584807   0.50407913   0.38184117  -0.26584807    0.7699272       128000 
  162000   0.51036272  -0.26518452  -0.26518452   0.50034394    0.3711542  -0.26518452   0.76552846       128000 
  163000   0.51039186  -0.26605337  -0.26605337    0.4995188   0.38101032  -0.26605337   0.76557217       128000 
  164000   0.51221432  -0.26550441  -0.26550441   0.50280139   0.37934812  -0.26550441   0.76830581       128000 
  165000   0.51406705    -0.265866    -0.265866   0.50521884   0.37669781    -0.265866   0.77108484       128000 
  166000   0.51429522  -0.26470245  -0.26470245   0.50672464   0.38767561  -0.26470245   0.77142709       128000 
  167000   0.51466128  -0.26314064  -0.26314064   0.50883553   0.38677005  -0.26314064   0.77197617       128000 
  168000   0.51644013  -0.26447809  -0.26447809   0.51016629   0.38069372  -0.26447809   0.77464438       128000 
  169000   0.51258652  -0.26346628  -0.26346628   0.50539781   0.38144433  -0.26346628   0.76886409       128000 
  170000   0.51446072  -0.26473337  -0.26473337   0.50694197   0.37712515  -0.26473337   0.77167534       128000 
  171000   0.51411265  -0.26548058  -0.26548058   0.50567266    0.3796442  -0.26548058   0.77115324       128000 
  172000   0.51496022  -0.26374012  -0.26374012   0.50868444   0.38219159  -0.26374012   0.77242456       128000 
  173000   0.51477603  -0.26392735  -0.26392735   0.50822094   0.38087048  -0.26392735   0.77214828       128000 
  174000    0.5143423  -0.26614793  -0.26614793   0.50534978   0.37969049  -0.26614793   0.77149771       128000 
  175000   0.51530929  -0.26630879  -0.26630879   0.50663937   0.37698445  -0.26630879   0.77294816       128000 
  176000   0.51217663  -0.26333447  -0.26333447    0.5049148   0.38192796  -0.26333447   0.76824927       128000 
  177000   0.51351847  -0.26497838  -0.26497838   0.50528361   0.38333365  -0.26497838   0.77026199       128000 
  178000   0.51466501  -0.26311195  -0.26311195   0.50886982   0.38606342  -0.26311195   0.77198176       128000 
  179000   0.51644192   -0.2635471   -0.2635471   0.51109997   0.38630628   -0.2635471   0.77464707       128000 
  180000   0.51583256  -0.26404148  -0.26404148   0.50969156   0.38082992  -0.26404148   0.77373304       128000 
  181000   0.51456136   -0.2638623   -0.2638623   0.50796398   0.37947146   -0.2638623   0.77182628       128000 
  182000   0.51485518  -0.26330146  -0.26330146   0.50896555   0.38754954  -0.26330146   0.77226701       128000 
  183000   0.51676335  -0.26318111  -0.26318111   0.51194809   0.38513492  -0.26318111    0.7751292       128000 
  184000   0.51576132  -0.26235159  -0.26235159   0.51127461    0.3902543  -0.26235159   0.77362619       128000 
  185000   0.51620137  -0.26411607  -0.26411607   0.51017018   0.37951846  -0.26411607   0.77428625       128000 
  186000   0.51631602  -0.26328828  -0.26328828   0.51116994   0.38517215  -0.26328828   0.77445822       128000 
  187000   0.51516382  -0.26469193  -0.26469193   0.50803802   0.38019978  -0.26469193   0.77272995       128000 
  188000   0.51786876  -0.26227291  -0.26227291   0.51451438   0.38702843  -0.26227291   0.77678729       128000 
  189000   0.51812733  -0.26321573  -0.26321573    0.5139594   0.38772861  -0.26321573   0.77717513       128000 
  190000     0.517964  -0.26372384  -0.26372384    0.5132063   0.38221956  -0.26372384   0.77693014       128000 
  191000   0.51784892  -0.26518763  -0.26518763    0.5115699   0.38088836  -0.26518763   0.77675753       128000 
  192000   0.51743365  -0.26491993  -0.26491993   0.51121471   0.38086727  -0.26491993   0.77613464       128000 
  193000   0.51499273  -0.26227646  -0.26227646   0.51019688   0.38116627  -0.26227646   0.77247333       128000 
  194000   0.51747122  -0.26363132  -0.26363132   0.51255967   0.38042756  -0.26363132   0.77619099       128000 
  195000   0.51787995  -0.26304936  -0.26304936   0.51375471   0.38820721  -0.26304936   0.77680407       128000 
  196000   0.51589036  -0.26387716  -0.26387716   0.50994259   0.37613232  -0.26387716   0.77381975       128000 
  197000   0.51851383  -0.26442995  -0.26442995   0.51332491    0.3876017  -0.26442995   0.77775487       128000 
  198000   0.52194322  -0.26327702  -0.26327702   0.51962183   0.38656355  -0.26327702   0.78289885       128000 
  199000   0.52245074  -0.26165372  -0.26165372    0.5220064   0.39103048  -0.26165372   0.78366012       128000 
  200000   0.51900618  -0.26232649  -0.26232649   0.51616689   0.38247088  -0.26232649   0.77849338       128000 
  201000   0.51942562  -0.26362651  -0.26362651   0.51549603   0.38643586  -0.26362651   0.77912254       128000 
  202000   0.51811408  -0.26290395  -0.26290395   0.51425131   0.38433481  -0.26290395   0.77715526       128000 
  203000   0.51943493  -0.26266509  -0.26266509    0.5164714   0.38652797  -0.26266509   0.77913649       128000 
  204000   0.51973398  -0.26282056  -0.26282056    0.5167645   0.38521452  -0.26282056   0.77958507       128000 
  205000   0.52138401  -0.26408023  -0.26408023   0.51797983   0.38517814  -0.26408023   0.78206006       128000 
  206000    0.5183741  -0.26206495  -0.26206495   0.51548033   0.38923189  -0.26206495   0.77754528       128000 
  207000   0.52151273   -0.2629207   -0.2629207   0.51933243   0.38777038   -0.2629207   0.78225313       128000 
  208000   0.52518047  -0.26250695  -0.26250695   0.52524767   0.39399698  -0.26250695   0.78775462       128000 
  209000   0.52215043  -0.26311865  -0.26311865   0.52009101   0.38984714  -0.26311865   0.78320966       128000 
  210000   0.51994051  -0.26268204  -0.26268204   0.51721281   0.38844414  -0.26268204   0.77989485       128000 
  211000   0.51888542  -0.26126911  -0.26126911   0.51704313   0.38802838  -0.26126911   0.77831224       128000 
  212000    0.5232608  -0.26336263  -0.26336263   0.52151256   0.38660883  -0.26336263   0.78487518       128000 
  213000   0.52422036   -0.2635096   -0.2635096    0.5228049   0.38754642   -0.2635096    0.7863145       128000 
  214000   0.52076423  -0.26454184  -0.26454184   0.51658856   0.38102818  -0.26454184   0.78113041       128000 
  215000   0.51997119  -0.26384222  -0.26384222   0.51609864   0.38052207  -0.26384222   0.77994087       128000 
  216000   0.52206151  -0.26255287  -0.26255287   0.52052342   0.38620467  -0.26255287   0.78307629       128000 
  217000   0.52577346  -0.26278123  -0.26278123   0.52586287   0.39149985  -0.26278123    0.7886441       128000 
  218000   0.52540383  -0.26268853  -0.26268853   0.52540113   0.39103277  -0.26268853   0.78808966       128000 
  219000   0.52748682  -0.26286904  -0.26286904   0.52834504    0.3906154  -0.26286904   0.79121409       128000 
  220000   0.52519962   -0.2618501   -0.2618501   0.52593326   0.39291942   -0.2618501   0.78778336       128000 
  221000   0.52551999  -0.26281101  -0.26281101   0.52545288   0.39599518  -0.26281101    0.7882639       128000 
  222000   0.52582315  -0.26136575  -0.26136575   0.52735288   0.39211236  -0.26136575   0.78871863       128000 
  223000    0.5256106  -0.26113985  -0.26113985   0.52725997   0.39060768  -0.26113985   0.78839981       128000 
  224000   0.52272229  -0.26169649  -0.26169649   0.52237094   0.38817533  -0.26169649   0.78406743       128000 
  225000   0.52540435  -0.26185254  -0.26185254    0.5262379   0.38865061  -0.26185254   0.78809045       128000 
  226000   0.52477483  -0.26063636  -0.26063636   0.52650982   0.39400499  -0.26063636   0.78714618       128000 
  227000   0.52318449  -0.26082382  -0.26082382   0.52393691   0.38805125  -0.26082382   0.78476073       128000 
  228000   0.52548054  -0.26123722  -0.26123722    0.5269675   0.39482865  -0.26123722   0.78820472       128000 
  229000   0.52716526  -0.25904257  -0.25904257   0.53168918   0.40084911  -0.25904257   0.79073175       128000 
  230000   0.52707745  -0.26054019  -0.26054019   0.53005985   0.39657803  -0.26054019   0.79060004       128000 
  231000   0.52584458  -0.26118215  -0.26118215   0.52756862     0.392257  -0.26118215   0.78875077       128000 
  232000   0.52512088    -0.262385    -0.262385   0.52528024   0.38878664    -0.262385   0.78766524       128000 
  233000   0.52734515  -0.26102055  -0.26102055   0.52998103   0.39039577  -0.26102055   0.79100158       128000 
  234000   0.52771849  -0.25979379  -0.25979379   0.53176779     0.399435  -0.25979379   0.79156159       128000 
  235000   0.52945796  -0.26152638  -0.26152638   0.53264435   0.39531458  -0.26152638   0.79417073       128000 
  236000   0.52915298  -0.26114086  -0.26114086   0.53257241   0.39648582  -0.26114086   0.79371327       128000 
  237000   0.52688225  -0.25925858  -0.25925858   0.53104866   0.39969453  -0.25925858   0.79030724       128000 
  238000   0.52656308  -0.26195403  -0.26195403   0.52787447   0.39234297  -0.26195403    0.7898285       128000 
  239000   0.52686886  -0.26214232  -0.26214232   0.52814485   0.39272592  -0.26214232   0.79028717       128000 
  240000   0.52658696  -0.25955211  -0.25955211    0.5303122   0.39503629  -0.25955211   0.78986432       128000 
  241000   0.53060155  -0.26058729  -0.26058729   0.53529879   0.39437325  -0.26058729   0.79588609       128000 
  242000   0.52869223  -0.26154317  -0.26154317   0.53147899   0.39435482  -0.26154317   0.79302216       128000 
  243000   0.53139758  -0.25981643  -0.25981643   0.53726366   0.40018599  -0.25981643    0.7970801       128000 
  244000   0.53166179  -0.26128086  -0.26128086   0.53619555   0.39618594  -0.26128086   0.79747641       128000 
  245000   0.53085436  -0.26133544  -0.26133544   0.53492984   0.39081717  -0.26133544   0.79626528       128000 
  246000   0.52945417  -0.26028285  -0.26028285    0.5338822   0.39285456  -0.26028285   0.79416505       128000 
  247000    0.5298328  -0.26151771  -0.26151771   0.53321527   0.39370875  -0.26151771   0.79473298       128000 
  248000   0.52858328  -0.25654266  -0.25654266   0.53631608   0.40181872  -0.25654266   0.79285873       128000 
  249000   0.53247839  -0.26165409  -0.26165409    0.5370472   0.39224333  -0.26165409   0.79870129       128000 
  250000   0.52894966  -0.26125643  -0.26125643   0.53215187   0.39398688  -0.26125643   0.79340829       128000 
  251000   0.52771597  -0.25984441  -0.25984441   0.53171339   0.39796686  -0.25984441   0.79155779       128000 
  252000   0.52947723  -0.25980207  -0.25980207   0.53439756   0.39327506  -0.25980207   0.79419963       128000 
  253000   0.52855037   -0.2594598   -0.2594598   0.53334958   0.39715407   -0.2594598   0.79280938       128000 
  254000    0.5300519  -0.26063222  -0.26063222    0.5344294   0.39288101  -0.26063222   0.79506162       128000 
  255000   0.53143981  -0.26064762  -0.26064762   0.53649583   0.39671462  -0.26064762   0.79714344       128000 
  256000    0.5343314  -0.26149669  -0.26149669   0.53998405    0.3972592  -0.26149669   0.80148074       128000 
  257000   0.53109323  -0.25967665  -0.25967665   0.53694693   0.39335424  -0.25967665   0.79662358       128000 
  258000    0.5317871  -0.25860654  -0.25860654   0.53905784   0.40557512  -0.25860654   0.79766438       128000 
  259000     0.533387  -0.26121308  -0.26121308    0.5388511   0.39308234  -0.26121308   0.80006418       128000 
  260000   0.53230432  -0.26039702  -0.26039702   0.53804317   0.39676594  -0.26039702   0.79844018       128000 
  261000   0.53027092  -0.25894532  -0.25894532   0.53644484   0.39362483  -0.25894532   0.79539015       128000 
  262000   0.53245689  -0.26242386  -0.26242386   0.53624517   0.39110434  -0.26242386   0.79866903       128000 
  263000   0.53523268  -0.26055259  -0.26055259   0.54228005   0.39899851  -0.26055259   0.80283264       128000 
  264000   0.53375633    -0.259901    -0.259901   0.54071715    0.3971536    -0.259901   0.80061815       128000 
  265000   0.53225444  -0.25786178  -0.25786178   0.54050359   0.40408637  -0.25786178   0.79836537       128000 
  266000   0.53596611  -0.25909869  -0.25909869   0.54483408   0.40332703  -0.25909869   0.80393276       128000 
  267000   0.53630861  -0.26070716  -0.26070716   0.54373933   0.39375807  -0.26070716    0.8044465       128000 
  268000    0.5365075  -0.26059029  -0.26059029   0.54415453   0.39979568  -0.26059029   0.80474482       128000 
  269000   0.53306328  -0.25853042  -0.25853042   0.54104818   0.39985075  -0.25853042    0.7995786       128000 
  270000   0.53292056  -0.26062448  -0.26062448   0.53874005   0.40203186  -0.26062448   0.79936453       128000 
  271000   0.53262533  -0.25785725  -0.25785725   0.54106443   0.40527925  -0.25785725   0.79892169       128000 
  272000    0.5336943   -0.2590445   -0.2590445   0.54148061   0.39935279   -0.2590445   0.80052512       128000 
  273000    0.5346092   -0.2602803   -0.2602803   0.54161714   0.40026208   -0.2602803   0.80189744       128000 
  274000   0.53451011   -0.2566289   -0.2566289   0.54511991   0.40625012   -0.2566289   0.80174881       128000 
  275000   0.53662966  -0.25908975  -0.25908975   0.54583831   0.40494235  -0.25908975   0.80492806       128000 
  276000   0.53459508  -0.25874581  -0.25874581   0.54313044   0.40251943  -0.25874581   0.80187625       128000 
  277000   0.53335621  -0.25906712  -0.25906712   0.54095086   0.40678351  -0.25906712   0.80001799       128000 
  278000   0.53373089  -0.25819564  -0.25819564   0.54238436   0.40790302  -0.25819564      0.80058       128000 
  279000   0.53479518  -0.25585892  -0.25585892   0.54631748   0.40493423  -0.25585892    0.8021764       128000 
  280000   0.53246755  -0.25832923  -0.25832923   0.54035579    0.4021039  -0.25832923   0.79868502       128000 
  281000   0.53083448  -0.25893721  -0.25893721   0.53729826     0.403764  -0.25893721   0.79623547       128000 
  282000    0.5334351  -0.25844211  -0.25844211   0.54169421   0.40532749  -0.25844211   0.80013632       128000 
  283000   0.53696785   -0.2563241   -0.2563241   0.54911124   0.40713534   -0.2563241   0.80543534       128000 
  284000   0.53838145  -0.25895631  -0.25895631   0.54859938     0.404525  -0.25895631   0.80755569       128000 
  285000   0.53753352  -0.25953774  -0.25953774   0.54674607   0.40096554  -0.25953774   0.80628382       128000 
  286000   0.53716001  -0.25864921  -0.25864921   0.54707436   0.40150383  -0.25864921   0.80572357       128000 
  287000   0.53991157  -0.26152512  -0.26152512    0.5483257   0.39971714  -0.26152512   0.80985082       128000 
  288000   0.53714197  -0.25866395  -0.25866395   0.54703256    0.3997599  -0.25866395   0.80569651       128000 
  289000    0.5369238   -0.2556878   -0.2556878   0.54968147   0.40913846   -0.2556878   0.80536927       128000 
  290000   0.53994363  -0.25569083  -0.25569083   0.55420809   0.41100288  -0.25569083   0.80989892       128000 
  291000   0.53978808  -0.25724177  -0.25724177   0.55242383   0.40534892  -0.25724177    0.8096656       128000 
  292000   0.53907512  -0.25766072  -0.25766072   0.55093545   0.40489324  -0.25766072   0.80859617       128000 
  293000   0.53854987  -0.25786002  -0.25786002   0.54994831   0.40453403  -0.25786002   0.80780832       128000 
  294000   0.53612432  -0.25908354  -0.25908354   0.54508653   0.40201427  -0.25908354   0.80417007       128000 
  295000   0.53726534  -0.25785256  -0.25785256     0.548029   0.40182706  -0.25785256   0.80588156       128000 
  296000   0.53847689  -0.25673822  -0.25673822   0.55096063   0.40896179  -0.25673822   0.80769885       128000 
  297000   0.54074358  -0.25800155  -0.25800155   0.55309727   0.40972149  -0.25800155   0.81109881       128000 
  298000   0.53954937  -0.25748725  -0.25748725   0.55182029   0.40987841  -0.25748725   0.80930754       128000 
  299000   0.54041622  -0.25883193  -0.25883193   0.55177586    0.4031988  -0.25883193   0.81060779       128000 
  300000   0.53810535  -0.25848432  -0.25848432   0.54865722   0.40427937  -0.25848432   0.80714155       128000 
  301000   0.53793107  -0.25657474  -0.25657474    0.5503054   0.40437527  -0.25657474   0.80688013       128000 
  302000   0.53884072  -0.25735008  -0.25735008    0.5508945   0.40190021  -0.25735008   0.80824459       128000 
  303000   0.54226255  -0.25653865  -0.25653865   0.55683857   0.40903661  -0.25653865   0.81337722       128000 
  304000   0.54197224  -0.25849566  -0.25849566   0.55444611   0.40246269  -0.25849566   0.81294177       128000 
  305000   0.53752156  -0.25626075  -0.25626075   0.55000514   0.40837979  -0.25626075   0.80626588       128000 
  306000    0.5406921  -0.25894767  -0.25894767   0.55207392   0.40605655  -0.25894767   0.81102159       128000 
  307000   0.54358803  -0.25737665  -0.25737665   0.55798875   0.40808688  -0.25737665    0.8153654       128000 
  308000   0.53894701  -0.25636898  -0.25636898   0.55203505   0.40632708  -0.25636898   0.80840402       128000 
  309000   0.53966247  -0.25803819  -0.25803819     0.551439    0.4085413  -0.25803819   0.80947718       128000 
  310000    0.5407938  -0.25735717  -0.25735717   0.55381698   0.40512731  -0.25735717   0.81117415       128000 
  311000   0.54114041   -0.2602564   -0.2602564   0.55143765   0.39917173   -0.2602564   0.81169404       128000 
  312000    0.5429229  -0.25945425  -0.25945425   0.55491348   0.40239621  -0.25945425   0.81436772       128000 
  313000   0.53927332   -0.2557915   -0.2557915   0.55310197   0.40946293   -0.2557915   0.80889348       128000 
  314000   0.53951606  -0.25782173  -0.25782173   0.55143585   0.40839248  -0.25782173   0.80925757       128000 
  315000   0.54084883  -0.25836876  -0.25836876   0.55288793   0.40411797  -0.25836876   0.81125669       128000 
  316000   0.53897342  -0.25589566  -0.25589566   0.55254798   0.40840946  -0.25589566   0.80844363       128000 
  317000   0.54211141  -0.25667281  -0.25667281   0.55647771   0.40521246  -0.25667281   0.81315053       128000 
  318000   0.54480019  -0.25782303  -0.25782303   0.55936058   0.40913737  -0.25782303   0.81718361       128000 
  319000   0.54710788  -0.25675381  -0.25675381   0.56389125   0.40953892  -0.25675381   0.82064506       128000 
  320000   0.54474642  -0.25348152  -0.25348152   0.56362143   0.42067144  -0.25348152   0.81710295       128000 
  321000   0.54338772  -0.25639071  -0.25639071   0.55867424   0.40667217  -0.25639071   0.81506495       128000 
  322000   0.54271799  -0.25723247  -0.25723247    0.5568279   0.40859466  -0.25723247   0.81406037       128000 
  323000   0.54233483  -0.25961297  -0.25961297   0.55387268    0.4023544  -0.25961297   0.81348565       128000 
  324000   0.54417159  -0.25669612  -0.25669612    0.5595446   0.40914267  -0.25669612   0.81624072       128000 
  325000   0.54550783  -0.25508869  -0.25508869   0.56315636   0.41303264  -0.25508869   0.81824504       128000 
  326000   0.54282902  -0.25572154  -0.25572154   0.55850538   0.41072178  -0.25572154   0.81422692       128000 
  327000   0.54681149   -0.2569956   -0.2569956   0.56320489   0.40950335   -0.2569956   0.82020049       128000 
  328000     0.546856  -0.25586966  -0.25586966    0.5643976   0.41377624  -0.25586966   0.82026726       128000 
  329000   0.54688244  -0.25447528  -0.25447528   0.56583164   0.41569677  -0.25447528   0.82030691       128000 
  330000   0.54418827   -0.2548365   -0.2548365   0.56142924   0.41301666   -0.2548365   0.81626574       128000 
  331000   0.54359262   -0.2561602   -0.2561602    0.5592121   0.40981169   -0.2561602   0.81537229       128000 
  332000    0.5435074  -0.25591086  -0.25591086   0.55933361    0.4128365  -0.25591086   0.81524447       128000 
  333000   0.54297992  -0.25725531  -0.25725531   0.55719795   0.41446352  -0.25725531   0.81445326       128000 
  334000   0.54172027  -0.25648752  -0.25648752   0.55607631   0.40930623  -0.25648752   0.81256382       128000 
  335000   0.54212038  -0.25723429  -0.25723429   0.55592968   0.40693032  -0.25723429   0.81316397       128000 
  336000   0.54647777  -0.25613755  -0.25613755   0.56356238   0.41108766  -0.25613755   0.81969993       128000 
  337000   0.54741232  -0.25534796  -0.25534796   0.56575377   0.41649404  -0.25534796   0.82110173       128000 
  338000   0.54286243  -0.25426799  -0.25426799   0.56000904   0.41228759  -0.25426799   0.81427703       128000 
  339000   0.54548358  -0.25541699  -0.25541699   0.56279169    0.4139322  -0.25541699   0.81820867       128000 
  340000   0.54852873  -0.25691017  -0.25691017   0.56586613   0.40792768  -0.25691017   0.82277631       128000 
  341000    0.5457696  -0.25411671  -0.25411671   0.56452099   0.42153108  -0.25411671    0.8186377       128000 
  342000   0.54767302  -0.25614479  -0.25614479   0.56534797    0.4102473  -0.25614479   0.82149276       128000 
  343000   0.54848092  -0.25618146  -0.25618146   0.56652314   0.41888136  -0.25618146    0.8227046       128000 
  344000   0.54477568  -0.25475757  -0.25475757   0.56238928    0.4119464  -0.25475757   0.81714685       128000 
  345000    0.5445395  -0.25448395  -0.25448395   0.56230864   0.41933071  -0.25448395   0.81679258       128000 
  346000   0.55133254  -0.25871538  -0.25871538   0.56826655   0.40803425  -0.25871538   0.82698193       128000 
  347000   0.54958438  -0.25427109  -0.25427109   0.57008865   0.41340821  -0.25427109   0.82435975       128000 
  348000   0.54731564  -0.25481946  -0.25481946   0.56613725   0.41506553  -0.25481946    0.8209567       128000 
  349000   0.54788401  -0.25665289  -0.25665289   0.56515634   0.41081669  -0.25665289   0.82180924       128000 
  350000   0.54880427   -0.2575256   -0.2575256     0.565664   0.41289251   -0.2575256   0.82318961       128000 
  351000   0.54905393  -0.25549725  -0.25549725   0.56806684   0.41623873  -0.25549725   0.82356409       128000 
  352000   0.54847474  -0.25621077  -0.25621077   0.56648454    0.4115052  -0.25621077   0.82269532       128000 
  353000   0.54813624  -0.25535472  -0.25535472   0.56683285   0.41488657  -0.25535472   0.82218757       128000 
  354000   0.54791366  -0.25486061  -0.25486061    0.5669931   0.41612483  -0.25486061   0.82185371       128000 
  355000   0.55050438  -0.25554716  -0.25554716   0.57019256   0.41346482  -0.25554716   0.82573972       128000 
  356000    0.5514042  -0.25381149  -0.25381149   0.57327793   0.41830593  -0.25381149   0.82708942       128000 
  357000   0.55119085  -0.25414929  -0.25414929   0.57262011    0.4154587  -0.25414929    0.8267694       128000 
  358000   0.54846389  -0.25520635  -0.25520635   0.56747269   0.41066702  -0.25520635   0.82267904       128000 
  359000   0.55169836  -0.25635158  -0.25635158   0.57117908   0.41365391  -0.25635158   0.82753065       128000 
  360000     0.553936  -0.25667403  -0.25667403   0.57421301   0.41462875  -0.25667403   0.83088704       128000 
  361000   0.55441585   -0.2558989   -0.2558989    0.5757079   0.41187207   -0.2558989    0.8316068       128000 
  362000   0.55364083  -0.25407772  -0.25407772   0.57636658   0.41894014  -0.25407772    0.8304443       128000 
  363000   0.55181535  -0.25552607  -0.25552607   0.57218006   0.41411682  -0.25552607   0.82770613       128000 
  364000   0.55400383  -0.25618215  -0.25618215   0.57480664   0.41240763  -0.25618215   0.83098879       128000 
  365000   0.55462201  -0.25360946  -0.25360946   0.57830658   0.42309072  -0.25360946   0.83191604       128000 
  366000   0.55271175  -0.25361013  -0.25361013   0.57544057   0.42241966  -0.25361013   0.82905071       128000 
  367000   0.55748795   -0.2538241   -0.2538241   0.58239075   0.42440439   -0.2538241   0.83621486       128000 
  368000   0.55391303  -0.25375262  -0.25375262   0.57709997   0.42152534  -0.25375262   0.83085259       128000 
  369000   0.55327954   -0.2538715   -0.2538715   0.57603087   0.42207413   -0.2538715   0.82990237       128000 
  370000   0.55431607  -0.25444359  -0.25444359   0.57701354   0.42200662  -0.25444359   0.83145713       128000 
  371000   0.55634843  -0.25276183  -0.25276183   0.58174378   0.42323437  -0.25276183   0.83450561       128000 
  372000   0.55480544  -0.25231276  -0.25231276   0.57987841   0.42204904  -0.25231276   0.83219118       128000 
  373000   0.55124482   -0.2540884   -0.2540884   0.57276195    0.4166374   -0.2540884   0.82685035       128000 
  374000   0.55505066  -0.25756485  -0.25756485   0.57499414   0.40990953  -0.25756485   0.83255899       128000 
  375000   0.55597289  -0.25569728  -0.25569728   0.57824504   0.41593028  -0.25569728   0.83394232       128000 
  376000   0.55368946  -0.25414002  -0.25414002   0.57637722   0.41939523  -0.25414002   0.83051724       128000 
  377000   0.55272752  -0.25727131  -0.25727131   0.57180305   0.41180155  -0.25727131   0.82907436       128000 
  378000   0.55156126  -0.25517084  -0.25517084   0.57215416   0.41923968  -0.25517084   0.82732501       128000 
  379000   0.55215054  -0.25507998  -0.25507998   0.57312892   0.41651158  -0.25507998   0.82820891       128000 
  380000   0.55438195  -0.25469435  -0.25469435    0.5768616   0.41270399  -0.25469435   0.83155595       128000 
  381000   0.55406654  -0.25249069  -0.25249069   0.57859216   0.42312463  -0.25249069   0.83108285       128000 
  382000   0.55736299  -0.25288797  -0.25288797   0.58313945   0.42023686  -0.25288797   0.83602743       128000 
  383000   0.55838064  -0.25277396  -0.25277396   0.58477991   0.42456571  -0.25277396   0.83755387       128000 
  384000   0.55673412  -0.25235223  -0.25235223   0.58273191   0.42554547  -0.25235223   0.83508414       128000 
  385000   0.55831712   -0.2537558   -0.2537558    0.5837028   0.42041698   -0.2537558    0.8374586       128000 
  386000   0.55883544  -0.25320802  -0.25320802   0.58502804   0.42380521  -0.25320802   0.83823606       128000 
  387000   0.55777772  -0.25379556  -0.25379556   0.58285395   0.41530836  -0.25379556   0.83664951       128000 
  388000   0.55474609  -0.25314848  -0.25314848   0.57895366   0.41856797  -0.25314848   0.83210215       128000 
  389000   0.55600772  -0.25576902  -0.25576902   0.57822555   0.41378953  -0.25576902   0.83399457       128000 
  390000   0.55693283  -0.25481124  -0.25481124   0.58057096    0.4196455  -0.25481124    0.8353822       128000 
  391000   0.55702464  -0.25236829  -0.25236829   0.58315162    0.4224304  -0.25236829   0.83551991       128000 
  392000    0.5574023  -0.25286294  -0.25286294   0.58322345    0.4281385  -0.25286294   0.83608639       128000 
  393000   0.55761328  -0.25301856  -0.25301856   0.58338428   0.42091624  -0.25301856   0.83640285       128000 
  394000   0.56013673  -0.25343373  -0.25343373   0.58675422    0.4229669  -0.25343373   0.84018795       128000 
  395000   0.56460057  -0.25221574  -0.25221574   0.59466784   0.42736298  -0.25221574   0.84688358       128000 
  396000   0.56127114  -0.25086492  -0.25086492   0.59102461   0.43095916  -0.25086492   0.84188952       128000 
  397000   0.56047771  -0.25413799  -0.25413799   0.58656141   0.41990546  -0.25413799   0.84069941       128000 
  398000   0.56296954  -0.25420496  -0.25420496   0.59023211   0.42661851  -0.25420496   0.84443707       128000 
  399000   0.56244305  -0.25269196  -0.25269196   0.59095541    0.4198192  -0.25269196   0.84364736       128000 
  400000   0.56541719  -0.25470051  -0.25470051   0.59340797   0.41917643  -0.25470051   0.84810848       128000 
  401000   0.56049435  -0.25014343  -0.25014343   0.59058094   0.43196467  -0.25014343   0.84072437       128000 
  402000   0.55802025  -0.25449432  -0.25449432   0.58251898    0.4218686  -0.25449432    0.8370133       128000 
  403000   0.55910099  -0.25422209  -0.25422209   0.58441227   0.41858578  -0.25422209   0.83863436       128000 
  404000   0.56015446  -0.25516396  -0.25516396   0.58505058   0.41919506  -0.25516396   0.84021454       128000 
  405000   0.55888605  -0.25088604  -0.25088604   0.58742593   0.43136123  -0.25088604   0.83831197       128000 
  406000   0.55847653  -0.25241262  -0.25241262   0.58528508    0.4267374  -0.25241262    0.8376977       128000 
  407000   0.55773389  -0.25219318  -0.25219318   0.58439058    0.4240753  -0.25219318   0.83658376       128000 
  408000   0.55833697  -0.24967979  -0.24967979   0.58780857   0.43246135  -0.24967979   0.83748836       128000 
  409000   0.56024012   -0.2520695   -0.2520695   0.58827353   0.42516367   -0.2520695   0.84034303       128000 
  410000   0.56074248  -0.25284566  -0.25284566   0.58825089   0.42548539  -0.25284566   0.84109655       128000 
  411000   0.56268307  -0.25008174  -0.25008174   0.59392564   0.42907288  -0.25008174   0.84400738       128000 
  412000   0.56481113  -0.25288833  -0.25288833   0.59431108   0.42994584  -0.25288833   0.84719941       128000 
  413000   0.56528136   -0.2534453   -0.2534453   0.59445944   0.42166508   -0.2534453   0.84790474       128000 
  414000    0.5665588  -0.25292165  -0.25292165   0.59689921   0.42550889  -0.25292165   0.84982085       128000 
  415000   0.56572787  -0.24990403  -0.24990403   0.59867045   0.43189831  -0.24990403   0.84857448       128000 
  416000    0.5663387  -0.25270808  -0.25270808   0.59678263   0.42784155  -0.25270808   0.84949071       128000 
  417000   0.56842025  -0.25079209  -0.25079209   0.60182089   0.43081343  -0.25079209   0.85261298       128000 
  418000   0.56493931  -0.25138754  -0.25138754   0.59600414     0.429357  -0.25138754   0.84739168       128000 
  419000   0.56232335  -0.25204282  -0.25204282   0.59142498   0.42439899  -0.25204282   0.84346781       128000 
  420000   0.56470774  -0.25450175  -0.25450175   0.59254257   0.41693967  -0.25450175   0.84704432       128000 
  421000   0.56176714  -0.25277178  -0.25277178   0.58986173   0.42643337  -0.25277178   0.84263351       128000 
  422000   0.56281644  -0.25185912  -0.25185912   0.59234832   0.42415344  -0.25185912   0.84420743       128000 
  423000   0.56072219  -0.25063747  -0.25063747   0.59042866    0.4286701  -0.25063747   0.84106613       128000 
  424000   0.56259025  -0.25049763  -0.25049763   0.59337052   0.43090861  -0.25049763   0.84386815       128000 
  425000   0.56634269  -0.25030655  -0.25030655   0.59919015   0.43542901  -0.25030655   0.84949669       128000 
  426000   0.56771646  -0.24997207  -0.24997207   0.60158524   0.43298009  -0.24997207   0.85155731       128000 
  427000   0.56522214  -0.25045696  -0.25045696   0.59735895   0.43062416  -0.25045696    0.8478159       128000 
  428000   0.56352124  -0.25077616  -0.25077616   0.59448844    0.4295096  -0.25077616    0.8452646       128000 
  429000   0.56984342  -0.25238797  -0.25238797   0.60235971   0.43200421  -0.25238797   0.85474768       128000 
  430000   0.56476161  -0.25117229  -0.25117229   0.59595284   0.42794985  -0.25117229   0.84712513       128000 
  431000   0.56717127  -0.25292954  -0.25292954      0.59781   0.42218253  -0.25292954   0.85073954       128000 
  432000   0.56482905  -0.24833851  -0.24833851   0.59888777   0.43422418  -0.24833851   0.84722628       128000 
  433000   0.56557528   -0.2491215   -0.2491215   0.59922411   0.43250027   -0.2491215   0.84834561       128000 
  434000   0.56620952  -0.24907827  -0.24907827   0.60021869    0.4374709  -0.24907827   0.84929695       128000 
  435000   0.56787775   -0.2499939   -0.2499939   0.60180535   0.43151453   -0.2499939   0.85179925       128000 
  436000   0.57053559  -0.24887027  -0.24887027   0.60691564    0.4373083  -0.24887027   0.85578591       128000 
  437000   0.56689611  -0.25040117  -0.25040117   0.59992565   0.43033862  -0.25040117   0.85032681       128000 
  438000   0.57114288  -0.25103222  -0.25103222   0.60566462   0.43631614  -0.25103222   0.85669683       128000 
  439000   0.56892579  -0.25098922  -0.25098922   0.60238206   0.42977655  -0.25098922   0.85337127       128000 
  440000   0.56746877  -0.25111296  -0.25111296   0.60007283   0.42630189  -0.25111296   0.85118579       128000 
  441000   0.56837483  -0.25185791  -0.25185791   0.60068694   0.42652851  -0.25185791   0.85254485       128000 
  442000   0.56617064  -0.25104126  -0.25104126   0.59819737   0.42867637  -0.25104126   0.84923863       128000 
  443000   0.56716889  -0.24966025  -0.24966025   0.60107572   0.43626477  -0.24966025   0.85073597       128000 
  444000   0.56770463  -0.25296325  -0.25296325   0.59857632   0.42653707  -0.25296325   0.85153957       128000 
  445000   0.56687414  -0.25194569  -0.25194569   0.59834816   0.42744118  -0.25194569   0.85029385       128000 
  446000   0.56891076     -0.25068     -0.25068   0.60266872   0.43551592     -0.25068   0.85334872       128000 
  447000   0.57175448  -0.25049701  -0.25049701   0.60711721   0.43509827  -0.25049701   0.85761422       128000 
  448000   0.56909729  -0.25203502  -0.25203502    0.6015935   0.43111899  -0.25203502   0.85362852       128000 
  449000     0.568498  -0.25198207  -0.25198207   0.60074754   0.43407004  -0.25198207    0.8527296       128000 
  450000   0.57180538  -0.25314732  -0.25314732   0.60454326   0.42519472  -0.25314732   0.85769057       128000 
  451000   0.56911946  -0.25098792  -0.25098792   0.60267386   0.43758583  -0.25098792   0.85366178       128000 
  452000   0.57091374   -0.2510891   -0.2510891   0.60526404   0.43340304   -0.2510891   0.85635314       128000 
  453000   0.57046744  -0.24911974  -0.24911974   0.60656396   0.43334963  -0.24911974    0.8556837       128000 
  454000    0.5695211  -0.25036378  -0.25036378   0.60390043   0.42938836  -0.25036378   0.85426421       128000 
  455000    0.5674718  -0.24850394  -0.24850394    0.6026864   0.44090539  -0.24850394   0.85119033       128000 
  456000   0.57597735  -0.25223166  -0.25223166   0.61171673   0.43094469  -0.25223166   0.86394839       128000 
  457000   0.56930314  -0.24923649  -0.24923649   0.60470079   0.43665719  -0.24923649   0.85393728       128000 
  458000   0.56869594  -0.24826791  -0.24826791   0.60475859   0.43867557  -0.24826791    0.8530265       128000 
  459000   0.56893739  -0.24866349  -0.24866349   0.60472518   0.43834043  -0.24866349   0.85338867       128000 
  460000   0.57206542  -0.25176439  -0.25176439   0.60631623   0.43280586  -0.25176439   0.85808062       128000 
  461000   0.57131048  -0.25191797  -0.25191797   0.60503026   0.43052961  -0.25191797   0.85694824       128000 
  462000   0.57182122  -0.25019311  -0.25019311   0.60752122   0.43092472  -0.25019311   0.85771432       128000 
  463000   0.57202509  -0.24930965  -0.24930965   0.60871048   0.43861595  -0.24930965   0.85802013       128000 
  464000   0.57109437   -0.2484292   -0.2484292   0.60819488   0.43476274   -0.2484292   0.85662407       128000 
  465000   0.57056355  -0.25145284  -0.25145284   0.60437501   0.42690698  -0.25145284   0.85582786       128000 
  466000   0.56898006  -0.24931344  -0.24931344   0.60413923   0.43859971  -0.24931344   0.85345267       128000 
  467000   0.57352269  -0.25022529  -0.25022529   0.61004118   0.43760798  -0.25022529   0.86026647       128000 
  468000   0.57574547  -0.24708463  -0.24708463   0.61651596   0.44078804  -0.24708463   0.86360059       128000 
  469000   0.57411139  -0.24952576  -0.24952576   0.61162375   0.44038919  -0.24952576    0.8611495       128000 
  470000   0.57249908   -0.2483719   -0.2483719   0.61035919    0.4417398   -0.2483719   0.85873109       128000 
  471000   0.57409893  -0.24871363  -0.24871363    0.6124172   0.43319016  -0.24871363   0.86113082       128000 
  472000   0.57293479  -0.25010576  -0.25010576   0.60927889   0.43416526  -0.25010576   0.85938465       128000 
  473000   0.57140304  -0.24741047  -0.24741047    0.6096766   0.44476467  -0.24741047   0.85708707       128000 
  474000    0.5679542  -0.25022932  -0.25022932   0.60168459   0.43030124  -0.25022932   0.85191391       128000 
  475000   0.57163736  -0.24937166  -0.24937166   0.60806688   0.43888436  -0.24937166   0.85743854       128000 
  476000   0.57368802  -0.24689554  -0.24689554   0.61361893   0.44143163  -0.24689554   0.86051447       128000 
  477000   0.57609535  -0.24936332  -0.24936332   0.61476207   0.44034459  -0.24936332    0.8641254       128000 
  478000   0.57582834  -0.24702596  -0.24702596   0.61669891   0.44306446  -0.24702596   0.86372488       128000 
  479000   0.57619614   -0.2505323   -0.2505323   0.61374426   0.43985014   -0.2505323   0.86427657       128000 
  480000   0.57425769  -0.24946162  -0.24946162   0.61190734   0.43407265  -0.24946162   0.86136895       128000 
  481000   0.57609574  -0.24768008  -0.24768008    0.6164459   0.44493627  -0.24768008   0.86412598       128000 
  482000   0.57742323   -0.2481478   -0.2481478   0.61796936   0.44674581   -0.2481478   0.86611717       128000 
  483000   0.57358733  -0.24768434  -0.24768434    0.6126791   0.44150302  -0.24768434   0.86036344       128000 
  484000   0.57818271  -0.24928019  -0.24928019   0.61797618   0.44127918  -0.24928019   0.86725637       128000 
  485000   0.57882573    -0.248528    -0.248528   0.61969288   0.44214869    -0.248528   0.86822088       128000 
  486000   0.58158173  -0.24760581  -0.24760581   0.62474898   0.44520296  -0.24760581   0.87235478       128000 
  487000   0.58073296  -0.24945308  -0.24945308   0.62162859   0.43943298  -0.24945308   0.87108167       128000 
  488000   0.57914762  -0.24637894  -0.24637894   0.62232476   0.44420863  -0.24637894    0.8687037       128000 
  489000   0.57894387  -0.24756624  -0.24756624   0.62083184   0.44231672  -0.24756624   0.86839808       128000 
  490000   0.57695728  -0.24963055  -0.24963055   0.61578771   0.43672134  -0.24963055   0.86541826       128000 
  491000   0.57246999  -0.24619968  -0.24619968   0.61248778   0.44115551  -0.24619968   0.85868746       128000 
  492000   0.57448587  -0.24848419  -0.24848419   0.61322703   0.44002182  -0.24848419   0.86171122       128000 
  493000   0.58005559  -0.25037318  -0.25037318   0.61969244   0.43689872  -0.25037318   0.87006562       128000 
  494000   0.57712125  -0.24739114  -0.24739114   0.61827307   0.44343206  -0.24739114   0.86566421       128000 
  495000   0.57754222   -0.2473042   -0.2473042   0.61899145   0.44235427   -0.2473042   0.86629565       128000 
  496000   0.57977765  -0.24645908  -0.24645908   0.62318964   0.44129606  -0.24645908   0.86964872       128000 
  497000   0.58284842  -0.24949106  -0.24949106   0.62476374   0.44648388  -0.24949106   0.87425479       128000 
  498000   0.57778414  -0.24908369  -0.24908369   0.61757483   0.43606732  -0.24908369   0.86665852       128000 
  499000    0.5789513  -0.24766312  -0.24766312    0.6207461   0.44752664  -0.24766312   0.86840922       128000 
  500000   0.57919648  -0.24789235  -0.24789235   0.62088464   0.44587876  -0.24789235   0.86877699       128000 
  501000   0.58012303  -0.24646982  -0.24646982   0.62369697   0.44789479  -0.24646982   0.87016679       128000 
  502000   0.58239213  -0.24728884  -0.24728884   0.62628153   0.44434509  -0.24728884   0.87357036       128000 
  503000   0.58265215  -0.24613525  -0.24613525   0.62782514   0.44886501  -0.24613525   0.87396039       128000 
  504000   0.58300259  -0.24725027  -0.24725027   0.62723577   0.44613017  -0.24725027   0.87448604       128000 
  505000   0.58377463   -0.2489024   -0.2489024   0.62674167    0.4451396   -0.2489024   0.87564407       128000 
  506000   0.58662457  -0.24759209  -0.24759209   0.63232681   0.44866652  -0.24759209    0.8799189       128000 
  507000   0.58439305  -0.24774811  -0.24774811   0.62882358   0.44447519  -0.24774811   0.87657169       128000 
  508000   0.58452872  -0.24539521  -0.24539521   0.63137997   0.45103025  -0.24539521   0.87677518       128000 
  509000   0.58428747  -0.24816888  -0.24816888   0.62824444   0.44251224  -0.24816888   0.87641331       128000 
  510000    0.5823825  -0.24613066  -0.24613066   0.62742526   0.44977624  -0.24613066   0.87355592       128000 
  511000   0.58157445  -0.24695958  -0.24695958    0.6253843   0.44889856  -0.24695958   0.87234387       128000 
  512000   0.58086353  -0.24720054  -0.24720054   0.62407698   0.44893457  -0.24720054   0.87127752       128000 
  513000   0.58277574  -0.24766291  -0.24766291   0.62648286   0.44708673  -0.24766291   0.87414577       128000 
  514000   0.58525454  -0.24694645  -0.24694645   0.63091744   0.44852798  -0.24694645   0.87786389       128000 
  515000   0.58324213  -0.24713195  -0.24713195   0.62771338   0.44914145  -0.24713195   0.87484533       128000 
  516000   0.58253356  -0.24668587  -0.24668587   0.62709664   0.44565445  -0.24668587   0.87378251       128000 
  517000    0.5823902  -0.24676285  -0.24676285   0.62680462   0.44228997  -0.24676285   0.87356747       128000 
  518000   0.58024921  -0.24605605  -0.24605605       0.6243   0.44564605  -0.24605605   0.87035605       128000 
  519000   0.58314483  -0.24726879  -0.24726879   0.62743061   0.44619977  -0.24726879    0.8746994       128000 
  520000    0.5859984  -0.24585154  -0.24585154   0.63312813   0.44560632  -0.24585154   0.87897967       128000 
  521000   0.58450456  -0.24607298  -0.24607298   0.63066598   0.45130718  -0.24607298   0.87673895       128000 
  522000   0.58440528  -0.24695796  -0.24695796   0.62963208   0.44975072  -0.24695796   0.87659003       128000 
  523000   0.58482755  -0.24426396  -0.24426396   0.63295947    0.4527373  -0.24426396   0.87722343       128000 
  524000   0.58272562  -0.24489252  -0.24489252   0.62917807   0.45034966  -0.24489252   0.87407059       128000 
  525000    0.5827024  -0.24519269  -0.24519269   0.62884307   0.44994134  -0.24519269   0.87403576       128000 
  526000   0.58418258  -0.24740257  -0.24740257   0.62885342   0.44764177  -0.24740257   0.87625599       128000 
  527000   0.58519284  -0.24436611  -0.24436611   0.63340523   0.45378923  -0.24436611   0.87777135       128000 
  528000   0.58459161   -0.2481021   -0.2481021   0.62876742   0.44464666   -0.2481021   0.87686951       128000 
  529000   0.58356185  -0.24607506  -0.24607506   0.62924985   0.44885134  -0.24607506   0.87532491       128000 
  530000   0.58378173  -0.24513156  -0.24513156   0.63052316   0.44966024  -0.24513156   0.87565472       128000 
  531000   0.58411831  -0.24588149  -0.24588149    0.6302781   0.44577903  -0.24588149   0.87615959       128000 
  532000   0.58777713  -0.24715329  -0.24715329   0.63449442   0.44950288  -0.24715329   0.88164771       128000 
  533000    0.5850586  -0.24573464  -0.24573464   0.63183535   0.44952844  -0.24573464   0.87756999       128000 
  534000   0.58530161   -0.2463584   -0.2463584   0.63157611    0.4490773   -0.2463584    0.8779345       128000 
  535000   0.58522039  -0.24605364  -0.24605364   0.63175903   0.45106157  -0.24605364   0.87781267       128000 
  536000   0.58592863  -0.24752467  -0.24752467   0.63135033   0.44666684  -0.24752467   0.87887501       128000 
  537000   0.58563978  -0.24403872  -0.24403872   0.63440302   0.45598343  -0.24403872   0.87844174       128000 
  538000   0.58689526  -0.24581748  -0.24581748   0.63450743   0.45235431  -0.24581748   0.88032492       128000 
  539000   0.58439548  -0.24763129  -0.24763129   0.62894404   0.44653097  -0.24763129   0.87657533       128000 
  540000   0.58160658  -0.24738553  -0.24738553   0.62500653   0.44308491  -0.24738553   0.87239206       128000 
  541000   0.58595117    -0.246561    -0.246561   0.63234782   0.44976228    -0.246561   0.87890882       128000 
  542000   0.58530437  -0.24606877  -0.24606877   0.63186987   0.44514681  -0.24606877   0.87793864       128000 
  543000   0.58541838   -0.2451166   -0.2451166   0.63299304   0.45495884   -0.2451166   0.87810964       128000 
  544000   0.58539621  -0.24828395  -0.24828395   0.62979244   0.44592033  -0.24828395    0.8780764       128000 
  545000   0.58650174  -0.24579673  -0.24579673   0.63393793   0.45137501  -0.24579673   0.87973466       128000 
  546000   0.58432128  -0.24558638  -0.24558638   0.63087766   0.45202768  -0.24558638   0.87646404       128000 
  547000   0.58539858   -0.2457037   -0.2457037   0.63237625   0.45637185   -0.2457037   0.87807995       128000 
  548000   0.58884318  -0.24737447  -0.24737447   0.63587227   0.44464193  -0.24737447   0.88324674       128000 
  549000   0.59135038  -0.24592356  -0.24592356   0.64108391   0.45310087  -0.24592356   0.88700747       128000 
  550000   0.59149367  -0.24628752  -0.24628752   0.64093488   0.45106426  -0.24628752    0.8872224       128000 
  551000   0.58981869  -0.24495321  -0.24495321   0.63975677   0.45577584  -0.24495321   0.88470999       128000 
  552000    0.5890815  -0.24437697  -0.24437697   0.63922724   0.45486826  -0.24437697   0.88360421       128000 
  553000   0.58912721  -0.24616603  -0.24616603   0.63750674   0.45433524  -0.24616603   0.88367278       128000 
  554000   0.58669176  -0.24759126  -0.24759126   0.63242843    0.4460041  -0.24759126   0.88001969       128000 
  555000   0.59095834  -0.24508452  -0.24508452   0.64133489   0.44836794  -0.24508452   0.88641942       128000 
  556000   0.59022599  -0.24477334  -0.24477334   0.64054758   0.45882471  -0.24477334   0.88532092       128000 
  557000   0.59447302  -0.24606217  -0.24606217   0.64562916   0.45533791  -0.24606217   0.89169133       128000 
  558000   0.59544143  -0.24370316  -0.24370316   0.64944076   0.46432474  -0.24370316   0.89314392       128000 
  559000   0.59394895  -0.24483187  -0.24483187   0.64607337   0.45634658  -0.24483187   0.89090524       128000 
  560000   0.59193046  -0.24405304  -0.24405304   0.64382453   0.45817013  -0.24405304   0.88787758       128000 
  561000   0.58865755  -0.24583328  -0.24583328   0.63713503   0.45221631  -0.24583328   0.88296831       128000 
  562000   0.59243991   -0.2470306   -0.2470306   0.64161113   0.45006919   -0.2470306   0.88864173       128000 
  563000   0.59076371  -0.24517602  -0.24517602   0.64095145   0.45043478  -0.24517602   0.88612747       128000 
  564000   0.58901608  -0.24579523  -0.24579523   0.63771087   0.45145003  -0.24579523    0.8835061       128000 
  565000   0.58926186  -0.24472394  -0.24472394   0.63915081   0.45252044  -0.24472394   0.88387475       128000 
  566000   0.59413541  -0.24659176  -0.24659176   0.64459317   0.45227427  -0.24659176   0.89118493       128000 
  567000   0.59309631  -0.24569424  -0.24569424   0.64393207   0.45352923  -0.24569424   0.88962631       128000 
  568000   0.59323711  -0.24355591  -0.24355591    0.6462816   0.45153514  -0.24355591   0.88983751       128000 
  569000   0.59433176  -0.24460819  -0.24460819   0.64687126   0.45322762  -0.24460819   0.89147945       128000 
  570000    0.5883094  -0.24196992  -0.24196992   0.64047618   0.46239443  -0.24196992    0.8824461       128000 
  571000   0.58716401   -0.2444714   -0.2444714   0.63625664   0.45536436   -0.2444714   0.88072804       128000 
  572000    0.5922017  -0.24369543  -0.24369543   0.64458899   0.45725469  -0.24369543   0.88828442       128000 
  573000   0.59491686  -0.24350108  -0.24350108     0.648856   0.45752704  -0.24350108   0.89235709       128000 
  574000   0.59506433  -0.24457731  -0.24457731   0.64800097   0.46223255  -0.24457731   0.89257828       128000 
  575000    0.5953601    -0.242672    -0.242672   0.65034993   0.45957896    -0.242672   0.89302193       128000 
  576000   0.59418308  -0.24280971  -0.24280971   0.64844673   0.46236872  -0.24280971   0.89125643       128000 
  577000   0.59585902   -0.2435793   -0.2435793   0.65019099   0.45699414   -0.2435793    0.8937703       128000 
  578000   0.59572233  -0.24390073  -0.24390073   0.64966453   0.46230855  -0.24390073   0.89356526       128000 
  579000   0.59641011  -0.24140282  -0.24140282   0.65319408   0.46760122  -0.24140282    0.8945969       128000 
  580000   0.59565365  -0.24443928  -0.24443928   0.64902295     0.453274  -0.24443928   0.89346224       128000 
  581000     0.594446  -0.24164205  -0.24164205   0.65000876   0.46315467  -0.24164205   0.89165081       128000 
  582000   0.59621432  -0.24317536  -0.24317536   0.65112787   0.45999335  -0.24317536   0.89430323       128000 
  583000   0.59711902  -0.24419746  -0.24419746    0.6514628    0.4569991  -0.24419746   0.89566026       128000 
  584000   0.59612096  -0.24318401  -0.24318401   0.65097918   0.46259375  -0.24318401   0.89416319       128000 
  585000   0.59481762  -0.24304911  -0.24304911   0.64915912   0.45949249  -0.24304911   0.89220823       128000 
  586000   0.59511243  -0.24087984  -0.24087984   0.65177058     0.466269  -0.24087984   0.89265042       128000 
  587000   0.59693755  -0.24370386  -0.24370386   0.65168418   0.46038493  -0.24370386   0.89538804       128000 
  588000    0.5980363  -0.24636849  -0.24636849   0.65066766    0.4499655  -0.24636849   0.89703615       128000 
  589000   0.59638177  -0.24232165  -0.24232165   0.65223276   0.46285203  -0.24232165    0.8945544       128000 
  590000   0.59375108  -0.24233423  -0.24233423    0.6482742    0.4588656  -0.24233423   0.89060844       128000 
  591000   0.59603836  -0.24506657  -0.24506657   0.64897273   0.45287592  -0.24506657    0.8940393       128000 
  592000   0.59884713  -0.24286009  -0.24286009   0.65539227   0.46156835  -0.24286009   0.89825236       128000 
  593000   0.59788569  -0.24011604  -0.24011604   0.65669419   0.46696756  -0.24011604   0.89681023       128000 
  594000   0.60129255  -0.24254518  -0.24254518   0.65937524    0.4630709  -0.24254518   0.90192041       128000 
  595000   0.60125379  -0.24316381  -0.24316381   0.65869847   0.46307684  -0.24316381   0.90186229       128000 
  596000   0.59889697   -0.2410781   -0.2410781   0.65724902   0.46692901   -0.2410781   0.89832712       128000 
  597000   0.59901481  -0.24203466  -0.24203466   0.65646922    0.4643551  -0.24203466   0.89850388       128000 
  598000   0.59878257  -0.24379961  -0.24379961    0.6543559   0.46355583  -0.24379961   0.89815552       128000 
  599000   0.59653884  -0.24119763  -0.24119763   0.65359238    0.4631135  -0.24119763      0.89479       128000 
  600000   0.59774593  -0.24332688  -0.24332688   0.65327372   0.46099123  -0.24332688    0.8966006       128000 
  601000   0.59919064  -0.24555395  -0.24555395   0.65321367   0.45599745  -0.24555395   0.89876762       128000 
  602000   0.59751986  -0.24241864  -0.24241864   0.65384287   0.46148894  -0.24241864    0.8962615       128000 
  603000   0.59859192  -0.24186354  -0.24186354   0.65600602   0.46524613  -0.24186354   0.89786956       128000 
  604000   0.60173179  -0.24301961  -0.24301961   0.65955965   0.46180972  -0.24301961   0.90257926       128000 
  605000   0.60306916  -0.24625062  -0.24625062   0.65833466   0.45493492  -0.24625062   0.90458528       128000 
  606000    0.6018532  -0.24354125  -0.24354125   0.65922013    0.4615346  -0.24354125   0.90276138       128000 
  607000   0.60427472  -0.24486142  -0.24486142   0.66153217   0.45826167  -0.24486142   0.90639358       128000 
  608000   0.60420313  -0.24098778  -0.24098778   0.66529842   0.46969121  -0.24098778    0.9062862       128000 
  609000   0.60362409   -0.2439005   -0.2439005   0.66151715   0.46046348   -0.2439005   0.90541765       128000 
  610000    0.6018044  -0.24497035  -0.24497035   0.65771783   0.45760958  -0.24497035   0.90268818       128000 
  611000   0.60284415   -0.2436543   -0.2436543   0.66059347   0.46078486   -0.2436543   0.90424778       128000 
  612000   0.59854491  -0.24200069  -0.24200069   0.65579835   0.46836147  -0.24200069   0.89779905       128000 
  613000   0.59835665  -0.24385387  -0.24385387   0.65366279   0.46169709  -0.24385387   0.89751665       128000 
  614000   0.59962803  -0.24104052  -0.24104052   0.65838316    0.4678922  -0.24104052   0.89942368       128000 
  615000   0.60072515  -0.23889909  -0.23889909   0.66217025   0.47434924  -0.23889909   0.90106934       128000 
  616000   0.60488141  -0.24319478  -0.24319478   0.66410882   0.46227002  -0.24319478    0.9073036       128000 
  617000   0.60254305  -0.24112055  -0.24112055   0.66267558   0.46718063  -0.24112055   0.90379613       128000 
  618000    0.6067465   -0.2426478   -0.2426478   0.66745337   0.46280175   -0.2426478   0.91010117       128000 
  619000   0.60462425  -0.23998655  -0.23998655   0.66693132    0.4650368  -0.23998655   0.90691787       128000 
  620000   0.60174991  -0.24308339  -0.24308339   0.65952305   0.46473691  -0.24308339   0.90260644       128000 
  621000   0.60331791  -0.24244334  -0.24244334   0.66251505   0.46847928  -0.24244334   0.90495839       128000 
  622000    0.6036191  -0.24241404  -0.24241404   0.66299613   0.45930851  -0.24241404   0.90541017       128000 
  623000   0.60340929  -0.24210865  -0.24210865   0.66298681   0.46406276  -0.24210865   0.90509546       128000 
  624000   0.60449582  -0.24079133  -0.24079133    0.6659339    0.4689012  -0.24079133   0.90672523       128000 
  625000    0.6066568  -0.23989833  -0.23989833    0.6700683   0.47315013  -0.23989833   0.90996662       128000 
  626000     0.606401  -0.24262585  -0.24262585   0.66695709   0.46132832  -0.24262585   0.90958294       128000 
  627000    0.6049147  -0.24470481  -0.24470481   0.66264872   0.45827935  -0.24470481   0.90735353       128000 
  628000   0.60140332  -0.24181747  -0.24181747    0.6602691   0.46159904  -0.24181747   0.90208657       128000 
  629000    0.6016653  -0.24195389  -0.24195389   0.66052565   0.46318709  -0.24195389   0.90247953       128000 
  630000   0.60201073  -0.23993562  -0.23993562   0.66306205   0.47483684  -0.23993562   0.90299767       128000 
  631000   0.60406153   -0.2418049   -0.2418049   0.66426889   0.46563214   -0.2418049    0.9060738       128000 
  632000    0.6049717  -0.24167921  -0.24167921   0.66575982     0.467872  -0.24167921   0.90743903       128000 
  633000   0.60314491  -0.24303248  -0.24303248   0.66166642   0.46192158  -0.24303248    0.9046989       128000 
  634000   0.60530681  -0.24049963  -0.24049963   0.66744205   0.47230696  -0.24049963   0.90794168       128000 
  635000   0.61012525  -0.24016598  -0.24016598   0.67500322   0.47743245  -0.24016598    0.9151692       128000 
  636000   0.60680014  -0.24017847  -0.24017847   0.67000317   0.47010531  -0.24017847   0.91018163       128000 
  637000   0.60799813  -0.24026191  -0.24026191   0.67171668   0.47159251  -0.24026191   0.91197859       128000 
  638000    0.6079825  -0.23971147  -0.23971147   0.67224366   0.47187554  -0.23971147   0.91195513       128000 
  639000   0.60887687  -0.24191585  -0.24191585   0.67138082   0.47282403  -0.24191585   0.91329667       128000 
  640000   0.60743021  -0.23908438  -0.23908438   0.67204234   0.47143764  -0.23908438   0.91112671       128000 
  641000   0.61242786  -0.23964892  -0.23964892   0.67897412   0.47628638  -0.23964892   0.91862304       128000 
  642000   0.61222172  -0.24082066  -0.24082066   0.67749317    0.4710862  -0.24082066   0.91831383       128000 
  643000    0.6098467  -0.24186879  -0.24186879   0.67288259   0.47090813  -0.24186879   0.91475138       128000 
  644000   0.60869626  -0.24056374  -0.24056374   0.67246202   0.47531193  -0.24056374   0.91302576       128000 
  645000   0.60639721  -0.23956983  -0.23956983   0.67000743   0.47158037  -0.23956983   0.90957726       128000 
  646000   0.61237153  -0.24178705  -0.24178705    0.6767515    0.4711926  -0.24178705   0.91853855       128000 
  647000   0.60759485   -0.2408109   -0.2408109   0.67056278   0.47044792   -0.2408109   0.91137368       128000 
  648000   0.61220535  -0.24214939  -0.24214939    0.6761399   0.47039504  -0.24214939   0.91828929       128000 
  649000    0.6120675  -0.24103869  -0.24103869   0.67704382    0.4721253  -0.24103869   0.91808251       128000 
  650000   0.60962117  -0.24167456  -0.24167456   0.67273853   0.46921056  -0.24167456   0.91441309       128000 
  651000   0.60622127  -0.23984907  -0.23984907   0.66946427   0.47635188  -0.23984907   0.90931335       128000 
  652000   0.60863313  -0.24228426  -0.24228426    0.6706468   0.46500472  -0.24228426   0.91293106       128000 
  653000   0.61206049  -0.23955437  -0.23955437   0.67851763   0.47279554  -0.23955437   0.91807199       128000 
  654000   0.61286048  -0.24020679  -0.24020679   0.67906516   0.47210196  -0.24020679   0.91927196       128000 
  655000   0.60986257  -0.23964877  -0.23964877   0.67512642   0.47665673  -0.23964877   0.91477518       128000 
  656000   0.60959063   -0.2406065   -0.2406065   0.67376079   0.46824969   -0.2406065   0.91436729       128000 
  657000   0.60961327  -0.23959334  -0.23959334    0.6748079   0.47682807  -0.23959334   0.91440124       128000 
  658000   0.61463615  -0.24197791  -0.24197791    0.6799575   0.46881005  -0.24197791   0.92193541       128000 
  659000   0.61175468  -0.24207366  -0.24207366   0.67553963   0.46684673  -0.24207366   0.91761329       128000 
  660000   0.60827822  -0.23932973  -0.23932973   0.67306897   0.47206491  -0.23932973    0.9123987       128000 
  661000   0.61081873  -0.24098366  -0.24098366   0.67522575   0.47391655  -0.24098366    0.9162094       128000 
  662000   0.61358558  -0.24135764  -0.24135764   0.67900194   0.47025444  -0.24135764   0.92035958       128000 
  663000   0.61119343  -0.24061051  -0.24061051   0.67616093   0.47130192  -0.24061051   0.91677144       128000 
  664000   0.61102996  -0.24071142  -0.24071142   0.67581482   0.46971817  -0.24071142   0.91652624       128000 
  665000    0.6107793  -0.24110685  -0.24110685   0.67504339    0.4718656  -0.24110685   0.91615025       128000 
  666000   0.61307045  -0.24026319  -0.24026319   0.67932372   0.46959019  -0.24026319   0.91958691       128000 
  667000   0.60901399  -0.23666582  -0.23666582   0.67683652   0.47872629  -0.23666582   0.91350234       128000 
  668000   0.61131046  -0.24375468  -0.24375468   0.67319229   0.46385448  -0.24375468   0.91694697       128000 
  669000   0.60766982  -0.23919231  -0.23919231   0.67229382   0.47503426  -0.23919231   0.91148613       128000 
  670000   0.61632491  -0.24149806  -0.24149806   0.68297043   0.46963634  -0.24149806   0.92446849       128000 
  671000   0.61164689  -0.23876933  -0.23876933   0.67868229   0.47297863  -0.23876933   0.91745162       128000 
  672000   0.61532303  -0.23665301  -0.23665301    0.6863127   0.48279451  -0.23665301   0.92296571       128000 
  673000   0.61576954   -0.2382578   -0.2382578   0.68537765   0.47942125   -0.2382578   0.92363545       128000 
  674000   0.61718069  -0.23778647  -0.23778647   0.68796567   0.48390588  -0.23778647   0.92575214       128000 
  675000   0.61453115   -0.2384217   -0.2384217   0.68335621   0.47434722   -0.2384217   0.92177791       128000 
  676000   0.61681186  -0.23745916  -0.23745916   0.68773975   0.47696998  -0.23745916   0.92519891       128000 
  677000   0.61671382  -0.23929288  -0.23929288   0.68575897   0.47427564  -0.23929288   0.92505185       128000 
  678000   0.61599331  -0.23972241  -0.23972241   0.68424871   0.47378661  -0.23972241   0.92397112       128000 
  679000   0.61531049  -0.23827026  -0.23827026   0.68467663   0.47933768  -0.23827026   0.92294689       128000 
  680000   0.61848128  -0.23729849  -0.23729849    0.6904045   0.47991237  -0.23729849   0.92770299       128000 
  681000   0.61712347  -0.23915494  -0.23915494   0.68651138   0.47852392  -0.23915494   0.92566632       128000 
  682000   0.61577278  -0.23956183  -0.23956183   0.68407849   0.47873964  -0.23956183   0.92364032       128000 
  683000   0.61737522  -0.23727166  -0.23727166   0.68877226   0.47958466  -0.23727166   0.92604392       128000 
  684000   0.61386637  -0.23715836  -0.23715836    0.6836224   0.48204334  -0.23715836   0.92078076       128000 
  685000   0.61443951  -0.23745483  -0.23745483   0.68418562   0.48410418  -0.23745483   0.92164045       128000 
  686000   0.61492313  -0.23790249  -0.23790249   0.68446338   0.48050891  -0.23790249   0.92236587       128000 
  687000   0.61424611    -0.239435    -0.239435   0.68191537   0.47260657    -0.239435   0.92135036       128000 
  688000   0.61645729  -0.24003618  -0.24003618   0.68463089   0.47894506  -0.24003618   0.92466707       128000 
  689000   0.62151945  -0.24082265  -0.24082265    0.6914375   0.47308778  -0.24082265   0.93226015       128000 
  690000   0.61933935  -0.23688003  -0.23688003   0.69211004   0.48287996  -0.23688003   0.92899007       128000 
  691000   0.61612401  -0.23863622  -0.23863622   0.68553094   0.47799775  -0.23863622   0.92416716       128000 
  692000   0.62058977  -0.24033266  -0.24033266     0.690533   0.47614807  -0.24033266   0.93086566       128000 
  693000   0.61918043  -0.23975171  -0.23975171   0.68899997   0.47714516  -0.23975171   0.92875169       128000 
  694000   0.61760402  -0.23943299  -0.23943299   0.68695413   0.47842607  -0.23943299   0.92638712       128000 
  695000   0.61812951  -0.23967063  -0.23967063   0.68750471   0.47554892  -0.23967063   0.92717534       128000 
  696000   0.61731383  -0.23704756  -0.23704756   0.68890428   0.48142247  -0.23704756   0.92595184       128000 
  697000   0.61827553  -0.23881049  -0.23881049   0.68858387   0.47927184  -0.23881049   0.92739436       128000 
  698000   0.62003567  -0.23780255  -0.23780255   0.69223197   0.48053274  -0.23780255   0.93003452       128000 
  699000   0.61960073  -0.23663924  -0.23663924   0.69274289   0.48797808  -0.23663924   0.92938213       128000 
  700000   0.62317203  -0.23920843  -0.23920843   0.69553054   0.47557993  -0.23920843   0.93473897       128000 
  701000    0.6210693  -0.23876238  -0.23876238   0.69282255   0.48120209  -0.23876238   0.93158493       128000 
  702000   0.62015447  -0.23461396  -0.23461396   0.69559876   0.48493704  -0.23461396   0.93021272       128000 
  703000   0.61949134  -0.23717207  -0.23717207   0.69204598    0.4790023  -0.23717207   0.92921805       128000 
  704000   0.62554126  -0.23843116  -0.23843116   0.69986159    0.4867481  -0.23843116   0.93829274       128000 
  705000   0.62409146  -0.23760693  -0.23760693   0.69851115   0.48200919  -0.23760693   0.93611808       128000 
  706000   0.62048255  -0.23768001  -0.23768001   0.69302482   0.48179679  -0.23768001   0.93070483       128000 
  707000   0.62224877  -0.23903114  -0.23903114   0.69432296    0.4769465  -0.23903114    0.9333541       128000 
  708000   0.62002668  -0.23715973  -0.23715973    0.6928613    0.4836056  -0.23715973   0.93002103       128000 
  709000   0.62040226  -0.23785965  -0.23785965   0.69272474   0.48117925  -0.23785965    0.9305844       128000 
  710000   0.61896909   -0.2375573   -0.2375573   0.69087738   0.48549147   -0.2375573   0.92843468       128000 
  711000   0.62120581  -0.23951791  -0.23951791   0.69227178   0.47785677  -0.23951791   0.93178969       128000 
  712000   0.61866002  -0.23822001  -0.23822001   0.68975108    0.4796056  -0.23822001    0.9279711       128000 
  713000   0.62143749  -0.23781901  -0.23781901   0.69431821   0.48053502  -0.23781901   0.93213722       128000 
  714000   0.62517022  -0.23903047  -0.23903047   0.69870572   0.47915463  -0.23903047   0.93773619       128000 
  715000   0.62757736  -0.23853114  -0.23853114   0.70281568   0.48102549  -0.23853114   0.94134682       128000 
  716000   0.62001352   -0.2358665   -0.2358665    0.6941348    0.4898584   -0.2358665    0.9300013       128000 
  717000   0.62040449  -0.23602955  -0.23602955    0.6945582   0.48507871  -0.23602955   0.93058775       128000 
  718000   0.62362322  -0.23805256  -0.23805256   0.69736318   0.48387496  -0.23805256   0.93541574       128000 
  719000   0.62381097   -0.2347715   -0.2347715   0.70092586   0.49070897   -0.2347715   0.93569736       128000 
  720000     0.624826  -0.23661548  -0.23661548    0.7006044   0.48626313  -0.23661548   0.93721988       128000 
  721000   0.62216404  -0.23787218  -0.23787218   0.69535484   0.47867545  -0.23787218   0.93322702       128000 
  722000   0.62209101  -0.23653968  -0.23653968   0.69657779   0.48153902  -0.23653968   0.93311747       128000 
  723000   0.62617935  -0.23651581  -0.23651581   0.70273404   0.48814047  -0.23651581   0.93924985       128000 
  724000   0.62394627  -0.23563178  -0.23563178   0.70026854   0.48726447  -0.23563178   0.93590031       128000 
  725000    0.6273967  -0.23726646  -0.23726646   0.70380938   0.48522722  -0.23726646   0.94107584       128000 
  726000   0.62731196  -0.23749444  -0.23749444   0.70345429   0.48883509  -0.23749444   0.94094874       128000 
  727000   0.62443969  -0.23613239  -0.23613239   0.70050802   0.48738606  -0.23613239   0.93664042       128000 
  728000   0.62620137   -0.2364174   -0.2364174   0.70286549   0.48764335   -0.2364174   0.93928289       128000 
  729000   0.62546487  -0.23741535  -0.23741535   0.70076281   0.48105882  -0.23741535   0.93817816       128000 
  730000   0.62717792   -0.2353154   -0.2353154   0.70543229   0.49056833   -0.2353154   0.94074768       128000 
  731000   0.62553534  -0.23666093  -0.23666093   0.70162293   0.48160944  -0.23666093   0.93828386       128000 
  732000   0.62544798  -0.23540386  -0.23540386   0.70274896   0.48799384  -0.23540386   0.93815282       128000 
  733000   0.62959048  -0.23695615  -0.23695615    0.7074103   0.48844631  -0.23695615   0.94436644       128000 
  734000   0.62617053  -0.23820433  -0.23820433    0.7010323    0.4858057  -0.23820433   0.93923663       128000 
  735000   0.62727282   -0.2356825   -0.2356825   0.70520752   0.48568742   -0.2356825   0.94089002       128000 
  736000   0.62694636  -0.23743805  -0.23743805    0.7029623   0.48632448  -0.23743805   0.94040035       128000 
  737000   0.62549162  -0.23803481  -0.23803481   0.70018347   0.48698142  -0.23803481   0.93821828       128000 
  738000   0.62783475  -0.23691654  -0.23691654   0.70481637   0.48883308  -0.23691654   0.94173291       128000 
  739000   0.62956723  -0.23694257  -0.23694257   0.70738901   0.48660921  -0.23694257   0.94433158       128000 
  740000   0.62934059  -0.23604244  -0.23604244   0.70794919   0.49041178  -0.23604244   0.94399163       128000 
  741000   0.62939056  -0.23595819  -0.23595819   0.70810838   0.49134456  -0.23595819   0.94406657       128000 
  742000   0.62915224  -0.23430867  -0.23430867   0.70940043   0.49573354  -0.23430867    0.9437091       128000 
  743000   0.62988499     -0.23554     -0.23554   0.70926821   0.49394948     -0.23554    0.9448082       128000 
  744000   0.62739183  -0.23621944  -0.23621944    0.7048491    0.4939092  -0.23621944   0.94106854       128000 
  745000   0.62902612  -0.23509883  -0.23509883   0.70842109    0.4896341  -0.23509883   0.94351992       128000 
  746000   0.62858276  -0.23350058  -0.23350058   0.70935431   0.49721027  -0.23350058   0.94285489       128000 
  747000   0.62967621   -0.2359129   -0.2359129   0.70858215   0.48991761   -0.2359129   0.94449504       128000 
  748000   0.62999688  -0.23655416  -0.23655416   0.70842187   0.48788943  -0.23655416   0.94497604       128000 
  749000   0.63098549   -0.2339657   -0.2339657   0.71249321   0.49278409   -0.2339657   0.94645891       128000 
  750000   0.62928763  -0.23738057  -0.23738057   0.70653162   0.48484478  -0.23738057   0.94391219       128000 
  751000   0.62675239  -0.23683067  -0.23683067   0.70327873   0.48933546  -0.23683067    0.9401094       128000 
  752000   0.63198865  -0.23843898  -0.23843898   0.70952465   0.48714582  -0.23843898   0.94796363       128000 
  753000    0.6311837  -0.23308863  -0.23308863   0.71366759   0.49682745  -0.23308863   0.94675623       128000 
  754000   0.63463295    -0.234477    -0.234477     0.717453   0.49540237    -0.234477      0.95193       128000 
  755000   0.63217743  -0.23533209  -0.23533209   0.71291469   0.49812241  -0.23533209   0.94824679       128000 
  756000   0.63300297  -0.23658109  -0.23658109   0.71290399   0.48736822  -0.23658109   0.94948508       128000 
  757000    0.6301227  -0.23587499  -0.23587499   0.70928977   0.49283335  -0.23587499   0.94516476       128000 
  758000   0.62760475  -0.23482933  -0.23482933   0.70655857   0.49044206  -0.23482933   0.94138791       128000 
  759000   0.63284601  -0.23496827  -0.23496827   0.71428137   0.49189192  -0.23496827   0.94924964       128000 
  760000   0.63072738  -0.23363474  -0.23363474   0.71243701   0.49646978  -0.23363474   0.94607176       128000 
  761000   0.63055268  -0.23504562  -0.23504562    0.7107641   0.49220067  -0.23504562   0.94580972       128000 
  762000     0.632714  -0.23668805  -0.23668805   0.71236358   0.49253971  -0.23668805   0.94905163       128000 
  763000   0.63108909  -0.23779797  -0.23779797   0.70881634   0.48228697  -0.23779797   0.94661431       128000 
  764000   0.62878252   -0.2369869   -0.2369869   0.70616763   0.48641572   -0.2369869   0.94315453       128000 
  765000   0.62992475  -0.23520122  -0.23520122   0.70966662   0.49257551  -0.23520122   0.94486784       128000 
  766000    0.6304315   -0.2343293   -0.2343293   0.71129865   0.49119972   -0.2343293   0.94562795       128000 
  767000   0.63561587  -0.23609881  -0.23609881   0.71730553   0.49304458  -0.23609881   0.95340434       128000 
  768000   0.63382545  -0.23679963  -0.23679963   0.71391914   0.49068981  -0.23679963   0.95071877       128000 
  769000   0.63358923  -0.23504284  -0.23504284    0.7153216    0.4909087  -0.23504284   0.95036445       128000 
  770000   0.63291135  -0.23689183  -0.23689183   0.71245582   0.48675492  -0.23689183   0.94934765       128000 
  771000   0.63352208  -0.23623796  -0.23623796   0.71402576    0.4917975  -0.23623796   0.95026372       128000 
  772000   0.63042002  -0.23560747  -0.23560747   0.71000326   0.49281094  -0.23560747   0.94561073       128000 
  773000   0.63029356  -0.23558332  -0.23558332   0.70983772   0.49082566  -0.23558332   0.94542104       128000 
  774000    0.6371669  -0.23555297  -0.23555297   0.72017788   0.49389387  -0.23555297   0.95573085       128000 
[...]
  938000   0.66788731  -0.22852975  -0.22852975   0.77328077   0.52766398  -0.22852975    1.0018105       128000 
  939000   0.66761997  -0.22843332  -0.22843332    0.7729762    0.5197119  -0.22843332    1.0014095       128000 
  940000   0.66497532  -0.22694323  -0.22694323   0.77049939    0.5205694  -0.22694323   0.99744263       128000 
  941000   0.66325317   -0.2280028   -0.2280028   0.76685664   0.52303385   -0.2280028   0.99485945       128000 
  942000   0.66801828  -0.22982688  -0.22982688    0.7721801   0.51969847  -0.22982688     1.002007       128000 
  943000   0.66405534  -0.23039447  -0.23039447   0.76566822   0.51461347  -0.23039447   0.99606268       128000 
  944000   0.66324259  -0.22775796  -0.22775796   0.76708562   0.52346429  -0.22775796   0.99484358       128000 
  945000    0.6643266  -0.22696808  -0.22696808   0.76950149   0.52780046  -0.22696808   0.99646957       128000 
  946000   0.66807467  -0.22664606  -0.22664606   0.77544549   0.52824748  -0.22664606    1.0020915       128000 
  947000   0.67189069  -0.22564615  -0.22564615   0.78216931   0.53256117  -0.22564615    1.0078155       128000 
  948000   0.67196696  -0.22506884  -0.22506884   0.78286103   0.53715249  -0.22506884    1.0079299       128000 
  949000   0.67238299   -0.2271688   -0.2271688    0.7813851   0.52583921   -0.2271688    1.0085539       128000 
  950000   0.67460428  -0.22521274  -0.22521274   0.78667303    0.5330712  -0.22521274    1.0118858       128000 
  951000   0.67336957  -0.22524172  -0.22524172   0.78479202   0.53067434  -0.22524172    1.0100337       128000 
  952000   0.67133282  -0.22778425  -0.22778425   0.77919442   0.52430797  -0.22778425    1.0069787       128000 
  953000   0.66923897  -0.22643723  -0.22643723   0.77740074   0.52614535  -0.22643723     1.003838       128000 
  954000   0.66819857  -0.22557968  -0.22557968   0.77669772   0.52947193  -0.22557968    1.0022774       128000 
  955000   0.66831264  -0.22369467  -0.22369467   0.77875383   0.53188482  -0.22369467    1.0024485       128000 
  956000   0.67559805  -0.22490778  -0.22490778   0.78846862   0.53666486  -0.22490778    1.0133764       128000 
  957000   0.68163166  -0.22495125  -0.22495125   0.79747536   0.53444768  -0.22495125    1.0224266       128000 
  958000   0.67792473  -0.22594024  -0.22594024   0.79092611   0.52889255  -0.22594024    1.0168663       128000 
  959000   0.67558347  -0.22792815  -0.22792815   0.78542638   0.52636558  -0.22792815    1.0133545       128000 
  960000   0.67320888  -0.22557787  -0.22557787   0.78421485    0.5324999  -0.22557787    1.0097927       128000 
  961000   0.67308161  -0.22635728  -0.22635728   0.78324453   0.53188919  -0.22635728    1.0096018       128000 
  962000    0.6703215  -0.22432106  -0.22432106   0.78114067   0.52974853  -0.22432106    1.0054617       128000 
  963000   0.67684216   -0.2239847   -0.2239847   0.79125782    0.5372381   -0.2239847    1.0152425       128000 
  964000   0.67460667  -0.22477611  -0.22477611   0.78711324   0.53479285  -0.22477611    1.0118893       128000 
  965000    0.6738006   -0.2274349   -0.2274349   0.78324538   0.52556004   -0.2274349    1.0106803       128000 
  966000   0.67808311  -0.22690353  -0.22690353   0.79020039   0.52948764  -0.22690353    1.0171039       128000 
  967000   0.67383491   -0.2255159   -0.2255159   0.78521583   0.52971312   -0.2255159    1.0107317       128000 
  968000   0.67583308  -0.22535577  -0.22535577   0.78837316   0.53175444  -0.22535577    1.0137289       128000 
  969000   0.67499286   -0.2251241   -0.2251241   0.78734453   0.53267799   -0.2251241    1.0124686       128000 
  970000   0.67335732  -0.22483411  -0.22483411   0.78518126   0.53355608  -0.22483411    1.0100154       128000 
  971000   0.67477511  -0.22688217  -0.22688217   0.78525984   0.52762462  -0.22688217     1.012142       128000 
  972000   0.67585047  -0.22805844  -0.22805844   0.78569658   0.52735716  -0.22805844     1.013755       128000 
  973000   0.67517183  -0.22903856  -0.22903856   0.78369852   0.52346116  -0.22903856    1.0127371       128000 
  974000   0.67433804  -0.22540632  -0.22540632    0.7860801   0.53284666  -0.22540632    1.0114864       128000 
  975000   0.67381192  -0.22564817  -0.22564817   0.78504909   0.52597349  -0.22564817    1.0106973       128000 
  976000   0.67508703  -0.22714571  -0.22714571   0.78546416   0.53140707  -0.22714571    1.0126099       128000 
  977000   0.67762114  -0.22587551  -0.22587551   0.79053545   0.53362613  -0.22587551     1.016411       128000 
  978000     0.675867  -0.22127588  -0.22127588   0.79250393   0.54396304  -0.22127588    1.0137798       128000 
  979000   0.68068148  -0.22610374  -0.22610374   0.79489765   0.53285101  -0.22610374    1.0210014       128000 
  980000   0.67754716  -0.22429704  -0.22429704   0.79200296   0.53547749  -0.22429704       1.0163       128000 
  981000   0.67762751  -0.22377515  -0.22377515   0.79264537   0.53862634  -0.22377515    1.0164205       128000 
  982000   0.67434237  -0.22395044  -0.22395044   0.78754247     0.536427  -0.22395044    1.0114929       128000 
  983000   0.67764714  -0.22575933  -0.22575933   0.79069063   0.53118835  -0.22575933      1.01645       128000 
  984000   0.67797461  -0.22763677  -0.22763677   0.78930438    0.5320906  -0.22763677    1.0169412       128000 
  985000   0.67555424  -0.22564854  -0.22564854   0.78766214   0.53068446  -0.22564854    1.0133107       128000 
  986000   0.67921206  -0.22585722  -0.22585722   0.79294008   0.53598711  -0.22585722    1.0187973       128000 
  987000   0.67634997  -0.22219603  -0.22219603   0.79230822   0.53979769  -0.22219603    1.0145043       128000 
  988000   0.67473663  -0.22270354  -0.22270354   0.78938075   0.53749533  -0.22270354    1.0120843       128000 
  989000   0.67775471  -0.22399617  -0.22399617   0.79261516   0.53495606  -0.22399617    1.0166113       128000 
  990000    0.6791453   -0.2230985   -0.2230985   0.79559866    0.5399163   -0.2230985    1.0186972       128000 
  991000   0.67844084  -0.22363783  -0.22363783   0.79400265   0.54077817  -0.22363783    1.0176405       128000 
  992000   0.68089168  -0.22386773  -0.22386773   0.79744894   0.53969259  -0.22386773    1.0213167       128000 
  993000   0.68077543  -0.22398599  -0.22398599   0.79715632   0.53880796  -0.22398599    1.0211423       128000 
  994000   0.67804141  -0.22617171  -0.22617171   0.79086965   0.52803273  -0.22617171    1.0170414       128000 
  995000   0.67801701   -0.2243097   -0.2243097   0.79269506     0.535015   -0.2243097    1.0170048       128000 
  996000   0.67932917  -0.22472451  -0.22472451   0.79424845    0.5360915  -0.22472451     1.018973       128000 
  997000   0.67791329  -0.22614945  -0.22614945   0.79069974   0.53150604  -0.22614945    1.0168492       128000 
  998000   0.67808765  -0.22383968  -0.22383968   0.79327103   0.53385517  -0.22383968    1.0171107       128000 
  999000   0.67675066  -0.22373865  -0.22373865   0.79136663   0.53517026  -0.22373865    1.0151053       128000 
 1000000   0.67858257  -0.22406154  -0.22406154   0.79379155   0.53842708  -0.22406154    1.0178531       128000 
 1001000   0.67741507  -0.22428555  -0.22428555   0.79181631    0.5362614  -0.22428555    1.0161019       128000 
 1002000   0.68169638  -0.22686536  -0.22686536   0.79565834   0.53109497  -0.22686536    1.0225237       128000 
 1003000    0.6845336  -0.22456956  -0.22456956   0.80220988   0.53338832  -0.22456956    1.0267794       128000 
 1004000   0.67607125  -0.22367193  -0.22367193   0.79041425   0.53958486  -0.22367193    1.0140862       128000 
 1005000    0.6789813  -0.22055411  -0.22055411   0.79789705    0.5501223  -0.22055411    1.0184512       128000 
 1006000   0.68051786  -0.22471816  -0.22471816   0.79603779   0.53899038  -0.22471816     1.020756       128000 
 1007000   0.67960457  -0.22705042  -0.22705042   0.79233564   0.52817331  -0.22705042    1.0193861       128000 
 1008000   0.68016497  -0.22403589  -0.22403589   0.79619074   0.53574239  -0.22403589    1.0202266       128000 
 1009000   0.68241051  -0.22527945  -0.22527945   0.79831544    0.5351816  -0.22527945    1.0235949       128000 
 1010000   0.68111328  -0.22519197  -0.22519197   0.79645709   0.53456641  -0.22519197    1.0216491       128000 
 1011000   0.68105466  -0.22678222  -0.22678222   0.79477893   0.53171717  -0.22678222    1.0215611       128000 
 1012000   0.68147968  -0.22587948  -0.22587948   0.79631918   0.53680305  -0.22587948    1.0221987       128000 
 1013000   0.68403568  -0.22282352  -0.22282352   0.80320906   0.54342222  -0.22282352    1.0260326       128000 
 1014000   0.68379714  -0.22369291  -0.22369291   0.80198187   0.54279878  -0.22369291    1.0256748       128000 
 1015000   0.68508806  -0.22458672  -0.22458672   0.80302441   0.53900794  -0.22458672    1.0276111       128000 
 1016000   0.68736568   -0.2239811   -0.2239811   0.80704638   0.54356934   -0.2239811    1.0310275       128000 
 1017000   0.68679985  -0.22399302  -0.22399302   0.80618573   0.53802324  -0.22399302    1.0301787       128000 
 1018000   0.68493729  -0.22279927  -0.22279927   0.80458569   0.53955137  -0.22279927     1.027385       128000 
 1019000   0.68293086  -0.22277122  -0.22277122   0.80160416   0.54026723  -0.22277122    1.0243754       128000 
 1020000   0.68157825  -0.22517777  -0.22517777   0.79716874   0.53739409  -0.22517777    1.0223465       128000 
 1021000   0.68433323  -0.22316772  -0.22316772   0.80331118   0.53711061  -0.22316772    1.0264789       128000 
 1022000   0.68033467  -0.22433611  -0.22433611   0.79614507   0.54467378  -0.22433611    1.0204812       128000 
 1023000   0.67976472  -0.22254928  -0.22254928   0.79707699    0.5353674  -0.22254928    1.0196263       128000 
 1024000   0.68298042  -0.22492996  -0.22492996   0.79951976   0.53905765  -0.22492996    1.0244497       128000 
 1025000   0.68367694   -0.2238011   -0.2238011   0.80169338   0.53886182   -0.2238011    1.0254945       128000 
 1026000   0.68573647  -0.22481942  -0.22481942   0.80376429   0.53520653  -0.22481942    1.0285837       128000 
 1027000   0.68534799  -0.22171196  -0.22171196   0.80628904    0.5432973  -0.22171196     1.028001       128000 
 1028000   0.68518445  -0.22262993  -0.22262993   0.80512577   0.54405394  -0.22262993    1.0277557       128000 
 1029000   0.68416011   -0.2221328   -0.2221328   0.80408642   0.54476293   -0.2221328    1.0262192       128000 
 1030000   0.68432185  -0.22160511  -0.22160511   0.80485671   0.54289378  -0.22160511    1.0264618       128000 
 1031000   0.68694704  -0.22374822  -0.22374822   0.80665132   0.54321052  -0.22374822    1.0303995       128000 
 1032000   0.68864475  -0.22268355  -0.22268355    0.8102625   0.54396894  -0.22268355     1.032946       128000 
 1033000   0.68743562  -0.22053836  -0.22053836   0.81059404   0.55237487  -0.22053836    1.0311324       128000 
 1034000   0.69073789    -0.220426    -0.220426   0.81565969   0.55074103    -0.220426    1.0360857       128000 
 1035000   0.68779693  -0.22268713  -0.22268713    0.8089872   0.54147414  -0.22268713    1.0316743       128000 
 1036000    0.6887463  -0.22391235  -0.22391235   0.80918602   0.54307565  -0.22391235    1.0330984       128000 
 1037000   0.68942053  -0.22331659  -0.22331659    0.8107931   0.54490008  -0.22331659    1.0341097       128000 
 1038000   0.68730163   -0.2239151   -0.2239151    0.8070163   0.53710374   -0.2239151    1.0309314       128000 
 1039000   0.68803666  -0.22165588  -0.22165588   0.81037806   0.54793826  -0.22165588    1.0320339       128000 
 1040000   0.68647342  -0.22357901  -0.22357901   0.80611011   0.54295615  -0.22357901    1.0296891       128000 
 1041000   0.68502482  -0.22021958  -0.22021958   0.80729669   0.54397445  -0.22021958    1.0275163       128000 
 1042000   0.68623375  -0.22431045  -0.22431045   0.80501917   0.53929009  -0.22431045    1.0293296       128000 
 1043000    0.6886427  -0.22364658  -0.22364658   0.80929639   0.53862959  -0.22364658     1.032943       128000 
 1044000   0.69158871  -0.21993973  -0.21993973   0.81742217     0.553368  -0.21993973    1.0373619       128000 
 1045000   0.69309228  -0.22368386  -0.22368386   0.81593333   0.54397513  -0.22368386    1.0396172       128000 
 1046000   0.68990509  -0.22206753  -0.22206753   0.81276899   0.54491008  -0.22206753    1.0348365       128000 
 1047000   0.68940519   -0.2210406   -0.2210406   0.81304608   0.54792293   -0.2210406    1.0340867       128000 
 1048000   0.69538364  -0.22067992  -0.22067992   0.82237425   0.55634771  -0.22067992    1.0430542       128000 
 1049000   0.69270921  -0.22182749  -0.22182749   0.81721512   0.54762294  -0.22182749    1.0390426       128000 
 1050000   0.68664555  -0.21921806  -0.21921806   0.81072925   0.55299982  -0.21921806    1.0299473       128000 
 1051000   0.69051226   -0.2230782   -0.2230782   0.81266905   0.54748535   -0.2230782    1.0357473       128000 
 1052000   0.68904983  -0.22335656  -0.22335656   0.81019709   0.54584294  -0.22335656    1.0335536       128000 
 1053000   0.69172138  -0.22239098  -0.22239098   0.81516992   0.54671216  -0.22239098    1.0375609       128000 
 1054000   0.69445824  -0.22190169  -0.22190169   0.81976441     0.544364  -0.22190169    1.0416661       128000 
 1055000   0.69556093  -0.22291031  -0.22291031   0.82040979     0.545816  -0.22291031    1.0433201       128000 
 1056000   0.68930969  -0.22006696  -0.22006696   0.81387647   0.54887018  -0.22006696    1.0339434       128000 
 1057000   0.68940209  -0.22218391  -0.22218391   0.81189813   0.54729855  -0.22218391     1.034082       128000 
 1058000   0.68770676  -0.22132642  -0.22132642   0.81021267   0.55143149  -0.22132642    1.0315391       128000 
 1059000   0.68621727  -0.22279962  -0.22279962   0.80650528   0.53814707  -0.22279962    1.0293049       128000 
 1060000   0.68698336  -0.22264329  -0.22264329   0.80781072    0.5391053  -0.22264329     1.030454       128000 
 1061000    0.6917562  -0.22054008  -0.22054008   0.81707303     0.550279  -0.22054008    1.0376131       128000 
 1062000   0.69154557  -0.22266244  -0.22266244   0.81463474   0.54612275  -0.22266244    1.0372972       128000 
 1063000   0.68815831  -0.22206757  -0.22206757   0.81014883   0.54765082  -0.22206757    1.0322164       128000 
 1064000   0.69111692  -0.22483669  -0.22483669   0.81181753   0.53821157  -0.22483669    1.0366542       128000 
 1065000   0.69463749  -0.22193281  -0.22193281   0.82000216   0.54782933  -0.22193281     1.041935       128000 
 1066000   0.69753669   -0.2199714   -0.2199714   0.82631229   0.55241344   -0.2199714    1.0462837       128000 
 1067000    0.6966135  -0.22096911  -0.22096911   0.82392982   0.55027297  -0.22096911    1.0448989       128000 
 1068000   0.68901667   -0.2186333   -0.2186333   0.81487062    0.5509156   -0.2186333    1.0335039       128000 
 1069000   0.69050601  -0.22078443  -0.22078443   0.81495345   0.55470854  -0.22078443    1.0357379       128000 
 1070000   0.69643381  -0.22164446  -0.22164446   0.82298494   0.54828628  -0.22164446    1.0446294       128000 
 1071000   0.69379123   -0.2209071   -0.2209071   0.81975851   0.54742157   -0.2209071    1.0406656       128000 
 1072000   0.69142705  -0.22309983  -0.22309983   0.81401958   0.54113674  -0.22309983    1.0371194       128000 
 1073000   0.69358622  -0.22242376  -0.22242376   0.81793433   0.54594304  -0.22242376    1.0403581       128000 
 1074000    0.6948487  -0.22338194  -0.22338194   0.81886984   0.54551044  -0.22338194    1.0422518       128000 
 1075000   0.69407105  -0.22165816  -0.22165816   0.81942716   0.54688175  -0.22165816    1.0410853       128000 
 1076000   0.69613262  -0.22058036  -0.22058036   0.82359725   0.54725915  -0.22058036    1.0441776       128000 
 1077000   0.69079548  -0.22190322  -0.22190322   0.81426884   0.54602471  -0.22190322    1.0361721       128000 
 1078000   0.69252623  -0.22064859  -0.22064859   0.81811956   0.55144364  -0.22064859    1.0387681       128000 
 1079000   0.69928801  -0.22351929  -0.22351929   0.82539132   0.54884617  -0.22351929    1.0489106       128000 
 1080000   0.69431119  -0.21970432  -0.21970432   0.82174121   0.55154168  -0.21970432    1.0414455       128000 
 1081000   0.69683493  -0.21950986  -0.21950986   0.82572121   0.55708754  -0.21950986    1.0452311       128000 
 1082000   0.69689454   -0.2186395   -0.2186395   0.82668097   0.55894814   -0.2186395    1.0453205       128000 
 1083000   0.69405147  -0.22163537  -0.22163537   0.81942059   0.54698658  -0.22163537     1.041056       128000 
 1084000   0.69670181  -0.22108016  -0.22108016   0.82395123    0.5448734  -0.22108016    1.0450314       128000 
 1085000   0.69578545   -0.2246322   -0.2246322   0.81902468   0.54522452   -0.2246322    1.0436569       128000 
 1086000   0.69329847  -0.21935901  -0.21935901   0.82056748   0.55501364  -0.21935901    1.0399265       128000 
 1087000    0.6927364  -0.21917857  -0.21917857   0.81990482   0.55653066  -0.21917857    1.0390834       128000 
 1088000   0.69702956  -0.22255171  -0.22255171    0.8229713   0.55228846  -0.22255171     1.045523       128000 
 1089000   0.69663917  -0.22121305  -0.22121305   0.82372439   0.55041827  -0.22121305    1.0449374       128000 
 1090000   0.70207734   -0.2221796   -0.2221796   0.83091492   0.54940346   -0.2221796    1.0530945       128000 
 1091000   0.70118688  -0.22004939  -0.22004939   0.83170947   0.55585491  -0.22004939    1.0517589       128000 
 1092000   0.69547948  -0.22102849  -0.22102849   0.82216944   0.55593734  -0.22102849    1.0431979       128000 
 1093000   0.69789401  -0.21927927  -0.21927927   0.82754039    0.5525235  -0.21927927    1.0468197       128000 
 1094000   0.69674027  -0.22136724  -0.22136724   0.82372183   0.54608663  -0.22136724    1.0450891       128000 
 1095000   0.69529688  -0.22070798  -0.22070798   0.82221605    0.5538364  -0.22070798     1.042924       128000 
 1096000   0.69768589   -0.2212938   -0.2212938   0.82521367   0.54739769   -0.2212938    1.0465075       128000 
 1097000   0.69996746  -0.22133149  -0.22133149   0.82859827   0.55281634  -0.22133149    1.0499298       128000 
 1098000   0.70156796  -0.22171488  -0.22171488   0.83061559   0.54789787  -0.22171488    1.0523305       128000 
 1099000   0.70051416  -0.21903417  -0.21903417   0.83171562   0.55852395  -0.21903417    1.0507498       128000 
 1100000   0.69982084  -0.22011946  -0.22011946   0.82959037   0.55946619  -0.22011946    1.0497098       128000 
Loop time of 2891.81 on 4 procs for 1000000 steps with 49000 atoms

Performance: 149387.484 tau/day, 345.804 timesteps/s
99.8% CPU use with 4 MPI tasks x 1 OpenMP threads

MPI task timing breakdown:
Section |  min time  |  avg time  |  max time  |%varavg|  %CPU | %total
-----------------------------------------------------------------------
Pair    | 1138.4     | 1161.8     | 1186.5     |  58.0 |  99.7 | 40.17
Bond    | 0.41663    | 0.43658    | 0.46105    |   2.7 | 100.0 |  0.02
Neigh   | 579.28     | 591.54     | 602.36     |  41.4 |  99.9 | 20.46
Comm    | 240.07     | 293.16     | 338.74     | 245.9 |  99.6 | 10.14
Output  | 48.752     | 48.773     | 48.78      |   0.2 |  97.8 |  1.69
Modify  | 719.75     | 751.32     | 791.41     |  94.2 |  99.7 | 25.98
Other   |            | 44.8       |            |       |       |  1.55

Nlocal:        12250.0 ave       12495 max       11931 min
Histogram: 1 0 0 0 0 1 1 0 0 1
Nghost:        4557.50 ave        5280 max        3808 min
Histogram: 2 0 0 0 0 0 0 0 0 2
Neighs:        62345.5 ave       65182 max       58922 min
Histogram: 1 0 0 0 0 1 1 0 0 1

Total # of neighbors = 249382
Ave neighs/atom = 5.0894286
Ave special neighs/atom = 0.0000000
Neighbor list builds = 92809
Dangerous builds = 32377
System init for write_restart ...
System init for write_data ...
Total wall time: 0:56:24
