LAMMPS (24 Dec 2020)
OMP_NUM_THREADS environment is not set. Defaulting to 1 thread. (src/comm.cpp:94)
  using 1 OpenMP thread(s) per MPI task
#Read the equilibrated lj fluid and add nanocubes

units           lj
atom_style      full
#atom_modify     map array first cubes
dimension       3
boundary        p p f
pair_style      lj/cut/opt 2.5

variable        sigma           equal 1.0
variable        epsilon         equal 1.0
read_restart	restart.dat.10000000
Reading restart file ...
  restart file = 24 Dec 2020, LAMMPS = 24 Dec 2020
  restoring atom style full from restart
  orthogonal box = (0.0000000 0.0000000 0.0000000) to (120.00000 120.00000 240.00000)
  6 by 8 by 16 MPI processor grid
  restoring pair style lj/cut/opt from restart
  1714209 atoms
Finding 1-2 1-3 1-4 neighbors ...
  special bond factors lj:    0        0        0       
  special bond factors coul:  0        0        0       
     0 = max # of 1-2 neighbors
     0 = max # of 1-3 neighbors
     0 = max # of 1-4 neighbors
     1 = max # of special neighbors
  special bonds CPU = 10.023 seconds
  read_restart CPU = 11.591 seconds

group		solvent type 1
1154139 atoms in group solvent
group 		hull  type 2
218540 atoms in group hull
group 		dummy type 3
341530 atoms in group dummy

neighbor      0.4 bin
neigh_modify  exclude molecule/intra cubes

pair_modify   shift yes

pair_coeff    1 1 1.0 1.0 #solvent
pair_coeff    2 2 1.0 1.0 1.12 #np
pair_coeff    3 3 0.0 0.0 0.0 #dummy
pair_coeff    2 3 0.0 0.0 0.0 #np dummy
pair_coeff    1 2 ${sol} 1.0  #np solvent
pair_coeff    1 2 0.575 1.0  
pair_coeff    1 3 0.0 0.0 0.0 #dummy solvent


comm_modify   mode multi cutoff/multi 1 2.5 cutoff/multi 2 2.5 cutoff/multi 3 6.95

reset_timestep 	0

balance 	1.05 shift z 10 1.05
Balancing ...
Unused restart file global fix info:
  fix style: STORE, fix ID: msd_COMPUTE_STORE
Unused restart file peratom fix info:
  fix style: STORE, fix ID: bin1_COMPUTE_STORE
  fix style: STORE, fix ID: bin3_COMPUTE_STORE
Neighbor list info ...
  update every 1 steps, delay 10 steps, check yes
  max neighbors/atom: 2000, page size: 100000
  master list distance cutoff = 2.9
  ghost atom cutoff = 6.96
  binsize = 1.45, bins = 83 83 166
  1 neighbor lists, perpetual/occasional/extra = 1 0 0
  (1) pair lj/cut/opt, perpetual
      attributes: half, newton on
      pair build: half/bin/newton
      stencil: half/bin/3d/newton
      bin: standard
 rebalancing time: 0.034 seconds
  iteration count = 3
  initial/final maximal load/proc = 3492.0000 3266.0000
  initial/final imbalance factor  = 1.5644860 1.4632335
  x cuts: 0.0000000 0.16666667 0.33333333 0.50000000 0.66666667 0.83333333 1.0000000
  y cuts: 0.0000000 0.12500000 0.25000000 0.37500000 0.50000000 0.62500000 0.75000000 0.87500000 1.0000000
  z cuts: 0.0000000 0.054687500 0.10156250 0.14843750 0.19531250 0.23437500 0.29687500 0.32812500 0.39062500 0.45312500 0.50781250 0.52343750 0.58593750 0.64843750 0.71093750 0.77343750 1.0000000

####################### WALLS ###########################

variable       epsilonWall equal 2*${epsilon}
variable       epsilonWall equal 2*1
variable       repulsive   equal   0.7147*${sigma}
variable       repulsive   equal   0.7147*1
variable       full	   equal   3*${sigma}
variable       full	   equal   3*1
region         lowWall block EDGE EDGE EDGE EDGE EDGE 2

fix            topWall all wall/lj93 zhi EDGE 	       ${epsilonWall} ${sigma} ${repulsive} units box
fix            topWall all wall/lj93 zhi EDGE 	       2 ${sigma} ${repulsive} units box
fix            topWall all wall/lj93 zhi EDGE 	       2 1 ${repulsive} units box
fix            topWall all wall/lj93 zhi EDGE 	       2 1 0.7147 units box
fix            lowSol solvent wall/lj93 zlo EDGE                ${epsilonWall} ${sigma} ${full} units box
fix            lowSol solvent wall/lj93 zlo EDGE                2 ${sigma} ${full} units box
fix            lowSol solvent wall/lj93 zlo EDGE                2 1 ${full} units box
fix            lowSol solvent wall/lj93 zlo EDGE                2 1 3 units box
fix 	       lowCub cubes wall/lj93 zlo EDGE                ${epsilonWall} ${sigma} ${repulsive} units box
fix 	       lowCub cubes wall/lj93 zlo EDGE                2 ${sigma} ${repulsive} units box
fix 	       lowCub cubes wall/lj93 zlo EDGE                2 1 ${repulsive} units box
fix 	       lowCub cubes wall/lj93 zlo EDGE                2 1 0.7147 units box


###################### COMPUTES ##########################

compute        bin1 solvent chunk/atom bin/1d z lower 1.0 units box
compute        bin3 solvent chunk/atom bin/3d x lower 5.0 y lower 5.0 z lower 5.0 units box

compute 	pe solvent 	   pe/atom
compute 	pe2 all 	   pe/atom

######################  FIXES ############################


fix             peclet solvent ave/chunk 10 10 10000 bin1 density/number norm                  none ave one file density.profile

fix              temp solvent ave/chunk 10 10 10000 bin1 temp norm                  none ave one file temp.profile

fix 		 dens solvent ave/chunk 10 10 500000 bin3 density/number norm 		 none ave one file dens3.profile

fix		 temp2 solvent ave/chunk 10 10 500000 bin3 temp norm none ave one file temp3.profile

fix 		pe solvent ave/chunk 1 1 500000 bin3 c_pe norm none ave one file pe3.profile



################### INTEGRATION

fix             1 cubes rigid/nve/small molecule
  create bodies CPU = 0.074 seconds
  490 rigid bodies with 560070 atoms
  6.9554839 = max distance from body owner to body atom

fix             2 solvent nve



## Thermostat
region          regthermo block EDGE EDGE EDGE EDGE 0 15
group           thermo dynamic solvent region regthermo every 1000
dynamic group thermo defined
fix             3 thermo langevin ${temp} ${temp} 10 156453
fix             3 thermo langevin 1.0 ${temp} 10 156453
fix             3 thermo langevin 1.0 1.0 10 156453

## Evaporation
region		regevap block EDGE EDGE EDGE EDGE 140 EDGE
fix 		4 solvent evaporate ${evap} 1 regevap 156415
fix 		4 solvent evaporate 37 1 regevap 156415


#### Load balancing

fix             bal all balance 1000 1.05 shift z 10 1.05

############### Diagnostics and computes ###################

compute        	com cubes          rigid/local   1 mol x y z
compute        	quat cubes         rigid/local   1 mol quatw quati quatj quatk

compute 	cc2 cubes 	   chunk/atom 	 molecule
compute 	msd cubes 	   msd/chunk 	 cc2

fix 		msd all ave/time  1 1 10000 c_msd[*] file dump.msd ave one mode vector

dump            1 all custom 500000 dump.lammpstrj id mol type x y z vx vy vz c_pe2
dump		sol  solvent custom 500000 dump.soltrj id x y z vx vy vz c_pe
dump		cubetrj cubes custom 500000 cubes.lammpstrj id mol type x y z vx vy vz
dump            com cubes local 500000 dump.*.xyz c_com[*]
dump	        xyz hull xyz 500000 cubes.xyz
#dump            quat cubes      local 100000 dump.*.quat c_quat[*]
dump		order cubes 	local 100000 dump.*.order c_com[*] c_quat[*]
#dump		mol cubes molfile 10000 mol.xyz xyz


dump            2 all image 100000 image.*.png type type zoom 1.5 size 1280 720
dump_modify     2 pad 8
dump		image cubes image 100000 image_cubes.*.png type type zoom 1.5 size 1280 720
dump_modify	image pad 8
dump            3 all movie 5000 movie.avi type type zoom 1.5 size 1280 720
dump		4 cubes movie 5000 movie_cubes.avi type type size 1280 720


thermo          1000
thermo_style    custom step temp epair evdwl etotal press pe ke atoms

restart         1000000 restart.dat
timestep        0.005
timer           full
New timer settings: style=full  mode=nosync  timeout=off

run 		${steps}
run 		30000000
Per MPI rank memory allocation (min/avg/max) = 16.91 | 23.26 | 26.41 Mbytes
Step Temp E_pair E_vdwl TotEng Press PotEng KinEng Atoms 
       0    1.0123358   -2.0844133   -2.0844133   -1.0611711  0.049408902   -2.0844133    1.0232422  1714209 
    1000    1.0124325   -2.0849243   -2.0849243   -1.0615683  0.069792476   -2.0849243     1.023356  1714182 
    2000     1.010866   -2.0841296   -2.0841296   -1.0623408  0.072417291   -2.0841296    1.0217887  1714155 
    3000    1.0103131   -2.0833232   -2.0833232   -1.0620772  0.069526709   -2.0833232     1.021246  1714128 
    4000    1.0106133   -2.0829981   -2.0829981   -1.0614326  0.072684511   -2.0829981    1.0215655  1714101 
    5000    1.0108451   -2.0831464   -2.0831464   -1.0613304  0.068271659   -2.0831464    1.0218159  1714074 
    6000    1.0117395   -2.0836683   -2.0836683   -1.0609322  0.071357655   -2.0836683    1.0227361  1714047 
    7000     1.011208   -2.0828406   -2.0828406   -1.0606257  0.072301534   -2.0828406    1.0222149  1714020 
    8000    1.0108788   -2.0826615   -2.0826615   -1.0607632  0.070137054   -2.0826615    1.0218982  1713993 
    9000    1.0106553   -2.0830161   -2.0830161   -1.0613277  0.065606293   -2.0830161    1.0216884  1713966 
   10000    1.0103528   -2.0829654   -2.0829654   -1.0615667  0.072389026   -2.0829654    1.0213987  1713939 
   11000    1.0092963   -2.0815094   -2.0815094   -1.0611627  0.071470951   -2.0815094    1.0203467  1713912 
   12000    1.0099029   -2.0821623   -2.0821623   -1.0611862  0.068505927   -2.0821623     1.020976  1713885 
   13000    1.0102904   -2.0822764   -2.0822764   -1.0608924  0.066540681   -2.0822764    1.0213839  1713858 
   14000    1.0106853   -2.0826237   -2.0826237   -1.0608244  0.068702314   -2.0826237    1.0217992  1713831 
   15000    1.0099569   -2.0819625   -2.0819625   -1.0608836  0.070668032   -2.0819625    1.0210789  1713804 
   16000    1.0102072   -2.0825375   -2.0825375   -1.0611895  0.069178476   -2.0825375    1.0213481  1713777 
   17000    1.0101323   -2.0825308   -2.0825308   -1.0612424  0.070667745   -2.0825308    1.0212884  1713750 
   18000     1.010702   -2.0830229   -2.0830229   -1.0611424  0.070715929   -2.0830229    1.0218805  1713723 
   19000    1.0104995   -2.0825515   -2.0825515   -1.0608597  0.068735653   -2.0825515    1.0216918  1713696 
   20000    1.0107047   -2.0830271   -2.0830271   -1.0611117  0.072342548   -2.0830271    1.0219154  1713669 
   21000    1.0100609   -2.0828054   -2.0828054   -1.0615248  0.065391526   -2.0828054    1.0212805  1713642 
   22000    1.0107067    -2.083747    -2.083747   -1.0617973   0.07282162    -2.083747    1.0219497  1713615 
   23000    1.0108892    -2.083247    -2.083247   -1.0610967  0.070366722    -2.083247    1.0221503  1713588 
   24000    1.0112297   -2.0833887   -2.0833887    -1.060878  0.071068956   -2.0833887    1.0225107  1713561 
   25000    1.0110356   -2.0831787   -2.0831787   -1.0608481  0.067203248   -2.0831787    1.0223306  1713534 
   26000     1.011487   -2.0828797   -2.0828797   -1.0600766   0.07050194   -2.0828797    1.0228031  1713507 
   27000    1.0110032    -2.082666    -2.082666   -1.0603361  0.070725427    -2.082666    1.0223299  1713480 
   28000    1.0100961   -2.0825617   -2.0825617   -1.0611328  0.069510377   -2.0825617    1.0214289  1713453 
   29000    1.0102257   -2.0827879   -2.0827879   -1.0612119  0.071810517   -2.0827879     1.021576  1713426 
   30000    1.0100719   -2.0819761   -2.0819761   -1.0605397  0.073745011   -2.0819761    1.0214365  1713399 
   31000    1.0109382   -2.0830912   -2.0830912   -1.0607625  0.069568308   -2.0830912    1.0223287  1713372 
   32000    1.0102486   -2.0828894   -2.0828894    -1.061242  0.069054621   -2.0828894    1.0216475  1713345 
   33000     1.010829    -2.082788    -2.082788   -1.0605376  0.070269086    -2.082788    1.0222505  1713318 
   34000    1.0102542   -2.0821885   -2.0821885   -1.0605032  0.071170025   -2.0821885    1.0216853  1713291 
   35000    1.0100926   -2.0824303   -2.0824303   -1.0608924  0.070727402   -2.0824303     1.021538  1713264 
   36000     1.010718    -2.083312    -2.083312   -1.0611255    0.0756504    -2.083312    1.0221866  1713237 
   37000    1.0102975    -2.082888    -2.082888     -1.06111  0.069473652    -2.082888     1.021778  1713209 
   38000    1.0097536   -2.0826924   -2.0826924   -1.0614484  0.068734547   -2.0826924     1.021244  1713182 
   39000    1.0100774   -2.0830412   -2.0830412   -1.0614536  0.067720714   -2.0830412    1.0215876  1713155 
   40000    1.0105822     -2.08378     -2.08378   -1.0616658  0.070176885     -2.08378    1.0221142  1713128 
   41000    1.0098512   -2.0830926   -2.0830926   -1.0617017  0.074912581   -2.0830926     1.021391  1713101 
   42000    1.0102362   -2.0829721   -2.0829721   -1.0611756  0.069729078   -2.0829721    1.0217965  1713074 
   43000    1.0095429   -2.0826973   -2.0826973   -1.0615859  0.072533749   -2.0826973    1.0211113  1713047 
   44000    1.0098667   -2.0827019   -2.0827019   -1.0612469  0.074303837   -2.0827019     1.021455  1713020 
   45000    1.0106102   -2.0836783   -2.0836783   -1.0614552   0.07067723   -2.0836783    1.0222231  1712993 
   46000    1.0091835   -2.0820079   -2.0820079   -1.0612118  0.074552125   -2.0820079    1.0207961  1712966 
   47000    1.0109854   -2.0836774   -2.0836774   -1.0610425  0.070320723   -2.0836774    1.0226349  1712939 
   48000    1.0096772   -2.0827284   -2.0827284   -1.0614007  0.070801441   -2.0827284    1.0213277  1712912 
   49000    1.0099811   -2.0826999   -2.0826999   -1.0610488  0.069571933   -2.0826999    1.0216512  1712885 
   50000    1.0097259   -2.0823569   -2.0823569   -1.0609478  0.068486207   -2.0823569    1.0214092  1712858 
   51000    1.0100921   -2.0825582   -2.0825582   -1.0607625  0.071801713   -2.0825582    1.0217957  1712831 
   52000    1.0103848   -2.0828643   -2.0828643   -1.0607564  0.068465947   -2.0828643    1.0221079  1712804 
   53000    1.0097084   -2.0822866   -2.0822866   -1.0608469  0.071024632   -2.0822866    1.0214398  1712777 
   54000    1.0100403   -2.0822607   -2.0822607   -1.0604691  0.071073409   -2.0822607    1.0217916  1712750 
   55000    1.0104332   -2.0821546   -2.0821546   -1.0599494  0.070236756   -2.0821546    1.0222052  1712723 
   56000    1.0099498    -2.081676    -2.081676   -1.0599437  0.072614764    -2.081676    1.0217323  1712696 
   57000    1.0102678    -2.081953    -2.081953   -1.0598829  0.070588814    -2.081953    1.0220701  1712669 
   58000     1.011141   -2.0832168   -2.0832168   -1.0602471  0.072070206   -2.0832168    1.0229696  1712642 
   59000    1.0101677   -2.0818887   -2.0818887   -1.0598876  0.071602656   -2.0818887    1.0220011  1712615 
   60000    1.0107145   -2.0824303   -2.0824303   -1.0598599  0.071723406   -2.0824303    1.0225704  1712588 
   61000    1.0099552   -2.0812032   -2.0812032   -1.0593849  0.071741175   -2.0812032    1.0218183  1712561 
   62000    1.0105195    -2.082007    -2.082007   -1.0596017  0.072148738    -2.082007    1.0224053  1712534 
   63000    1.0096728   -2.0814769   -2.0814769    -1.059912  0.073602703   -2.0814769    1.0215648  1712507 
   64000    1.0099745   -2.0816605   -2.0816605   -1.0597743  0.070045194   -2.0816605    1.0218862  1712480 
   65000    1.0099135    -2.081227    -2.081227   -1.0593864  0.068510219    -2.081227    1.0218406  1712453 
   66000    1.0101748   -2.0816016   -2.0816016   -1.0594805    0.0698695   -2.0816016    1.0221211  1712426 
   67000    1.0094252   -2.0809736   -2.0809736   -1.0595949  0.073822271   -2.0809736    1.0213786  1712399 
   68000    1.0104218   -2.0816043   -2.0816043   -1.0592011  0.073044493   -2.0816043    1.0224032  1712372 
   69000    1.0104118   -2.0815174   -2.0815174   -1.0591082  0.069459838   -2.0815174    1.0224092  1712345 
   70000    1.0096183   -2.0806118   -2.0806118   -1.0589894  0.073756949   -2.0806118    1.0216224  1712318 
   71000     1.010049   -2.0812722   -2.0812722    -1.059198  0.069798134   -2.0812722    1.0220743  1712291 
   72000    1.0096012   -2.0811613   -2.0811613    -1.059524  0.069823479   -2.0811613    1.0216373  1712264 
   73000    1.0083997    -2.080482    -2.080482   -1.0600444  0.070713725    -2.080482    1.0204376  1712237 
   74000    1.0100186   -2.0815219   -2.0815219   -1.0594294   0.06765571   -2.0815219    1.0220925  1712209 
   75000    1.0092011   -2.0805953   -2.0805953    -1.059314  0.070496195   -2.0805953    1.0212813  1712182 
   76000    1.0089576   -2.0803199   -2.0803199   -1.0592688  0.069914839   -2.0803199     1.021051  1712155 
   77000    1.0088836   -2.0802542   -2.0802542   -1.0592619  0.069986111   -2.0802542    1.0209923  1712128 
   78000    1.0086823   -2.0802338   -2.0802338   -1.0594293  0.071807974   -2.0802338    1.0208046  1712101 
   79000     1.009451   -2.0809118   -2.0809118   -1.0593131  0.072139605   -2.0809118    1.0215986  1712074 
   80000    1.0094342   -2.0808639   -2.0808639   -1.0592661  0.067484775   -2.0808639    1.0215978  1712047 
   81000     1.008933   -2.0805783   -2.0805783   -1.0594717  0.068449636   -2.0805783    1.0211066  1712020 
   82000    1.0083961   -2.0802693   -2.0802693   -1.0596899  0.071049067   -2.0802693    1.0205794  1711993 
   83000    1.0090141   -2.0811197   -2.0811197   -1.0598988  0.069588224   -2.0811197    1.0212209  1711966 
   84000     1.009444   -2.0814163   -2.0814163   -1.0597442   0.06921384   -2.0814163    1.0216721  1711939 
   85000    1.0086915   -2.0803597   -2.0803597    -1.059433  0.071460542   -2.0803597    1.0209266  1711912 
   86000    1.0090219   -2.0806357   -2.0806357   -1.0593586  0.068506176   -2.0806357    1.0212772  1711885 
   87000    1.0093711   -2.0810111   -2.0810111   -1.0593644  0.070414834   -2.0810111    1.0216467  1711858 
   88000    1.0090566   -2.0802825   -2.0802825    -1.058938  0.067858561   -2.0802825    1.0213445  1711831 
   89000    1.0087621   -2.0804452   -2.0804452   -1.0593827  0.069174416   -2.0804452    1.0210625  1711804 
   90000    1.0087263   -2.0800766   -2.0800766   -1.0590343  0.070864431   -2.0800766    1.0210423  1711777 
   91000     1.009297   -2.0804666   -2.0804666   -1.0588304  0.071860676   -2.0804666    1.0216361  1711750 
   92000    1.0088413    -2.080064    -2.080064   -1.0588731  0.069374187    -2.080064     1.021191  1711723 
   93000    1.0092792   -2.0803995   -2.0803995    -1.058749  0.070006893   -2.0803995    1.0216504  1711696 
   94000    1.0089716   -2.0802371   -2.0802371    -1.058882  0.069742748   -2.0802371    1.0213551  1711669 
   95000    1.0093763   -2.0810521   -2.0810521   -1.0592712  0.074290295   -2.0810521    1.0217809  1711642 
   96000    1.0082311    -2.080241    -2.080241   -1.0596033  0.069255443    -2.080241    1.0206377  1711615 
   97000    1.0100898   -2.0822211   -2.0822211   -1.0596857  0.070464687   -2.0822211    1.0225354  1711588 
   98000    1.0084955   -2.0801675   -2.0801675   -1.0592299  0.070609486   -2.0801675    1.0209376  1711561 
   99000    1.0087072    -2.080291    -2.080291    -1.059123  0.071280731    -2.080291     1.021168  1711534 
  100000    1.0085197   -2.0797653   -2.0797653    -1.058771  0.070349808   -2.0797653    1.0209943  1711507 
  101000    1.0089514   -2.0802304   -2.0802304    -1.058783   0.06928392   -2.0802304    1.0214474  1711480 
  102000    1.0083166   -2.0797686   -2.0797686   -1.0589477  0.066166823   -2.0797686    1.0208209  1711453 
  103000    1.0085015   -2.0797845   -2.0797845   -1.0587603  0.070016024   -2.0797845    1.0210242  1711426 
  104000     1.008395   -2.0792765   -2.0792765    -1.058344  0.071304807   -2.0792765    1.0209325  1711399 
  105000    1.0075215   -2.0786382   -2.0786382   -1.0585741   0.07444503   -2.0786382    1.0200642  1711372 
  106000    1.0086699   -2.0797882   -2.0797882   -1.0585451  0.070222466   -2.0797882     1.021243  1711345 
  107000    1.0085139   -2.0795429   -2.0795429   -1.0584417  0.069600637   -2.0795429    1.0211012  1711318 
  108000    1.0087718    -2.079444    -2.079444   -1.0580656  0.072755434    -2.079444    1.0213784  1711291 
  109000    1.0090338   -2.0791387   -2.0791387   -1.0574789  0.070663684   -2.0791387    1.0216598  1711264 
  110000    1.0081763   -2.0785343   -2.0785343   -1.0577267  0.072670404   -2.0785343    1.0208077  1711237 
  111000    1.0090372   -2.0795677   -2.0795677   -1.0578716  0.070004966   -2.0795677    1.0216961  1711209 
  112000    1.0087381   -2.0790092   -2.0790092   -1.0575998  0.075186908   -2.0790092    1.0214094  1711182 
  113000    1.0085286   -2.0789031   -2.0789031   -1.0576897  0.073955596   -2.0789031    1.0212134  1711155 
  114000    1.0087431   -2.0792841   -2.0792841   -1.0578375  0.071051236   -2.0792841    1.0214466  1711128 
  115000    1.0085189   -2.0793001   -2.0793001   -1.0580644  0.072219728   -2.0793001    1.0212357  1711101 
  116000    1.0092374   -2.0801291   -2.0801291   -1.0581497  0.072665286   -2.0801291    1.0219794  1711074 
  117000    1.0092303   -2.0805201   -2.0805201   -1.0585317  0.067939172   -2.0805201    1.0219884  1711047 
  118000    1.0075508   -2.0788786   -2.0788786   -1.0585749  0.074201283   -2.0788786    1.0203037  1711020 
  119000    1.0078674   -2.0796545   -2.0796545    -1.059014  0.068021539   -2.0796545    1.0206405  1710993 
  120000    1.0086932   -2.0798653   -2.0798653   -1.0583725  0.071843217   -2.0798653    1.0214928  1710966 
  121000    1.0083063   -2.0794937   -2.0794937   -1.0583766  0.071215957   -2.0794937    1.0211172  1710939 
  122000    1.0084334   -2.0797819   -2.0797819   -1.0585199  0.071386804   -2.0797819     1.021262  1710912 
  123000    1.0078368   -2.0789767   -2.0789767   -1.0583029  0.069073836   -2.0789767    1.0206738  1710885 
  124000    1.0081641   -2.0790305   -2.0790305    -1.058009  0.070712367   -2.0790305    1.0210215  1710858 
  125000    1.0083556   -2.0794101   -2.0794101   -1.0581786  0.073911314   -2.0794101    1.0212315  1710831 
  126000    1.0087872   -2.0796974   -2.0796974   -1.0580126  0.072196621   -2.0796974    1.0216848  1710804 
  127000    1.0083191   -2.0797757   -2.0797757   -1.0585489  0.074566357   -2.0797757    1.0212268  1710777 
  128000    1.0074755   -2.0782467   -2.0782467   -1.0578582  0.067831025   -2.0782467    1.0203885  1710750 
  129000    1.0086281   -2.0788539   -2.0788539    -1.057282  0.074160375   -2.0788539     1.021572  1710723 
  130000    1.0091811   -2.0800504   -2.0800504   -1.0579022  0.072454444   -2.0800504    1.0221482  1710696 
  131000    1.0078075   -2.0784202   -2.0784202   -1.0576471  0.072575082   -2.0784202    1.0207731  1710669 
  132000    1.0083633   -2.0793879   -2.0793879   -1.0580357    0.0670052   -2.0793879    1.0213522  1710642 
  133000     1.008595   -2.0791939   -2.0791939    -1.057591  0.071180745   -2.0791939     1.021603  1710615 
  134000    1.0089425   -2.0794489   -2.0794489   -1.0574778  0.071972397   -2.0794489    1.0219711  1710588 
  135000    1.0092001   -2.0797759   -2.0797759   -1.0575278  0.074098677   -2.0797759    1.0222481  1710561 
  136000     1.007271   -2.0776643   -2.0776643   -1.0573541  0.073799106   -2.0776643    1.0203102  1710534 
  137000    1.0077366   -2.0784293   -2.0784293   -1.0576313  0.072966715   -2.0784293    1.0207979  1710507 
  138000    1.0097928    -2.080635    -2.080635   -1.0577381   0.06868589    -2.080635    1.0228969  1710480 
  139000    1.0087345    -2.078913    -2.078913    -1.057072  0.069617013    -2.078913     1.021841  1710453 
  140000    1.0072881   -2.0771104   -2.0771104   -1.0567184  0.072269781   -2.0771104     1.020392  1710426 
  141000    1.0077771   -2.0776133   -2.0776133   -1.0567099  0.069210106   -2.0776133    1.0209034  1710399 
  142000    1.0075997   -2.0776466   -2.0776466   -1.0569068  0.070608721   -2.0776466    1.0207398  1710372 
  143000    1.0094342   -2.0792766   -2.0792766   -1.0566622  0.071903627   -2.0792766    1.0226144  1710345 
  144000    1.0083247   -2.0782075   -2.0782075   -1.0567009  0.069619417   -2.0782075    1.0215066  1710318 
  145000    1.0094751   -2.0794752   -2.0794752    -1.056787  0.071132433   -2.0794752    1.0226881  1710291 
  146000    1.0081333   -2.0778519   -2.0778519    -1.056507  0.071648061   -2.0778519    1.0213449  1710264 
  147000     1.007927   -2.0776092   -2.0776092   -1.0564572  0.070200078   -2.0776092     1.021152  1710237 
  148000    1.0083616   -2.0778234   -2.0778234   -1.0562144  0.073956943   -2.0778234    1.0216091  1710209 
  149000    1.0081839   -2.0780883   -2.0780883   -1.0566432  0.070695927   -2.0780883    1.0214451  1710182 
  150000    1.0075322   -2.0778387   -2.0778387   -1.0570377  0.069890044   -2.0778387     1.020801  1710155 
  151000    1.0079199   -2.0782111   -2.0782111   -1.0570012  0.070213837   -2.0782111    1.0212099  1710128 
  152000    1.0083953   -2.0784194   -2.0784194   -1.0567117  0.065460595   -2.0784194    1.0217077  1710101 
  153000    1.0075416   -2.0770776   -2.0770776   -1.0562188  0.074003065   -2.0770776    1.0208588  1710074 
  154000    1.0067195   -2.0763612   -2.0763612   -1.0563192  0.069674576   -2.0763612     1.020042  1710047 
  155000     1.008337   -2.0779219   -2.0779219   -1.0562249   0.06687355   -2.0779219     1.021697  1710020 
  156000    1.0067367   -2.0761578   -2.0761578   -1.0560661  0.068503599   -2.0761578    1.0200916  1709993 
  157000    1.0075922   -2.0768002   -2.0768002   -1.0558256  0.069585602   -2.0768002    1.0209746  1709966 
  158000     1.007323   -2.0763741   -2.0763741   -1.0556562   0.06893826   -2.0763741    1.0207179  1709939 
  159000    1.0079851    -2.077046    -2.077046    -1.055641  0.071265031    -2.077046     1.021405  1709912 
  160000    1.0078203   -2.0769324   -2.0769324   -1.0556784  0.069517108   -2.0769324    1.0212541  1709885 
  161000    1.0065108   -2.0764778   -2.0764778   -1.0565345  0.069052354   -2.0764778    1.0199433  1709858 
  162000     1.008112   -2.0780532   -2.0780532   -1.0564712  0.068326043   -2.0780532     1.021582  1709831 
  163000    1.0062593   -2.0762678   -2.0762678   -1.0565472  0.069272598   -2.0762678    1.0197206  1709804 
  164000    1.0084916   -2.0778841   -2.0778841   -1.0558853  0.069802125   -2.0778841    1.0219989  1709777 
  165000    1.0078963   -2.0775118   -2.0775118      -1.0561   0.07291779   -2.0775118    1.0214117  1709750 
  166000    1.0069545   -2.0761419   -2.0761419   -1.0556685  0.069254442   -2.0761419    1.0204734  1709723 
  167000    1.0073445    -2.076331    -2.076331   -1.0554462  0.071088359    -2.076331    1.0208848  1709696 
  168000    1.0080472   -2.0766148   -2.0766148   -1.0550017  0.069167955   -2.0766148    1.0216131  1709669 
  169000    1.0067835   -2.0758945   -2.0758945    -1.055546  0.073910977   -2.0758945    1.0203485  1709642 
  170000    1.0075393    -2.076696    -2.076696   -1.0555654  0.069199703    -2.076696    1.0211306  1709615 
  171000     1.007533   -2.0760834   -2.0760834    -1.054943  0.068058942   -2.0760834    1.0211404  1709588 
  172000    1.0073558   -2.0761515   -2.0761515   -1.0551746  0.074647939   -2.0761515    1.0209769  1709561 
  173000      1.00697   -2.0757792   -2.0757792   -1.0551772  0.072080025   -2.0757792     1.020602  1709534 
  174000    1.0075756   -2.0765559   -2.0765559    -1.055324  0.068544365   -2.0765559    1.0212319  1709507 
  175000     1.007946   -2.0768744   -2.0768744   -1.0552509  0.069987113   -2.0768744    1.0216235  1709480 
  176000    1.0083646   -2.0769329   -2.0769329    -1.054869  0.074649028   -2.0769329    1.0220639  1709453 
  177000    1.0083042   -2.0772435   -2.0772435   -1.0552247  0.074032841   -2.0772435    1.0220188  1709426 
  178000     1.008073   -2.0769703   -2.0769703   -1.0551697  0.070070414   -2.0769703    1.0218006  1709399 
  179000     1.007722   -2.0763063   -2.0763063   -1.0548453  0.072093001   -2.0763063     1.021461  1709372 
  180000    1.0072373   -2.0759253   -2.0759253   -1.0549396  0.071305217   -2.0759253    1.0209857  1709345 
  181000    1.0069742   -2.0759844   -2.0759844   -1.0552492  0.070225508   -2.0759844    1.0207352  1709318 
  182000    1.0078573   -2.0761716   -2.0761716   -1.0545251  0.070361211   -2.0761716    1.0216465  1709291 
  183000    1.0080685   -2.0766118   -2.0766118   -1.0547351  0.073350974   -2.0766118    1.0218767  1709264 
  184000    1.0067466   -2.0755985   -2.0755985   -1.0550457  0.075348495   -2.0755985    1.0205528  1709237 
  185000    1.0070779   -2.0762085   -2.0762085   -1.0553031  0.067771104   -2.0762085    1.0209054  1709209 
  186000    1.0066225   -2.0755281   -2.0755281   -1.0550683  0.071756703   -2.0755281    1.0204599  1709182 
  187000    1.0071742   -2.0760583   -2.0760583    -1.055023  0.067628519   -2.0760583    1.0210353  1709155 
  188000    1.0073283   -2.0768096   -2.0768096    -1.055602  0.072714103   -2.0768096    1.0212077  1709128 
  189000    1.0065798   -2.0755681   -2.0755681   -1.0551031  0.072164927   -2.0755681     1.020465  1709101 
  190000    1.0070658   -2.0761603   -2.0761603   -1.0551866  0.072648224   -2.0761603    1.0209737  1709074 
  191000    1.0072468   -2.0768673   -2.0768673   -1.0556939  0.069469523   -2.0768673    1.0211734  1709047 
  192000    1.0070014   -2.0761943   -2.0761943   -1.0552535  0.069741275   -2.0761943    1.0209408  1709020 
  193000    1.0068438    -2.076233    -2.076233   -1.0554359  0.071428499    -2.076233    1.0207971  1708993 
  194000    1.0077909   -2.0772559   -2.0772559   -1.0554825   0.06947485   -2.0772559    1.0217734  1708966 
  195000    1.0070066     -2.07634     -2.07634   -1.0553455  0.072834407     -2.07634    1.0209945  1708939 
  196000    1.0069599   -2.0762545   -2.0762545   -1.0552913  0.072982298   -2.0762545    1.0209632  1708912 
  197000    1.0074986   -2.0766198   -2.0766198   -1.0550942  0.070849392   -2.0766198    1.0215256  1708885 
  198000    1.0075916   -2.0764131   -2.0764131   -1.0547771  0.071615648   -2.0764131     1.021636  1708858 
  199000    1.0072719   -2.0763051   -2.0763051   -1.0549771  0.075319629   -2.0763051     1.021328  1708831 
  200000     1.007749   -2.0763142   -2.0763142   -1.0544863  0.067862854   -2.0763142    1.0218278  1708804 
  201000    1.0073896   -2.0755705   -2.0755705   -1.0540909  0.072929116   -2.0755705    1.0214796  1708777 
  202000    1.0061731   -2.0743763   -2.0743763   -1.0541141  0.073396794   -2.0743763    1.0202621  1708750 
  203000    1.0066597   -2.0746384   -2.0746384   -1.0538667  0.075409081   -2.0746384    1.0207717  1708723 
  204000     1.006911   -2.0747301   -2.0747301   -1.0536873  0.073482543   -2.0747301    1.0210427  1708696 
  205000    1.0078135   -2.0752783   -2.0752783   -1.0533043  0.072512588   -2.0752783     1.021974  1708669 
  206000    1.0082994   -2.0761073   -2.0761073   -1.0536245  0.068040112   -2.0761073    1.0224828  1708642 
  207000    1.0073992    -2.075114    -2.075114   -1.0535278   0.07033412    -2.075114    1.0215862  1708615 
  208000    1.0076544    -2.075295    -2.075295   -1.0534339   0.07113775    -2.075295    1.0218611  1708588 
  209000    1.0070887   -2.0743287   -2.0743287   -1.0530252  0.069664709   -2.0743287    1.0213035  1708561 
  210000      1.00692   -2.0748129   -2.0748129   -1.0536644  0.072463682   -2.0748129    1.0211486  1708534 
  211000    1.0073504   -2.0750628   -2.0750628   -1.0534616  0.071067925   -2.0750628    1.0216012  1708507 
  212000    1.0077007   -2.0752056   -2.0752056   -1.0532329  0.073110534   -2.0752056    1.0219726  1708480 
  213000    1.0082254   -2.0753343   -2.0753343   -1.0528134   0.07037764   -2.0753343    1.0225209  1708453 
  214000    1.0074466   -2.0750971   -2.0750971   -1.0533498  0.072073532   -2.0750971    1.0217473  1708426 
  215000    1.0065429   -2.0739029   -2.0739029   -1.0530561  0.072686039   -2.0739029    1.0208468  1708399 
  216000    1.0068896   -2.0739733   -2.0739733   -1.0527587  0.074458558   -2.0739733    1.0212146  1708372 
  217000    1.0078287   -2.0750346   -2.0750346   -1.0528514  0.068852271   -2.0750346    1.0221832  1708345 
  218000    1.0066781   -2.0735017   -2.0735017   -1.0524693  0.069341508   -2.0735017    1.0210324  1708318 
  219000    1.0069339   -2.0735834   -2.0735834   -1.0522754  0.068484894   -2.0735834     1.021308  1708291 
  220000    1.0068539    -2.073338    -2.073338    -1.052095   0.07100863    -2.073338     1.021243  1708264 
  221000    1.0068665   -2.0732561   -2.0732561   -1.0519843  0.067952075   -2.0732561    1.0212719  1708237 
  222000    1.0075788   -2.0737611   -2.0737611   -1.0517499  0.065555862   -2.0737611    1.0220112  1708209 
  223000     1.006361    -2.073001    -2.073001    -1.052209  0.068336239    -2.073001     1.020792  1708182 
  224000    1.0051101   -2.0721024   -2.0721024   -1.0525632  0.069304161   -2.0721024    1.0195393  1708155 
  225000    1.0060071   -2.0730458   -2.0730458   -1.0525805    0.0685565   -2.0730458    1.0204653  1708128 
  226000    1.0057583   -2.0723093   -2.0723093   -1.0520802  0.071836326   -2.0723093    1.0202291  1708101 
  227000    1.0058211   -2.0723205   -2.0723205   -1.0520116   0.07127635   -2.0723205    1.0203089  1708074 
  228000    1.0052763   -2.0721143   -2.0721143   -1.0523419  0.069631596   -2.0721143    1.0197723  1708047 
  229000    1.0063272   -2.0729578   -2.0729578   -1.0521033  0.072007684   -2.0729578    1.0208545  1708020 
  230000    1.0067051   -2.0731243   -2.0731243   -1.0518703  0.070492804   -2.0731243    1.0212541  1707993 
  231000    1.0058358    -2.071921    -2.071921   -1.0515327  0.071335637    -2.071921    1.0203884  1707966 
  232000    1.0066566   -2.0728581   -2.0728581   -1.0516209  0.070829284   -2.0728581    1.0212372  1707939 
  233000    1.0069007   -2.0728732   -2.0728732   -1.0513723  0.070456731   -2.0728732    1.0215009  1707912 
  234000     1.004935   -2.0714521   -2.0714521   -1.0519292  0.071803526   -2.0714521    1.0195229  1707885 
  235000    1.0065481   -2.0729599   -2.0729599   -1.0517844  0.066993631   -2.0729599    1.0211755  1707858 
  236000    1.0058618   -2.0723211   -2.0723211   -1.0518257  0.073365512   -2.0723211    1.0204954  1707831 
  237000    1.0067225   -2.0730355   -2.0730355   -1.0516508  0.073436432   -2.0730355    1.0213848  1707804 
  238000    1.0066869   -2.0731258   -2.0731258   -1.0517611  0.069652261   -2.0731258    1.0213648  1707777 
  239000    1.0065504   -2.0725286   -2.0725286   -1.0512861  0.068120995   -2.0725286    1.0212425  1707750 
  240000    1.0077762   -2.0737996   -2.0737996   -1.0512973  0.068600848   -2.0737996    1.0225022  1707723 
  241000    1.0071051   -2.0727266   -2.0727266    -1.050889  0.072922131   -2.0727266    1.0218376  1707696 
  242000    1.0070666    -2.073143    -2.073143   -1.0513284   0.07366053    -2.073143    1.0218146  1707669 
  243000    1.0073756   -2.0733505   -2.0733505   -1.0512062  0.069303934   -2.0733505    1.0221443  1707642 
  244000    1.0075437   -2.0729822   -2.0729822   -1.0506512   0.07212434   -2.0729822    1.0223311  1707615 
  245000    1.0077564   -2.0729193   -2.0729193   -1.0503563  0.070990039   -2.0729193     1.022563  1707588 
  246000    1.0080282   -2.0735396   -2.0735396   -1.0506845  0.074377194   -2.0735396     1.022855  1707561 
  247000    1.0065844    -2.072003    -2.072003   -1.0505969  0.071514957    -2.072003    1.0214061  1707534 
  248000     1.007056   -2.0726141   -2.0726141   -1.0507133  0.069455684   -2.0726141    1.0219008  1707507 
  249000      1.00706   -2.0726398   -2.0726398   -1.0507189  0.072124337   -2.0726398     1.021921  1707480 
  250000    1.0073334   -2.0737568   -2.0737568   -1.0515422  0.072504222   -2.0737568    1.0222146  1707453 
  251000    1.0070207   -2.0733365   -2.0733365    -1.051423  0.072562001   -2.0733365    1.0219135  1707426 
  252000    1.0062491   -2.0729719   -2.0729719   -1.0518253  0.068829476   -2.0729719    1.0211466  1707399 
  253000    1.0062194   -2.0728353   -2.0728353   -1.0517027  0.068332023   -2.0728353    1.0211326  1707372 
  254000    1.0061863   -2.0724507   -2.0724507   -1.0513356  0.069278603   -2.0724507    1.0211151  1707345 
  255000    1.0052518   -2.0715933   -2.0715933   -1.0514104  0.075847189   -2.0715933    1.0201829  1707318 
  256000    1.0056065   -2.0716476   -2.0716476   -1.0510886  0.071828306   -2.0716476     1.020559  1707291 
  257000    1.0059621   -2.0721703   -2.0721703   -1.0512343  0.073551971   -2.0721703     1.020936  1707264 
  258000      1.00639   -2.0732973   -2.0732973   -1.0519108  0.068957707   -2.0732973    1.0213864  1707237 
  259000     1.006099   -2.0728769   -2.0728769    -1.051769  0.072419141   -2.0728769    1.0211079  1707209 
  260000    1.0053844   -2.0722581   -2.0722581   -1.0518593  0.074928429   -2.0722581    1.0203988  1707182 
  261000    1.0054723   -2.0726164   -2.0726164   -1.0521122  0.073340509   -2.0726164    1.0205042  1707155 
  262000     1.005886   -2.0731735   -2.0731735   -1.0522334  0.074462343   -2.0731735    1.0209401  1707128 
  263000    1.0055957   -2.0733463   -2.0733463   -1.0526846  0.074485147   -2.0733463    1.0206617  1707101 
  264000    1.0052789   -2.0726297   -2.0726297   -1.0522735  0.072896273   -2.0726297    1.0203562  1707074 
  265000    1.0061573    -2.073762    -2.073762    -1.052498  0.073166726    -2.073762     1.021264  1707047 
  266000    1.0058802   -2.0735668   -2.0735668   -1.0525679  0.067281159   -2.0735668    1.0209988  1707020 
  267000    1.0063823   -2.0738414   -2.0738414   -1.0523167  0.073085901   -2.0738414    1.0215247  1706993 
  268000    1.0051867   -2.0729871   -2.0729871   -1.0526599  0.069467989   -2.0729871    1.0203272  1706966 
  269000    1.0053795   -2.0732791   -2.0732791   -1.0527401  0.068344002   -2.0732791     1.020539  1706939 
  270000     1.004942   -2.0732194   -2.0732194   -1.0531083  0.071888816   -2.0732194    1.0201111  1706912 
  271000    1.0054282   -2.0727436   -2.0727436   -1.0521228  0.070009839   -2.0727436    1.0206208  1706885 
  272000    1.0053168   -2.0725338   -2.0725338   -1.0520099  0.068670752   -2.0725338    1.0205239  1706858 
  273000    1.0048413   -2.0722634   -2.0722634   -1.0522061  0.069632834   -2.0722634    1.0200573  1706831 
  274000    1.0062277   -2.0732782   -2.0732782   -1.0517974  0.070184908   -2.0732782    1.0214809  1706804 
  275000    1.0045869   -2.0717445   -2.0717445   -1.0519132  0.071223662   -2.0717445    1.0198313  1706777 
  276000    1.0048899   -2.0719431   -2.0719431    -1.051788  0.074592667   -2.0719431    1.0201551  1706750 
  277000    1.0049525   -2.0721754   -2.0721754   -1.0519407  0.073579682   -2.0721754    1.0202347  1706723 
  278000    1.0047172    -2.072261    -2.072261    -1.052249  0.071226629    -2.072261     1.020012  1706696 
  279000    1.0043536   -2.0717474   -2.0717474   -1.0520884  0.073776573   -2.0717474    1.0196589  1706669 
  280000    1.0045969   -2.0721505   -2.0721505   -1.0522284  0.070602465   -2.0721505    1.0199221  1706642 
  281000    1.0051133   -2.0725122   -2.0725122   -1.0520497  0.070295886   -2.0725122    1.0204626  1706615 
  282000    1.0046157   -2.0721599   -2.0721599   -1.0521864  0.072978007   -2.0721599    1.0199735  1706588 
  283000    1.0040803   -2.0715483   -2.0715483   -1.0521022  0.074978254   -2.0715483    1.0194461  1706561 
  284000    1.0048957   -2.0721837   -2.0721837   -1.0518936  0.070604288   -2.0721837    1.0202901  1706534 
  285000    1.0055991   -2.0725033   -2.0725033    -1.051483  0.068625581   -2.0725033    1.0210203  1706507 
  286000    1.0055396   -2.0721164   -2.0721164   -1.0511402  0.073002788   -2.0721164    1.0209761  1706480 
  287000    1.0060477   -2.0729199   -2.0729199   -1.0514117  0.067169066   -2.0729199    1.0215082  1706453 
  288000    1.0054308   -2.0717001   -2.0717001   -1.0508021  0.071749391   -2.0717001     1.020898  1706426 
  289000    1.0055295   -2.0719028   -2.0719028   -1.0508884  0.073660614   -2.0719028    1.0210144  1706399 
  290000    1.0050202   -2.0715187   -2.0715187   -1.0510054  0.071650031   -2.0715187    1.0205134  1706372 
  291000    1.0049818   -2.0715947   -2.0715947   -1.0511043  0.073756479   -2.0715947    1.0204905  1706345 
  292000    1.0058189   -2.0715161   -2.0715161   -1.0501594  0.071243126   -2.0715161    1.0213567  1706318 
  293000    1.0047743   -2.0711358   -2.0711358   -1.0508237  0.071586146   -2.0711358    1.0203121  1706291 
  294000    1.0048828    -2.070914    -2.070914   -1.0504755  0.074588352    -2.070914    1.0204384  1706264 
  295000    1.0054867   -2.0711733   -2.0711733   -1.0501055   0.07213964   -2.0711733    1.0210678  1706237 
  296000    1.0046196   -2.0703819   -2.0703819   -1.0501778  0.070267915   -2.0703819    1.0202041  1706209 
  297000    1.0050606   -2.0708125   -2.0708125   -1.0501445  0.069493407   -2.0708125     1.020668  1706182 
  298000    1.0048788   -2.0710746   -2.0710746   -1.0505751  0.069942424   -2.0710746    1.0204995  1706155 
  299000    1.0042015   -2.0710803   -2.0710803   -1.0512525  0.069985987   -2.0710803    1.0198279  1706128 
  300000    1.0042693   -2.0710285   -2.0710285   -1.0511157  0.075494875   -2.0710285    1.0199128  1706101 
  301000    1.0048527   -2.0710011   -2.0710011   -1.0504796  0.073068909   -2.0710011    1.0205215  1706074 
  302000    1.0047449   -2.0714106   -2.0714106   -1.0509825  0.072977188   -2.0714106    1.0204281  1706047 
  303000    1.0049963   -2.0713622   -2.0713622   -1.0506626  0.066250163   -2.0713622    1.0206996  1706020 
  304000    1.0031443   -2.0699911   -2.0699911   -1.0511562  0.070102713   -2.0699911    1.0188349  1705993 
  305000     1.004648   -2.0710688   -2.0710688   -1.0506906   0.07150726   -2.0710688    1.0203782  1705966 
  306000    1.0051508   -2.0711435   -2.0711435   -1.0502384  0.068559406   -2.0711435     1.020905  1705939 
  307000    1.0046091   -2.0707217   -2.0707217   -1.0503507  0.074141839   -2.0707217     1.020371  1705912 
  308000    1.0057583   -2.0721944   -2.0721944     -1.05064  0.070424018   -2.0721944    1.0215544  1705885 
  309000     1.004934   -2.0711894   -2.0711894   -1.0504562  0.069359212   -2.0711894    1.0207332  1705858 
  310000    1.0040289   -2.0699567   -2.0699567   -1.0501267  0.073171661   -2.0699567      1.01983  1705831 
  311000    1.0040329   -2.0703172   -2.0703172   -1.0504669  0.070477004   -2.0703172    1.0198503  1705804 
  312000    1.0042052   -2.0702949   -2.0702949   -1.0502534  0.070017758   -2.0702949    1.0200415  1705777 
  313000    1.0049584   -2.0712658   -2.0712658   -1.0504431  0.070688564   -2.0712658    1.0208227  1705750 
  314000    1.0039976   -2.0705341   -2.0705341   -1.0506713  0.074048922   -2.0705341    1.0198629  1705723 
  315000    1.0039425   -2.0706161   -2.0706161    -1.050793  0.071124294   -2.0706161    1.0198231  1705696 
  316000    1.0045391   -2.0705466   -2.0705466   -1.0501013  0.068032728   -2.0705466    1.0204453  1705669 
  317000    1.0051062   -2.0706891   -2.0706891   -1.0496516  0.073942712   -2.0706891    1.0210375  1705642 
  318000    1.0037532   -2.0697876   -2.0697876   -1.0501084  0.073239858   -2.0697876    1.0196792  1705615 
  319000    1.0045824   -2.0704687   -2.0704687    -1.049931  0.066592774   -2.0704687    1.0205377  1705588 
  320000    1.0050697     -2.07073     -2.07073   -1.0496812   0.06915164     -2.07073    1.0210488  1705561 
  321000    1.0055688   -2.0708901   -2.0708901    -1.049318   0.07296738   -2.0708901    1.0215721  1705534 
  322000    1.0054253   -2.0708756   -2.0708756    -1.049433  0.072050435   -2.0708756    1.0214425  1705507 
  323000    1.0047513   -2.0707674   -2.0707674   -1.0499935  0.071142037   -2.0707674    1.0207739  1705480 
  324000    1.0045784   -2.0706951   -2.0706951   -1.0500808  0.067762413   -2.0706951    1.0206144  1705453 
  325000    1.0038942    -2.070034    -2.070034   -1.0500985  0.072934083    -2.070034    1.0199355  1705426 
  326000    1.0033704   -2.0702969   -2.0702969   -1.0508775  0.070904932   -2.0702969    1.0194194  1705399 
  327000    1.0040346   -2.0705594   -2.0705594    -1.050449  0.070350385   -2.0705594    1.0201104  1705372 
  328000     1.003727   -2.0699223   -2.0699223   -1.0501082  0.070920216   -2.0699223     1.019814  1705345 
  329000    1.0045841    -2.070703    -2.070703    -1.050002  0.071673457    -2.070703     1.020701  1705318 
  330000    1.0050965   -2.0707051   -2.0707051   -1.0494673  0.074992609   -2.0707051    1.0212377  1705291 
  331000    1.0045107    -2.070514    -2.070514   -1.0498553   0.07224674    -2.070514    1.0206587  1705264 
  332000     1.004368    -2.070409    -2.070409   -1.0498792  0.068442567    -2.070409    1.0205298  1705237 
  333000      1.00437   -2.0701933   -2.0701933   -1.0496446  0.072665166   -2.0701933    1.0205486  1705209 
  334000    1.0043011   -2.0705747   -2.0705747   -1.0500798  0.068770542   -2.0705747    1.0204949  1705182 
  335000    1.0031683   -2.0696745   -2.0696745   -1.0503146  0.070390666   -2.0696745    1.0193599  1705155 
  336000    1.0035479   -2.0694521   -2.0694521   -1.0496903  0.074465803   -2.0694521    1.0197618  1705128 
  337000    1.0030854   -2.0690765   -2.0690765   -1.0497686  0.075522609   -2.0690765     1.019308  1705101 
  338000    1.0046877   -2.0696879   -2.0696879   -1.0487356  0.074239482   -2.0696879    1.0209523  1705074 
  339000    1.0036179   -2.0693116   -2.0693116   -1.0494302  0.071050299   -2.0693116    1.0198813  1705047 
  340000    1.0043997   -2.0696647   -2.0696647   -1.0489727  0.070725375   -2.0696647     1.020692  1705020 
  341000    1.0036672   -2.0690404   -2.0690404   -1.0490766  0.071914402   -2.0690404    1.0199638  1704993 
  342000    1.0029642   -2.0685677   -2.0685677   -1.0493022  0.070595743   -2.0685677    1.0192655  1704966 
  343000    1.0038548   -2.0694981   -2.0694981   -1.0493114  0.072877399   -2.0694981    1.0201868  1704939 
  344000    1.0040452   -2.0698625   -2.0698625   -1.0494661  0.070543361   -2.0698625    1.0203964  1704912 
  345000    1.0037149   -2.0695171   -2.0695171   -1.0494403  0.070061444   -2.0695171    1.0200768  1704885 
  346000    1.0041416   -2.0700456   -2.0700456   -1.0495189  0.065425301   -2.0700456    1.0205266  1704858 
  347000    1.0042615   -2.0699233   -2.0699233   -1.0492586  0.072631933   -2.0699233    1.0206647  1704831 
  348000    1.0051232   -2.0701978   -2.0701978   -1.0486412  0.071215332   -2.0701978    1.0215567  1704804 
  349000    1.0040953   -2.0697049   -2.0697049   -1.0491768  0.073463287   -2.0697049    1.0205281  1704777 
  350000    1.0029894   -2.0685795   -2.0685795   -1.0491592  0.071652056   -2.0685795    1.0194203  1704750 
  351000    1.0032663   -2.0686751   -2.0686751   -1.0489573  0.071334084   -2.0686751    1.0197178  1704723 
  352000    1.0041954   -2.0691679   -2.0691679   -1.0484895  0.068461315   -2.0691679    1.0206784  1704696 
  353000    1.0044303   -2.0698658   -2.0698658   -1.0489326  0.071150437   -2.0698658    1.0209333  1704669 
  354000    1.0037512   -2.0695934   -2.0695934   -1.0493342  0.071826846   -2.0695934    1.0202592  1704642 
  355000    1.0040369   -2.0701765   -2.0701765   -1.0496107  0.069486787   -2.0701765    1.0205658  1704615 
  356000    1.0038917   -2.0697168   -2.0697168   -1.0492825  0.068382107   -2.0697168    1.0204343  1704588 
  357000     1.003875   -2.0701422   -2.0701422   -1.0497087   0.07084814   -2.0701422    1.0204335  1704561 
  358000    1.0028832   -2.0690526   -2.0690526   -1.0496111  0.072820432   -2.0690526    1.0194415  1704534 
  359000    1.0036088   -2.0698019   -2.0698019   -1.0496067  0.069341763   -2.0698019    1.0201952  1704507 
  360000    1.0037642   -2.0697499   -2.0697499   -1.0493805  0.069559048   -2.0697499    1.0203693  1704480 
  361000    1.0037392   -2.0693289   -2.0693289   -1.0489688  0.072321268   -2.0693289    1.0203601  1704453 
  362000    1.0038319   -2.0696374   -2.0696374   -1.0491669   0.06877055   -2.0696374    1.0204705  1704426 
  363000    1.0032355    -2.068924    -2.068924   -1.0490437   0.07041395    -2.068924    1.0198803  1704399 
  364000    1.0040389   -2.0698289   -2.0698289   -1.0491156  0.071255118   -2.0698289    1.0207133  1704372 
  365000     1.003184   -2.0690833   -2.0690833    -1.049223  0.070918511   -2.0690833    1.0198603  1704345 
  366000    1.0031581   -2.0691401   -2.0691401   -1.0492899  0.072216476   -2.0691401    1.0198501  1704318 
  367000    1.0030047    -2.068624    -2.068624   -1.0489136   0.06914459    -2.068624    1.0197104  1704291 
  368000    1.0018329   -2.0680043   -2.0680043   -1.0494691  0.068345046   -2.0680043    1.0185352  1704264 
  369000    1.0031959   -2.0689985   -2.0689985   -1.0490615  0.068908694   -2.0689985    1.0199371  1704237 
  370000    1.0032801   -2.0688349   -2.0688349   -1.0487955  0.072647782   -2.0688349    1.0200394  1704209 
  371000    1.0036135   -2.0693409   -2.0693409   -1.0489463  0.069069002   -2.0693409    1.0203945  1704182 
  372000    1.0035996   -2.0688593   -2.0688593   -1.0484627  0.071383294   -2.0688593    1.0203966  1704155 
  373000    1.0037112   -2.0689409   -2.0689409   -1.0484147  0.065727808   -2.0689409    1.0205262  1704128 
  374000    1.0035408   -2.0689156   -2.0689156   -1.0485465  0.069256977   -2.0689156    1.0203692  1704101 
  375000    1.0038297   -2.0695184   -2.0695184   -1.0488394  0.072209323   -2.0695184     1.020679  1704074 
  376000    1.0043887   -2.0699484   -2.0699484   -1.0486847  0.072042877   -2.0699484    1.0212636  1704047 
  377000    1.0038824   -2.0696147   -2.0696147   -1.0488498  0.071193681   -2.0696147    1.0207649  1704020 
  378000    1.0031474   -2.0688176   -2.0688176   -1.0487838  0.071998924   -2.0688176    1.0200338  1703993 
  379000    1.0038829    -2.069268    -2.069268   -1.0484702  0.068037259    -2.069268    1.0207978  1703966 
  380000    1.0034188   -2.0691821   -2.0691821     -1.04884  0.074485764   -2.0691821    1.0203421  1703939 
  381000    1.0039418   -2.0697044   -2.0697044   -1.0488143  0.063922857   -2.0697044    1.0208901  1703912 
  382000    1.0028932   -2.0684146   -2.0684146   -1.0485746  0.072175702   -2.0684146      1.01984  1703885 
  383000    1.0032384   -2.0686929   -2.0686929   -1.0484857  0.070269836   -2.0686929    1.0202072  1703858 
  384000    1.0023611   -2.0680465   -2.0680465   -1.0487153  0.071531835   -2.0680465    1.0193312  1703831 
  385000    1.0023318   -2.0684048   -2.0684048   -1.0490873  0.069598227   -2.0684048    1.0193175  1703804 
  386000    1.0027561   -2.0685177   -2.0685177   -1.0487525  0.072033184   -2.0685177    1.0197651  1703777 
  387000      1.00213   -2.0681123   -2.0681123   -1.0489678  0.071276739   -2.0681123    1.0191446  1703750 
  388000    1.0021816   -2.0686409   -2.0686409   -1.0494276  0.070215263   -2.0686409    1.0192133  1703723 
  389000    1.0016747   -2.0678614   -2.0678614   -1.0491475  0.074788302   -2.0678614    1.0187139  1703696 
  390000    1.0018128   -2.0680493   -2.0680493   -1.0491788  0.067989989   -2.0680493    1.0188705  1703669 
  391000    1.0018722   -2.0677885   -2.0677885   -1.0488414  0.073855559   -2.0677885     1.018947  1703642 
  392000    1.0035334   -2.0698172   -2.0698172   -1.0491645  0.066082668   -2.0698172    1.0206527  1703615 
  393000     1.002336   -2.0685771   -2.0685771    -1.049126  0.071340733   -2.0685771     1.019451  1703588 
  394000     1.002793   -2.0690655   -2.0690655   -1.0491335  0.071026045   -2.0690655     1.019932  1703561 
  395000    1.0034624   -2.0693665   -2.0693665   -1.0487375  0.069027647   -2.0693665     1.020629  1703534 
  396000    1.0029168   -2.0689255   -2.0689255   -1.0488353  0.072777454   -2.0689255    1.0200902  1703507 
  397000    1.0026156   -2.0683592   -2.0683592   -1.0485591  0.074510852   -2.0683592    1.0198001  1703480 
  398000    1.0029356   -2.0682314   -2.0682314   -1.0480897  0.077393097   -2.0682314    1.0201417  1703453 
  399000    1.0032029   -2.0684961   -2.0684961   -1.0480663  0.067120688   -2.0684961    1.0204298  1703426 
  400000    1.0037116    -2.069542    -2.069542   -1.0485786  0.068271787    -2.069542    1.0209634  1703399 
  401000    1.0022164   -2.0679583   -2.0679583   -1.0484996  0.072049135   -2.0679583    1.0194586  1703372 
  402000    1.0026297   -2.0679939   -2.0679939   -1.0480987  0.073943359   -2.0679939    1.0198952  1703345 
  403000    1.0022677   -2.0676417   -2.0676417   -1.0480985  0.074984199   -2.0676417    1.0195432  1703318 
  404000    1.0030474   -2.0688346   -2.0688346   -1.0484822  0.072971235   -2.0688346    1.0203525  1703291 
  405000    1.0019701   -2.0676634   -2.0676634   -1.0483907  0.071529675   -2.0676634    1.0192728  1703264 
  406000    1.0023628   -2.0675297   -2.0675297   -1.0478413  0.072930402   -2.0675297    1.0196884  1703237 
  407000    1.0020584    -2.067125    -2.067125   -1.0477296  0.070770205    -2.067125    1.0193955  1703209 
  408000    1.0025685    -2.067722    -2.067722   -1.0477915  0.069918386    -2.067722    1.0199305  1703182 
  409000    1.0028738    -2.068116    -2.068116   -1.0478587  0.068838457    -2.068116    1.0202574  1703155 
  410000    1.0032263   -2.0686026   -2.0686026   -1.0479705  0.072156304   -2.0686026    1.0206321  1703128 
  411000    1.0026291   -2.0678229   -2.0678229   -1.0477822  0.073818421   -2.0678229    1.0200407  1703101 
  412000    1.0027505   -2.0680326   -2.0680326   -1.0478522  0.072961175   -2.0680326    1.0201804  1703074 
  413000    1.0037647   -2.0685342   -2.0685342   -1.0473058  0.069259198   -2.0685342    1.0212284  1703047 
  414000    1.0028061   -2.0674592   -2.0674592   -1.0471899  0.071337139   -2.0674592    1.0202693  1703020 
  415000    1.0033443   -2.0677931   -2.0677931     -1.04696  0.073933537   -2.0677931    1.0208331  1702993 
  416000    1.0030417   -2.0676508   -2.0676508   -1.0471095  0.074385268   -2.0676508    1.0205414  1702966 
  417000    1.0022735   -2.0667938   -2.0667938   -1.0470178  0.073294092   -2.0667938    1.0197759  1702939 
  418000    1.0036614   -2.0682709   -2.0682709   -1.0470665  0.072638157   -2.0682709    1.0212043  1702912 
  419000    1.0033788   -2.0674056   -2.0674056   -1.0464726  0.072329837   -2.0674056     1.020933  1702885 
  420000    1.0034328   -2.0676064   -2.0676064   -1.0466023  0.073515105   -2.0676064    1.0210041  1702858 
  421000    1.0023419   -2.0667403   -2.0667403   -1.0468301  0.073179227   -2.0667403    1.0199102  1702831 
  422000    1.0020379   -2.0665929   -2.0665929   -1.0469758   0.07233744   -2.0665929    1.0196171  1702804 
  423000    1.0028497   -2.0673244   -2.0673244   -1.0468651  0.072744769   -2.0673244    1.0204592  1702777 
  424000    1.0024855   -2.0670224   -2.0670224   -1.0469175   0.07293396   -2.0670224    1.0201049  1702750 
  425000    1.0028519   -2.0674868   -2.0674868   -1.0469929  0.072386906   -2.0674868    1.0204939  1702723 
  426000    1.0027304   -2.0669868   -2.0669868   -1.0466003  0.071619965   -2.0669868    1.0203864  1702696 
  427000    1.0029339   -2.0670565   -2.0670565   -1.0464468  0.074082604   -2.0670565    1.0206097  1702669 
  428000    1.0019586   -2.0668509   -2.0668509   -1.0472176   0.07187071   -2.0668509    1.0196334  1702642 
  429000    1.0018013   -2.0659098   -2.0659098   -1.0464203  0.076174063   -2.0659098    1.0194895  1702615 
  430000    1.0023287   -2.0665049   -2.0665049   -1.0464624  0.068303672   -2.0665049    1.0200424  1702588 
  431000     1.002227   -2.0668844   -2.0668844   -1.0469294  0.070960695   -2.0668844     1.019955  1702561 
  432000    1.0023169   -2.0665116   -2.0665116   -1.0464488   0.06983864   -2.0665116    1.0200628  1702534 
  433000    1.0015786   -2.0657651   -2.0657651   -1.0464376  0.070870965   -2.0657651    1.0193275  1702507 
  434000    1.0016806   -2.0662449   -2.0662449   -1.0467974  0.072360333   -2.0662449    1.0194475  1702480 
  435000    1.0019743   -2.0660828   -2.0660828   -1.0463203  0.070927893   -2.0660828    1.0197625  1702453 
  436000    1.0019536   -2.0664537   -2.0664537   -1.0466961  0.074837253   -2.0664537    1.0197576  1702426 
  437000    1.0014047   -2.0662044   -2.0662044   -1.0469893  0.069659816   -2.0662044    1.0192152  1702399 
  438000    1.0014898   -2.0662627   -2.0662627   -1.0469448  0.070815298   -2.0662627    1.0193179  1702372 
  439000     1.001327   -2.0659723   -2.0659723   -1.0468039  0.069865269   -2.0659723    1.0191684  1702345 
  440000    1.0007316    -2.065519    -2.065519   -1.0469404  0.068128293    -2.065519    1.0185786  1702318 
  441000    1.0005025   -2.0655571   -2.0655571   -1.0471956  0.068819758   -2.0655571    1.0183615  1702291 
  442000    1.0013341   -2.0656523   -2.0656523   -1.0464282  0.070520728   -2.0656523    1.0192241  1702264 
  443000    1.0013246   -2.0654383   -2.0654383   -1.0462077  0.070250587   -2.0654383    1.0192306  1702237 
  444000    1.0009838   -2.0657132   -2.0657132   -1.0468128  0.076494146   -2.0657132    1.0189005  1702209 
  445000    1.0022475   -2.0668895   -2.0668895   -1.0466865  0.072627448   -2.0668895     1.020203  1702182 
  446000    1.0000114   -2.0649687   -2.0649687   -1.0470258   0.06854914   -2.0649687     1.017943  1702155 
  447000    1.0018301   -2.0671433   -2.0671433   -1.0473328  0.069999444   -2.0671433    1.0198105  1702128 
  448000   0.99982278   -2.0647634   -2.0647634   -1.0469801  0.070514251   -2.0647634    1.0177833  1702101 
  449000    1.0000509   -2.0649638   -2.0649638   -1.0469322  0.069876204   -2.0649638    1.0180317  1702074 
  450000      1.00098   -2.0654233   -2.0654233   -1.0464297  0.073670033   -2.0654233    1.0189936  1702047 
  451000    1.0015029   -2.0659667   -2.0659667   -1.0464246  0.072014925   -2.0659667    1.0195421  1702020 
  452000    1.0013092   -2.0655289   -2.0655289   -1.0461679  0.068940363   -2.0655289    1.0193611  1701993 
  453000    1.0020066    -2.065974    -2.065974   -1.0458868  0.073608661    -2.065974    1.0200872  1701966 
  454000    1.0013878   -2.0657451   -2.0657451   -1.0462717   0.06955406   -2.0657451    1.0194734  1701939 
  455000    1.0020615   -2.0660824   -2.0660824   -1.0459069  0.068031367   -2.0660824    1.0201755  1701912 
  456000     1.001905   -2.0655332   -2.0655332   -1.0455008  0.073200425   -2.0655332    1.0200324  1701885 
  457000    1.0014045    -2.065246    -2.065246    -1.045707   0.06993722    -2.065246     1.019539  1701858 
  458000    1.0019911   -2.0655925   -2.0655925   -1.0454401  0.071389262   -2.0655925    1.0201524  1701831 
  459000     1.002037   -2.0655141   -2.0655141   -1.0452988   0.07519287   -2.0655141    1.0202152  1701804 
  460000     1.001498   -2.0654105   -2.0654105   -1.0457277  0.073356031   -2.0654105    1.0196827  1701777 
  461000    1.0013121   -2.0650943   -2.0650943   -1.0455847  0.069689568   -2.0650943    1.0195096  1701750 
  462000    1.0018664      -2.0652      -2.0652   -1.0451099  0.070759355      -2.0652    1.0200901  1701723 
  463000    1.0012553   -2.0646356   -2.0646356   -1.0451515  0.075714093   -2.0646356    1.0194841  1701696 
  464000     1.002227     -2.06513     -2.06513   -1.0446403  0.071247581     -2.06513    1.0204897  1701669 
  465000    1.0030203    -2.065536    -2.065536   -1.0442223  0.074329507    -2.065536    1.0213137  1701642 
  466000    1.0024387   -2.0657065   -2.0657065   -1.0449689  0.066837526   -2.0657065    1.0207376  1701615 
  467000    1.0015387   -2.0650927   -2.0650927   -1.0452554  0.072923085   -2.0650927    1.0198374  1701588 
  468000    1.0017923   -2.0652993   -2.0652993   -1.0451875  0.072542784   -2.0652993    1.0201118  1701561 
  469000    1.0013206   -2.0647807   -2.0647807    -1.045133  0.075335669   -2.0647807    1.0196477  1701534 
  470000    1.0027254   -2.0663258   -2.0663258   -1.0452314  0.072113356   -2.0663258    1.0210944  1701507 
  471000    1.0018873   -2.0653502   -2.0653502    -1.045093  0.070484786   -2.0653502    1.0202571  1701480 
  472000    1.0018425   -2.0652794   -2.0652794   -1.0450517  0.071710198   -2.0652794    1.0202277  1701453 
  473000    1.0033935   -2.0670808   -2.0670808   -1.0452574  0.073366175   -2.0670808    1.0218234  1701426 
  474000    1.0009303   -2.0648716   -2.0648716   -1.0455405  0.072000291   -2.0648716    1.0193311  1701399 
  475000    1.0014169   -2.0654916   -2.0654916   -1.0456488  0.071060342   -2.0654916    1.0198428  1701372 
  476000    1.0017687   -2.0662799   -2.0662799   -1.0460626  0.072337743   -2.0662799    1.0202172  1701345 
  477000    1.0010502   -2.0646103   -2.0646103   -1.0451086  0.071089549   -2.0646103    1.0195017  1701318 
  478000     1.000865    -2.065112    -2.065112   -1.0457827  0.073355639    -2.065112    1.0193293  1701291 
  479000    1.0005865   -2.0646912   -2.0646912   -1.0456294  0.072134028   -2.0646912    1.0190618  1701264 
  480000    1.0017069   -2.0660291   -2.0660291     -1.04581  0.067177988   -2.0660291    1.0202192  1701237 
  481000    1.0003773   -2.0646548   -2.0646548   -1.0457731  0.068022041   -2.0646548    1.0188817  1701209 
  482000    1.0004877   -2.0641447   -2.0641447   -1.0451343  0.075261863   -2.0641447    1.0190103  1701182 
  483000    1.0011981   -2.0651142   -2.0651142   -1.0453641  0.067952442   -2.0651142    1.0197501  1701155 
  484000    1.0006241   -2.0643723   -2.0643723   -1.0451907  0.069421137   -2.0643723    1.0191816  1701128 
  485000     1.000937    -2.064568    -2.064568   -1.0450514  0.073090027    -2.064568    1.0195165  1701101 
  486000    1.0013904   -2.0647549   -2.0647549   -1.0447604    0.0724768   -2.0647549    1.0199945  1701074 
  487000    1.0013252   -2.0643855   -2.0643855   -1.0444412  0.070505903   -2.0643855    1.0199443  1701047 
  488000     1.001446   -2.0649104   -2.0649104   -1.0448269  0.071156868   -2.0649104    1.0200835  1701020 
  489000    1.0010839   -2.0644811   -2.0644811   -1.0447502  0.070590781   -2.0644811    1.0197309  1700993 
  490000    1.0015935   -2.0648232   -2.0648232   -1.0445571  0.075411351   -2.0648232    1.0202661  1700966 
  491000     1.000773   -2.0639635   -2.0639635    -1.044517  0.073911866   -2.0639635    1.0194465  1700939 
  492000    1.0019288   -2.0650348   -2.0650348   -1.0443947  0.070687137   -2.0650348    1.0206401  1700912 
  493000    1.0005773   -2.0633145   -2.0633145   -1.0440349  0.075792659   -2.0633145    1.0192796  1700885 
  494000    1.0019137   -2.0648004   -2.0648004   -1.0441433  0.072272615   -2.0648004    1.0206571  1700858 
  495000    1.0025777   -2.0653766   -2.0653766   -1.0440268  0.070768746   -2.0653766    1.0213498  1700831 
  496000     1.001979   -2.0652753   -2.0652753   -1.0445193  0.073009525   -2.0652753    1.0207561  1700804 
  497000    1.0014096    -2.064343    -2.064343   -1.0441508  0.075195975    -2.064343    1.0201922  1700777 
  498000    1.0011503   -2.0642227   -2.0642227   -1.0442785  0.069136635   -2.0642227    1.0199442  1700750 
  499000    1.0011013   -2.0639722   -2.0639722   -1.0440618  0.070361218   -2.0639722    1.0199105  1700723 
  500000    1.0009367   -2.0642777   -2.0642777   -1.0445188  0.073799063   -2.0642777    1.0197589  1700696 
  501000    1.0009655   -2.0639305   -2.0639305    -1.044126  0.070885689   -2.0639305    1.0198045  1700669 
  502000     1.000457   -2.0636413   -2.0636413   -1.0443387  0.073935834   -2.0636413    1.0193026  1700642 
  503000    1.0018058   -2.0650227   -2.0650227   -1.0443297  0.071397385   -2.0650227    1.0206931  1700615 
  504000     1.000037    -2.063905    -2.063905    -1.044998  0.068894823    -2.063905     1.018907  1700588 
  505000    1.0001313   -2.0634923   -2.0634923    -1.044473  0.072769221   -2.0634923    1.0190193  1700561 
  506000   0.99946401   -2.0630179   -2.0630179   -1.0446623  0.070219904   -2.0630179    1.0183556  1700534 
  507000    1.0007468   -2.0644239   -2.0644239   -1.0447451  0.074750965   -2.0644239    1.0196788  1700507 
  508000     1.000754   -2.0641409   -2.0641409   -1.0444385  0.071975893   -2.0641409    1.0197023  1700480 
  509000    1.0003272   -2.0638339   -2.0638339   -1.0445502  0.072870316   -2.0638339    1.0192836  1700453 
  510000    1.0013747    -2.064204    -2.064204   -1.0438367  0.071587653    -2.064204    1.0203672  1700426 
  511000    1.0009805    -2.064014    -2.064014   -1.0440323  0.073600482    -2.064014    1.0199817  1700399 
  512000    1.0010255   -2.0635934   -2.0635934   -1.0435497  0.072229231   -2.0635934    1.0200438  1700372 
  513000    1.0008783    -2.063705    -2.063705    -1.043795  0.071289791    -2.063705      1.01991  1700345 
  514000    1.0003285   -2.0628099   -2.0628099    -1.043444  0.069968821   -2.0628099    1.0193659  1700318 
  515000   0.99974597   -2.0620997   -2.0620997   -1.0433113  0.075337777   -2.0620997    1.0187885  1700291 
  516000    1.0011478   -2.0637069   -2.0637069   -1.0434737  0.070826387   -2.0637069    1.0202332  1700264 
  517000    1.0011541   -2.0634496   -2.0634496   -1.0431938  0.071093341   -2.0634496    1.0202559  1700237 
  518000    1.0015938   -2.0641223   -2.0641223   -1.0434016  0.069362007   -2.0641223    1.0207207  1700209 
  519000    1.0007535   -2.0633259   -2.0633259   -1.0434454  0.072518849   -2.0633259    1.0198806  1700182 
  520000    1.0006052   -2.0627602   -2.0627602   -1.0430146  0.070208602   -2.0627602    1.0197457  1700155 
  521000    1.0002627   -2.0620891   -2.0620891   -1.0426764  0.076921918   -2.0620891    1.0194128  1700128 
  522000    1.0023243   -2.0637002   -2.0637002   -1.0421701  0.071326527   -2.0637002      1.02153  1700101 
  523000    1.0020009    -2.062836    -2.062836   -1.0416194  0.073492558    -2.062836    1.0212167  1700074 
  524000    1.0026698   -2.0637982   -2.0637982   -1.0418836  0.074539942   -2.0637982    1.0219146  1700047 
  525000    1.0010319   -2.0622481   -2.0622481   -1.0419866  0.070256789   -2.0622481    1.0202615  1700020 
  526000    1.0023898   -2.0636684   -2.0636684   -1.0420067  0.072249384   -2.0636684    1.0216617  1699993 
  527000    1.0013993   -2.0626759   -2.0626759   -1.0420076  0.076396858   -2.0626759    1.0206684  1699966 
  528000    1.0010365   -2.0625244   -2.0625244   -1.0422096   0.06983659   -2.0625244    1.0203148  1699939 
  529000    1.0003976    -2.062164    -2.062164   -1.0424842  0.071756579    -2.062164    1.0196797  1699912 
  530000    1.0005783   -2.0622726   -2.0622726   -1.0423925  0.071290769   -2.0622726    1.0198802  1699885 
  531000    1.0005063   -2.0616939   -2.0616939   -1.0418709   0.07117517   -2.0616939     1.019823  1699858 
  532000    1.0001808   -2.0615857   -2.0615857   -1.0420783   0.07238511   -2.0615857    1.0195074  1699831 
  533000    1.0013617   -2.0627307   -2.0627307   -1.0420034  0.073743682   -2.0627307    1.0207274  1699804 
  534000    1.0007206   -2.0625264   -2.0625264   -1.0424364  0.072849302   -2.0625264    1.0200901  1699777 
  535000    1.0014502   -2.0627839   -2.0627839   -1.0419339  0.072589712   -2.0627839      1.02085  1699750 
  536000    1.0007299   -2.0621048   -2.0621048   -1.0419729  0.074887097   -2.0621048    1.0201319  1699723 
  537000    1.0014015   -2.0628051   -2.0628051   -1.0419723  0.071130459   -2.0628051    1.0208328  1699696 
  538000    1.0017693   -2.0630929   -2.0630929   -1.0418689  0.071378805   -2.0630929    1.0212239  1699669 
  539000    1.0007485   -2.0625212   -2.0625212   -1.0423217  0.072471578   -2.0625212    1.0201995  1699642 
  540000    1.0005355   -2.0623621   -2.0623621   -1.0423635  0.071651549   -2.0623621    1.0199986  1699615 
  541000    1.0005987   -2.0623231   -2.0623231   -1.0422439  0.075370647   -2.0623231    1.0200791  1699588 
  542000    1.0000389   -2.0615881   -2.0615881   -1.0420634  0.069857511   -2.0615881    1.0195246  1699561 
  543000     1.000351   -2.0619513   -2.0619513   -1.0420923  0.074929584   -2.0619513    1.0198591  1699534 
  544000    1.0006232   -2.0620777   -2.0620777    -1.041925  0.067473086   -2.0620777    1.0201528  1699507 
  545000    1.0012962   -2.0620031   -2.0620031   -1.0411479  0.068801668   -2.0620031    1.0208551  1699480 
  546000    1.0005706   -2.0612235   -2.0612235    -1.041092  0.073787632   -2.0612235    1.0201315  1699453 
  547000    1.0010284   -2.0618128   -2.0618128   -1.0411982  0.073072385   -2.0618128    1.0206146  1699426 
  548000    1.0014973   -2.0621651   -2.0621651   -1.0410563  0.070190001   -2.0621651    1.0211088  1699399 
  549000    1.0004638   -2.0616649   -2.0616649   -1.0415936  0.073472009   -2.0616649    1.0200713  1699372 
  550000    1.0002584   -2.0617519   -2.0617519   -1.0418738  0.070060348   -2.0617519    1.0198781  1699345 
  551000    1.0005203   -2.0617519   -2.0617519   -1.0415906  0.071491418   -2.0617519    1.0201613  1699318 
  552000    1.0003158   -2.0615628   -2.0615628   -1.0415938  0.068586124   -2.0615628     1.019969  1699291 
  553000   0.99987076   -2.0609022   -2.0609022   -1.0413708  0.070697634   -2.0609022    1.0195314  1699264 
  554000   0.99987356   -2.0611846   -2.0611846   -1.0416341  0.067408168   -2.0611846    1.0195505  1699237 
  555000    1.0008586   -2.0615562   -2.0615562   -1.0409845  0.072885617   -2.0615562    1.0205717  1699209 
  556000    1.0010478   -2.0617021   -2.0617021   -1.0409213  0.068157568   -2.0617021    1.0207809  1699182 
  557000    1.0009798   -2.0617115   -2.0617115   -1.0409837  0.069150693   -2.0617115    1.0207278  1699155 
  558000   0.99969262   -2.0606008   -2.0606008   -1.0411694  0.071414521   -2.0606008    1.0194314  1699128 
  559000    1.0000339   -2.0608141   -2.0608141   -1.0410185  0.072507529   -2.0608141    1.0197956  1699101 
  560000    1.0002266   -2.0610271   -2.0610271   -1.0410189  0.075400552   -2.0610271    1.0200083  1699074 
  561000   0.99989577   -2.0608699   -2.0608699   -1.0411828  0.071316318   -2.0608699    1.0196872  1699047 
  562000   0.99976476   -2.0608275   -2.0608275   -1.0412578  0.072625643   -2.0608275    1.0195698  1699020 
  563000   0.99851228   -2.0598717   -2.0598717    -1.041563  0.072497136   -2.0598717    1.0183087  1698993 
  564000   0.99930197   -2.0610588   -2.0610588   -1.0419286  0.072431492   -2.0610588    1.0191302  1698966 
  565000   0.99949839   -2.0608781   -2.0608781   -1.0415314  0.070596085   -2.0608781    1.0193467  1698939 
  566000   0.99980725   -2.0612003   -2.0612003   -1.0415224  0.071399082   -2.0612003    1.0196779  1698912 
  567000   0.99881132   -2.0606589   -2.0606589   -1.0419805  0.074967586   -2.0606589    1.0186784  1698885 
  568000   0.99931736    -2.060845    -2.060845   -1.0416343  0.070621537    -2.060845    1.0192107  1698858 
  569000    1.0000149   -2.0617762   -2.0617762    -1.041838  0.067795256   -2.0617762    1.0199383  1698831 
  570000   0.99900837   -2.0609095   -2.0609095   -1.0419816  0.072517288   -2.0609095    1.0189279  1698804 
  571000   0.99905571   -2.0608671   -2.0608671   -1.0418747  0.077144864   -2.0608671    1.0189924  1698777 
  572000     0.999644   -2.0611639   -2.0611639   -1.0415553  0.072026581   -2.0611639    1.0196086  1698750 
  573000    1.0001348   -2.0617996   -2.0617996   -1.0416742  0.074555708   -2.0617996    1.0201255  1698723 
  574000    1.0001027   -2.0617892   -2.0617892   -1.0416802  0.074266825   -2.0617892     1.020109  1698696 
  575000   0.99937091    -2.060522    -2.060522   -1.0411433   0.06926483    -2.060522    1.0193787  1698669 
  576000   0.99937305   -2.0605888   -2.0605888   -1.0411918  0.072449891   -2.0605888    1.0193971  1698642 
  577000   0.99903531   -2.0600062   -2.0600062   -1.0409374  0.073397362   -2.0600062    1.0190688  1698615 
  578000   0.99924267    -2.060663    -2.060663   -1.0413665  0.066959267    -2.060663    1.0192965  1698588 
  579000   0.99891034   -2.0600732   -2.0600732   -1.0410995  0.073032127   -2.0600732    1.0189737  1698561 
  580000   0.99926102   -2.0602218   -2.0602218   -1.0408742  0.077541869   -2.0602218    1.0193476  1698534 
  581000   0.99966787   -2.0601743   -2.0601743   -1.0403955  0.074239856   -2.0601743    1.0197789  1698507 
  582000     1.000067   -2.0607424   -2.0607424   -1.0405402  0.073299687   -2.0607424    1.0202022  1698480 
  583000    1.0006758   -2.0614217   -2.0614217   -1.0405822  0.072813256   -2.0614217    1.0208395  1698453 
  584000    1.0013426   -2.0617192   -2.0617192   -1.0401832  0.072212124   -2.0617192     1.021536  1698426 
  585000    1.0010015   -2.0612639   -2.0612639   -1.0400597  0.077500013   -2.0612639    1.0212043  1698399 
  586000   0.99927391   -2.0591811   -2.0591811   -1.0397231  0.076907692   -2.0591811     1.019458  1698372 
  587000    1.0006184   -2.0611557   -2.0611557   -1.0403098  0.071477426   -2.0611557    1.0208459  1698345 
  588000    1.0001011    -2.060586    -2.060586   -1.0402517  0.074086052    -2.060586    1.0203343  1698318 
  589000    1.0007884   -2.0610784   -2.0610784   -1.0400265  0.068415245   -2.0610784    1.0210518  1698291 
  590000   0.99946342   -2.0597611   -2.0597611   -1.0400449  0.076082053   -2.0597611    1.0197162  1698264 
  591000    1.0001585   -2.0603794   -2.0603794   -1.0399378  0.071541614   -2.0603794    1.0204416  1698237 
  592000   0.99938478   -2.0590821   -2.0590821   -1.0394131   0.07065765   -2.0590821     1.019669  1698209 
  593000   0.99929497   -2.0585401   -2.0585401   -1.0389466  0.075314117   -2.0585401    1.0195935  1698182 
  594000     1.000206   -2.0594122   -2.0594122   -1.0388729  0.072693038   -2.0594122    1.0205393  1698155 
  595000   0.99864242    -2.057914    -2.057914   -1.0389538  0.072200924    -2.057914    1.0189601  1698128 
  596000    1.0008362   -2.0600416   -2.0600416   -1.0388268  0.070981388   -2.0600416    1.0212148  1698101 
  597000   0.99932211   -2.0589267   -2.0589267   -1.0392406  0.071836433   -2.0589267    1.0196861  1698074 
  598000   0.99973268   -2.0594614   -2.0594614   -1.0393402  0.076322462   -2.0594614    1.0201212  1698047 
  599000   0.99978097   -2.0592356   -2.0592356   -1.0390488  0.072761469   -2.0592356    1.0201867  1698020 
  600000   0.99919057   -2.0588957   -2.0588957   -1.0392952  0.072281493   -2.0588957    1.0196005  1697993 
  601000   0.99933565   -2.0589576   -2.0589576   -1.0391928  0.068079064   -2.0589576    1.0197648  1697966 
  602000    0.9995943   -2.0588589   -2.0588589    -1.038814  0.071631622   -2.0588589    1.0200449  1697939 
  603000   0.99891089   -2.0583337   -2.0583337   -1.0389699   0.07430658   -2.0583337    1.0193637  1697912 
  604000   0.99938379   -2.0586994   -2.0586994   -1.0388369  0.072651205   -2.0586994    1.0198625  1697885 
  605000   0.99958904   -2.0586988   -2.0586988   -1.0386106  0.074019783   -2.0586988    1.0200882  1697858 
  606000   0.99975053   -2.0591705   -2.0591705   -1.0389013  0.070319975   -2.0591705    1.0202692  1697831 
  607000   0.99896097   -2.0582794   -2.0582794   -1.0387997  0.071244975   -2.0582794    1.0194797  1697804 
  608000   0.99959816   -2.0586057   -2.0586057   -1.0384595  0.071984667   -2.0586057    1.0201462  1697777 
  609000   0.99871367   -2.0575705   -2.0575705   -1.0383107  0.073239612   -2.0575705    1.0192597  1697750 
  610000   0.99925835   -2.0580414   -2.0580414   -1.0382096   0.06819659   -2.0580414    1.0198318  1697723 
  611000   0.99840999   -2.0573924   -2.0573924   -1.0384102  0.072648725   -2.0573924    1.0189822  1697696 
  612000   0.99882647   -2.0576143   -2.0576143   -1.0381908  0.069718778   -2.0576143    1.0194235  1697669 
  613000   0.99872631   -2.0576187   -2.0576187   -1.0382812  0.069083696   -2.0576187    1.0193375  1697642 
  614000   0.99913432   -2.0575412   -2.0575412   -1.0377711  0.073110712   -2.0575412    1.0197701  1697615 
  615000   0.99852283   -2.0563164   -2.0563164   -1.0371542  0.072746866   -2.0563164    1.0191622  1697588 
  616000    0.9986966   -2.0567736   -2.0567736   -1.0374178  0.073391978   -2.0567736    1.0193558  1697561 
  617000   0.99894087    -2.057259    -2.057259   -1.0376377  0.072725998    -2.057259    1.0196213  1697534 
  618000    0.9986235   -2.0564936   -2.0564936   -1.0371801  0.072545744   -2.0564936    1.0193136  1697507 
  619000   0.99918186   -2.0571181   -2.0571181   -1.0372184  0.070771473   -2.0571181    1.0198998  1697480 
  620000    0.9989522   -2.0568556   -2.0568556    -1.037174  0.071894256   -2.0568556    1.0196815  1697453 
  621000   0.99878012    -2.056792    -2.056792   -1.0372699  0.071230736    -2.056792    1.0195221  1697426 
  622000   0.99874461   -2.0568921   -2.0568921   -1.0373901  0.071563842   -2.0568921    1.0195021  1697399 
  623000   0.99885871   -2.0563937   -2.0563937    -1.036759  0.070076154   -2.0563937    1.0196348  1697372 
  624000   0.99776401   -2.0559745   -2.0559745    -1.037441  0.073740817   -2.0559745    1.0185335  1697345 
  625000   0.99859321   -2.0565044   -2.0565044   -1.0371083  0.073707934   -2.0565044    1.0193962  1697318 
  626000   0.99765575    -2.055956    -2.055956   -1.0375006  0.074161171    -2.055956    1.0184554  1697291 
  627000   0.99756329   -2.0562149   -2.0562149   -1.0378377  0.071109576   -2.0562149    1.0183772  1697264 
  628000   0.99817661   -2.0566501   -2.0566501   -1.0376305   0.06924082   -2.0566501    1.0190195  1697237 
  629000   0.99769079   -2.0559288   -2.0559288   -1.0373884  0.072559626   -2.0559288    1.0185404  1697209 
  630000   0.99926676   -2.0578174   -2.0578174   -1.0376518  0.068417075   -2.0578174    1.0201655  1697182 
  631000    0.9982385   -2.0562898   -2.0562898   -1.0371578   0.06931318   -2.0562898     1.019132  1697155 
  632000   0.99807837   -2.0567054   -2.0567054   -1.0377208  0.071593821   -2.0567054    1.0189847  1697128 
  633000   0.99801834   -2.0569523   -2.0569523   -1.0380127  0.074158291   -2.0569523    1.0189396  1697101 
  634000   0.99885338   -2.0577375   -2.0577375   -1.0379291  0.069017262   -2.0577375    1.0198084  1697074 
  635000   0.99837176    -2.056888    -2.056888   -1.0375552  0.073205858    -2.056888    1.0193329  1697047 
  636000   0.99823122   -2.0566185   -2.0566185   -1.0374129  0.069100863   -2.0566185    1.0192056  1697020 
  637000   0.99860262   -2.0575305   -2.0575305   -1.0379294  0.074207404   -2.0575305     1.019601  1696993 
  638000   0.99771045   -2.0561016   -2.0561016   -1.0373953  0.071060824   -2.0561016    1.0187063  1696966 
  639000   0.99740456   -2.0562533   -2.0562533   -1.0378431  0.074037628   -2.0562533    1.0184102  1696939 
  640000   0.99839817   -2.0565544   -2.0565544   -1.0371135  0.069693698   -2.0565544    1.0194409  1696912 
  641000   0.99908266   -2.0574641   -2.0574641   -1.0373081  0.070818986   -2.0574641    1.0201561  1696885 
  642000   0.99831712    -2.056828    -2.056828   -1.0374374  0.072912129    -2.056828    1.0193906  1696858 
  643000    0.9978577   -2.0566178   -2.0566178   -1.0376801  0.068252426   -2.0566178    1.0189377  1696831 
  644000   0.99768614   -2.0568407   -2.0568407   -1.0380619  0.072277243   -2.0568407    1.0187787  1696804 
  645000   0.99816367   -2.0568044   -2.0568044   -1.0375219  0.067626778   -2.0568044    1.0192826  1696777 
  646000   0.99855232   -2.0573339   -2.0573339   -1.0376382  0.072882055   -2.0573339    1.0196957  1696750 
  647000   0.99761702   -2.0564368   -2.0564368     -1.03768  0.075656674   -2.0564368    1.0187568  1696723 
  648000   0.99870854    -2.057799    -2.057799   -1.0379114   0.07093719    -2.057799    1.0198877  1696696 
  649000   0.99825497   -2.0572024   -2.0572024   -1.0377617  0.072334108   -2.0572024    1.0194407  1696669 
  650000   0.99830333   -2.0575907   -2.0575907   -1.0380843  0.069799652   -2.0575907    1.0195063  1696642 
  651000   0.99799646   -2.0573253   -2.0573253   -1.0381161  0.069104174   -2.0573253    1.0192091  1696615 
  652000   0.99890288   -2.0584183   -2.0584183   -1.0382673  0.071102985   -2.0584183    1.0201511  1696588 
  653000   0.99890653   -2.0581362   -2.0581362   -1.0379652  0.072743753   -2.0581362     1.020171  1696561 
  654000   0.99942531   -2.0585695   -2.0585695   -1.0378524  0.074089739   -2.0585695    1.0207171  1696534 
  655000   0.99919464   -2.0578456   -2.0578456   -1.0373479  0.074372217   -2.0578456    1.0204977  1696507 
[...]
29832000   0.31275889   -0.6759163   -0.6759163 -0.079058869  0.059859857   -0.6759163   0.59685743   907939 
29833000    0.3122934  -0.67524067  -0.67524067 -0.079253842   0.06087744  -0.67524067   0.59598683   907912 
29834000    0.3129619   -0.6755516   -0.6755516 -0.078271228  0.057906662   -0.6755516   0.59728037   907885 
29835000   0.31268272  -0.67420235  -0.67420235 -0.077437054   0.05641625  -0.67420235    0.5967653   907858 
29836000   0.31231342  -0.67397236  -0.67397236 -0.077894155  0.060654713  -0.67397236   0.59607821   907831 
29837000   0.31210473  -0.67374109  -0.67374109  -0.07804346  0.062343489  -0.67374109   0.59569763   907804 
29838000   0.31290229  -0.67482576  -0.67482576 -0.077588106  0.061159461  -0.67482576   0.59723766   907777 
29839000   0.31259537  -0.67469447  -0.67469447 -0.078024893  0.058521943  -0.67469447   0.59666958   907750 
29840000   0.31302746  -0.67550676  -0.67550676 -0.077994655  0.059922449  -0.67550676    0.5975121   907723 
29841000   0.31237063  -0.67460533  -0.67460533 -0.078329244  0.061755685  -0.67460533   0.59627608   907696 
29842000   0.31255988  -0.67436909  -0.67436909 -0.077714018  0.058606247  -0.67436909   0.59665507   907669 
29843000   0.31282998  -0.67413887  -0.67413887 -0.076950436  0.059398062  -0.67413887   0.59718844   907642 
29844000   0.31236385  -0.67373373  -0.67373373 -0.077417395  0.060068164  -0.67373373   0.59631634   907615 
29845000    0.3124909  -0.67475694  -0.67475694 -0.078180315  0.062066027  -0.67475694   0.59657663   907588 
29846000   0.31258242  -0.67543506  -0.67543506 -0.078665948  0.059330527  -0.67543506   0.59676911   907561 
29847000   0.31260273  -0.67499069  -0.67499069 -0.078165053  0.060583761  -0.67499069   0.59682564   907534 
29848000   0.31287757  -0.67515682  -0.67515682 -0.077788675  0.059711099  -0.67515682   0.59736815   907507 
29849000   0.31207729  -0.67395503  -0.67395503  -0.07809712  0.059181431  -0.67395503   0.59585791   907480 
29850000   0.31219189  -0.67477695  -0.67477695 -0.078682482   0.06041606  -0.67477695   0.59609447   907453 
29851000   0.31278969  -0.67605671  -0.67605671 -0.078803053  0.057746336  -0.67605671   0.59725366   907426 
29852000   0.31274683  -0.67625159  -0.67625159 -0.079062003  0.059164723  -0.67625159   0.59718959   907399 
29853000   0.31290044  -0.67508718  -0.67508718 -0.077586493  0.058862811  -0.67508718   0.59750069   907372 
29854000   0.31198988  -0.67418808  -0.67418808  -0.07840843  0.061920682  -0.67418808   0.59577965   907345 
29855000   0.31224706  -0.67436071  -0.67436071 -0.078072209  0.059608009  -0.67436071    0.5962885   907318 
29856000   0.31290441  -0.67418575  -0.67418575  -0.07662414  0.059082084  -0.67418575   0.59756161   907291 
29857000   0.31218578  -0.67313291  -0.67313291  -0.07692593  0.058200982  -0.67313291   0.59620698   907264 
29858000   0.31212414  -0.67269152  -0.67269152 -0.076584526  0.058892627  -0.67269152   0.59610699   907237 
29859000   0.31201785  -0.67216045  -0.67216045  -0.07623805  0.061467384  -0.67216045    0.5959224   907209 
29860000   0.31270613  -0.67327985  -0.67327985 -0.076025153  0.058800619  -0.67327985    0.5972547   907182 
29861000    0.3122144   -0.6731173   -0.6731173 -0.076784026  0.058527593   -0.6731173   0.59633327   907155 
29862000   0.31154258  -0.67173189  -0.67173189 -0.076664087  0.058496204  -0.67173189    0.5950678   907128 
29863000   0.31209025  -0.67173557  -0.67173557 -0.075603948  0.058737599  -0.67173557   0.59613162   907101 
29864000   0.31190922  -0.67197721  -0.67197721 -0.076173643  0.059410373  -0.67197721   0.59580357   907074 
29865000   0.31158483  -0.67163566  -0.67163566 -0.076434013  0.058873808  -0.67163566   0.59520165   907047 
29866000   0.31236903  -0.67171471  -0.67171471 -0.074997283  0.057717234  -0.67171471   0.59671743   907020 
29867000   0.31168021  -0.67185129  -0.67185129 -0.076432003  0.058820107  -0.67185129   0.59541929   906993 
29868000   0.31142528  -0.67158578  -0.67158578 -0.076635777  0.059861643  -0.67158578      0.59495   906966 
29869000   0.31158137  -0.67215365  -0.67215365 -0.076887733  0.061586633  -0.67215365   0.59526592   906939 
29870000   0.31202569  -0.67347279  -0.67347279 -0.077340265  0.059131364  -0.67347279   0.59613252   906912 
29871000   0.31190941  -0.67294039  -0.67294039 -0.077012279  0.059311094  -0.67294039   0.59592811   906885 
29872000   0.31227958  -0.67385403  -0.67385403 -0.077200915   0.06082417  -0.67385403   0.59665312   906858 
29873000   0.31225174  -0.67350122  -0.67350122  -0.07688353  0.057745949  -0.67350122   0.59661769   906831 
29874000   0.31183874  -0.67301378  -0.67301378 -0.077167483  0.060434272  -0.67301378    0.5958463   906804 
29875000   0.31203947   -0.6735858   -0.6735858 -0.077338203  0.058976892   -0.6735858   0.59624759   906777 
29876000   0.31233092   -0.6745445   -0.6745445 -0.077722225  0.062020159   -0.6745445   0.59682227   906750 
29877000   0.31174547  -0.67365125  -0.67365125 -0.077929946  0.060206908  -0.67365125   0.59572131   906723 
29878000   0.31150803  -0.67250835  -0.67250835 -0.077223051  0.061326705  -0.67250835    0.5952853   906696 
29879000   0.31166518  -0.67332812  -0.67332812  -0.07772478  0.059509467  -0.67332812   0.59560334   906669 
29880000    0.3114322  -0.67371793  -0.67371793 -0.078542088  0.063412435  -0.67371793   0.59517584   906642 
29881000   0.31134142   -0.6736028   -0.6736028 -0.078582734  0.057838056   -0.6736028   0.59502006   906615 
29882000   0.31175696  -0.67414936  -0.67414936 -0.078317385  0.058656406  -0.67414936   0.59583197   906588 
29883000   0.31187293   -0.6747106   -0.6747106 -0.078639245  0.060553067   -0.6747106   0.59607136   906561 
29884000   0.31170739  -0.67495627  -0.67495627 -0.079183554   0.06013917  -0.67495627   0.59577271   906534 
29885000   0.31106014  -0.67442869  -0.67442869 -0.079875369  0.059077806  -0.67442869   0.59455332   906507 
29886000   0.31148234   -0.6745535   -0.6745535 -0.079175467  0.058773914   -0.6745535   0.59537804   906480 
29887000    0.3112758   -0.6740449   -0.6740449 -0.079043926   0.05798162   -0.6740449   0.59500097   906453 
29888000   0.31095732  -0.67355738  -0.67355738 -0.079147474  0.058405839  -0.67355738   0.59440991   906426 
29889000   0.31129271  -0.67413054  -0.67413054 -0.079061794  0.059434544  -0.67413054   0.59506874   906399 
29890000   0.31120877  -0.67376939  -0.67376939 -0.078843378  0.060614808  -0.67376939   0.59492601   906372 
29891000   0.31121157  -0.67295318  -0.67295318 -0.078004095  0.061539862  -0.67295318   0.59494909   906345 
29892000   0.31098291  -0.67336172  -0.67336172 -0.078832056  0.058285392  -0.67336172   0.59452966   906318 
29893000   0.31111329  -0.67348173  -0.67348173 -0.078685093  0.060539902  -0.67348173   0.59479664   906291 
29894000   0.31088772  -0.67230895  -0.67230895 -0.077925849  0.058490071  -0.67230895    0.5943831   906264 
29895000    0.3113158  -0.67310652  -0.67310652 -0.077887247  0.058198113  -0.67310652   0.59521927   906237 
29896000    0.3112145  -0.67209641  -0.67209641 -0.077052447  0.058892962  -0.67209641   0.59504397   906209 
29897000   0.31090674  -0.67171856  -0.67171856  -0.07724531   0.05784836  -0.67171856   0.59447325   906182 
29898000   0.31110818  -0.67238877  -0.67238877 -0.077512629  0.058623086  -0.67238877   0.59487614   906155 
29899000   0.31132701  -0.67201226  -0.67201226 -0.076699951  0.058454633  -0.67201226   0.59531231   906128 
29900000   0.31050237  -0.67137527  -0.67137527 -0.077622122  0.059592141  -0.67137527   0.59375314   906101 
29901000   0.31094556  -0.67218564  -0.67218564  -0.07756731  0.058293611  -0.67218564   0.59461833   906074 
29902000   0.31099756  -0.67257848  -0.67257848 -0.077842969  0.058652289  -0.67257848   0.59473551   906047 
29903000   0.31098576  -0.67238037  -0.67238037 -0.077649706  0.061350929  -0.67238037   0.59473066   906020 
29904000   0.31064578  -0.67144005  -0.67144005 -0.077341858  0.060482232  -0.67144005   0.59409819   905993 
29905000   0.31102041  -0.67259661  -0.67259661  -0.07776423  0.058071635  -0.67259661   0.59483238   905966 
29906000   0.31110384   -0.6722981   -0.6722981 -0.077288433   0.05935048   -0.6722981   0.59500967   905939 
29907000   0.31107024  -0.67255101  -0.67255101 -0.077587865  0.058753053  -0.67255101   0.59496315   905912 
29908000   0.31040012  -0.67114684  -0.67114684 -0.077447702  0.059319773  -0.67114684   0.59369914   905885 
29909000   0.31027633  -0.67143579  -0.67143579 -0.077955727  0.057984568  -0.67143579   0.59348006   905858 
29910000     0.310255  -0.67112013  -0.67112013 -0.077663172  0.058681909  -0.67112013   0.59345695   905831 
29911000   0.31064267  -0.67248063  -0.67248063 -0.078264438   0.05755483  -0.67248063   0.59421619   905804 
29912000   0.31094778  -0.67297612  -0.67297612 -0.078158558  0.060808639  -0.67297612   0.59481756   905777 
29913000   0.31066526  -0.67250301  -0.67250301 -0.078208172  0.058221867  -0.67250301   0.59429484   905750 
29914000   0.31096715  -0.67191487  -0.67191487 -0.077024794    0.0571589  -0.67191487   0.59489007   905723 
29915000   0.31060763  -0.67331758  -0.67331758 -0.079097556  0.060380814  -0.67331758   0.59422002   905696 
29916000     0.310979  -0.67389565  -0.67389565 -0.078947419  0.057773114  -0.67389565   0.59494823   905669 
29917000   0.31088705  -0.67351868  -0.67351868 -0.078728632  0.058806392  -0.67351868   0.59479005   905642 
29918000   0.31144552  -0.67426663  -0.67426663 -0.078390372     0.060623  -0.67426663   0.59587626   905615 
29919000   0.31029765  -0.67255683  -0.67255683 -0.078859034  0.057019737  -0.67255683    0.5936978   905588 
29920000   0.31029945   -0.6716302   -0.6716302 -0.077911258  0.058900842   -0.6716302   0.59371894   905561 
29921000   0.31120814  -0.67349797  -0.67349797 -0.078022618  0.058383787  -0.67349797   0.59547536   905534 
29922000    0.3108554  -0.67159767  -0.67159767  -0.07677952  0.058071697  -0.67159767   0.59481815   905507 
29923000   0.31055042  -0.67125799  -0.67125799 -0.077005697  0.058668475  -0.67125799    0.5942523   905480 
29924000   0.31050485  -0.67192797  -0.67192797 -0.077745166  0.059870282  -0.67192797   0.59418281   905453 
29925000   0.31010406  -0.67092786  -0.67092786 -0.077494295  0.056465342  -0.67092786   0.59343356   905426 
29926000   0.31018152  -0.67140907  -0.67140907 -0.077809586  0.059216216  -0.67140907   0.59359948   905399 
29927000   0.31016974  -0.67164361  -0.67164361 -0.078048949  0.060933336  -0.67164361   0.59359466   905372 
29928000   0.31077306  -0.67154268  -0.67154268 -0.076775672  0.059534581  -0.67154268   0.59476701   905345 
29929000   0.31026056  -0.67099042  -0.67099042 -0.077186558  0.056842125  -0.67099042   0.59380387   905318 
29930000   0.31019884  -0.67097862  -0.67097862 -0.077275152  0.058220726  -0.67097862   0.59370346   905291 
29931000   0.31078144  -0.67200993  -0.67200993 -0.077173659   0.05756864  -0.67200993   0.59483627   905264 
29932000   0.31058598   -0.6722192   -0.6722192  -0.07773932   0.05851064   -0.6722192   0.59447988   905237 
29933000   0.31045517  -0.67158153  -0.67158153 -0.077333636  0.059627833  -0.67158153   0.59424789   905209 
29934000    0.3100893  -0.67088969  -0.67088969 -0.077324424   0.05876356  -0.67088969   0.59356527   905182 
29935000   0.31103933  -0.67227894  -0.67227894 -0.076877382  0.059352128  -0.67227894   0.59540156   905155 
29936000   0.31033837  -0.67012528  -0.67012528 -0.076047795  0.058477617  -0.67012528   0.59407748   905128 
29937000     0.310036  -0.67028662  -0.67028662 -0.076770266  0.059603432  -0.67028662   0.59351636   905101 
29938000    0.3100242  -0.66985968  -0.66985968 -0.076348198  0.058109752  -0.66985968   0.59351148   905074 
29939000   0.31035981  -0.67044722  -0.67044722 -0.076275531  0.058524448  -0.67044722   0.59417169   905047 
29940000   0.30973742  -0.67006355  -0.67006355 -0.077065709  0.058333387  -0.67006355   0.59299785   905020 
29941000   0.30956537   -0.6704278   -0.6704278 -0.077741664  0.059831663   -0.6704278   0.59268613   904993 
29942000   0.30962286  -0.67047125  -0.67047125 -0.077657368  0.061064004  -0.67047125   0.59281389   904966 
29943000   0.30942585  -0.67026661  -0.67026661 -0.077812257  0.060814267  -0.67026661   0.59245436   904939 
29944000   0.30974241  -0.67002588  -0.67002588 -0.076947712  0.060479895  -0.67002588   0.59307817   904912 
29945000   0.30908684  -0.66971131  -0.66971131 -0.077870725  0.057765672  -0.66971131   0.59184058   904885 
29946000   0.30923613   -0.6688706   -0.6688706 -0.076726488  0.057885236   -0.6688706   0.59214411   904858 
29947000    0.3095793   -0.6696272   -0.6696272 -0.076808283  0.061580028   -0.6696272   0.59281891   904831 
29948000   0.30955084   -0.6701068   -0.6701068 -0.077324684  0.057536935   -0.6701068   0.59278211   904804 
29949000   0.30957752  -0.67003108  -0.67003108  -0.07718019  0.057658277  -0.67003108   0.59285089   904777 
29950000   0.30908256  -0.66863156  -0.66863156 -0.076710879  0.058013776  -0.66863156   0.59192068   904750 
29951000   0.30936389  -0.66872732  -0.66872732 -0.076250186  0.056739844  -0.66872732   0.59247714   904723 
29952000   0.30968856  -0.66963614  -0.66963614 -0.076519508  0.059450367  -0.66963614   0.59311663   904696 
29953000    0.3096701  -0.67046231  -0.67046231 -0.077363341  0.060546267  -0.67046231   0.59309897   904669 
29954000   0.30985873  -0.67054809  -0.67054809 -0.077070117  0.059237472  -0.67054809   0.59347797   904642 
29955000   0.30962654  -0.67045172  -0.67045172 -0.077400764  0.059395305  -0.67045172   0.59305096   904615 
29956000   0.30913919   -0.6689706   -0.6689706 -0.076835426  0.061025246   -0.6689706   0.59213517   904588 
29957000   0.30908771  -0.66865131  -0.66865131 -0.076597074  0.059251097  -0.66865131   0.59205424   904561 
29958000    0.3097598  -0.66842013  -0.66842013 -0.075060798  0.060651881  -0.66842013   0.59335933   904534 
29959000   0.30960142  -0.66876747  -0.66876747 -0.075693833  0.059711781  -0.66876747   0.59307364   904507 
29960000   0.30917546  -0.66898481  -0.66898481  -0.07670946   0.06048262  -0.66898481   0.59227535   904480 
29961000   0.30944251  -0.66954232  -0.66954232  -0.07673769  0.058692746  -0.66954232   0.59280463   904453 
29962000   0.30945062  -0.67001676  -0.67001676 -0.077178906  0.058825576  -0.67001676   0.59283786   904426 
29963000   0.30957704  -0.66996681  -0.66996681  -0.07686906  0.058442376  -0.66996681   0.59309775   904399 
29964000   0.30932925  -0.66988843  -0.66988843 -0.077247707  0.058407975  -0.66988843   0.59264072   904372 
29965000   0.30942181   -0.6689658   -0.6689658 -0.076130043    0.0608346   -0.6689658   0.59283576   904345 
29966000   0.30933226  -0.66971503  -0.66971503 -0.077033152  0.058461015  -0.66971503   0.59268188   904318 
29967000   0.30922928   -0.6690835   -0.6690835 -0.076581231  0.058699013   -0.6690835   0.59250227   904291 
29968000   0.30947338  -0.67026829  -0.67026829 -0.077280622  0.059995172  -0.67026829   0.59298767   904264 
29969000   0.30889621  -0.66950861  -0.66950861 -0.077609188  0.060499187  -0.66950861   0.59189943   904237 
29970000   0.30923904  -0.67061463  -0.67061463 -0.078039941  0.058409735  -0.67061463   0.59257469   904209 
29971000    0.3090908  -0.66969562  -0.66969562 -0.077387305  0.058822692  -0.66969562   0.59230831   904182 
29972000   0.30948933    -0.670117    -0.670117 -0.077027282  0.060459826    -0.670117   0.59308972   904155 
29973000   0.30907176  -0.66989656  -0.66989656 -0.077589356  0.058746958  -0.66989656    0.5923072   904128 
29974000    0.3089014  -0.66957819  -0.66957819 -0.077579773  0.055924045  -0.66957819   0.59199841   904101 
29975000     0.308536  -0.66913682  -0.66913682 -0.077821031  0.056647595  -0.66913682   0.59131579   904074 
29976000   0.30910609  -0.66943701  -0.66943701 -0.077010935  0.059996504  -0.66943701   0.59242608   904047 
29977000   0.30953233  -0.67043793  -0.67043793 -0.077177217  0.059555599  -0.67043793   0.59326071   904020 
29978000   0.30897682  -0.66960573  -0.66960573 -0.077392047  0.061949096  -0.66960573   0.59221368   903993 
29979000   0.30888349  -0.66974677  -0.66974677 -0.077694287  0.059720231  -0.66974677   0.59205248   903966 
29980000   0.30919298  -0.66958294  -0.66958294 -0.076919534  0.059180284  -0.66958294    0.5926634   903939 
29981000   0.30875352  -0.67017176  -0.67017176 -0.078333036  0.056740647  -0.67017176   0.59183872   903912 
29982000   0.30880055  -0.67033795  -0.67033795 -0.078391394    0.0608147  -0.67033795   0.59194656   903885 
29983000   0.30898816  -0.66956651  -0.66956651 -0.077242628  0.058819921  -0.66956651   0.59232388   903858 
29984000   0.30900483  -0.66898159  -0.66898159 -0.076608063  0.060650232  -0.66898159   0.59237353   903831 
29985000   0.30856076  -0.66885546  -0.66885546 -0.077315563  0.059693691  -0.66885546    0.5915399   903804 
29986000   0.30860375  -0.66871406  -0.66871406 -0.077074058  0.060907902  -0.66871406      0.59164   903777 
29987000   0.30881291  -0.66969856  -0.66969856 -0.077639891  0.054930959  -0.66969856   0.59205867   903750 
29988000   0.30869211  -0.66941948  -0.66941948 -0.077574724   0.05846474  -0.66941948   0.59184475   903723 
29989000    0.3083085  -0.66954421  -0.66954421 -0.078417267   0.06024318  -0.66954421   0.59112694   903696 
29990000    0.3089433  -0.67019029  -0.67019029  -0.07782854  0.057453623  -0.67019029   0.59236175   903669 
29991000   0.30771219  -0.66850406  -0.66850406  -0.07848518  0.055555917  -0.66850406   0.59001888   903642 
29992000    0.3084275  -0.67064204  -0.67064204 -0.079233937  0.059995966  -0.67064204    0.5914081   903615 
29993000   0.30865931  -0.67083476  -0.67083476 -0.078964481  0.057645763  -0.67083476   0.59187028   903588 
29994000   0.30849032   -0.6699797   -0.6699797 -0.078415781  0.058342708   -0.6699797   0.59156392   903561 
29995000   0.30853938  -0.67031912  -0.67031912 -0.078643448  0.059094807  -0.67031912   0.59167567   903534 
29996000    0.3086529  -0.67035997  -0.67035997  -0.07844891  0.058883909  -0.67035997   0.59191106   903507 
29997000   0.30905014  -0.67062215  -0.67062215 -0.077931582  0.058003103  -0.67062215   0.59269057   903480 
29998000    0.3087501  -0.67087012  -0.67087012 -0.078737266  0.059002404  -0.67087012   0.59213285   903453 
29999000   0.30854628  -0.66988074  -0.66988074 -0.078121092  0.057772489  -0.66988074   0.59175965   903426 
30000000   0.30843022  -0.67063162  -0.67063162 -0.079076885     0.057947  -0.67063162   0.59155473   903399 
Loop time of 58948.8 on 768 procs for 30000000 steps with 903399 atoms

Performance: 219851.749 tau/day, 508.916 timesteps/s
86.5% CPU use with 768 MPI tasks x 1 OpenMP threads

MPI task timing breakdown:
Section |  min time  |  avg time  |  max time  |%varavg|  %CPU | %total
-----------------------------------------------------------------------
Pair    | 2731.8     | 7679.9     | 15419      |3655.4 |  90.5 | 13.03
Bond    | 18.83      | 20.26      | 21.677     |  10.1 | 100.0 |  0.03
Neigh   | 3424.3     | 9957.7     | 13295      |1964.0 |  98.2 | 16.89
Comm    | 10294      | 21643      | 30526      |2802.6 |  84.2 | 36.71
Output  | 3034.9     | 3055.6     | 3077.6     |  27.6 |  76.2 |  5.18
Modify  | 11619      | 15615      | 20487      |1306.6 |  82.6 | 26.49
Other   |            | 977.8      |            |       |       |  1.66

Nlocal:        1176.30 ave        3063 max         153 min
Histogram: 76 35 110 280 150 82 24 3 6 2
Nghost:        4844.64 ave        9633 max         447 min
Histogram: 54 137 61 58 73 92 100 83 79 31
Neighs:        7237.74 ave       40724 max         583 min
Histogram: 422 235 15 3 3 13 15 20 41 1

Total # of neighbors = 5558585
Ave neighs/atom = 6.1529678
Ave special neighs/atom = 0.0000000
Neighbor list builds = 3262701
Dangerous builds = 2422701

Total wall time: 16:22:43
