LAMMPS (24 Dec 2020)
OMP_NUM_THREADS environment is not set. Defaulting to 1 thread. (src/comm.cpp:94)
  using 1 OpenMP thread(s) per MPI task
#Read the equilibrated lj fluid and add nanocubes

units           lj
atom_style      full
atom_modify     map array first cubes
dimension       3
boundary        p p f
pair_style      lj/cut/opt 2.5

variable        sigma           equal 1.0
variable        epsilon         equal 1.0
read_restart	restart.dat.10000000
Reading restart file ...
  restart file = 24 Dec 2020, LAMMPS = 24 Dec 2020
WARNING: Restart file used different # of processors: 192 vs. 64 (src/read_restart.cpp:697)
  restoring atom style full from restart
  orthogonal box = (0.0000000 0.0000000 0.0000000) to (80.000000 80.000000 160.00000)
  2 by 4 by 8 MPI processor grid
  restoring pair style lj/cut/opt from restart
  443961 atoms
Finding 1-2 1-3 1-4 neighbors ...
  special bond factors lj:    0        0        0       
  special bond factors coul:  0        0        0       
     0 = max # of 1-2 neighbors
     0 = max # of 1-3 neighbors
     0 = max # of 1-4 neighbors
     1 = max # of special neighbors
  special bonds CPU = 0.276 seconds
  read_restart CPU = 0.472 seconds

group		solvent type 1
443961 atoms in group solvent

read_data	data_96.cubes group cubes add append
Reading data file ...
  orthogonal box = (0.0000000 0.0000000 0.0000000) to (80.000000 80.000000 160.00000)
  2 by 4 by 8 MPI processor grid
  reading atoms ...
  109728 atoms
  reading velocities ...
  109728 velocities
Finding 1-2 1-3 1-4 neighbors ...
  special bond factors lj:    0        0        0       
  special bond factors coul:  0        0        0       
     0 = max # of 1-2 neighbors
     0 = max # of 1-3 neighbors
     0 = max # of 1-4 neighbors
     1 = max # of special neighbors
  special bonds CPU = 0.004 seconds
  read_data CPU = 0.199 seconds

group 		hull  type 2
42816 atoms in group hull
group 		dummy type 3
66912 atoms in group dummy

neighbor      0.4 bin
neigh_modify  exclude molecule/intra cubes


pair_modify   shift yes

pair_coeff    1 1 1.0 1.0 #solvent
pair_coeff    2 2 1.0 1.0 1.12 #np
pair_coeff    3 3 0.0 0.0 0.0 #dummy
pair_coeff    2 3 0.0 0.0 0.0 #np dummy
pair_coeff    1 2 ${sol} 1.0  #np solvent
pair_coeff    1 2 .80 1.0  
pair_coeff    1 3 0.0 0.0 2.5 #dummy solvent

# delete solvent where the cubes are
delete_atoms  overlap 1.0 solvent cubes
System init for delete_atoms ...
Unused restart file peratom fix info:
  fix style: STORE, fix ID: bin1_COMPUTE_STORE
Neighbor list info ...
  update every 1 steps, delay 10 steps, check yes
  max neighbors/atom: 2000, page size: 100000
  master list distance cutoff = 2.9
  ghost atom cutoff = 2.9
  binsize = 1.45, bins = 56 56 111
  2 neighbor lists, perpetual/occasional/extra = 1 1 0
  (1) command delete_atoms, occasional
      attributes: full, newton on
      pair build: full/bin
      stencil: full/bin/3d
      bin: standard
  (2) pair lj/cut/opt, perpetual
      attributes: half, newton on
      pair build: half/bin/newton
      stencil: half/bin/3d/newton
      bin: standard
WARNING: Delete_atoms cutoff > minimum neighbor cutoff (src/delete_atoms.cpp:307)
WARNING: Ignoring 'compress yes' for molecular system (src/delete_atoms.cpp:125)
Deleted 77499 atoms, new total = 476190

pair_coeff    1 1 1.0 1.0 #solvent
pair_coeff    2 2 1.0 1.0 1.12 #np
pair_coeff    3 3 0.0 0.0 0.0 #dummy
pair_coeff    2 3 0.0 0.0 0.0 #np dummy
pair_coeff    1 2 ${sol} 1.0  #np solvent
pair_coeff    1 2 .80 1.0  
pair_coeff    1 3 0.0 0.0 0.0 #dummy solvent


comm_modify   mode multi cutoff/multi 1 2.5 cutoff/multi 2 2.5 cutoff/multi 3 6.95

reset_timestep 	0

balance 	1.05 shift z 10 1.05
Balancing ...
Neighbor list info ...
  update every 1 steps, delay 10 steps, check yes
  max neighbors/atom: 2000, page size: 100000
  master list distance cutoff = 2.9
  ghost atom cutoff = 6.95
  binsize = 1.45, bins = 56 56 111
  1 neighbor lists, perpetual/occasional/extra = 1 0 0
  (1) pair lj/cut/opt, perpetual
      attributes: half, newton on
      pair build: half/bin/newton
      stencil: half/bin/3d/newton
      bin: standard
 rebalancing time: 0.009 seconds
  iteration count = 4
  initial/final maximal load/proc = 10554.000 8087.0000
  initial/final imbalance factor  = 1.4184590 1.0868939
  x cuts: 0.0000000 0.50000000 1.0000000
  y cuts: 0.0000000 0.25000000 0.50000000 0.75000000 1.0000000
  z cuts: 0.0000000 0.10156250 0.19531250 0.28906250 0.38281250 0.48437500 0.57812500 0.67187500 1.0000000

####################### WALLS ###########################

variable       epsilonWall equal 2*${epsilon}
variable       epsilonWall equal 2*1
variable       repulsive   equal   0.7147*${sigma}
variable       repulsive   equal   0.7147*1
variable       full	   equal   3*${sigma}
variable       full	   equal   3*1
region         lowWall block EDGE EDGE EDGE EDGE EDGE 2

fix            topWall all wall/lj93 zhi EDGE 	       ${epsilonWall} ${sigma} ${repulsive} units box
fix            topWall all wall/lj93 zhi EDGE 	       2 ${sigma} ${repulsive} units box
fix            topWall all wall/lj93 zhi EDGE 	       2 1 ${repulsive} units box
fix            topWall all wall/lj93 zhi EDGE 	       2 1 0.7147 units box
fix            lowSol solvent wall/lj93 zlo EDGE                ${epsilonWall} ${sigma} ${full} units box
fix            lowSol solvent wall/lj93 zlo EDGE                2 ${sigma} ${full} units box
fix            lowSol solvent wall/lj93 zlo EDGE                2 1 ${full} units box
fix            lowSol solvent wall/lj93 zlo EDGE                2 1 3 units box
fix 	       lowCub cubes wall/lj93 zlo EDGE                ${epsilonWall} ${sigma} ${repulsive} units box
fix 	       lowCub cubes wall/lj93 zlo EDGE                2 ${sigma} ${repulsive} units box
fix 	       lowCub cubes wall/lj93 zlo EDGE                2 1 ${repulsive} units box
fix 	       lowCub cubes wall/lj93 zlo EDGE                2 1 0.7147 units box


###################### COMPUTES ##########################

compute        bin1 solvent chunk/atom bin/1d z lower 1.0 units box
compute        bin3 solvent chunk/atom bin/3d x lower 1.0 y lower 1.0 z lower 1.0 units box

compute 	pe solvent 	   pe/atom
compute 	pe2 all 	   pe/atom

######################  FIXES ############################


fix             peclet solvent ave/chunk 10 10 10000 bin1 density/number norm                  none ave one file density.profile

fix              temp solvent ave/chunk 10 10 10000 bin1 temp norm                  none ave one file temp.profile

fix 		 dens solvent ave/chunk 10 10 500000 bin3 density/number norm 		 none ave one file dens3.profile

fix		 temp2 solvent ave/chunk 10 10 500000 bin3 temp norm none ave one file temp3.profile

fix 		pe solvent ave/chunk 1 1 500000 bin3 c_pe norm none ave one file pe3.profile

fix             1 cubes rigid/nve/small molecule
  create bodies CPU = 0.001 seconds
  96 rigid bodies with 109728 atoms
  6.9282032 = max distance from body owner to body atom

fix             2 solvent nve# temp ${temp} ${temp} 10


## Thermostat
region          regthermo block EDGE EDGE EDGE EDGE 0 15
group           thermo dynamic solvent region regthermo every 1000
dynamic group thermo defined
fix             3 thermo langevin ${temp} ${temp} 10 156453
fix             3 thermo langevin 1.0 ${temp} 10 156453
fix             3 thermo langevin 1.0 1.0 10 156453


#### Load balancing

fix             bal all balance 1000 1.05 shift z 10 1.05

############### Diagnostics and computes ###################

compute        	com cubes          rigid/local   1 mol x y z
compute        	quat cubes         rigid/local   1 mol quatw quati quatj quatk

compute 	cc2 cubes 	   chunk/atom 	 molecule
compute 	msd cubes 	   msd/chunk 	 cc2

fix 		msd all ave/time  1 1 10000 c_msd[*] file dump.msd ave one mode vector

dump            1 all custom 500000 dump.lammpstrj id mol type x y z vx vy vz c_pe2
dump		sol  solvent custom 500000 dump.soltrj id x y z vx vy vz c_pe
dump		cubetrj cubes custom 500000 cubes.lammpstrj id mol type x y z vx vy vz
dump            com cubes local 100000 dump.*.xyz c_com[*]
dump	        xyz hull xyz 100000 cubes.xyz
dump            quat cubes      local 100000 dump.*.quat c_quat[*]
dump		order cubes 	local 100000 dump.*.order c_com[*] c_quat[*]
#dump		mol cubes molfile 10000 mol.xyz xyz


dump            2 all image 100000 image.*.png type type zoom 1.5 size 1280 720
dump_modify     2 pad 8
dump		image cubes image 100000 image_cubes.*.png type type zoom 1.5 size 1280 720
dump_modify	image pad 8
dump            3 all movie 5000 movie.avi type type zoom 1.5 size 1280 720
dump		4 cubes movie 5000 movie_cubes.avi type type size 1280 720


thermo          1000
thermo_style    custom step temp epair evdwl etotal press pe ke atoms

restart         1000000 restart.dat
timestep        0.005
timer           full
New timer settings: style=full  mode=nosync  timeout=off

run 		10000000
Per MPI rank memory allocation (min/avg/max) = 82.02 | 98.04 | 101.7 Mbytes
Step Temp E_pair E_vdwl TotEng Press PotEng KinEng Atoms 
       0    1.0105613   -2.4419662   -2.4419662   -1.2748102 -0.065533081   -2.4419662    1.1671559   476190 
    1000    1.0147332   -2.4474233   -2.4474233    -1.275449  0.059135874   -2.4474233    1.1719744   476190 
    2000    1.0140663   -2.4483581   -2.4483581    -1.277154  0.063097163   -2.4483581    1.1712041   476190 
    3000    1.0156262   -2.4506982   -2.4506982   -1.2776925  0.064702423   -2.4506982    1.1730057   476190 
    4000     1.017168   -2.4520722   -2.4520722   -1.2772858   0.06744228   -2.4520722    1.1747864   476190 
    5000     1.016543   -2.4516279   -2.4516279   -1.2775633  0.063242842   -2.4516279    1.1740646   476190 
    6000      1.01522   -2.4513716   -2.4513716    -1.278835  0.068422495   -2.4513716    1.1725366   476190 
    7000    1.0154703   -2.4523391   -2.4523391   -1.2795135  0.062231985   -2.4523391    1.1728256   476190 
    8000      1.01528   -2.4533567   -2.4533567   -1.2807509  0.062529121   -2.4533567    1.1726058   476190 
    9000    1.0147749   -2.4526849   -2.4526849   -1.2806624  0.064548813   -2.4526849    1.1720225   476190 
   10000    1.0159519   -2.4549584   -2.4549584   -1.2815766  0.067268847   -2.4549584    1.1733818   476190 
   11000    1.0156849   -2.4548051   -2.4548051   -1.2817316  0.061825348   -2.4548051    1.1730735   476190 
   12000     1.016201   -2.4568613   -2.4568613   -1.2831917  0.065478255   -2.4568613    1.1736696   476190 
   13000    1.0160174   -2.4575702   -2.4575702   -1.2841127  0.075693222   -2.4575702    1.1734575   476190 
   14000    1.0148246   -2.4570891   -2.4570891   -1.2850092  0.067719913   -2.4570891    1.1720799   476190 
   15000    1.0153919   -2.4582505   -2.4582505   -1.2855154  0.071281433   -2.4582505    1.1727351   476190 
   16000     1.017401   -2.4609444   -2.4609444   -1.2858889  0.070813581   -2.4609444    1.1750555   476190 
   17000    1.0157404   -2.4598598   -2.4598598   -1.2867222   0.07291453   -2.4598598    1.1731376   476190 
   18000    1.0168885   -2.4613193   -2.4613193   -1.2868557  0.069013274   -2.4613193    1.1744636   476190 
   19000    1.0177087   -2.4625093   -2.4625093   -1.2870984  0.066601976   -2.4625093    1.1754109   476190 
   20000    1.0157637    -2.461075    -2.461075   -1.2879104  0.069111216    -2.461075    1.1731646   476190 
   21000    1.0164104   -2.4616431   -2.4616431   -1.2877316  0.073893509   -2.4616431    1.1739115   476190 
   22000    1.0174914   -2.4627561   -2.4627561   -1.2875961  0.065887064   -2.4627561      1.17516   476190 
   23000    1.0180831   -2.4638926   -2.4638926   -1.2880493  0.071714459   -2.4638926    1.1758434   476190 
   24000    1.0161309   -2.4618771   -2.4618771   -1.2882884  0.066454201   -2.4618771    1.1735887   476190 
   25000      1.01703   -2.4633643   -2.4633643   -1.2887373  0.070902492   -2.4633643    1.1746271   476190 
   26000    1.0162104   -2.4615412   -2.4615412   -1.2878607  0.070029897   -2.4615412    1.1736805   476190 
   27000    1.0177176   -2.4632977   -2.4632977   -1.2878766  0.067192602   -2.4632977    1.1754211   476190 
   28000    1.0170424    -2.463809    -2.463809   -1.2891676  0.072367276    -2.463809    1.1746414   476190 
   29000    1.0153004    -2.462993    -2.462993   -1.2903636  0.067486719    -2.462993    1.1726294   476190 
   30000    1.0162133   -2.4650331   -2.4650331   -1.2913493  0.069006953   -2.4650331    1.1736838   476190 
   31000    1.0148019   -2.4635596   -2.4635596   -1.2915059   0.05980081   -2.4635596    1.1720537   476190 
   32000    1.0152736    -2.463055    -2.463055   -1.2904566  0.072974105    -2.463055    1.1725984   476190 
   33000    1.0140916   -2.4614097   -2.4614097   -1.2901763  0.069811903   -2.4614097    1.1712334   476190 
   34000    1.0131808   -2.4610951   -2.4610951   -1.2909137  0.072720135   -2.4610951    1.1701814   476190 
   35000    1.0148156   -2.4620556   -2.4620556   -1.2899861   0.06444373   -2.4620556    1.1720695   476190 
   36000    1.0146046   -2.4607303   -2.4607303   -1.2889046   0.07406535   -2.4607303    1.1718258   476190 
   37000    1.0126779   -2.4586424   -2.4586424   -1.2890418  0.069053185   -2.4586424    1.1696006   476190 
   38000    1.0143916    -2.461589    -2.461589   -1.2900092  0.066088282    -2.461589    1.1715798   476190 
   39000    1.0140664   -2.4598172   -2.4598172    -1.288613  0.063018563   -2.4598172    1.1712042   476190 
   40000    1.0151585   -2.4611097   -2.4611097   -1.2886442  0.060186233   -2.4611097    1.1724655   476190 
   41000    1.0153116   -2.4602227   -2.4602227   -1.2875804  0.062775526   -2.4602227    1.1726423   476190 
   42000    1.0147526   -2.4609383   -2.4609383   -1.2889416  0.070913872   -2.4609383    1.1719967   476190 
   43000    1.0144194   -2.4596555   -2.4596555   -1.2880436  0.071381122   -2.4596555    1.1716119   476190 
   44000      1.01447   -2.4604902   -2.4604902   -1.2888199  0.063020759   -2.4604902    1.1716703   476190 
   45000    1.0134102   -2.4599572   -2.4599572   -1.2895109  0.067432391   -2.4599572    1.1704463   476190 
   46000    1.0139296   -2.4609558   -2.4609558   -1.2899095  0.071110611   -2.4609558    1.1710463   476190 
   47000    1.0136733   -2.4599782   -2.4599782    -1.289228   0.06500984   -2.4599782    1.1707502   476190 
   48000    1.0118861   -2.4588425   -2.4588425   -1.2901564  0.063488009   -2.4588425    1.1686861   476190 
   49000    1.0128728   -2.4601976   -2.4601976    -1.290372  0.071106203   -2.4601976    1.1698256   476190 
   50000     1.012868   -2.4601743   -2.4601743   -1.2903542  0.060720729   -2.4601743    1.1698201   476190 
   51000    1.0124973   -2.4602283   -2.4602283   -1.2908364  0.061000019   -2.4602283    1.1693919   476190 
   52000    1.0137495     -2.46166     -2.46166   -1.2908217  0.064936085     -2.46166    1.1708382   476190 
   53000    1.0139253   -2.4615574   -2.4615574   -1.2905161  0.064435433   -2.4615574    1.1710413   476190 
   54000     1.013885    -2.460825    -2.460825   -1.2898302  0.069395448    -2.460825    1.1709948   476190 
   55000    1.0162886   -2.4628676   -2.4628676   -1.2890969  0.069109155   -2.4628676    1.1737707   476190 
   56000    1.0155738   -2.4623243   -2.4623243   -1.2893791  0.059402106   -2.4623243    1.1729452   476190 
   57000    1.0145648   -2.4616387   -2.4616387   -1.2898588  0.070276323   -2.4616387    1.1717798   476190 
   58000    1.0150637   -2.4634636   -2.4634636   -1.2911075  0.067104497   -2.4634636     1.172356   476190 
   59000     1.014262   -2.4616137   -2.4616137   -1.2901836  0.064641636   -2.4616137    1.1714301   476190 
   60000    1.0171785   -2.4648106   -2.4648106    -1.290012  0.063875366   -2.4648106    1.1747986   476190 
   61000    1.0147775   -2.4632748   -2.4632748   -1.2912494   0.06554869   -2.4632748    1.1720254   476190 
   62000    1.0147363   -2.4633569   -2.4633569    -1.291379  0.067053379   -2.4633569    1.1719779   476190 
   63000    1.0152027   -2.4632883   -2.4632883   -1.2907717  0.079903807   -2.4632883    1.1725166   476190 
   64000    1.0150811   -2.4643883   -2.4643883   -1.2920121  0.062251255   -2.4643883    1.1723762   476190 
   65000     1.015293   -2.4656358   -2.4656358    -1.293015  0.065420245   -2.4656358    1.1726208   476190 
   66000     1.014128   -2.4640985   -2.4640985   -1.2928231  0.069437953   -2.4640985    1.1712754   476190 
   67000    1.0143186   -2.4638523   -2.4638523   -1.2923568  0.066450363   -2.4638523    1.1714955   476190 
   68000    1.0146143    -2.464832    -2.464832    -1.292995  0.063364653    -2.464832     1.171837   476190 
   69000    1.0131074   -2.4637541   -2.4637541   -1.2936574   0.07264838   -2.4637541    1.1700966   476190 
   70000    1.0133199   -2.4641781   -2.4641781   -1.2938361     0.073977   -2.4641781    1.1703421   476190 
   71000    1.0139474   -2.4661231   -2.4661231   -1.2950563  0.072084592   -2.4661231    1.1710668   476190 
   72000    1.0143676   -2.4661564   -2.4661564   -1.2946042  0.068539731   -2.4661564    1.1715521   476190 
   73000    1.0133273   -2.4658453   -2.4658453   -1.2954947  0.063467075   -2.4658453    1.1703505   476190 
   74000    1.0137564   -2.4666113   -2.4666113   -1.2957652    0.0766509   -2.4666113    1.1708461   476190 
   75000    1.0130464   -2.4659426   -2.4659426   -1.2959165  0.067341677   -2.4659426    1.1700262   476190 
   76000    1.0149859   -2.4668035   -2.4668035   -1.2945374   0.05541858   -2.4668035    1.1722662   476190 
   77000    1.0138063   -2.4655471   -2.4655471   -1.2946433  0.067685182   -2.4655471    1.1709038   476190 
   78000    1.0149619   -2.4665506   -2.4665506   -1.2943122  0.066627713   -2.4665506    1.1722384   476190 
   79000    1.0155699   -2.4676005   -2.4676005   -1.2946598  0.068497005   -2.4676005    1.1729407   476190 
   80000    1.0162351   -2.4679077   -2.4679077   -1.2941987  0.074219109   -2.4679077     1.173709   476190 
   81000    1.0153755   -2.4674054   -2.4674054   -1.2946892  0.064660334   -2.4674054    1.1727162   476190 
   82000    1.0146318   -2.4664726   -2.4664726   -1.2946154  0.068354329   -2.4664726    1.1718573   476190 
   83000    1.0161088   -2.4674644   -2.4674644   -1.2939013   0.06808692   -2.4674644    1.1735631   476190 
   84000    1.0157209    -2.467154    -2.467154   -1.2940389  0.073088223    -2.467154     1.173115   476190 
   85000    1.0169794   -2.4690384   -2.4690384   -1.2944699   0.07230287   -2.4690384    1.1745686   476190 
   86000    1.0143093   -2.4668092   -2.4668092   -1.2953245  0.073776051   -2.4668092    1.1714847   476190 
   87000    1.0136033   -2.4668254   -2.4668254    -1.296156  0.066908495   -2.4668254    1.1706694   476190 
   88000    1.0133843    -2.467294    -2.467294   -1.2968776  0.068215956    -2.467294    1.1704164   476190 
   89000    1.0141661   -2.4695913   -2.4695913    -1.298272  0.058945524   -2.4695913    1.1713193   476190 
   90000    1.0143908   -2.4675724   -2.4675724   -1.2959935  0.068223287   -2.4675724    1.1715788   476190 
   91000    1.0147219    -2.468056    -2.468056   -1.2960947  0.057692831    -2.468056    1.1719613   476190 
   92000    1.0151906   -2.4684349   -2.4684349   -1.2959323  0.071647769   -2.4684349    1.1725026   476190 
   93000    1.0139543   -2.4678063   -2.4678063   -1.2967315  0.067583153   -2.4678063    1.1710748   476190 
   94000    1.0147551   -2.4679027   -2.4679027   -1.2959031  0.060709872   -2.4679027    1.1719996   476190 
   95000    1.0154239   -2.4678471   -2.4678471   -1.2950751  0.062240846   -2.4678471     1.172772   476190 
   96000    1.0138081   -2.4669239   -2.4669239   -1.2960181  0.064689116   -2.4669239    1.1709059   476190 
   97000    1.0140992   -2.4669626   -2.4669626   -1.2957205  0.069275546   -2.4669626    1.1712421   476190 
   98000    1.0135407   -2.4660135   -2.4660135   -1.2954165  0.075210479   -2.4660135     1.170597   476190 
   99000    1.0151633   -2.4682604   -2.4682604   -1.2957892  0.065739984   -2.4682604    1.1724711   476190 
  100000    1.0153556   -2.4693356   -2.4693356   -1.2966424  0.059309118   -2.4693356    1.1726932   476190 
  101000     1.014854   -2.4689453   -2.4689453   -1.2968315  0.070554778   -2.4689453    1.1721138   476190 
  102000    1.0151854   -2.4688332   -2.4688332   -1.2963366  0.075710665   -2.4688332    1.1724966   476190 
  103000     1.015763   -2.4700343   -2.4700343   -1.2968706  0.066952438   -2.4700343    1.1731637   476190 
  104000    1.0150623   -2.4677619   -2.4677619   -1.2954074  0.069323321   -2.4677619    1.1723544   476190 
  105000    1.0155644   -2.4673584   -2.4673584    -1.294424  0.069956711   -2.4673584    1.1729344   476190 
  106000    1.0148281   -2.4673828   -2.4673828   -1.2952988  0.070857038   -2.4673828    1.1720839   476190 
  107000    1.0157276   -2.4684903   -2.4684903   -1.2953674  0.074920945   -2.4684903    1.1731229   476190 
  108000    1.0154336   -2.4678981   -2.4678981   -1.2951148  0.073735457   -2.4678981    1.1727833   476190 
  109000    1.0166422   -2.4689772   -2.4689772    -1.294798  0.066731901   -2.4689772    1.1741791   476190 
  110000     1.016573   -2.4698238   -2.4698238   -1.2957246  0.066808879   -2.4698238    1.1740992   476190 
  111000    1.0132257   -2.4666909   -2.4666909   -1.2964577  0.067499096   -2.4666909    1.1702332   476190 
  112000    1.0138291   -2.4667894   -2.4667894   -1.2958593  0.067570146   -2.4667894    1.1709301   476190 
  113000    1.0143395   -2.4676861   -2.4676861   -1.2961666   0.07128728   -2.4676861    1.1715196   476190 
  114000    1.0145825   -2.4685232   -2.4685232   -1.2967229  0.066591108   -2.4685232    1.1718003   476190 
  115000    1.0124498   -2.4664551   -2.4664551   -1.2971179  0.070704015   -2.4664551    1.1693371   476190 
  116000    1.0134939   -2.4663326   -2.4663326   -1.2957897  0.075647553   -2.4663326    1.1705429   476190 
  117000    1.0127397   -2.4662778   -2.4662778   -1.2966058  0.065689911   -2.4662778    1.1696719   476190 
  118000    1.0134166   -2.4667599   -2.4667599   -1.2963062  0.064448619   -2.4667599    1.1704537   476190 
  119000    1.0129473   -2.4658403   -2.4658403   -1.2959286  0.081540342   -2.4658403    1.1699117   476190 
  120000    1.0146165   -2.4674619   -2.4674619   -1.2956223  0.063592994   -2.4674619    1.1718396   476190 
  121000    1.0151543    -2.468092    -2.468092   -1.2956313  0.068869581    -2.468092    1.1724607   476190 
  122000    1.0129195   -2.4670011   -2.4670011   -1.2971215  0.067930124   -2.4670011    1.1698796   476190 
  123000    1.0156641   -2.4689382   -2.4689382   -1.2958887  0.072502837   -2.4689382    1.1730495   476190 
  124000    1.0162714   -2.4695537   -2.4695537   -1.2958028  0.064468924   -2.4695537    1.1737509   476190 
  125000    1.0137463   -2.4682032   -2.4682032   -1.2973687  0.063415867   -2.4682032    1.1708345   476190 
  126000    1.0140226   -2.4682012   -2.4682012   -1.2970476  0.060022244   -2.4682012    1.1711537   476190 
  127000    1.0128134   -2.4676544   -2.4676544   -1.2978974  0.063192318   -2.4676544     1.169757   476190 
  128000    1.0128404    -2.467325    -2.467325   -1.2975368   0.06310783    -2.467325    1.1697882   476190 
  129000    1.0126349   -2.4672711   -2.4672711   -1.2977202  0.063487142   -2.4672711    1.1695509   476190 
  130000    1.0137926   -2.4683582   -2.4683582   -1.2974702  0.068110478   -2.4683582     1.170888   476190 
  131000    1.0148274   -2.4689995   -2.4689995   -1.2969164  0.062611567   -2.4689995    1.1720831   476190 
  132000    1.0143638   -2.4688993   -2.4688993   -1.2973516  0.061319325   -2.4688993    1.1715477   476190 
  133000    1.0159941   -2.4708169   -2.4708169   -1.2973863  0.062680578   -2.4708169    1.1734306   476190 
  134000    1.0137566   -2.4687168   -2.4687168   -1.2978703  0.068779556   -2.4687168    1.1708464   476190 
  135000    1.0138064   -2.4694404   -2.4694404   -1.2985364  0.065583946   -2.4694404     1.170904   476190 
  136000    1.0138957   -2.4679286   -2.4679286   -1.2969216  0.067673697   -2.4679286     1.171007   476190 
  137000    1.0109848   -2.4661141   -2.4661141    -1.298469  0.069190788   -2.4661141    1.1676451   476190 
  138000    1.0130461   -2.4678649   -2.4678649   -1.2978391  0.070902014   -2.4678649    1.1700258   476190 
  139000     1.013522   -2.4681872   -2.4681872   -1.2976117  0.071893498   -2.4681872    1.1705755   476190 
  140000    1.0135591   -2.4691867   -2.4691867   -1.2985684  0.069544892   -2.4691867    1.1706183   476190 
  141000    1.0130282   -2.4675346   -2.4675346   -1.2975295  0.074017598   -2.4675346    1.1700051   476190 
  142000    1.0142441     -2.46944     -2.46944   -1.2980306  0.068930229     -2.46944    1.1714094   476190 
  143000    1.0153066   -2.4699357   -2.4699357   -1.2972991  0.062883992   -2.4699357    1.1726366   476190 
  144000    1.0150128   -2.4705108   -2.4705108   -1.2982135  0.060484276   -2.4705108    1.1722973   476190 
  145000    1.0139155   -2.4687225   -2.4687225   -1.2976925  0.065935119   -2.4687225    1.1710299   476190 
  146000    1.0155124   -2.4700716   -2.4700716   -1.2971972  0.062619441   -2.4700716    1.1728743   476190 
  147000    1.0135348   -2.4694141   -2.4694141   -1.2988239  0.062722844   -2.4694141    1.1705902   476190 
  148000    1.0146558   -2.4699542   -2.4699542   -1.2980692  0.063215629   -2.4699542     1.171885   476190 
  149000    1.0156442   -2.4705985   -2.4705985   -1.2975719  0.070024579   -2.4705985    1.1730265   476190 
  150000    1.0146766   -2.4703581   -2.4703581   -1.2984492  0.072198623   -2.4703581    1.1719089   476190 
  151000    1.0148669   -2.4713007   -2.4713007   -1.2991719  0.068427444   -2.4713007    1.1721287   476190 
  152000    1.0143605   -2.4703533   -2.4703533   -1.2988095  0.065055355   -2.4703533    1.1715438   476190 
  153000    1.0150654   -2.4704922   -2.4704922   -1.2981341  0.069140971   -2.4704922     1.172358   476190 
  154000    1.0156211   -2.4725061   -2.4725061   -1.2995063  0.064406591   -2.4725061    1.1729998   476190 
  155000    1.0134754   -2.4705808   -2.4705808   -1.3000592  0.073037949   -2.4705808    1.1705216   476190 
  156000     1.012603   -2.4704163   -2.4704163   -1.3009022  0.067337385   -2.4704163    1.1695141   476190 
  157000    1.0151186   -2.4728935   -2.4728935    -1.300474  0.072120244   -2.4728935    1.1724195   476190 
  158000    1.0127655   -2.4701464   -2.4701464   -1.3004447  0.065146844   -2.4701464    1.1697017   476190 
  159000    1.0130314   -2.4709592   -2.4709592   -1.3009504  0.057487705   -2.4709592    1.1700088   476190 
  160000    1.0105645   -2.4683967   -2.4683967    -1.301237  0.061776275   -2.4683967    1.1671597   476190 
  161000    1.0126829    -2.470524    -2.470524   -1.3009177  0.064575995    -2.470524    1.1696063   476190 
  162000    1.0137926   -2.4709624   -2.4709624   -1.3000745  0.069450142   -2.4709624    1.1708879   476190 
  163000    1.0136696   -2.4712364   -2.4712364   -1.3004905  0.063673023   -2.4712364    1.1707459   476190 
  164000    1.0132403   -2.4719518   -2.4719518   -1.3017017  0.066884936   -2.4719518    1.1702501   476190 
  165000    1.0137659   -2.4720978   -2.4720978   -1.3012406  0.071665102   -2.4720978    1.1708572   476190 
  166000    1.0125514   -2.4716073   -2.4716073   -1.3021529  0.066825253   -2.4716073    1.1694544   476190 
  167000    1.0147688    -2.473089    -2.473089   -1.3010735  0.062041571    -2.473089    1.1720155   476190 
  168000    1.0148193   -2.4728308   -2.4728308    -1.300757   0.07273976   -2.4728308    1.1720738   476190 
  169000    1.0149965   -2.4736401   -2.4736401   -1.3013617   0.06376677   -2.4736401    1.1722784   476190 
  170000    1.0129849   -2.4713404   -2.4713404   -1.3013853  0.067205932   -2.4713404    1.1699551   476190 
  171000    1.0132384   -2.4721759   -2.4721759    -1.301928  0.060690938   -2.4721759    1.1702479   476190 
  172000    1.0134824   -2.4720347   -2.4720347   -1.3015051  0.062322181   -2.4720347    1.1705297   476190 
  173000    1.0155316   -2.4729795   -2.4729795   -1.3000831  0.067816306   -2.4729795    1.1728964   476190 
  174000     1.014513   -2.4723063   -2.4723063   -1.3005863  0.073749369   -2.4723063      1.17172   476190 
  175000    1.0122734   -2.4702526   -2.4702526   -1.3011193  0.071869676   -2.4702526    1.1691334   476190 
  176000    1.0143107   -2.4727015   -2.4727015   -1.3012151  0.071336539   -2.4727015    1.1714864   476190 
  177000    1.0127756   -2.4715666   -2.4715666   -1.3018532  0.071338913   -2.4715666    1.1697134   476190 
  178000      1.01443   -2.4728879   -2.4728879   -1.3012637  0.078402239   -2.4728879    1.1716241   476190 
  179000    1.0142265   -2.4708299   -2.4708299   -1.2994408  0.077612731   -2.4708299    1.1713891   476190 
  180000    1.0143204   -2.4723359   -2.4723359   -1.3008384  0.068795835   -2.4723359    1.1714975   476190 
  181000    1.0128219   -2.4712361   -2.4712361   -1.3014692  0.082177297   -2.4712361    1.1697669   476190 
  182000    1.0122288   -2.4706005   -2.4706005   -1.3015187  0.072429742   -2.4706005    1.1690818   476190 
  183000    1.0136373   -2.4721569   -2.4721569   -1.3014484  0.067949132   -2.4721569    1.1707086   476190 
  184000    1.0149137   -2.4726512   -2.4726512   -1.3004684  0.065127031   -2.4726512    1.1721829   476190 
  185000    1.0145452   -2.4724987   -2.4724987   -1.3007414  0.072772513   -2.4724987    1.1717573   476190 
  186000    1.0149958   -2.4738666   -2.4738666    -1.301589  0.058891432   -2.4738666    1.1722776   476190 
  187000    1.0136247   -2.4708509   -2.4708509   -1.3001569  0.070722065   -2.4708509     1.170694   476190 
  188000    1.0148232   -2.4723997   -2.4723997   -1.3003214   0.06890413   -2.4723997    1.1720783   476190 
  189000    1.0163482   -2.4728139   -2.4728139   -1.2989743  0.068839155   -2.4728139    1.1738396   476190 
  190000    1.0155811    -2.471966    -2.471966   -1.2990123  0.065360471    -2.471966    1.1729536   476190 
  191000    1.0135691   -2.4701718   -2.4701718   -1.2995419  0.067398478   -2.4701718    1.1706299   476190 
  192000    1.0147332   -2.4713498   -2.4713498   -1.2993755  0.072283273   -2.4713498    1.1719744   476190 
  193000    1.0145506   -2.4715123   -2.4715123   -1.2997489  0.069375038   -2.4715123    1.1717634   476190 
  194000    1.0148379   -2.4716055   -2.4716055   -1.2995102  0.069092885   -2.4716055    1.1720953   476190 
  195000     1.014511   -2.4713733   -2.4713733   -1.2996557  0.070775415   -2.4713733    1.1717177   476190 
  196000    1.0120202   -2.4692157   -2.4692157   -1.3003748  0.068293045   -2.4692157    1.1688409   476190 
  197000    1.0132959   -2.4709018   -2.4709018   -1.3005876  0.065137907   -2.4709018    1.1703143   476190 
  198000     1.012107   -2.4704685   -2.4704685   -1.3015273  0.060946541   -2.4704685    1.1689412   476190 
  199000    1.0128114    -2.470449    -2.470449   -1.3006943  0.063063612    -2.470449    1.1697548   476190 
  200000    1.0133302   -2.4704045   -2.4704045   -1.3000506  0.067388591   -2.4704045    1.1703539   476190 
  201000    1.0110364   -2.4689809   -2.4689809   -1.3012761  0.065841556   -2.4689809    1.1677047   476190 
  202000     1.011602   -2.4701871   -2.4701871   -1.3018291   0.05657568   -2.4701871     1.168358   476190 
  203000    1.0112256   -2.4694523   -2.4694523   -1.3015291  0.066651806   -2.4694523    1.1679232   476190 
  204000    1.0116077   -2.4694439   -2.4694439   -1.3010794  0.068814456   -2.4694439    1.1683645   476190 
  205000     1.011802   -2.4703346   -2.4703346   -1.3017457  0.067313818   -2.4703346    1.1685889   476190 
  206000    1.0131298   -2.4711512   -2.4711512   -1.3010287    0.0633161   -2.4711512    1.1701225   476190 
  207000    1.0133751   -2.4718505   -2.4718505   -1.3014447  0.070276613   -2.4718505    1.1704058   476190 
  208000    1.0153453   -2.4744115   -2.4744115   -1.3017302  0.069845417   -2.4744115    1.1726813   476190 
  209000     1.014566   -2.4741079   -2.4741079   -1.3023267  0.064128704   -2.4741079    1.1717812   476190 
  210000    1.0143728   -2.4728431   -2.4728431   -1.3012851  0.067428508   -2.4728431    1.1715581   476190 
  211000     1.014766   -2.4738197   -2.4738197   -1.3018075  0.060823511   -2.4738197    1.1720123   476190 
  212000    1.0139016   -2.4732816   -2.4732816   -1.3022678  0.063448245   -2.4732816    1.1710138   476190 
  213000    1.0142459   -2.4740439   -2.4740439   -1.3026324  0.071456326   -2.4740439    1.1714115   476190 
  214000    1.0151568   -2.4737831   -2.4737831   -1.3013196  0.073273303   -2.4737831    1.1724635   476190 
  215000    1.0149068   -2.4743148   -2.4743148     -1.30214  0.071897051   -2.4743148    1.1721748   476190 
  216000     1.013735   -2.4730886   -2.4730886   -1.3022671  0.076504982   -2.4730886    1.1708215   476190 
  217000    1.0129744   -2.4742508   -2.4742508   -1.3043078  0.073295074   -2.4742508     1.169943   476190 
  218000    1.0129617    -2.475138    -2.475138   -1.3052098  0.070541297    -2.475138    1.1699283   476190 
  219000    1.0122578   -2.4745903   -2.4745903   -1.3054749  0.070245446   -2.4745903    1.1691154   476190 
  220000    1.0129606   -2.4763079   -2.4763079   -1.3063808  0.071379763   -2.4763079    1.1699271   476190 
  221000    1.0128507   -2.4772226   -2.4772226   -1.3074224  0.065901543   -2.4772226    1.1698001   476190 
  222000    1.0117446   -2.4766055   -2.4766055   -1.3080828   0.07424456   -2.4766055    1.1685226   476190 
  223000    1.0127275   -2.4786177   -2.4786177   -1.3089599  0.061105715   -2.4786177    1.1696578   476190 
  224000    1.0139003   -2.4789596   -2.4789596   -1.3079472  0.064740576   -2.4789596    1.1710124   476190 
  225000    1.0115247     -2.47641     -2.47641   -1.3081414  0.070217577     -2.47641    1.1682686   476190 
  226000    1.0130136   -2.4775971   -2.4775971   -1.3076089  0.074099047   -2.4775971    1.1699882   476190 
  227000    1.0136369   -2.4774831   -2.4774831   -1.3067749  0.075123926   -2.4774831    1.1707082   476190 
  228000    1.0133762    -2.477397    -2.477397     -1.30699   0.06687816    -2.477397     1.170407   476190 
  229000    1.0138715   -2.4781274   -2.4781274   -1.3071483  0.069985117   -2.4781274    1.1709791   476190 
  230000    1.0136926   -2.4777942   -2.4777942   -1.3070218  0.073187385   -2.4777942    1.1707724   476190 
  231000    1.0139373   -2.4772936   -2.4772936   -1.3062386  0.067776585   -2.4772936    1.1710551   476190 
  232000    1.0129844   -2.4768218   -2.4768218   -1.3068672  0.072719946   -2.4768218    1.1699546   476190 
  233000    1.0124408   -2.4755235   -2.4755235   -1.3061968  0.065717218   -2.4755235    1.1693267   476190 
  234000    1.0131192   -2.4772537   -2.4772537   -1.3071434  0.067564883   -2.4772537    1.1701103   476190 
  235000    1.0122274    -2.476926    -2.476926   -1.3078458  0.073453984    -2.476926    1.1690802   476190 
  236000    1.0117824   -2.4760006   -2.4760006   -1.3074343  0.068736278   -2.4760006    1.1685663   476190 
  237000     1.012083   -2.4748309   -2.4748309   -1.3059174  0.061197819   -2.4748309    1.1689134   476190 
  238000    1.0131978   -2.4767751   -2.4767751    -1.306574  0.070073916   -2.4767751    1.1702011   476190 
  239000    1.0123886    -2.475572    -2.475572   -1.3063056  0.070723592    -2.475572    1.1692665   476190 
  240000    1.0106234   -2.4736285   -2.4736285   -1.3064007  0.066970458   -2.4736285    1.1672277   476190 
  241000     1.011808   -2.4746978   -2.4746978   -1.3061019   0.06713786   -2.4746978    1.1685959   476190 
  242000    1.0116755   -2.4738144   -2.4738144   -1.3053715  0.064878253   -2.4738144    1.1684428   476190 
  243000    1.0108397   -2.4726305   -2.4726305    -1.305153   0.06729757   -2.4726305    1.1674775   476190 
  244000    1.0110054   -2.4733912   -2.4733912   -1.3057224  0.064328353   -2.4733912    1.1676688   476190 
  245000    1.0122294   -2.4752468   -2.4752468   -1.3061642  0.061641179   -2.4752468    1.1690825   476190 
  246000    1.0121271   -2.4745836   -2.4745836   -1.3056193   0.06271861   -2.4745836    1.1689644   476190 
  247000    1.0110062   -2.4732803   -2.4732803   -1.3056104  0.061848629   -2.4732803    1.1676698   476190 
  248000    1.0114008   -2.4738323   -2.4738323   -1.3057068  0.068826577   -2.4738323    1.1681256   476190 
  249000    1.0118639   -2.4738207   -2.4738207   -1.3051604  0.060821922   -2.4738207    1.1686604   476190 
  250000    1.0126138   -2.4737791   -2.4737791   -1.3042526  0.065024238   -2.4737791    1.1695265   476190 
  251000    1.0140263   -2.4745445   -2.4745445   -1.3033866  0.058052073   -2.4745445    1.1711579   476190 
  252000    1.0127526   -2.4734132   -2.4734132   -1.3037264  0.079567561   -2.4734132    1.1696868   476190 
  253000    1.0136134   -2.4736479   -2.4736479   -1.3029668  0.074387173   -2.4736479    1.1706811   476190 
  254000    1.0143816   -2.4733552   -2.4733552    -1.301787   0.07302369   -2.4733552    1.1715683   476190 
  255000     1.014005   -2.4739514   -2.4739514   -1.3028181  0.069678098   -2.4739514    1.1711333   476190 
  256000    1.0145221   -2.4732116   -2.4732116    -1.301481  0.069350146   -2.4732116    1.1717306   476190 
  257000     1.014162    -2.473238    -2.473238   -1.3019234  0.070320637    -2.473238    1.1713146   476190 
  258000    1.0145491   -2.4740008   -2.4740008   -1.3022391  0.067025994   -2.4740008    1.1717617   476190 
  259000    1.0137352   -2.4738026   -2.4738026   -1.3029809  0.068060671   -2.4738026    1.1708217   476190 
  260000    1.0130892   -2.4744405   -2.4744405   -1.3043649  0.071718388   -2.4744405    1.1700756   476190 
  261000    1.0128749   -2.4747219   -2.4747219   -1.3048938  0.069085897   -2.4747219     1.169828   476190 
  262000    1.0119995   -2.4751455   -2.4751455   -1.3063285  0.061674143   -2.4751455     1.168817   476190 
  263000    1.0132135   -2.4756528   -2.4756528   -1.3054336  0.070009115   -2.4756528    1.1702192   476190 
  264000    1.0128228    -2.475535    -2.475535   -1.3057672  0.059787866    -2.475535    1.1697679   476190 
  265000    1.0140692    -2.477004    -2.477004   -1.3057966  0.067150035    -2.477004    1.1712074   476190 
  266000    1.0123733   -2.4751101   -2.4751101   -1.3058613  0.069314293   -2.4751101    1.1692488   476190 
  267000    1.0110978   -2.4739347   -2.4739347   -1.3061591  0.058992173   -2.4739347    1.1677756   476190 
  268000    1.0121421    -2.474174    -2.474174   -1.3051923  0.065014626    -2.474174    1.1689817   476190 
  269000     1.012719   -2.4742247   -2.4742247   -1.3045766  0.065311693   -2.4742247     1.169648   476190 
  270000    1.0123529   -2.4744127   -2.4744127   -1.3051875  0.070550837   -2.4744127    1.1692252   476190 
  271000    1.0128039   -2.4745713   -2.4745713   -1.3048252  0.067732216   -2.4745713    1.1697461   476190 
  272000    1.0135361    -2.474706    -2.474706   -1.3041143  0.072026862    -2.474706    1.1705917   476190 
  273000    1.0137305    -2.475876    -2.475876   -1.3050597  0.076877223    -2.475876    1.1708163   476190 
  274000    1.0146081    -2.477206    -2.477206   -1.3053761  0.069901848    -2.477206    1.1718299   476190 
  275000    1.0139444   -2.4765945   -2.4765945   -1.3055312  0.071127132   -2.4765945    1.1710633   476190 
  276000    1.0143178   -2.4774176   -2.4774176    -1.305923  0.069849741   -2.4774176    1.1714946   476190 
  277000    1.0130038   -2.4759302   -2.4759302   -1.3059532  0.079804535   -2.4759302     1.169977   476190 
  278000    1.0130046   -2.4765482   -2.4765482   -1.3065704  0.071155672   -2.4765482    1.1699779   476190 
  279000    1.0134176   -2.4769076   -2.4769076   -1.3064528  0.068999019   -2.4769076    1.1704548   476190 
  280000    1.0133917   -2.4770046   -2.4770046   -1.3065797   0.07132885   -2.4770046    1.1704249   476190 
  281000    1.0145161   -2.4768881   -2.4768881   -1.3051645  0.076276071   -2.4768881    1.1717236   476190 
  282000    1.0146498   -2.4782405   -2.4782405   -1.3063626  0.069324679   -2.4782405     1.171878   476190 
  283000    1.0133768   -2.4760383   -2.4760383   -1.3056306  0.065947406   -2.4760383    1.1704077   476190 
  284000    1.0140579   -2.4765318   -2.4765318   -1.3053374  0.064902597   -2.4765318    1.1711944   476190 
  285000    1.0133696   -2.4759496   -2.4759496   -1.3055501  0.067882494   -2.4759496    1.1703995   476190 
  286000    1.0131467   -2.4758552   -2.4758552   -1.3057131  0.065902788   -2.4758552     1.170142   476190 
  287000     1.013326   -2.4769463   -2.4769463   -1.3065972  0.066137138   -2.4769463    1.1703491   476190 
  288000    1.0144631   -2.4774888   -2.4774888   -1.3058265  0.069611844   -2.4774888    1.1716624   476190 
  289000    1.0146183   -2.4772978   -2.4772978   -1.3054562  0.064418953   -2.4772978    1.1718416   476190 
  290000    1.0134752   -2.4761517   -2.4761517   -1.3056302  0.067060854   -2.4761517    1.1705214   476190 
  291000    1.0147298   -2.4766538   -2.4766538   -1.3046834  0.068139915   -2.4766538    1.1719704   476190 
  292000    1.0133311   -2.4750074   -2.4750074   -1.3046525  0.068678542   -2.4750074    1.1703549   476190 
  293000    1.0115979   -2.4737725   -2.4737725   -1.3054193  0.068191506   -2.4737725    1.1683532   476190 
  294000    1.0120751    -2.474851    -2.474851   -1.3059467  0.059291964    -2.474851    1.1689043   476190 
  295000    1.0109085   -2.4729578   -2.4729578   -1.3054008  0.069890668   -2.4729578     1.167557   476190 
  296000    1.0108037   -2.4729511   -2.4729511   -1.3055152  0.071551793   -2.4729511    1.1674359   476190 
  297000    1.0121044    -2.474208    -2.474208   -1.3052697  0.071399146    -2.474208    1.1689382   476190 
  298000    1.0120558   -2.4739315   -2.4739315   -1.3050494  0.074207025   -2.4739315    1.1688821   476190 
  299000    1.0121102   -2.4734701   -2.4734701   -1.3045252  0.068424235   -2.4734701    1.1689449   476190 
  300000    1.0124212   -2.4745057   -2.4745057   -1.3052017  0.065167491   -2.4745057     1.169304   476190 
  301000    1.0116298    -2.473971    -2.473971    -1.305581  0.067919185    -2.473971      1.16839   476190 
  302000    1.0146331   -2.4763129   -2.4763129   -1.3044542  0.074427882   -2.4763129    1.1718587   476190 
  303000    1.0123181   -2.4736282   -2.4736282   -1.3044432  0.073524449   -2.4736282    1.1691849   476190 
  304000     1.012095   -2.4736462   -2.4736462    -1.304719  0.068257878   -2.4736462    1.1689273   476190 
  305000    1.0129796   -2.4754741   -2.4754741   -1.3055251  0.073379824   -2.4754741     1.169949   476190 
  306000    1.0131835   -2.4754409   -2.4754409   -1.3052564  0.072071638   -2.4754409    1.1701845   476190 
  307000    1.0139917   -2.4752125   -2.4752125   -1.3040946  0.067248551   -2.4752125    1.1711179   476190 
  308000    1.0129827   -2.4746766   -2.4746766   -1.3047241  0.067868649   -2.4746766    1.1699526   476190 
  309000    1.0115606   -2.4738717   -2.4738717   -1.3055615  0.053154962   -2.4738717    1.1683101   476190 
  310000    1.0110765   -2.4739474   -2.4739474   -1.3061965  0.070863097   -2.4739474     1.167751   476190 
  311000    1.0114105   -2.4756066   -2.4756066   -1.3074699  0.069453141   -2.4756066    1.1681367   476190 
  312000    1.0113038   -2.4762543   -2.4762543   -1.3082408   0.06683607   -2.4762543    1.1680135   476190 
  313000    1.0136641   -2.4775165   -2.4775165   -1.3067769  0.072315214   -2.4775165    1.1707395   476190 
  314000     1.012606    -2.477085    -2.477085   -1.3075675  0.069515406    -2.477085    1.1695176   476190 
  315000    1.0131063   -2.4776441   -2.4776441   -1.3075488   0.07609261   -2.4776441    1.1700953   476190 
  316000    1.0112522   -2.4764966   -2.4764966   -1.3085427  0.067721078   -2.4764966    1.1679539   476190 
  317000    1.0128781   -2.4754519   -2.4754519   -1.3056201  0.073869927   -2.4754519    1.1698318   476190 
  318000    1.0130978   -2.4776248   -2.4776248   -1.3075394  0.069911284   -2.4776248    1.1700855   476190 
  319000    1.0137029   -2.4781693   -2.4781693    -1.307385  0.074158169   -2.4781693    1.1707844   476190 
  320000    1.0128094   -2.4773562   -2.4773562   -1.3076038  0.069945148   -2.4773562    1.1697525   476190 
  321000    1.0131645    -2.477701    -2.477701   -1.3075385  0.075704153    -2.477701    1.1701626   476190 
  322000    1.0138476    -2.477993    -2.477993   -1.3070415  0.069612334    -2.477993    1.1709515   476190 
  323000    1.0125463   -2.4776325   -2.4776325   -1.3081839  0.071695674   -2.4776325    1.1694485   476190 
  324000    1.0126579   -2.4786783   -2.4786783   -1.3091008   0.06961227   -2.4786783    1.1695775   476190 
  325000    1.0127547   -2.4790934   -2.4790934   -1.3094042  0.066264275   -2.4790934    1.1696892   476190 
  326000      1.01355   -2.4797388   -2.4797388    -1.309131  0.065866491   -2.4797388    1.1706078   476190 
  327000    1.0146674   -2.4810896   -2.4810896   -1.3091912  0.070855356   -2.4810896    1.1718984   476190 
  328000     1.013719    -2.480757    -2.480757    -1.309954  0.068072514    -2.480757     1.170803   476190 
  329000    1.0111799   -2.4786245   -2.4786245    -1.310754  0.070792937   -2.4786245    1.1678705   476190 
  330000    1.0142582   -2.4804948   -2.4804948   -1.3090691  0.065053679   -2.4804948    1.1714257   476190 
  331000    1.0131731    -2.479345    -2.479345   -1.3091724   0.07139506    -2.479345    1.1701725   476190 
  332000    1.0114087   -2.4763708   -2.4763708   -1.3082361  0.067392564   -2.4763708    1.1681347   476190 
  333000    1.0127926   -2.4779522   -2.4779522   -1.3082192  0.064209812   -2.4779522     1.169733   476190 
  334000    1.0118733   -2.4788884   -2.4788884   -1.3102172  0.060865868   -2.4788884    1.1686712   476190 
  335000    1.0113554   -2.4780151   -2.4780151    -1.309942  0.071181531   -2.4780151    1.1680732   476190 
  336000    1.0098581   -2.4774071   -2.4774071   -1.3110633  0.075836879   -2.4774071    1.1663438   476190 
  337000    1.0100555   -2.4780506   -2.4780506   -1.3114788  0.070562325   -2.4780506    1.1665718   476190 
  338000    1.0104713   -2.4777489   -2.4777489   -1.3106969  0.067161921   -2.4777489     1.167052   476190 
  339000    1.0102643   -2.4776056   -2.4776056   -1.3107927  0.064532037   -2.4776056     1.166813   476190 
  340000    1.0099247   -2.4765419   -2.4765419   -1.3101211  0.070164703   -2.4765419    1.1664208   476190 
  341000    1.0115631   -2.4783484   -2.4783484   -1.3100354  0.077032528   -2.4783484     1.168313   476190 
  342000    1.0112388   -2.4786909   -2.4786909   -1.3107524    0.0624098   -2.4786909    1.1679385   476190 
  343000    1.0104986   -2.4771008   -2.4771008   -1.3100173  0.063628766   -2.4771008    1.1670835   476190 
  344000    1.0117835   -2.4776775   -2.4776775     -1.30911  0.069337763   -2.4776775    1.1685675   476190 
  345000    1.0116097   -2.4780285   -2.4780285   -1.3096617  0.075848575   -2.4780285    1.1683668   476190 
  346000    1.0147912   -2.4813511   -2.4813511   -1.3093098  0.066348359   -2.4813511    1.1720413   476190 
  347000    1.0137654   -2.4803812   -2.4803812   -1.3095246  0.070382178   -2.4803812    1.1708566   476190 
  348000    1.0146058   -2.4810007   -2.4810007   -1.3091734  0.070459393   -2.4810007    1.1718272   476190 
  349000    1.0145383   -2.4812449   -2.4812449   -1.3094957  0.074314253   -2.4812449    1.1717492   476190 
  350000    1.0144223   -2.4817242   -2.4817242    -1.310109  0.061308101   -2.4817242    1.1716153   476190 
  351000     1.013179   -2.4801704   -2.4801704   -1.3099912   0.07407194   -2.4801704    1.1701793   476190 
  352000     1.013613   -2.4815037   -2.4815037   -1.3108231  0.066201161   -2.4815037    1.1706806   476190 
  353000    1.0135487   -2.4806467   -2.4806467   -1.3100404   0.07298659   -2.4806467    1.1706063   476190 
  354000    1.0130343   -2.4799113   -2.4799113   -1.3098992  0.075799531   -2.4799113    1.1700122   476190 
  355000    1.0122575   -2.4794275   -2.4794275   -1.3103125  0.073471895   -2.4794275     1.169115   476190 
  356000    1.0124673   -2.4793169   -2.4793169   -1.3099595  0.071605105   -2.4793169    1.1693574   476190 
  357000    1.0145369   -2.4825066   -2.4825066    -1.310759  0.079915523   -2.4825066    1.1717476   476190 
  358000    1.0130802   -2.4804016   -2.4804016   -1.3103364  0.072888604   -2.4804016    1.1700652   476190 
  359000    1.0122407   -2.4797489   -2.4797489   -1.3106533  0.074140943   -2.4797489    1.1690957   476190 
  360000    1.0120861   -2.4796181   -2.4796181    -1.310701  0.069972128   -2.4796181    1.1689171   476190 
  361000    1.0124014   -2.4800402   -2.4800402    -1.310759   0.06919101   -2.4800402    1.1692811   476190 
  362000    1.0128941   -2.4801463   -2.4801463   -1.3102961  0.076322518   -2.4801463    1.1698502   476190 
  363000    1.0148226   -2.4829185   -2.4829185   -1.3108409  0.067875654   -2.4829185    1.1720775   476190 
  364000    1.0118568   -2.4805179   -2.4805179   -1.3118657  0.068828056   -2.4805179    1.1686522   476190 
  365000    1.0127199   -2.4811882   -2.4811882   -1.3115392  0.070679437   -2.4811882     1.169649   476190 
  366000    1.0118695   -2.4800945   -2.4800945   -1.3114277   0.06783254   -2.4800945    1.1686669   476190 
  367000    1.0132541   -2.4810569   -2.4810569   -1.3107909  0.068526447   -2.4810569     1.170266   476190 
  368000    1.0114261   -2.4789588   -2.4789588    -1.310804  0.074868392   -2.4789588    1.1681548   476190 
  369000    1.0126027   -2.4802607   -2.4802607    -1.310747  0.077243947   -2.4802607    1.1695137   476190 
  370000    1.0127611   -2.4812098   -2.4812098   -1.3115132   0.06987782   -2.4812098    1.1696966   476190 
  371000    1.0125201     -2.48095     -2.48095   -1.3115318  0.067708921     -2.48095    1.1694182   476190 
  372000    1.0113215   -2.4797734   -2.4797734   -1.3117395  0.070626564   -2.4797734    1.1680339   476190 
  373000    1.0127614   -2.4820953   -2.4820953   -1.3123984  0.071336824   -2.4820953     1.169697   476190 
  374000    1.0129195   -2.4822001   -2.4822001   -1.3123205  0.068736325   -2.4822001    1.1698795   476190 
  375000    1.0122988   -2.4815936   -2.4815936   -1.3124309   0.06994922   -2.4815936    1.1691627   476190 
  376000    1.0113173   -2.4804443   -2.4804443   -1.3124151  0.070107971   -2.4804443    1.1680292   476190 
  377000    1.0125805    -2.482604    -2.482604   -1.3131159  0.067198243    -2.482604    1.1694881   476190 
  378000    1.0109049   -2.4796249   -2.4796249   -1.3120721  0.075095748   -2.4796249    1.1675528   476190 
  379000    1.0126978   -2.4819909   -2.4819909   -1.3123674  0.072127769   -2.4819909    1.1696235   476190 
  380000    1.0132695   -2.4827598   -2.4827598    -1.312476    0.0664549   -2.4827598    1.1702838   476190 
  381000    1.0128138   -2.4811857   -2.4811857   -1.3114281  0.064184335   -2.4811857    1.1697575   476190 
  382000    1.0113163   -2.4804136   -2.4804136   -1.3123857  0.068247816   -2.4804136    1.1680279   476190 
  383000     1.010842   -2.4797194   -2.4797194   -1.3122392  0.067983552   -2.4797194    1.1674802   476190 
  384000    1.0120247    -2.481656    -2.481656   -1.3128098  0.066512609    -2.481656    1.1688462   476190 
  385000    1.0114526   -2.4826288   -2.4826288   -1.3144435  0.069047795   -2.4826288    1.1681854   476190 
  386000    1.0113491   -2.4814398   -2.4814398   -1.3133739  0.067641291   -2.4814398    1.1680658   476190 
  387000    1.0136338   -2.4831334   -2.4831334   -1.3124289  0.067246608   -2.4831334    1.1707045   476190 
  388000    1.0132633   -2.4823265   -2.4823265   -1.3120498  0.075482659   -2.4823265    1.1702766   476190 
  389000    1.0123993   -2.4821255   -2.4821255   -1.3128468  0.074832928   -2.4821255    1.1692787   476190 
  390000     1.012106   -2.4821052   -2.4821052   -1.3131651   0.07247189   -2.4821052    1.1689401   476190 
  391000    1.0139923   -2.4835351   -2.4835351   -1.3124165  0.065619849   -2.4835351    1.1711186   476190 
  392000     1.014638    -2.482938    -2.482938   -1.3110736   0.07191139    -2.482938    1.1718644   476190 
  393000     1.013661   -2.4825519   -2.4825519   -1.3118159  0.073087517   -2.4825519     1.170736   476190 
  394000    1.0124712   -2.4820436   -2.4820436   -1.3126819    0.0661487   -2.4820436    1.1693618   476190 
  395000    1.0140628   -2.4837353   -2.4837353   -1.3125353  0.071586435   -2.4837353       1.1712   476190 
  396000    1.0123463   -2.4811768   -2.4811768   -1.3119592  0.068343471   -2.4811768    1.1692176   476190 
  397000    1.0129481    -2.483165    -2.483165   -1.3132523  0.061075333    -2.483165    1.1699127   476190 
  398000    1.0117638    -2.482341    -2.482341   -1.3137962   0.06511886    -2.482341    1.1685448   476190 
  399000    1.0118872   -2.4811932   -2.4811932   -1.3125058  0.076021357   -2.4811932    1.1686874   476190 
  400000    1.0125338   -2.4826405   -2.4826405   -1.3132064  0.071803049   -2.4826405    1.1694341   476190 
  401000    1.0116435   -2.4815503   -2.4815503   -1.3131444   0.07169224   -2.4815503    1.1684059   476190 
  402000    1.0124799   -2.4814887   -2.4814887   -1.3121168  0.070834519   -2.4814887    1.1693719   476190 
  403000    1.0127325   -2.4812246   -2.4812246    -1.311561  0.071753528   -2.4812246    1.1696636   476190 
  404000    1.0116217    -2.481047    -2.481047   -1.3126663  0.064644253    -2.481047    1.1683807   476190 
  405000    1.0122605   -2.4821262   -2.4821262   -1.3130077  0.069898304   -2.4821262    1.1691185   476190 
  406000    1.0127301   -2.4838745   -2.4838745   -1.3142136  0.066445045   -2.4838745    1.1696609   476190 
  407000    1.0110351   -2.4825958   -2.4825958   -1.3148926   0.07581053   -2.4825958    1.1677032   476190 
  408000    1.0110183   -2.4823406   -2.4823406   -1.3146568  0.070960265   -2.4823406    1.1676838   476190 
  409000    1.0133905   -2.4847324   -2.4847324   -1.3143088  0.065287253   -2.4847324    1.1704236   476190 
  410000    1.0129063   -2.4845313   -2.4845313   -1.3146669  0.070030996   -2.4845313    1.1698643   476190 
  411000    1.0136832   -2.4837864   -2.4837864   -1.3130247  0.075487294   -2.4837864    1.1707617   476190 
  412000     1.013737   -2.4832615   -2.4832615   -1.3124377   0.07641043   -2.4832615    1.1708238   476190 
  413000    1.0128716   -2.4825456   -2.4825456   -1.3127214  0.069384266   -2.4825456    1.1698242   476190 
  414000    1.0137309   -2.4836821   -2.4836821   -1.3128653  0.068530862   -2.4836821    1.1708167   476190 
  415000    1.0141559   -2.4839594   -2.4839594   -1.3126518  0.077590087   -2.4839594    1.1713075   476190 
  416000    1.0120016   -2.4823552   -2.4823552   -1.3135357  0.074258585   -2.4823552    1.1688195   476190 
  417000    1.0142174   -2.4853227   -2.4853227   -1.3139441   0.06687417   -2.4853227    1.1713786   476190 
  418000     1.012212   -2.4828726   -2.4828726   -1.3138102   0.06875264   -2.4828726    1.1690624   476190 
  419000    1.0120414   -2.4835809   -2.4835809   -1.3147154  0.077493243   -2.4835809    1.1688654   476190 
  420000    1.0119672   -2.4827484   -2.4827484   -1.3139687  0.069144587   -2.4827484    1.1687797   476190 
  421000    1.0119808   -2.4831333   -2.4831333   -1.3143378  0.063237037   -2.4831333    1.1687955   476190 
  422000     1.013123   -2.4831298   -2.4831298   -1.3130151  0.065208891   -2.4831298    1.1701146   476190 
  423000    1.0104149   -2.4813406   -2.4813406   -1.3143537  0.079508323   -2.4813406    1.1669869   476190 
  424000    1.0110402   -2.4828459   -2.4828459   -1.3151368   0.06678406   -2.4828459    1.1677091   476190 
  425000    1.0113333   -2.4829902   -2.4829902   -1.3149426  0.065504116   -2.4829902    1.1680476   476190 
  426000    1.0117972    -2.482317    -2.482317   -1.3137337  0.066332826    -2.482317    1.1685833   476190 
  427000    1.0117963   -2.4814629   -2.4814629   -1.3128806  0.074743296   -2.4814629    1.1685823   476190 
  428000    1.0130085   -2.4837466   -2.4837466   -1.3137643  0.066073328   -2.4837466    1.1699823   476190 
  429000    1.0134132   -2.4841254   -2.4841254   -1.3136757  0.068876723   -2.4841254    1.1704497   476190 
  430000    1.0134306   -2.4842734   -2.4842734   -1.3138035  0.062977819   -2.4842734    1.1704699   476190 
  431000    1.0136193   -2.4845151   -2.4845151   -1.3138273  0.066721285   -2.4845151    1.1706878   476190 
  432000    1.0138133   -2.4839247   -2.4839247   -1.3130129  0.073464786   -2.4839247    1.1709118   476190 
  433000    1.0115704   -2.4821037   -2.4821037   -1.3137822  0.075845763   -2.4821037    1.1683215   476190 
  434000    1.0103083   -2.4802857   -2.4802857   -1.3134219  0.073646691   -2.4802857    1.1668638   476190 
  435000    1.0129665   -2.4824744   -2.4824744   -1.3125406  0.073844899   -2.4824744    1.1699338   476190 
  436000    1.0140441   -2.4834068   -2.4834068   -1.3122284  0.079456196   -2.4834068    1.1711785   476190 
  437000    1.0117363   -2.4820122   -2.4820122   -1.3134992  0.073824189   -2.4820122    1.1685131   476190 
  438000    1.0132199   -2.4826475   -2.4826475    -1.312421  0.069230671   -2.4826475    1.1702266   476190 
  439000    1.0129498   -2.4829256   -2.4829256    -1.313011  0.071558161   -2.4829256    1.1699146   476190 
  440000       1.0132    -2.482902    -2.482902   -1.3126984  0.070116965    -2.482902    1.1702035   476190 
  441000    1.0131976   -2.4836337   -2.4836337    -1.313433  0.066220187   -2.4836337    1.1702008   476190 
  442000    1.0134047   -2.4841829   -2.4841829    -1.313743  0.074558682   -2.4841829      1.17044   476190 
  443000    1.0142343   -2.4845611   -2.4845611   -1.3131629  0.068941243   -2.4845611    1.1713982   476190 
  444000    1.0133567   -2.4831553   -2.4831553   -1.3127707  0.069316703   -2.4831553    1.1703846   476190 
  445000    1.0128316   -2.4841288   -2.4841288   -1.3143507  0.063055958   -2.4841288    1.1697781   476190 
  446000     1.012206   -2.4842347   -2.4842347   -1.3151792  0.065542749   -2.4842347    1.1690555   476190 
  447000    1.0122083   -2.4837995   -2.4837995   -1.3147413  0.063184737   -2.4837995    1.1690582   476190 
  448000     1.012062   -2.4824378   -2.4824378   -1.3135487  0.075671448   -2.4824378    1.1688892   476190 
  449000    1.0136996   -2.4851317   -2.4851317   -1.3143512  0.065010883   -2.4851317    1.1707805   476190 
  450000    1.0118121   -2.4832696   -2.4832696    -1.314669  0.071092228   -2.4832696    1.1686006   476190 
  451000    1.0129684   -2.4843022   -2.4843022   -1.3143661  0.068175016   -2.4843022    1.1699361   476190 
  452000    1.0130844   -2.4843129   -2.4843129   -1.3142429  0.066297798   -2.4843129      1.17007   476190 
  453000    1.0124773   -2.4843554   -2.4843554   -1.3149866  0.074234996   -2.4843554    1.1693688   476190 
  454000    1.0116804   -2.4828628   -2.4828628   -1.3144143  0.073339793   -2.4828628    1.1684485   476190 
  455000    1.0124164   -2.4837549   -2.4837549   -1.3144563  0.075733039   -2.4837549    1.1692986   476190 
  456000    1.0128642   -2.4845131   -2.4845131   -1.3146974  0.079387957   -2.4845131    1.1698157   476190 
  457000    1.0136978   -2.4844026   -2.4844026   -1.3136241  0.067203819   -2.4844026    1.1707785   476190 
  458000    1.0129955   -2.4844468   -2.4844468   -1.3144794  0.066427814   -2.4844468    1.1699674   476190 
  459000    1.0103889   -2.4828912   -2.4828912   -1.3159343  0.068072524   -2.4828912    1.1669568   476190 
  460000    1.0121031   -2.4837539   -2.4837539   -1.3148171  0.072512369   -2.4837539    1.1689367   476190 
  461000    1.0117287   -2.4843841   -2.4843841   -1.3158798  0.068792361   -2.4843841    1.1685043   476190 
  462000    1.0100919   -2.4828066   -2.4828066   -1.3161928  0.072112285   -2.4828066    1.1666138   476190 
  463000    1.0109605   -2.4838007   -2.4838007   -1.3161836   0.06339983   -2.4838007     1.167617   476190 
  464000    1.0128319   -2.4871571   -2.4871571   -1.3173786  0.066339946   -2.4871571    1.1697784   476190 
  465000    1.0117089   -2.4858415   -2.4858415   -1.3173601  0.067650038   -2.4858415    1.1684814   476190 
  466000    1.0117611   -2.4855221   -2.4855221   -1.3169804  0.068156501   -2.4855221    1.1685416   476190 
  467000    1.0127304   -2.4866089   -2.4866089   -1.3169476  0.071410941   -2.4866089    1.1696612   476190 
  468000    1.0125257   -2.4860943   -2.4860943   -1.3166695  0.067513397   -2.4860943    1.1694248   476190 
  469000    1.0127235   -2.4852748   -2.4852748   -1.3156217  0.074535393   -2.4852748    1.1696532   476190 
  470000    1.0124013     -2.48579     -2.48579    -1.316509  0.072857208     -2.48579    1.1692811   476190 
  471000    1.0138989   -2.4867491   -2.4867491   -1.3157383  0.065633855   -2.4867491    1.1710108   476190 
  472000    1.0113688   -2.4841694   -2.4841694   -1.3160808  0.080388534   -2.4841694    1.1680886   476190 
  473000    1.0129423   -2.4865712   -2.4865712   -1.3166653  0.065743374   -2.4865712    1.1699059   476190 
  474000    1.0123762   -2.4852851   -2.4852851    -1.316033  0.067102658   -2.4852851    1.1692521   476190 
  475000    1.0130398    -2.485908    -2.485908   -1.3158894  0.073482558    -2.485908    1.1700185   476190 
  476000    1.0134511    -2.486746    -2.486746   -1.3162524  0.074269051    -2.486746    1.1704936   476190 
  477000    1.0131453   -2.4880688   -2.4880688   -1.3179285  0.068238754   -2.4880688    1.1701403   476190 
  478000    1.0123243   -2.4866347   -2.4866347   -1.3174425  0.059743921   -2.4866347    1.1691922   476190 
  479000    1.0109114   -2.4850994   -2.4850994   -1.3175392  0.073013827   -2.4850994    1.1675603   476190 
  480000    1.0129281   -2.4863162   -2.4863162   -1.3164268  0.073398459   -2.4863162    1.1698895   476190 
  481000     1.014611   -2.4873347   -2.4873347   -1.3155015  0.071848847   -2.4873347    1.1718332   476190 
  482000    1.0125277   -2.4852022   -2.4852022   -1.3157752  0.071332999   -2.4852022     1.169427   476190 
  483000     1.013038   -2.4858915   -2.4858915   -1.3158751  0.074607787   -2.4858915    1.1700164   476190 
  484000    1.0153355   -2.4878297   -2.4878297   -1.3151597   0.06974637   -2.4878297      1.17267   476190 
  485000    1.0137308   -2.4864342   -2.4864342   -1.3156175  0.073707591   -2.4864342    1.1708167   476190 
  486000    1.0135112   -2.4854705   -2.4854705   -1.3149075  0.081255479   -2.4854705     1.170563   476190 
  487000    1.0134258   -2.4852872   -2.4852872   -1.3148228  0.077314685   -2.4852872    1.1704643   476190 
  488000    1.0127834    -2.484333    -2.484333   -1.3146106  0.075430955    -2.484333    1.1697224   476190 
  489000    1.0118096   -2.4834911   -2.4834911   -1.3148933  0.068611944   -2.4834911    1.1685977   476190 
  490000     1.011314   -2.4828882   -2.4828882   -1.3148629  0.068690813   -2.4828882    1.1680253   476190 
  491000       1.0126   -2.4848074   -2.4848074   -1.3152968  0.065136316   -2.4848074    1.1695106   476190 
  492000    1.0129841   -2.4857495   -2.4857495   -1.3157953  0.068057552   -2.4857495    1.1699542   476190 
  493000    1.0116825   -2.4827443   -2.4827443   -1.3142933    0.0714218   -2.4827443    1.1684509   476190 
  494000    1.0106229    -2.482276    -2.482276   -1.3150488  0.069032895    -2.482276    1.1672271   476190 
  495000    1.0119849   -2.4828732   -2.4828732    -1.314073  0.072877858   -2.4828732    1.1688002   476190 
  496000    1.0129297   -2.4828372   -2.4828372   -1.3129458  0.077204205   -2.4828372    1.1698914   476190 
  497000    1.0131242   -2.4826349   -2.4826349   -1.3125189   0.07195276   -2.4826349     1.170116   476190 
  498000     1.010509   -2.4810419   -2.4810419   -1.3139464  0.066419865   -2.4810419    1.1670955   476190 
  499000    1.0106523   -2.4807038   -2.4807038   -1.3134427  0.062564673   -2.4807038     1.167261   476190 
  500000    1.0091904    -2.479001    -2.479001   -1.3134283  0.062912046    -2.479001    1.1655726   476190 
  501000    1.0127951   -2.4813607   -2.4813607   -1.3116248  0.071898779   -2.4813607    1.1697359   476190 
  502000    1.0120214   -2.4813245   -2.4813245   -1.3124821  0.069318895   -2.4813245    1.1688424   476190 
  503000    1.0101314    -2.479547    -2.479547   -1.3128876  0.073490542    -2.479547    1.1666594   476190 
  504000    1.0119104    -2.481565    -2.481565   -1.3128509  0.061560463    -2.481565    1.1687142   476190 
  505000    1.0093835   -2.4795528   -2.4795528   -1.3137571  0.070518048   -2.4795528    1.1657957   476190 
  506000    1.0116727   -2.4826441   -2.4826441   -1.3142045  0.065448387   -2.4826441    1.1684396   476190 
  507000    1.0116031   -2.4823139   -2.4823139   -1.3139546  0.063953011   -2.4823139    1.1683593   476190 
  508000    1.0118061   -2.4826591   -2.4826591   -1.3140654  0.074523184   -2.4826591    1.1685937   476190 
  509000    1.0111782   -2.4821791   -2.4821791   -1.3143107  0.063505259   -2.4821791    1.1678684   476190 
  510000    1.0097916   -2.4815919   -2.4815919   -1.3153249  0.075845758   -2.4815919     1.166267   476190 
  511000    1.0114341   -2.4824802   -2.4824802   -1.3143162  0.069507961   -2.4824802     1.168164   476190 
  512000    1.0125536   -2.4832322   -2.4832322   -1.3137752  0.067470085   -2.4832322     1.169457   476190 
  513000    1.0121348   -2.4831774   -2.4831774   -1.3142042  0.065130084   -2.4831774    1.1689733   476190 
  514000    1.0121448   -2.4832578   -2.4832578    -1.314273   0.06867438   -2.4832578    1.1689848   476190 
  515000    1.0126519   -2.4845187   -2.4845187   -1.3149482  0.071872322   -2.4845187    1.1695705   476190 
  516000    1.0136189   -2.4850006   -2.4850006   -1.3143132  0.072790939   -2.4850006    1.1706873   476190 
  517000    1.0131046   -2.4851254   -2.4851254   -1.3150321  0.068308515   -2.4851254    1.1700934   476190 
  518000    1.0121557   -2.4842993   -2.4842993   -1.3153018  0.067457475   -2.4842993    1.1689975   476190 
  519000    1.0117291   -2.4843833   -2.4843833   -1.3158786      0.06759   -2.4843833    1.1685047   476190 
  520000    1.0135723   -2.4867208   -2.4867208   -1.3160873  0.077602975   -2.4867208    1.1706335   476190 
  521000    1.0140602   -2.4867533   -2.4867533   -1.3155562  0.074684385   -2.4867533     1.171197   476190 
  522000      1.01282     -2.48553     -2.48553   -1.3157654  0.082158856     -2.48553    1.1697647   476190 
  523000    1.0124906   -2.4861896   -2.4861896   -1.3168054   0.07559641   -2.4861896    1.1693842   476190 
  524000    1.0135256   -2.4866703   -2.4866703   -1.3160907  0.072844748   -2.4866703    1.1705796   476190 
  525000    1.0121928    -2.486129    -2.486129   -1.3170887  0.072310465    -2.486129    1.1690403   476190 
  526000     1.011903    -2.487036    -2.487036   -1.3183304  0.073431091    -2.487036    1.1687056   476190 
  527000    1.0108916   -2.4875233   -2.4875233   -1.3199858  0.069676368   -2.4875233    1.1675374   476190 
  528000    1.0127865   -2.4895799   -2.4895799   -1.3198539   0.06001599   -2.4895799     1.169726   476190 
  529000    1.0109427   -2.4882551   -2.4882551   -1.3206586   0.07022107   -2.4882551    1.1675965   476190 
  530000    1.0098371   -2.4874946   -2.4874946    -1.321175  0.069280565   -2.4874946    1.1663195   476190 
  531000     1.011306   -2.4892638   -2.4892638   -1.3212477  0.069080219   -2.4892638    1.1680161   476190 
  532000    1.0116707   -2.4900275   -2.4900275   -1.3215902  0.063270687   -2.4900275    1.1684373   476190 
  533000     1.011102   -2.4885272   -2.4885272   -1.3207467  0.073934808   -2.4885272    1.1677805   476190 
  534000    1.0104322   -2.4867795   -2.4867795   -1.3197727  0.070642265   -2.4867795    1.1670069   476190 
  535000    1.0114551   -2.4879238   -2.4879238   -1.3197356  0.069303439   -2.4879238    1.1681883   476190 
  536000    1.0119018   -2.4891519   -2.4891519   -1.3204477  0.071667646   -2.4891519    1.1687041   476190 
  537000    1.0122001   -2.4891051   -2.4891051   -1.3200563  0.070069174   -2.4891051    1.1690488   476190 
  538000    1.0113001   -2.4892335   -2.4892335   -1.3212242  0.070753217   -2.4892335    1.1680092   476190 
  539000    1.0111638   -2.4878311   -2.4878311   -1.3199793  0.067400344   -2.4878311    1.1678519   476190 
  540000    1.0117484   -2.4885887   -2.4885887   -1.3200616  0.070368997   -2.4885887    1.1685271   476190 
  541000    1.0118356   -2.4893853   -2.4893853   -1.3207576  0.066783461   -2.4893853    1.1686277   476190 
  542000    1.0130604   -2.4904514   -2.4904514   -1.3204092  0.071706644   -2.4904514    1.1700423   476190 
  543000    1.0110582   -2.4880379   -2.4880379    -1.320308  0.069361908   -2.4880379    1.1677299   476190 
  544000    1.0107731   -2.4883442   -2.4883442   -1.3209436  0.067205854   -2.4883442    1.1674006   476190 
  545000    1.0101273   -2.4876736   -2.4876736   -1.3210189  0.076707808   -2.4876736    1.1666547   476190 
  546000    1.0103766   -2.4875311   -2.4875311   -1.3205884   0.06322006   -2.4875311    1.1669426   476190 
  547000    1.0098919   -2.4880428   -2.4880428     -1.32166  0.073573074   -2.4880428    1.1663828   476190 
  548000    1.0105397    -2.489264    -2.489264    -1.322133  0.065787189    -2.489264     1.167131   476190 
  549000     1.010861   -2.4893435   -2.4893435   -1.3218414  0.065179433   -2.4893435    1.1675021   476190 
  550000    1.0108418   -2.4896926   -2.4896926   -1.3222127  0.065735487   -2.4896926      1.16748   476190 
  551000    1.0111237   -2.4906659   -2.4906659   -1.3228604  0.064605152   -2.4906659    1.1678056   476190 
  552000    1.0095988   -2.4875511   -2.4875511   -1.3215068  0.069802041   -2.4875511    1.1660443   476190 
  553000    1.0101481   -2.4882538   -2.4882538   -1.3215751  0.069942876   -2.4882538    1.1666787   476190 
  554000    1.0106083   -2.4879007   -2.4879007   -1.3206904  0.068002674   -2.4879007    1.1672102   476190 
  555000    1.0105259   -2.4876999   -2.4876999   -1.3205848  0.063211611   -2.4876999    1.1671151   476190 
  556000    1.0112978   -2.4871241   -2.4871241   -1.3191176  0.067335686   -2.4871241    1.1680066   476190 
  557000    1.0100915   -2.4877984   -2.4877984    -1.321185  0.069646024   -2.4877984    1.1666134   476190 
  558000    1.0099794   -2.4877513   -2.4877513   -1.3212674  0.070796189   -2.4877513    1.1664839   476190 
  559000    1.0099769   -2.4870794   -2.4870794   -1.3205984  0.071289706   -2.4870794     1.166481   476190 
  560000    1.0101013    -2.488103    -2.488103   -1.3214784  0.071556239    -2.488103    1.1666246   476190 
  561000    1.0097394   -2.4873696   -2.4873696   -1.3211629  0.077296013   -2.4873696    1.1662067   476190 
  562000     1.009996    -2.486868    -2.486868    -1.320365  0.079257143    -2.486868    1.1665031   476190 
  563000    1.0097712   -2.4872348   -2.4872348   -1.3209914   0.06956283   -2.4872348    1.1662434   476190 
  564000    1.0107716   -2.4892059   -2.4892059   -1.3218071  0.065409397   -2.4892059    1.1673988   476190 
  565000    1.0114646   -2.4892048   -2.4892048   -1.3210055  0.076193763   -2.4892048    1.1681992   476190 
  566000    1.0103395   -2.4879099   -2.4879099   -1.3210101  0.072118609   -2.4879099    1.1668999   476190 
  567000    1.0111663   -2.4887136   -2.4887136   -1.3208589  0.068101513   -2.4887136    1.1678547   476190 
  568000    1.0125028   -2.4900972   -2.4900972   -1.3206988  0.065236206   -2.4900972    1.1693983   476190 
  569000    1.0112261   -2.4890743   -2.4890743   -1.3211505  0.074775845   -2.4890743    1.1679238   476190 
  570000    1.0114314   -2.4895412   -2.4895412   -1.3213803   0.06569935   -2.4895412    1.1681609   476190 
  571000    1.0139491   -2.4914401   -2.4914401   -1.3203714  0.077629787   -2.4914401    1.1710687   476190 
  572000    1.0121046   -2.4900095   -2.4900095   -1.3210711    0.0666054   -2.4900095    1.1689384   476190 
  573000    1.0108925   -2.4879828   -2.4879828   -1.3204443  0.069278767   -2.4879828    1.1675385   476190 
  574000    1.0110739   -2.4882479   -2.4882479   -1.3204999  0.064861631   -2.4882479     1.167748   476190 
  575000    1.0107139   -2.4886375   -2.4886375   -1.3213053  0.071060451   -2.4886375    1.1673322   476190 
  576000    1.0117358   -2.4899988   -2.4899988   -1.3214864  0.076489738   -2.4899988    1.1685125   476190 
  577000    1.0103506   -2.4885367   -2.4885367   -1.3216241   0.06600587   -2.4885367    1.1669126   476190 
  578000    1.0122208   -2.4895743   -2.4895743   -1.3205016  0.073799498   -2.4895743    1.1690727   476190 
  579000    1.0105135   -2.4888435   -2.4888435   -1.3217427  0.066143304   -2.4888435    1.1671008   476190 
  580000    1.0080073   -2.4858678   -2.4858678   -1.3216616  0.067696657   -2.4858678    1.1642063   476190 
  581000      1.00832   -2.4855475   -2.4855475   -1.3209802  0.054517105   -2.4855475    1.1645674   476190 
  582000      1.00847   -2.4868438   -2.4868438   -1.3221031  0.065093453   -2.4868438    1.1647406   476190 
  583000    1.0093099   -2.4871339   -2.4871339   -1.3214232  0.068404888   -2.4871339    1.1657107   476190 
  584000    1.0108159   -2.4882566   -2.4882566   -1.3208065  0.073187263   -2.4882566    1.1674501   476190 
  585000    1.0106668   -2.4875322   -2.4875322   -1.3202544    0.0633833   -2.4875322    1.1672778   476190 
  586000    1.0109887   -2.4872828   -2.4872828   -1.3196332  0.067281767   -2.4872828    1.1676496   476190 
  587000    1.0109946    -2.487938    -2.487938   -1.3202816  0.060252977    -2.487938    1.1676564   476190 
  588000     1.008928   -2.4857843   -2.4857843   -1.3205148  0.069056908   -2.4857843    1.1652696   476190 
  589000    1.0094085   -2.4859237   -2.4859237   -1.3200993  0.069415769   -2.4859237    1.1658245   476190 
  590000    1.0102433   -2.4866232   -2.4866232   -1.3198346  0.071922953   -2.4866232    1.1667886   476190 
  591000    1.0097183   -2.4877601   -2.4877601   -1.3215778  0.076898054   -2.4877601    1.1661823   476190 
  592000    1.0114921   -2.4889222   -2.4889222   -1.3206912  0.077439249   -2.4889222     1.168231   476190 
  593000    1.0100463   -2.4867035   -2.4867035   -1.3201423  0.071196991   -2.4867035    1.1665612   476190 
  594000     1.011886    -2.489936    -2.489936     -1.32125   0.07131018    -2.489936     1.168686   476190 
  595000    1.0102547   -2.4874879   -2.4874879    -1.320686  0.073454367   -2.4874879    1.1668019   476190 
  596000    1.0108154   -2.4883748   -2.4883748   -1.3209254  0.073524006   -2.4883748    1.1674494   476190 
  597000    1.0110745   -2.4885057   -2.4885057    -1.320757  0.069150046   -2.4885057    1.1677487   476190 
  598000    1.0119825   -2.4893243   -2.4893243   -1.3205268  0.071469626   -2.4893243    1.1687974   476190 
  599000    1.0107387   -2.4880287   -2.4880287   -1.3206679  0.074633751   -2.4880287    1.1673609   476190 
  600000    1.0119496   -2.4890471   -2.4890471   -1.3202877  0.077345572   -2.4890471    1.1687594   476190 
  601000    1.0143979   -2.4910539   -2.4910539   -1.3194668  0.067419171   -2.4910539     1.171587   476190 
  602000    1.0140504   -2.4900895   -2.4900895   -1.3189038  0.062487666   -2.4900895    1.1711858   476190 
  603000    1.0136187   -2.4888701   -2.4888701    -1.318183  0.072140426   -2.4888701    1.1706871   476190 
  604000    1.0124537   -2.4893652   -2.4893652   -1.3200236  0.070142543   -2.4893652    1.1693416   476190 
  605000    1.0119424   -2.4889022   -2.4889022   -1.3201511  0.071053401   -2.4889022    1.1687511   476190 
  606000    1.0126363   -2.4898291   -2.4898291   -1.3202767   0.06496191   -2.4898291    1.1695525   476190 
  607000    1.0126383   -2.4903458   -2.4903458    -1.320791  0.064260313   -2.4903458    1.1695548   476190 
  608000    1.0109594   -2.4887752   -2.4887752   -1.3211595  0.067831588   -2.4887752    1.1676158   476190 
  609000    1.0102325   -2.4882105   -2.4882105   -1.3214343   0.07305172   -2.4882105    1.1667762   476190 
  610000    1.0106085    -2.488244    -2.488244   -1.3210334  0.072957382    -2.488244    1.1672105   476190 
  611000    1.0107926   -2.4882389   -2.4882389   -1.3208158  0.062743199   -2.4882389    1.1674231   476190 
  612000     1.011711    -2.487458    -2.487458   -1.3189741  0.066502085    -2.487458    1.1684838   476190 
  613000    1.0111943   -2.4879915   -2.4879915   -1.3201045  0.066878208   -2.4879915    1.1678871   476190 
  614000    1.0124351   -2.4897801   -2.4897801     -1.32046  0.068137843   -2.4897801    1.1693201   476190 
  615000    1.0116216   -2.4884699   -2.4884699   -1.3200894  0.063248169   -2.4884699    1.1683805   476190 
  616000    1.0100687   -2.4868306   -2.4868306   -1.3202435  0.068556772   -2.4868306     1.166587   476190 
  617000    1.0110831   -2.4877256   -2.4877256    -1.319967  0.066300382   -2.4877256    1.1677586   476190 
  618000    1.0092951   -2.4855527   -2.4855527   -1.3198591  0.070215698   -2.4855527    1.1656936   476190 
  619000     1.010896   -2.4869491   -2.4869491   -1.3194066  0.065931236   -2.4869491    1.1675425   476190 
  620000    1.0117767    -2.488552    -2.488552   -1.3199923   0.06613115    -2.488552    1.1685597   476190 
  621000    1.0107646   -2.4873273   -2.4873273   -1.3199365  0.068596914   -2.4873273    1.1673908   476190 
  622000    1.0096657   -2.4855415   -2.4855415   -1.3194199  0.073655235   -2.4855415    1.1661216   476190 
  623000    1.0099969   -2.4854363   -2.4854363   -1.3189322  0.066133235   -2.4854363     1.166504   476190 
  624000    1.0088726   -2.4854238   -2.4854238   -1.3202182  0.063046975   -2.4854238    1.1652056   476190 
  625000    1.0099139    -2.486143    -2.486143   -1.3197347  0.068552872    -2.486143    1.1664083   476190 
  626000    1.0089373    -2.485559    -2.485559   -1.3202787  0.064890949    -2.485559    1.1652803   476190 
  627000    1.0097757   -2.4882944   -2.4882944   -1.3220458  0.067038904   -2.4882944    1.1662487   476190 
  628000    1.0100876   -2.4876405   -2.4876405   -1.3210316  0.073181045   -2.4876405    1.1666089   476190 
  629000    1.0112834   -2.4881731   -2.4881731   -1.3201832  0.068668501   -2.4881731    1.1679899   476190 
  630000    1.0115195   -2.4878828   -2.4878828   -1.3196201  0.068038812   -2.4878828    1.1682626   476190 
  631000    1.0117248   -2.4879708   -2.4879708    -1.319471  0.071394189   -2.4879708    1.1684998   476190 
  632000    1.0120967   -2.4884801   -2.4884801   -1.3195508  0.065777619   -2.4884801    1.1689293   476190 
  633000    1.0116947   -2.4874965   -2.4874965   -1.3190315  0.071468985   -2.4874965     1.168465   476190 
  634000     1.013283   -2.4896073   -2.4896073   -1.3193079  0.080778271   -2.4896073    1.1702994   476190 
  635000    1.0130099    -2.489715    -2.489715   -1.3197311  0.072708777    -2.489715     1.169984   476190 
  636000    1.0131445   -2.4893721   -2.4893721   -1.3192327  0.072685543   -2.4893721    1.1701395   476190 
  637000     1.013921   -2.4899364   -2.4899364   -1.3189002  0.072196445   -2.4899364    1.1710362   476190 
  638000    1.0128186   -2.4903853   -2.4903853   -1.3206222   0.07030637   -2.4903853    1.1697631   476190 
  639000    1.0127608    -2.490044    -2.490044   -1.3203477  0.073282188    -2.490044    1.1696963   476190 
  640000    1.0112816   -2.4874697   -2.4874697   -1.3194818  0.073650204   -2.4874697    1.1679879   476190 
  641000    1.0107591   -2.4877071   -2.4877071   -1.3203227  0.070719252   -2.4877071    1.1673844   476190 
  642000    1.0100304    -2.487346    -2.487346   -1.3208032  0.067263712    -2.487346    1.1665428   476190 
  643000    1.0103056   -2.4872059   -2.4872059   -1.3203453   0.06997906   -2.4872059    1.1668606   476190 
[...]
 9831000    1.0032778   -2.5323695   -2.5323695   -1.3736257  0.061897337   -2.5323695    1.1587439   476190 
 9832000    1.0049279   -2.5335995   -2.5335995   -1.3729499  0.068793005   -2.5335995    1.1606496   476190 
 9833000    1.0040437   -2.5330169   -2.5330169   -1.3733885  0.070590885   -2.5330169    1.1596285   476190 
 9834000     1.005406   -2.5357764   -2.5357764   -1.3745747  0.063491845   -2.5357764    1.1612018   476190 
 9835000    1.0035642   -2.5330845   -2.5330845   -1.3740098  0.063779966   -2.5330845    1.1590746   476190 
 9836000    1.0039722   -2.5327922   -2.5327922   -1.3732464  0.061715092   -2.5327922    1.1595458   476190 
 9837000    1.0059122   -2.5345329   -2.5345329   -1.3727465  0.064034317   -2.5345329    1.1617864   476190 
 9838000     1.006003   -2.5355896   -2.5355896   -1.3736983  0.064696908   -2.5355896    1.1618913   476190 
 9839000    1.0048927   -2.5341579   -2.5341579   -1.3735489  0.067191472   -2.5341579    1.1606089   476190 
 9840000    1.0043735   -2.5337144   -2.5337144   -1.3737051  0.066636478   -2.5337144    1.1600093   476190 
 9841000    1.0033849   -2.5320756   -2.5320756   -1.3732081  0.072474132   -2.5320756    1.1588675   476190 
 9842000     1.004298   -2.5319971   -2.5319971   -1.3720749  0.064225792   -2.5319971    1.1599221   476190 
 9843000    1.0036131   -2.5332603   -2.5332603   -1.3741292  0.076651237   -2.5332603    1.1591311   476190 
 9844000    1.0042125   -2.5318293   -2.5318293   -1.3720059  0.071091841   -2.5318293    1.1598234   476190 
 9845000    1.0058527   -2.5333397   -2.5333397   -1.3716219  0.062404457   -2.5333397    1.1617177   476190 
 9846000    1.0046532   -2.5322939   -2.5322939   -1.3719616  0.064438822   -2.5322939    1.1603323   476190 
 9847000    1.0050128   -2.5319151   -2.5319151   -1.3711675  0.066169608   -2.5319151    1.1607476   476190 
 9848000    1.0056371   -2.5317417   -2.5317417   -1.3702729  0.063739008   -2.5317417    1.1614688   476190 
 9849000    1.0063636   -2.5316994   -2.5316994   -1.3693916  0.068874308   -2.5316994    1.1623077   476190 
 9850000     1.003581   -2.5294496   -2.5294496   -1.3703556  0.060051552   -2.5294496     1.159094   476190 
 9851000    1.0045118   -2.5297393   -2.5297393   -1.3695702  0.067528454   -2.5297393    1.1601691   476190 
 9852000     1.002929   -2.5282012   -2.5282012   -1.3698601  0.073207415   -2.5282012     1.158341   476190 
 9853000    1.0035589   -2.5303335   -2.5303335    -1.371265  0.062320383   -2.5303335    1.1590685   476190 
 9854000    1.0033261   -2.5282953   -2.5282953   -1.3694957   0.06151092   -2.5282953    1.1587997   476190 
 9855000    1.0024912   -2.5281977   -2.5281977   -1.3703624   0.06017897   -2.5281977    1.1578353   476190 
 9856000    1.0025688   -2.5271233   -2.5271233   -1.3691984  0.063966877   -2.5271233    1.1579249   476190 
 9857000    1.0034549   -2.5285647   -2.5285647   -1.3696163  0.063550821   -2.5285647    1.1589483   476190 
 9858000    1.0021577   -2.5268224   -2.5268224   -1.3693722  0.066721892   -2.5268224    1.1574501   476190 
 9859000    1.0021435   -2.5263742   -2.5263742   -1.3689405  0.059594691   -2.5263742    1.1574337   476190 
 9860000    1.0045721   -2.5293181   -2.5293181   -1.3690794  0.065615836   -2.5293181    1.1602387   476190 
 9861000    1.0030138   -2.5275664   -2.5275664   -1.3691274  0.057907696   -2.5275664    1.1584389   476190 
 9862000    1.0030573    -2.527274    -2.527274   -1.3687847  0.071618988    -2.527274    1.1584892   476190 
 9863000    1.0046047   -2.5283959   -2.5283959   -1.3681196  0.064870135   -2.5283959    1.1602763   476190 
 9864000    1.0028921   -2.5271331   -2.5271331   -1.3688348  0.071512729   -2.5271331    1.1582984   476190 
 9865000    1.0025621   -2.5262777   -2.5262777   -1.3683605  0.065274076   -2.5262777    1.1579172   476190 
 9866000     1.004778   -2.5277649   -2.5277649   -1.3672884  0.058727581   -2.5277649    1.1604765   476190 
 9867000    1.0039883   -2.5255818   -2.5255818   -1.3660174  0.078969256   -2.5255818    1.1595644   476190 
 9868000    1.0038771     -2.52621     -2.52621   -1.3667741  0.068613156     -2.52621    1.1594359   476190 
 9869000    1.0043507   -2.5276107   -2.5276107   -1.3676278  0.064143017   -2.5276107    1.1599829   476190 
 9870000    1.0046899   -2.5272633   -2.5272633   -1.3668887  0.069906783   -2.5272633    1.1603747   476190 
 9871000    1.0064846   -2.5283744   -2.5283744   -1.3659268   0.06568379   -2.5283744    1.1624475   476190 
 9872000    1.0056419   -2.5278048   -2.5278048   -1.3663306  0.064394344   -2.5278048    1.1614742   476190 
 9873000    1.0043823   -2.5270082   -2.5270082   -1.3669887  0.071931217   -2.5270082    1.1600195   476190 
 9874000    1.0061245   -2.5300566   -2.5300566   -1.3680249  0.060071902   -2.5300566    1.1620316   476190 
 9875000     1.005188   -2.5283929   -2.5283929   -1.3674429  0.069063612   -2.5283929      1.16095   476190 
 9876000    1.0034819   -2.5258885   -2.5258885   -1.3669089  0.063757742   -2.5258885    1.1589796   476190 
 9877000    1.0055104   -2.5288084   -2.5288084    -1.367486  0.068649467   -2.5288084    1.1613224   476190 
 9878000    1.0044759   -2.5282664   -2.5282664   -1.3681388    0.0703591   -2.5282664    1.1601276   476190 
 9879000    1.0047226    -2.529057    -2.529057   -1.3686445   0.06233852    -2.529057    1.1604125   476190 
 9880000    1.0038209    -2.526754    -2.526754   -1.3673829  0.074154305    -2.526754    1.1593711   476190 
 9881000    1.0036955    -2.526968    -2.526968   -1.3677417  0.067779397    -2.526968    1.1592263   476190 
 9882000    1.0035833   -2.5260616   -2.5260616    -1.366965  0.069053066   -2.5260616    1.1590967   476190 
 9883000    1.0039719   -2.5284463   -2.5284463   -1.3689009  0.073067499   -2.5284463    1.1595455   476190 
 9884000    1.0025355   -2.5272282   -2.5272282   -1.3693417  0.069201451   -2.5272282    1.1578865   476190 
 9885000     1.004402    -2.528245    -2.528245   -1.3682027  0.064092686    -2.528245    1.1600422   476190 
 9886000    1.0050811   -2.5287317   -2.5287317   -1.3679052  0.067144588   -2.5287317    1.1608265   476190 
 9887000     1.005195   -2.5290193   -2.5290193   -1.3680612  0.071842467   -2.5290193    1.1609581   476190 
 9888000    1.0037038   -2.5278845   -2.5278845   -1.3686487  0.061889976   -2.5278845    1.1592358   476190 
 9889000     1.004684   -2.5283096   -2.5283096   -1.3679417  0.070148925   -2.5283096     1.160368   476190 
 9890000    1.0038127   -2.5278925   -2.5278925    -1.368531  0.069696933   -2.5278925    1.1593616   476190 
 9891000    1.0058298   -2.5295436   -2.5295436   -1.3678524  0.066358006   -2.5295436    1.1616912   476190 
 9892000     1.003187   -2.5269507   -2.5269507   -1.3683117  0.067283221   -2.5269507     1.158639   476190 
 9893000    1.0031753   -2.5272294   -2.5272294    -1.368604  0.071129288   -2.5272294    1.1586254   476190 
 9894000    1.0041805   -2.5279919   -2.5279919   -1.3682056  0.058763665   -2.5279919    1.1597864   476190 
 9895000    1.0029781   -2.5277325   -2.5277325   -1.3693349  0.066162768   -2.5277325    1.1583977   476190 
 9896000    1.0034046   -2.5280095   -2.5280095   -1.3691192  0.074258198   -2.5280095    1.1588903   476190 
 9897000    1.0056222   -2.5301239   -2.5301239   -1.3686723  0.065245746   -2.5301239    1.1614515   476190 
 9898000    1.0030537   -2.5274172   -2.5274172   -1.3689322  0.067031546   -2.5274172    1.1584851   476190 
 9899000    1.0039442   -2.5282381   -2.5282381   -1.3687246  0.061022371   -2.5282381    1.1595135   476190 
 9900000    1.0024272   -2.5266732   -2.5266732   -1.3689117  0.064768685   -2.5266732    1.1577615   476190 
 9901000    1.0036226   -2.5284603   -2.5284603   -1.3693183  0.075682263   -2.5284603     1.159142   476190 
 9902000    1.0049508   -2.5302357   -2.5302357   -1.3695596  0.060755169   -2.5302357    1.1606761   476190 
 9903000     1.003257   -2.5282112   -2.5282112   -1.3694913  0.065262334   -2.5282112    1.1587198   476190 
 9904000     1.003406   -2.5288124   -2.5288124   -1.3699205  0.064129495   -2.5288124    1.1588919   476190 
 9905000    1.0031887   -2.5288801   -2.5288801   -1.3702392  0.060874956   -2.5288801    1.1586409   476190 
 9906000    1.0034072   -2.5282657   -2.5282657   -1.3693725  0.071809864   -2.5282657    1.1588932   476190 
 9907000    1.0039931   -2.5284347   -2.5284347   -1.3688647   0.06154696   -2.5284347      1.15957   476190 
 9908000    1.0026356    -2.526742    -2.526742   -1.3687399  0.063900772    -2.526742    1.1580021   476190 
 9909000    1.0049605   -2.5286323   -2.5286323   -1.3679451  0.061297601   -2.5286323    1.1606872   476190 
 9910000    1.0028116    -2.527256    -2.527256   -1.3690506  0.068537589    -2.527256    1.1582054   476190 
 9911000     1.001724   -2.5266619   -2.5266619   -1.3697125  0.066414421   -2.5266619    1.1569493   476190 
 9912000    1.0043216   -2.5280042   -2.5280042   -1.3680549  0.066763322   -2.5280042    1.1599493   476190 
 9913000    1.0040273   -2.5287151   -2.5287151   -1.3691057   0.06736791   -2.5287151    1.1596094   476190 
 9914000    1.0045015   -2.5275162   -2.5275162   -1.3673591  0.069888387   -2.5275162    1.1601571   476190 
 9915000    1.0045354   -2.5275169   -2.5275169   -1.3673206  0.067957211   -2.5275169    1.1601963   476190 
 9916000    1.0040751   -2.5274116   -2.5274116    -1.367747  0.074308775   -2.5274116    1.1596647   476190 
 9917000    1.0039705    -2.528015    -2.528015   -1.3684711  0.065714941    -2.528015    1.1595439   476190 
 9918000    1.0047741   -2.5288635   -2.5288635   -1.3683915   0.07597404   -2.5288635     1.160472   476190 
 9919000    1.0039355   -2.5280959   -2.5280959   -1.3685925   0.06697988   -2.5280959    1.1595035   476190 
 9920000    1.0041621   -2.5284789   -2.5284789   -1.3687138  0.070558305   -2.5284789    1.1597651   476190 
 9921000    1.0028045   -2.5269625   -2.5269625   -1.3687653  0.069708653   -2.5269625    1.1581972   476190 
 9922000    1.0021009   -2.5280925   -2.5280925   -1.3707079  0.072954327   -2.5280925    1.1573846   476190 
 9923000    1.0030458   -2.5281014   -2.5281014   -1.3696256  0.064770931   -2.5281014    1.1584758   476190 
 9924000    1.0022747    -2.526942    -2.526942   -1.3693567  0.062691776    -2.526942    1.1575853   476190 
 9925000    1.0019092    -2.525911    -2.525911   -1.3687478  0.063759237    -2.525911    1.1571632   476190 
 9926000     1.002849   -2.5267909   -2.5267909   -1.3685423  0.068248913   -2.5267909    1.1582486   476190 
 9927000    1.0025331   -2.5265151   -2.5265151   -1.3686313  0.064299751   -2.5265151    1.1578838   476190 
 9928000    1.0014553   -2.5248096   -2.5248096   -1.3681707  0.064759929   -2.5248096    1.1566389   476190 
 9929000    1.0040641   -2.5269563   -2.5269563   -1.3673044  0.067203771   -2.5269563    1.1596519   476190 
 9930000    1.0021726   -2.5255386   -2.5255386   -1.3680713   0.06244638   -2.5255386    1.1574673   476190 
 9931000    1.0039044   -2.5261878   -2.5261878   -1.3667203  0.076836619   -2.5261878    1.1594675   476190 
 9932000    1.0056164   -2.5283748   -2.5283748     -1.36693  0.059260383   -2.5283748    1.1614448   476190 
 9933000    1.0038401   -2.5257906   -2.5257906   -1.3663974   0.07317667   -2.5257906    1.1593932   476190 
 9934000    1.0049681   -2.5281152   -2.5281152   -1.3674191  0.057723196   -2.5281152    1.1606961   476190 
 9935000    1.0057078   -2.5280586   -2.5280586   -1.3665082  0.059572702   -2.5280586    1.1615503   476190 
 9936000    1.0052921   -2.5283935   -2.5283935   -1.3673232  0.068091426   -2.5283935    1.1610703   476190 
 9937000    1.0061875   -2.5302401   -2.5302401   -1.3681357  0.065550992   -2.5302401    1.1621044   476190 
 9938000    1.0037643    -2.526649    -2.526649   -1.3673432  0.071445943    -2.526649    1.1593058   476190 
 9939000    1.0028533   -2.5247889   -2.5247889   -1.3665353  0.070782938   -2.5247889    1.1582536   476190 
 9940000    1.0054981   -2.5282692   -2.5282692    -1.366961  0.072173685   -2.5282692    1.1613082   476190 
 9941000    1.0035595   -2.5263067   -2.5263067   -1.3672376  0.066983126   -2.5263067    1.1590692   476190 
 9942000    1.0036843   -2.5278233   -2.5278233     -1.36861  0.063963773   -2.5278233    1.1592134   476190 
 9943000     1.005036   -2.5287352   -2.5287352   -1.3679608  0.062177428   -2.5287352    1.1607744   476190 
 9944000    1.0041252   -2.5280326   -2.5280326     -1.36831  0.063259395   -2.5280326    1.1597226   476190 
 9945000    1.0055788   -2.5298749   -2.5298749   -1.3684735  0.069191803   -2.5298749    1.1614014   476190 
 9946000    1.0040336   -2.5283319   -2.5283319   -1.3687152  0.073363663   -2.5283319    1.1596167   476190 
 9947000    1.0048253   -2.5281779   -2.5281779   -1.3676468  0.067780657   -2.5281779    1.1605311   476190 
 9948000    1.0042031    -2.527471    -2.527471   -1.3676584    0.0671896    -2.527471    1.1598126   476190 
 9949000    1.0037555    -2.527541    -2.527541   -1.3682455  0.064066828    -2.527541    1.1592955   476190 
 9950000    1.0046007   -2.5280504   -2.5280504   -1.3677787  0.065854804   -2.5280504    1.1602718   476190 
 9951000    1.0057078    -2.530017    -2.530017   -1.3684666  0.062779577    -2.530017    1.1615504   476190 
 9952000    1.0040568   -2.5289898   -2.5289898   -1.3693463  0.069665456   -2.5289898    1.1596436   476190 
 9953000    1.0047109   -2.5287688   -2.5287688   -1.3683698  0.069796124   -2.5287688     1.160399   476190 
 9954000    1.0050053   -2.5288483   -2.5288483   -1.3681092  0.067769981   -2.5288483     1.160739   476190 
 9955000    1.0054063   -2.5288196   -2.5288196   -1.3676175  0.066165905   -2.5288196    1.1612022   476190 
 9956000    1.0055161   -2.5286938   -2.5286938   -1.3673649  0.060765989   -2.5286938    1.1613289   476190 
 9957000     1.005024   -2.5291586   -2.5291586    -1.368398  0.065389188   -2.5291586    1.1607606   476190 
 9958000    1.0050854    -2.528406    -2.528406   -1.3675745  0.071487456    -2.528406    1.1608315   476190 
 9959000     1.006125   -2.5289665   -2.5289665   -1.3669343   0.06524571   -2.5289665    1.1620323   476190 
 9960000    1.0043989   -2.5281589   -2.5281589   -1.3681203  0.064791551   -2.5281589    1.1600386   476190 
 9961000    1.0044721   -2.5288822   -2.5288822   -1.3687591  0.057197921   -2.5288822    1.1601232   476190 
 9962000    1.0056428   -2.5300537   -2.5300537   -1.3685784  0.066628286   -2.5300537    1.1614753   476190 
 9963000    1.0041588   -2.5283816   -2.5283816   -1.3686202  0.071813421   -2.5283816    1.1597614   476190 
 9964000    1.0045906   -2.5284182   -2.5284182   -1.3681581  0.061476308   -2.5284182    1.1602601   476190 
 9965000    1.0044925   -2.5285904   -2.5285904   -1.3684437  0.062238683   -2.5285904    1.1601467   476190 
 9966000     1.004486   -2.5273081   -2.5273081   -1.3671688  0.055490334   -2.5273081    1.1601393   476190 
 9967000    1.0036442   -2.5279474   -2.5279474   -1.3687804  0.064797873   -2.5279474     1.159167   476190 
 9968000    1.0037481   -2.5268179   -2.5268179   -1.3675309  0.064229094   -2.5268179     1.159287   476190 
 9969000    1.0058939   -2.5278468   -2.5278468   -1.3660815  0.072029507   -2.5278468    1.1617653   476190 
 9970000    1.0051197   -2.5276708   -2.5276708   -1.3667997  0.067614822   -2.5276708    1.1608711   476190 
 9971000     1.005476   -2.5288848   -2.5288848   -1.3676021  0.062104917   -2.5288848    1.1612827   476190 
 9972000    1.0040671   -2.5276096   -2.5276096   -1.3679541  0.064164826   -2.5276096    1.1596554   476190 
 9973000    1.0047555   -2.5277573   -2.5277573   -1.3673067  0.064064857   -2.5277573    1.1604505   476190 
 9974000    1.0064759     -2.52906     -2.52906   -1.3666225  0.058399596     -2.52906    1.1624375   476190 
 9975000    1.0056768   -2.5276471   -2.5276471   -1.3661326  0.066218116   -2.5276471    1.1615146   476190 
 9976000    1.0030098   -2.5256695   -2.5256695   -1.3672352  0.076233218   -2.5256695    1.1584343   476190 
 9977000    1.0059105   -2.5287784   -2.5287784    -1.366994  0.069654854   -2.5287784    1.1617845   476190 
 9978000    1.0050008   -2.5283856   -2.5283856   -1.3676518  0.059272405   -2.5283856    1.1607338   476190 
 9979000    1.0044941   -2.5282945   -2.5282945   -1.3681458   0.06011421   -2.5282945    1.1601487   476190 
 9980000     1.007351   -2.5299295   -2.5299295   -1.3664813  0.064482119   -2.5299295    1.1634482   476190 
 9981000    1.0056467   -2.5278729   -2.5278729   -1.3663931  0.073172006   -2.5278729    1.1614798   476190 
 9982000    1.0046399   -2.5271944   -2.5271944   -1.3668774  0.071750073   -2.5271944     1.160317   476190 
 9983000    1.0054459   -2.5281577   -2.5281577   -1.3669099  0.065731958   -2.5281577    1.1612479   476190 
 9984000    1.0054731   -2.5274488   -2.5274488   -1.3661695  0.059652529   -2.5274488    1.1612793   476190 
 9985000    1.0040024   -2.5268358   -2.5268358   -1.3672552  0.065654388   -2.5268358    1.1595807   476190 
 9986000    1.0038585   -2.5264714   -2.5264714   -1.3670569  0.071737764   -2.5264714    1.1594145   476190 
 9987000     1.005327   -2.5285498   -2.5285498   -1.3674392   0.06377603   -2.5285498    1.1611105   476190 
 9988000     1.005494    -2.528042    -2.528042   -1.3667386  0.065097189    -2.528042    1.1613034   476190 
 9989000    1.0050881   -2.5266419   -2.5266419   -1.3658072  0.063897173   -2.5266419    1.1608347   476190 
 9990000    1.0057745   -2.5268464   -2.5268464    -1.365219  0.068737574   -2.5268464    1.1616274   476190 
 9991000    1.0049885   -2.5257903   -2.5257903   -1.3650707  0.068452746   -2.5257903    1.1607196   476190 
 9992000     1.005654   -2.5271304   -2.5271304   -1.3656422  0.070006893   -2.5271304    1.1614882   476190 
 9993000    1.0040039   -2.5261978   -2.5261978   -1.3666154   0.06348665   -2.5261978    1.1595824   476190 
 9994000     1.005525   -2.5285213   -2.5285213   -1.3671821  0.063738604   -2.5285213    1.1613392   476190 
 9995000    1.0057253    -2.527272    -2.527272   -1.3657014  0.065109624    -2.527272    1.1615706   476190 
 9996000    1.0057221   -2.5263731   -2.5263731   -1.3648062  0.062275582   -2.5263731    1.1615669   476190 
 9997000    1.0044478   -2.5257005   -2.5257005   -1.3656053  0.063315358   -2.5257005    1.1600951   476190 
 9998000     1.005105   -2.5255434   -2.5255434   -1.3646892  0.068791813   -2.5255434    1.1608542   476190 
 9999000    1.0048454    -2.525448    -2.525448   -1.3648936  0.068559046    -2.525448    1.1605544   476190 
10000000    1.0060274   -2.5265472   -2.5265472   -1.3646277  0.067773454   -2.5265472    1.1619195   476190 
Loop time of 47403 on 64 procs for 10000000 steps with 476190 atoms

Performance: 91133.378 tau/day, 210.957 timesteps/s
99.4% CPU use with 64 MPI tasks x 1 OpenMP threads

MPI task timing breakdown:
Section |  min time  |  avg time  |  max time  |%varavg|  %CPU | %total
-----------------------------------------------------------------------
Pair    | 9969.6     | 15878      | 20781      |2193.7 |  99.3 | 33.50
Bond    | 6.4776     | 6.8804     | 7.2961     |   6.3 | 100.0 |  0.01
Neigh   | 7914.7     | 13193      | 15226      |1685.4 |  99.6 | 27.83
Comm    | 6560.3     | 11933      | 23138      |3952.0 |  99.3 | 25.17
Output  | 301.06     | 302.62     | 306.34     |   8.6 |  98.2 |  0.64
Modify  | 3833.8     | 5577.2     | 7706       |1558.1 |  99.2 | 11.77
Other   |            | 512.4      |            |       |       |  1.08

Nlocal:        7440.47 ave        8184 max        6700 min
Histogram: 5 3 5 9 9 12 6 7 3 5
Nghost:        9743.06 ave       13323 max        5972 min
Histogram: 12 4 1 1 7 9 13 5 8 4
Neighs:        160622.0 ave      219683 max       82429 min
Histogram: 3 1 3 4 7 18 16 4 0 8

Total # of neighbors = 10279833
Ave neighs/atom = 21.587671
Ave special neighs/atom = 0.0000000
Neighbor list builds = 1000000
Dangerous builds = 990000

Total wall time: 13:10:07
