LAMMPS (29 Oct 2020)
  using 1 OpenMP thread(s) per MPI task
# Simple rigid body system
# needed variables:

#variable	startTemp equal 0.5
#variable 	temp 	  equal 0.8

units		lj
atom_style	full
dimension 	3
boundary	p p f
pair_style	lj/cut/opt 2.5

variable 	sigma		equal 1.0
variable 	epsilon 	equal 1.0

region		box block 0 80 0 80 0 160
create_box 	3 box
Created orthogonal box = (0.0000000 0.0000000 0.0000000) to (80.000000 80.000000 160.00000)
  2 by 4 by 8 MPI processor grid



lattice 	sc 0.66
Lattice spacing in x,y,z = 1.1485556 1.1485556 1.1485556
region		fluid block EDGE EDGE EDGE EDGE 2 100 units box
create_atoms 	1 region fluid
Created 421400 atoms
  create_atoms CPU = 0.007 seconds

lattice 	sc 0.045
Lattice spacing in x,y,z = 2.8114422 2.8114422 2.8114422
region		gas block EDGE EDGE EDGE EDGE 101 158 units box
create_atoms    1 region gas
Created 17661 atoms
  create_atoms CPU = 0.006 seconds

group		solvent type 1
439061 atoms in group solvent

mass		1 1.0
mass		2 1.0
mass		3 1.0



neighbor 	0.4 bin

pair_coeff	1 1 1.0 1.0
pair_coeff	2 2 0.0 0.0
pair_coeff	3 3 0.0 0.0
pair_coeff	2 3 0.0 0.0
pair_coeff	1 2*3 0.0 0.0

pair_modify 	shift yes

delete_atoms	overlap 0.5 solvent solvent
System init for delete_atoms ...
Neighbor list info ...
  update every 1 steps, delay 10 steps, check yes
  max neighbors/atom: 2000, page size: 100000
  master list distance cutoff = 2.9
  ghost atom cutoff = 2.9
  binsize = 1.45, bins = 56 56 111
  2 neighbor lists, perpetual/occasional/extra = 1 1 0
  (1) command delete_atoms, occasional
      attributes: full, newton on
      pair build: full/bin
      stencil: full/bin/3d
      bin: standard
  (2) pair lj/cut/opt, perpetual
      attributes: half, newton on
      pair build: half/bin/newton
      stencil: half/bin/3d/newton
      bin: standard
WARNING: Ignoring 'compress yes' for molecular system (src/delete_atoms.cpp:125)
Deleted 0 atoms, new total = 439061

velocity 	solvent create ${startTemp} 563435 loop geom
velocity 	solvent create .65 563435 loop geom

balance 	1.05 shift z 10 1.05
Balancing ...
Neighbor list info ...
  update every 1 steps, delay 10 steps, check yes
  max neighbors/atom: 2000, page size: 100000
  master list distance cutoff = 2.9
  ghost atom cutoff = 2.9
  binsize = 1.45, bins = 56 56 111
  1 neighbor lists, perpetual/occasional/extra = 1 0 0
  (1) pair lj/cut/opt, perpetual
      attributes: half, newton on
      pair build: half/bin/newton
      stencil: half/bin/3d/newton
      bin: standard
 rebalancing time: 0.041 seconds
  iteration count = 5
  initial/final maximal load/proc = 11340.000 8190.0000
  initial/final imbalance factor  = 1.6529822 1.1938204
  x cuts: 0.0000000 0.5 1.0000000
  y cuts: 0.0000000 0.25 0.5 0.75 1.0000000
  z cuts: 0.0000000 0.08984375 0.17578125 0.25390625 0.3359375 0.4140625 0.50390625 0.58203125 1.0000000


####################### WALLS ###########################


variable       epsilonWall equal 2*${epsilon}
variable       epsilonWall equal 2*1

variable       cutoffTop   equal   0.7147*${sigma}
variable       cutoffTop   equal   0.7147*1

variable       cutoffLow   equal   3*${sigma}
variable       cutoffLow   equal   3*1


fix            topWall all wall/lj93 zhi EDGE                ${epsilonWall} ${sigma} ${cutoffTop} units box
fix            topWall all wall/lj93 zhi EDGE                2 ${sigma} ${cutoffTop} units box
fix            topWall all wall/lj93 zhi EDGE                2 1 ${cutoffTop} units box
fix            topWall all wall/lj93 zhi EDGE                2 1 0.7147 units box

fix            lowWall all wall/lj93 zlo EDGE                ${epsilonWall} ${sigma} ${cutoffLow} units box
fix            lowWall all wall/lj93 zlo EDGE                2 ${sigma} ${cutoffLow} units box
fix            lowWall all wall/lj93 zlo EDGE                2 1 ${cutoffLow} units box
fix            lowWall all wall/lj93 zlo EDGE                2 1 3 units box


###################### COMPUTES ##########################

compute        bin1 solvent chunk/atom bin/1d z upper 1.0


######################	FIXES ############################


fix 		peclet solvent ave/chunk 1000 1 1000 bin1 density/number norm 		 none ave one file density.profile

fix 		 temp solvent ave/chunk 1000 1 1000 bin1 temp norm 		 none ave one file temp.profile

fix 		2 solvent nve


## Thermostat


region		regthermo block EDGE EDGE EDGE EDGE 0 20 units box

group 		thermo dynamic solvent region regthermo every 1000
dynamic group thermo defined

fix 		3 thermo langevin ${startTemp} ${temp} 10 156453
fix 		3 thermo langevin .65 ${temp} 10 156453
fix 		3 thermo langevin .65 .65 10 156453



#### Load balancing


fix 		bal all balance 1000 1.05 shift z 10 1.05


############### Diagnostics and computes ###################
#compute 	com cube	  rigid/local	1 mol x y z
#compute 	quat cube	  rigid/local	1 mol quatw quati quatj quatk

thermo 		1000
thermo_style 	custom step temp epair evdwl etotal press pe ke atoms

dump		1 all custom 100000 dump.lammpstrj id mol type x y z
dump 		2 all image 10000 image.*.png type type
dump 		3 all movie 1000 movie.avi type type

#dump 		com cube local 1000 dump.*.xyz c_com[*]
#dump		quat cube      local 1000 dump.*.quat c_quat[*]


restart 	1000000 restart.dat
timestep 	0.005
timer 		full
New timer settings: style=full  mode=nosync  timeout=off

run		5000000
Per MPI rank memory allocation (min/avg/max) = 11.32 | 15.17 | 18.40 Mbytes
Step Temp E_pair E_vdwl TotEng Press PotEng KinEng Atoms 
       0         0.65   -1.2273921   -1.2273921  -0.25239427     3.910554   -1.2273921   0.97499778   439061 
    1000    1.7532329   -3.3820623   -3.3820623  -0.75221895    1.7801658   -3.3820623    2.6298433   439061 
    2000    1.6293599   -3.3846816   -3.3846816  -0.94064739   0.95049996   -3.3846816    2.4440342   439061 
    3000    1.4436796   -3.2806522   -3.2806522   -1.1151378   0.59852982   -3.2806522    2.1655144   439061 
    4000    1.3553736   -3.2828235   -3.2828235   -1.2497677    0.4779751   -3.2828235    2.0330558   439061 
    5000    1.2966295   -3.2751834   -3.2751834   -1.3302436   0.37144399   -3.2751834    1.9449398   439061 
    6000    1.2562757   -3.2580268   -3.2580268   -1.3736176   0.26489202   -3.2580268    1.8844093   439061 
    7000    1.2288193   -3.2442097   -3.2442097    -1.400985    0.2227826   -3.2442097    1.8432247   439061 
    8000    1.2181996   -3.2485744   -3.2485744   -1.4212793   0.23146391   -3.2485744    1.8272952   439061 
    9000    1.2223572   -3.2745861   -3.2745861   -1.4410544   0.27944446   -3.2745861    1.8335317   439061 
   10000    1.2295707   -3.3060426   -3.3060426   -1.4616907   0.33047001   -3.3060426    1.8443519   439061 
   11000    1.2314275   -3.3271691   -3.3271691   -1.4800321   0.35374449   -3.3271691     1.847137   439061 
   12000    1.2232328   -3.3328793   -3.3328793   -1.4980343   0.34015283   -3.3328793    1.8348449   439061 
   13000    1.2161374   -3.3357703   -3.3357703   -1.5115684   0.33139161   -3.3357703    1.8242019   439061 
   14000    1.2048026   -3.3308299   -3.3308299   -1.5236301    0.3260308   -3.3308299    1.8071998   439061 
   15000    1.1925238   -3.3226738   -3.3226738   -1.5338923   0.30357702   -3.3226738    1.7887816   439061 
   16000    1.1716386   -3.3010046   -3.3010046   -1.5435507   0.27156445   -3.3010046    1.7574538   439061 
   17000    1.1495317   -3.2773905   -3.2773905   -1.5530969   0.24595872   -3.2773905    1.7242936   439061 
   18000    1.1314727   -3.2599061   -3.2599061    -1.562701   0.22913467   -3.2599061    1.6972052   439061 
   19000    1.1154742    -3.244618    -3.244618   -1.5714104   0.21382412    -3.244618    1.6732075   439061 
   20000    1.1025351   -3.2366546   -3.2366546   -1.5828557   0.23379059   -3.2366546    1.6537988   439061 
   21000    1.0893497   -3.2356506   -3.2356506   -1.6016297   0.24545265   -3.2356506    1.6340209   439061 
   22000    1.0779637   -3.2424747   -3.2424747   -1.6255328   0.23866363   -3.2424747    1.6169419   439061 
   23000    1.0628996   -3.2403478   -3.2403478   -1.6460019   0.22025509   -3.2403478    1.5943458   439061 
   24000    1.0530752   -3.2428014   -3.2428014   -1.6631922   0.19626436   -3.2428014    1.5796092   439061 
   25000    1.0430842   -3.2438067   -3.2438067    -1.679184    0.1944705   -3.2438067    1.5646227   439061 
   26000    1.0393459   -3.2536976   -3.2536976   -1.6946822   0.19606249   -3.2536976    1.5590153   439061 
   27000    1.0348052   -3.2623155   -3.2623155   -1.7101112   0.19511963   -3.2623155    1.5522042   439061 
   28000    1.0285252   -3.2684504   -3.2684504   -1.7256661   0.19371171   -3.2684504    1.5427843   439061 
   29000    1.0221576   -3.2749665   -3.2749665   -1.7417337   0.18357323   -3.2749665    1.5332328   439061 
   30000    1.0181673   -3.2837232   -3.2837232   -1.7564757   0.17724656   -3.2837232    1.5272475   439061 
   31000    1.0133078   -3.2893307   -3.2893307   -1.7693725   0.17496507   -3.2893307    1.5199582   439061 
   32000    1.0094218    -3.295979    -3.295979   -1.7818496   0.17196594    -3.295979    1.5141293   439061 
   33000    1.0042508   -3.3029231   -3.3029231   -1.7965504   0.16151851   -3.3029231    1.5063727   439061 
   34000   0.99826555   -3.3061605   -3.3061605   -1.8087656   0.16037916   -3.3061605    1.4973949   439061 
   35000   0.99415567   -3.3111147   -3.3111147   -1.8198846   0.15004943   -3.3111147    1.4912301   439061 
   36000   0.98793778   -3.3133045   -3.3133045   -1.8314012   0.14331329   -3.3133045    1.4819033   439061 
   37000   0.98165598   -3.3140915   -3.3140915   -1.8416109    0.1337358   -3.3140915    1.4724806   439061 
   38000   0.97610366   -3.3145489   -3.3145489   -1.8503967   0.13058682   -3.3145489    1.4641521   439061 
   39000   0.97370336   -3.3198504   -3.3198504   -1.8592987   0.12362018   -3.3198504    1.4605517   439061 
   40000   0.96705288   -3.3212584   -3.3212584   -1.8706824   0.11802361   -3.3212584     1.450576   439061 
   41000   0.96320146   -3.3247737   -3.3247737   -1.8799748   0.11326195   -3.3247737    1.4447989   439061 
   42000   0.95879598   -3.3265174   -3.3265174   -1.8883267   0.10784103   -3.3265174    1.4381907   439061 
   43000    0.9513586    -3.324568    -3.324568   -1.8975333   0.10218343    -3.324568    1.4270347   439061 
   44000   0.94879751    -3.328258    -3.328258    -1.905065    0.1008499    -3.328258     1.423193   439061 
   45000   0.94634327   -3.3318695   -3.3318695   -1.9123578  0.097987901   -3.3318695    1.4195117   439061 
   46000   0.94351875   -3.3361324   -3.3361324   -1.9208575  0.092713589   -3.3361324    1.4152749   439061 
   47000   0.94319252   -3.3430895   -3.3430895   -1.9283039  0.087667768   -3.3430895    1.4147856   439061 
   48000   0.94000915   -3.3461682   -3.3461682   -1.9361577  0.082941688   -3.3461682    1.4100105   439061 
   49000   0.93919168   -3.3522335   -3.3522335   -1.9434491  0.086505101   -3.3522335    1.4087843   439061 
   50000   0.93682884    -3.356505    -3.356505   -1.9512649   0.08723529    -3.356505    1.4052401   439061 
   51000   0.93473977   -3.3596648   -3.3596648   -1.9575583  0.079939398   -3.3596648    1.4021065   439061 
   52000   0.93158036   -3.3637874   -3.3637874     -1.96642  0.079062608   -3.3637874    1.3973674   439061 
   53000   0.93216703    -3.371667    -3.371667   -1.9734196  0.078808191    -3.371667    1.3982474   439061 
   54000   0.93097237   -3.3767708   -3.3767708   -1.9803154  0.080795409   -3.3767708    1.3964554   439061 
   55000   0.93105443   -3.3832898   -3.3832898   -1.9867113  0.081464977   -3.3832898    1.3965785   439061 
   56000   0.92806647   -3.3857182   -3.3857182   -1.9936217  0.082179367   -3.3857182    1.3920965   439061 
   57000    0.9295055   -3.3952294   -3.3952294   -2.0009743  0.079128144   -3.3952294    1.3942551   439061 
   58000   0.92855416   -3.3996899   -3.3996899   -2.0068619  0.079595666   -3.3996899    1.3928281   439061 
   59000   0.92607056   -3.4032213   -3.4032213   -2.0141187   0.08206744   -3.4032213    1.3891027   439061 
   60000    0.9241326   -3.4066495   -3.4066495   -2.0204538  0.079829477   -3.4066495    1.3861957   439061 
   61000   0.92337561   -3.4109013   -3.4109013   -2.0258411  0.074847797   -3.4109013    1.3850603   439061 
   62000   0.92121856   -3.4143284   -3.4143284   -2.0325037  0.072636472   -3.4143284    1.3818247   439061 
   63000   0.92150476   -3.4202038   -3.4202038   -2.0379498   0.07771707   -3.4202038     1.382254   439061 
   64000   0.92106155   -3.4254821   -3.4254821   -2.0438929  0.075662037   -3.4254821    1.3815892   439061 
   65000   0.91825574   -3.4277513   -3.4277513   -2.0503708  0.074089409   -3.4277513    1.3773805   439061 
   66000   0.91787349   -3.4330514   -3.4330514   -2.0562443  0.073728038   -3.4330514    1.3768071   439061 
   67000   0.91716931   -3.4391578   -3.4391578   -2.0634069  0.068814662   -3.4391578    1.3757508   439061 
   68000   0.91488356   -3.4411265   -3.4411265   -2.0688043  0.073981992   -3.4411265    1.3723222   439061 
   69000   0.91389831   -3.4464507   -3.4464507   -2.0756063  0.079382002   -3.4464507    1.3708443   439061 
   70000   0.91423727   -3.4530215   -3.4530215   -2.0816687  0.076323212   -3.4530215    1.3713528   439061 
   71000   0.91170064   -3.4560981   -3.4560981   -2.0885502  0.078371698   -3.4560981    1.3675478   439061 
   72000   0.91095286   -3.4603541   -3.4603541   -2.0939279  0.075684602   -3.4603541    1.3664262   439061 
   73000   0.91041137   -3.4652355   -3.4652355   -2.0996216  0.077198728   -3.4652355    1.3656139   439061 
   74000   0.90797523    -3.467218    -3.467218   -2.1052583  0.077559148    -3.467218    1.3619597   439061 
   75000   0.90811484   -3.4727495   -3.4727495   -2.1105804  0.070897101   -3.4727495    1.3621692   439061 
   76000   0.90905183   -3.4791578   -3.4791578   -2.1155831  0.073773937   -3.4791578    1.3635746   439061 
   77000   0.90767021   -3.4841416   -3.4841416   -2.1226394  0.075521538   -3.4841416    1.3615022   439061 
   78000   0.90704564   -3.4880318   -3.4880318   -2.1274665  0.073056774   -3.4880318    1.3605654   439061 
   79000   0.90541537   -3.4927809   -3.4927809    -2.134661  0.074276178   -3.4927809      1.35812   439061 
   80000   0.90503223   -3.4980185   -3.4980185   -2.1404733  0.065576832   -3.4980185    1.3575452   439061 
   81000   0.90520551   -3.5028473   -3.5028473   -2.1450421  0.075066598   -3.5028473    1.3578052   439061 
   82000    0.9049728   -3.5078759   -3.5078759   -2.1504198  0.075665815   -3.5078759    1.3574561   439061 
   83000   0.90426323   -3.5116595   -3.5116595   -2.1552678  0.082120395   -3.5116595    1.3563918   439061 
   84000   0.90463224   -3.5174663   -3.5174663    -2.160521  0.081972323   -3.5174663    1.3569453   439061 
   85000   0.90349131   -3.5207088   -3.5207088   -2.1654749  0.077194271   -3.5207088    1.3552339   439061 
   86000   0.90175465   -3.5234548   -3.5234548   -2.1708259  0.075628068   -3.5234548    1.3526289   439061 
   87000   0.90087303   -3.5277668   -3.5277668   -2.1764603   0.06972306   -3.5277668    1.3513065   439061 
   88000   0.89930941   -3.5303917   -3.5303917   -2.1814307  0.073624077   -3.5303917     1.348961   439061 
   89000   0.90046138   -3.5369622   -3.5369622   -2.1862732  0.072582547   -3.5369622     1.350689   439061 
   90000   0.89965929    -3.540333    -3.540333   -2.1908472  0.075522854    -3.540333    1.3494859   439061 
   91000   0.89983156   -3.5460646   -3.5460646   -2.1963203  0.074923841   -3.5460646    1.3497443   439061 
   92000   0.89872651   -3.5503252   -3.5503252   -2.2022385  0.072304828   -3.5503252    1.3480867   439061 
   93000   0.89740989   -3.5543169   -3.5543169   -2.2082052  0.073406603   -3.5543169    1.3461118   439061 
   94000   0.89546543   -3.5565093   -3.5565093   -2.2133142  0.071560836   -3.5565093    1.3431951   439061 
   95000   0.89607453   -3.5615671   -3.5615671   -2.2174584  0.072204681   -3.5615671    1.3441087   439061 
   96000   0.89383216   -3.5638919   -3.5638919   -2.2231467  0.076418035   -3.5638919    1.3407452   439061 
   97000   0.89533256    -3.570882    -3.570882   -2.2278862  0.074165226    -3.570882    1.3429958   439061 
   98000   0.89318604   -3.5725289   -3.5725289   -2.2327529  0.079644955   -3.5725289     1.339776   439061 
   99000   0.89389828   -3.5786232   -3.5786232   -2.2377788  0.071206463   -3.5786232    1.3408444   439061 
  100000   0.89296193   -3.5802577   -3.5802577   -2.2408179  0.071953332   -3.5802577    1.3394398   439061 
  101000   0.89252742   -3.5832612   -3.5832612   -2.2444732  0.069150287   -3.5832612    1.3387881   439061 
  102000   0.89188615   -3.5880456   -3.5880456   -2.2502194  0.060381625   -3.5880456    1.3378262   439061 
  103000   0.89107555   -3.5919607   -3.5919607   -2.2553504  0.065849845   -3.5919607    1.3366103   439061 
  104000    0.8904625    -3.595448    -3.595448   -2.2597573  0.065062053    -3.595448    1.3356907   439061 
  105000   0.88976138   -3.5987058   -3.5987058   -2.2640668  0.074039971   -3.5987058     1.334639   439061 
  106000   0.88960228   -3.6041922   -3.6041922   -2.2697918  0.065316854   -3.6041922    1.3344004   439061 
  107000    0.8893513   -3.6082486   -3.6082486   -2.2742247  0.068940728   -3.6082486    1.3340239   439061 
  108000   0.88882605   -3.6115804   -3.6115804   -2.2783444  0.067093116   -3.6115804     1.333236   439061 
  109000   0.88623182   -3.6112582   -3.6112582   -2.2819135  0.066550006   -3.6112582    1.3293447   439061 
  110000    0.8853012   -3.6146308   -3.6146308   -2.2866821  0.071111109   -3.6146308    1.3279488   439061 
  111000   0.88529488   -3.6191105   -3.6191105   -2.2911712  0.064931488   -3.6191105    1.3279393   439061 
  112000   0.88602845   -3.6240399   -3.6240399   -2.2950003  0.066222381   -3.6240399    1.3290396   439061 
  113000   0.88485524   -3.6268225   -3.6268225   -2.2995427   0.06893152   -3.6268225    1.3272798   439061 
  114000   0.88461699   -3.6305486   -3.6305486   -2.3036261   0.06287935   -3.6305486    1.3269225   439061 
  115000   0.88343693   -3.6336145   -3.6336145   -2.3084622  0.061892158   -3.6336145    1.3251524   439061 
  116000   0.88253748   -3.6360785   -3.6360785   -2.3122753  0.063656287   -3.6360785    1.3238032   439061 
  117000   0.88165152    -3.640138    -3.640138   -2.3176638  0.062750026    -3.640138    1.3224743   439061 
  118000   0.88261501   -3.6453777   -3.6453777   -2.3214582  0.067232223   -3.6453777    1.3239195   439061 
  119000    0.8809813   -3.6477407   -3.6477407   -2.3262717  0.066920219   -3.6477407    1.3214689   439061 
  120000   0.88017329   -3.6517687   -3.6517687   -2.3315118  0.070464333   -3.6517687    1.3202569   439061 
  121000   0.88011143   -3.6558146   -3.6558146   -2.3356505  0.062617346   -3.6558146    1.3201641   439061 
  122000    0.8795872   -3.6588166   -3.6588166   -2.3394388  0.066190231   -3.6588166    1.3193778   439061 
  123000   0.87952577    -3.663539    -3.663539   -2.3442534  0.068115757    -3.663539    1.3192857   439061 
  124000   0.87905981   -3.6679624   -3.6679624   -2.3493757  0.064939478   -3.6679624    1.3185867   439061 
  125000   0.87998231   -3.6728106   -3.6728106   -2.3528402  0.066530457   -3.6728106    1.3199705   439061 
  126000     0.877641   -3.6738894   -3.6738894   -2.3574309  0.059266575   -3.6738894    1.3164585   439061 
  127000   0.87616198   -3.6766216   -3.6766216   -2.3623816  0.061472585   -3.6766216      1.31424   439061 
  128000   0.87625827   -3.6801851   -3.6801851   -2.3658007  0.067832539   -3.6801851    1.3143844   439061 
  129000   0.87668527   -3.6845121   -3.6845121   -2.3694872  0.064634783   -3.6845121    1.3150249   439061 
  130000   0.87572328   -3.6874308   -3.6874308   -2.3738489  0.068048974   -3.6874308    1.3135819   439061 
  131000   0.87685579   -3.6922782   -3.6922782   -2.3769975  0.064011748   -3.6922782    1.3152807   439061 
  132000   0.87529127   -3.6939691   -3.6939691   -2.3810352  0.063714015   -3.6939691    1.3129339   439061 
  133000   0.87664575   -3.6998423   -3.6998423   -2.3848766  0.057603651   -3.6998423    1.3149656   439061 
  134000   0.87465405   -3.7005056   -3.7005056   -2.3885275  0.067182255   -3.7005056    1.3119781   439061 
  135000   0.87258615   -3.7006507   -3.7006507   -2.3917745  0.071487718   -3.7006507    1.3088762   439061 
  136000   0.87284489    -3.706843    -3.706843   -2.3975787  0.064703811    -3.706843    1.3092643   439061 
  137000   0.87199599   -3.7077276   -3.7077276   -2.3997366  0.069490718   -3.7077276     1.307991   439061 
  138000   0.87368236   -3.7135974   -3.7135974   -2.4030769  0.066330394   -3.7135974    1.3105206   439061 
  139000   0.87313383   -3.7166105   -3.7166105   -2.4069128   0.06576363   -3.7166105    1.3096978   439061 
  140000    0.8718582   -3.7196709   -3.7196709   -2.4118866  0.063882813   -3.7196709    1.3077843   439061 
  141000   0.87113339   -3.7230981   -3.7230981    -2.416401    0.0629021   -3.7230981    1.3066971   439061 
  142000   0.87183697   -3.7264209   -3.7264209   -2.4186684  0.062337641   -3.7264209    1.3077525   439061 
  143000   0.87044135   -3.7278085   -3.7278085   -2.4221494  0.069781497   -3.7278085    1.3056591   439061 
  144000   0.86951083   -3.7303649   -3.7303649   -2.4261016  0.065631049   -3.7303649    1.3042633   439061 
  145000    0.8681274   -3.7308243   -3.7308243   -2.4286361  0.066750933   -3.7308243    1.3021881   439061 
  146000   0.86929943   -3.7376804   -3.7376804   -2.4337343  0.061515578   -3.7376804    1.3039462   439061 
  147000   0.86828003   -3.7398073   -3.7398073   -2.4373903  0.063954791   -3.7398073    1.3024171   439061 
  148000   0.86805299   -3.7420412   -3.7420412   -2.4399647  0.065743445   -3.7420412    1.3020765   439061 
  149000   0.86851393   -3.7458785   -3.7458785   -2.4431106  0.063463335   -3.7458785    1.3027679   439061 
  150000   0.86799335   -3.7482907   -3.7482907   -2.4463036  0.061175701   -3.7482907    1.3019871   439061 
  151000   0.86661175   -3.7504882   -3.7504882   -2.4505735  0.057102459   -3.7504882    1.2999147   439061 
  152000   0.86515682   -3.7516137   -3.7516137   -2.4538814  0.060124312   -3.7516137    1.2977323   439061 
  153000   0.86475568   -3.7541397   -3.7541397   -2.4570092  0.059478408   -3.7541397    1.2971306   439061 
  154000   0.86493307   -3.7590064   -3.7590064   -2.4616098  0.058132615   -3.7590064    1.2973966   439061 
  155000    0.8650842   -3.7624881   -3.7624881   -2.4648647   0.06647592   -3.7624881    1.2976234   439061 
  156000   0.86477147   -3.7656736   -3.7656736   -2.4685194  0.063107354   -3.7656736    1.2971542   439061 
  157000   0.86387372   -3.7683604   -3.7683604   -2.4725528    0.0683514   -3.7683604    1.2958076   439061 
  158000   0.86403821   -3.7717021   -3.7717021   -2.4756477  0.063336168   -3.7717021    1.2960544   439061 
  159000   0.86287978   -3.7728956   -3.7728956   -2.4785789    0.0629447   -3.7728956    1.2943167   439061 
  160000   0.86217424   -3.7772984   -3.7772984     -2.48404  0.054938886   -3.7772984    1.2932584   439061 
  161000    0.8627693   -3.7799652   -3.7799652   -2.4858142  0.058526437   -3.7799652     1.294151   439061 
  162000   0.86087706   -3.7806255   -3.7806255   -2.4893128   0.05968107   -3.7806255    1.2913127   439061 
  163000   0.86195512   -3.7853532   -3.7853532   -2.4924234   0.06256561   -3.7853532    1.2929297   439061 
  164000   0.86013052   -3.7859113   -3.7859113   -2.4957184  0.059034706   -3.7859113    1.2901928   439061 
  165000   0.85954464   -3.7896048   -3.7896048   -2.5002908  0.062332725   -3.7896048     1.289314   439061 
  166000    0.8587151   -3.7929541   -3.7929541   -2.5048844  0.057193298   -3.7929541    1.2880697   439061 
  167000   0.85953494   -3.7982294   -3.7982294   -2.5089299  0.062087991   -3.7982294    1.2892995   439061 
  168000   0.85927846   -3.8018772   -3.8018772   -2.5129625  0.059131096   -3.8018772    1.2889147   439061 
  169000   0.85746492   -3.8024691   -3.8024691   -2.5162746   0.05934237   -3.8024691    1.2861944   439061 
  170000   0.85803173   -3.8065428   -3.8065428   -2.5194981  0.060210858   -3.8065428    1.2870447   439061 
  171000   0.85839931   -3.8093386   -3.8093386   -2.5217425  0.061499973   -3.8093386     1.287596   439061 
  172000   0.85745796   -3.8116653   -3.8116653   -2.5254813   0.06048736   -3.8116653     1.286184   439061 
  173000   0.85723798   -3.8143336   -3.8143336   -2.5284795  0.057877319   -3.8143336     1.285854   439061 
  174000   0.85572138   -3.8137866   -3.8137866   -2.5302075  0.063032195   -3.8137866    1.2835791   439061 
  175000   0.85498449   -3.8161891   -3.8161891   -2.5337153   0.06065441   -3.8161891    1.2824738   439061 
  176000   0.85673652   -3.8213066   -3.8213066   -2.5362047  0.054505235   -3.8213066    1.2851019   439061 
  177000   0.85620304    -3.824048    -3.824048   -2.5397464  0.057430776    -3.824048    1.2843016   439061 
  178000    0.8552251   -3.8257984   -3.8257984   -2.5429637  0.058456015   -3.8257984    1.2828347   439061 
  179000   0.85512363   -3.8293558   -3.8293558   -2.5466733  0.057786182   -3.8293558    1.2826825   439061 
  180000   0.85391082   -3.8309514   -3.8309514   -2.5500881  0.062015544   -3.8309514    1.2808633   439061 
  181000   0.85455887   -3.8337595   -3.8337595   -2.5519241  0.058683635   -3.8337595    1.2818354   439061 
  182000   0.85455019   -3.8375649   -3.8375649   -2.5557426  0.057613474   -3.8375649    1.2818224   439061 
  183000   0.85511885   -3.8414244   -3.8414244    -2.558749   0.05928002   -3.8414244    1.2826754   439061 
  184000   0.85344881   -3.8428024   -3.8428024   -2.5626321  0.059112902   -3.8428024    1.2801703   439061 
  185000   0.85460981   -3.8489195   -3.8489195   -2.5670077  0.060926159   -3.8489195    1.2819118   439061 
  186000   0.85136721   -3.8472619   -3.8472619    -2.570214  0.062775578   -3.8472619    1.2770479   439061 
  187000   0.85269844   -3.8530077   -3.8530077   -2.5739629  0.060203222   -3.8530077    1.2790447   439061 
  188000   0.85205662   -3.8547564   -3.8547564   -2.5766744  0.064457522   -3.8547564     1.278082   439061 
  189000   0.85236573   -3.8584437   -3.8584437    -2.579898  0.060185539   -3.8584437    1.2785457   439061 
  190000     0.851705   -3.8604055   -3.8604055   -2.5828509  0.061384223   -3.8604055    1.2775546   439061 
  191000   0.85116826   -3.8617681   -3.8617681   -2.5850186  0.059095771   -3.8617681    1.2767495   439061 
  192000   0.84973748   -3.8633987   -3.8633987   -2.5887954  0.062246132   -3.8633987    1.2746033   439061 
  193000   0.85031899   -3.8665282   -3.8665282   -2.5910526  0.059080836   -3.8665282    1.2754756   439061 
  194000    0.8485497   -3.8670899   -3.8670899   -2.5942682  0.058799267   -3.8670899    1.2728217   439061 
  195000   0.84798028   -3.8697488   -3.8697488   -2.5977812  0.055322357   -3.8697488    1.2719675   439061 
  196000   0.84822625   -3.8711402   -3.8711402   -2.5988038  0.059540846   -3.8711402    1.2723365   439061 
  197000   0.84805051   -3.8741329   -3.8741329   -2.6020601  0.057057282   -3.8741329    1.2720729   439061 
  198000   0.84898713   -3.8782058   -3.8782058    -2.604728  0.058270676   -3.8782058    1.2734778   439061 
  199000   0.84784211   -3.8797744   -3.8797744   -2.6080142  0.060530637   -3.8797744    1.2717603   439061 
  200000   0.84732856   -3.8819526   -3.8819526   -2.6109626  0.061746238   -3.8819526      1.27099   439061 
  201000   0.84591849   -3.8851916   -3.8851916   -2.6163167   0.06022329   -3.8851916    1.2688748   439061 
  202000   0.84652403   -3.8893646   -3.8893646   -2.6195814  0.056863602   -3.8893646    1.2697832   439061 
  203000   0.84569072   -3.8907766   -3.8907766   -2.6222434  0.063298983   -3.8907766    1.2685332   439061 
  204000   0.84525942   -3.8946235   -3.8946235   -2.6267372  0.057309066   -3.8946235    1.2678862   439061 
  205000   0.84388423    -3.895712    -3.895712   -2.6298885  0.061674911    -3.895712    1.2658235   439061 
  206000   0.84407913   -3.8991852   -3.8991852   -2.6330694  0.058362262   -3.8991852    1.2661158   439061 
  207000    0.8450169    -3.903946    -3.903946   -2.6364235  0.052430242    -3.903946    1.2675225   439061 
  208000   0.84351907    -3.904351    -3.904351   -2.6390753   0.05922525    -3.904351    1.2652757   439061 
  209000   0.84218879   -3.9053129   -3.9053129   -2.6420326   0.05973777   -3.9053129    1.2632803   439061 
  210000   0.84138022   -3.9075748   -3.9075748   -2.6455073  0.052912898   -3.9075748    1.2620675   439061 
  211000   0.84136512   -3.9095267   -3.9095267   -2.6474819  0.055545113   -3.9095267    1.2620448   439061 
  212000   0.84255837    -3.914264    -3.914264   -2.6504293  0.050227536    -3.914264    1.2638347   439061 
  213000    0.8411123   -3.9151132   -3.9151132   -2.6534476  0.056283171   -3.9151132    1.2616656   439061 
  214000   0.84212925   -3.9194777   -3.9194777   -2.6562867  0.058425329   -3.9194777     1.263191   439061 
  215000   0.84088803   -3.9208947   -3.9208947   -2.6595656  0.059486692   -3.9208947    1.2613292   439061 
  216000   0.83941497   -3.9220731   -3.9220731   -2.6629535  0.066279071   -3.9220731    1.2591196   439061 
  217000   0.83901615   -3.9260427   -3.9260427   -2.6675213  0.059914109   -3.9260427    1.2585214   439061 
  218000   0.83987246   -3.9293674   -3.9293674   -2.6695616   0.05974638   -3.9293674    1.2598058   439061 
  219000   0.83962428    -3.932518    -3.932518   -2.6730845  0.058806882    -3.932518    1.2594335   439061 
  220000      0.83929   -3.9351332   -3.9351332   -2.6762011  0.058333613   -3.9351332    1.2589321   439061 
  221000   0.83759826   -3.9350759   -3.9350759   -2.6786814  0.060130194   -3.9350759    1.2563945   439061 
  222000   0.83779126   -3.9373253   -3.9373253   -2.6806413  0.060699273   -3.9373253     1.256684   439061 
  223000   0.83716411   -3.9394013   -3.9394013    -2.683658  0.056650152   -3.9394013    1.2557433   439061 
  224000   0.83757339   -3.9417154   -3.9417154   -2.6853582  0.060755621   -3.9417154    1.2563572   439061 
  225000    0.8379128   -3.9451606   -3.9451606   -2.6882943  0.056509397   -3.9451606    1.2568663   439061 
  226000   0.83684712   -3.9459529   -3.9459529   -2.6906851  0.056204232   -3.9459529    1.2552678   439061 
  227000    0.8361608   -3.9471964   -3.9471964   -2.6929581  0.055668779   -3.9471964    1.2542383   439061 
  228000   0.83522364   -3.9498657   -3.9498657   -2.6970331  0.049753698   -3.9498657    1.2528326   439061 
  229000   0.83374646   -3.9507521   -3.9507521   -2.7001353  0.052016819   -3.9507521    1.2506168   439061 
  230000   0.83351517   -3.9530102   -3.9530102   -2.7027403  0.050512374   -3.9530102    1.2502699   439061 
  231000   0.83296133   -3.9550117   -3.9550117   -2.7055726  0.054872244   -3.9550117    1.2494392   439061 
  232000   0.83297912   -3.9586357   -3.9586357   -2.7091699  0.053131043   -3.9586357    1.2494658   439061 
  233000    0.8334582   -3.9613299   -3.9613299   -2.7111454  0.058864544   -3.9613299    1.2501845   439061 
  234000   0.83377422   -3.9650688   -3.9650688   -2.7144103  0.061264736   -3.9650688    1.2506585   439061 
  235000   0.83371185   -3.9671646   -3.9671646   -2.7165996  0.056064729   -3.9671646    1.2505649   439061 
  236000   0.83158852   -3.9673909   -3.9673909   -2.7200109  0.056732702   -3.9673909    1.2473799   439061 
  237000   0.83193355   -3.9698685   -3.9698685    -2.721971  0.059240056   -3.9698685    1.2478975   439061 
  238000   0.83176045   -3.9727608   -3.9727608    -2.725123  0.055742973   -3.9727608    1.2476378   439061 
  239000   0.83022305   -3.9729676   -3.9729676   -2.7276359  0.061149524   -3.9729676    1.2453317   439061 
  240000   0.83077107   -3.9777688   -3.9777688    -2.731615  0.050515871   -3.9777688    1.2461538   439061 
  241000   0.82940535    -3.979066    -3.979066   -2.7349609  0.050603451    -3.979066    1.2441052   439061 
  242000   0.82875428   -3.9794509   -3.9794509   -2.7363223  0.058166408   -3.9794509    1.2431286   439061 
  243000   0.83024627    -3.984806    -3.984806   -2.7394395  0.055043625    -3.984806    1.2453666   439061 
  244000    0.8288081   -3.9859885   -3.9859885   -2.7427792  0.052430636   -3.9859885    1.2432093   439061 
  245000   0.82960371   -3.9900435   -3.9900435   -2.7456408  0.054400694   -3.9900435    1.2444027   439061 
  246000   0.82916834   -3.9907607   -3.9907607    -2.747011  0.058199129   -3.9907607    1.2437497   439061 
  247000   0.82859587   -3.9932202   -3.9932202   -2.7503293  0.058354493   -3.9932202     1.242891   439061 
  248000   0.82847943   -3.9963774   -3.9963774   -2.7536611  0.057842924   -3.9963774    1.2427163   439061 
  249000   0.82845423     -3.99895     -3.99895   -2.7562715  0.050328553     -3.99895    1.2426785   439061 
  250000    0.8277408   -4.0005804   -4.0005804    -2.758972  0.051574802   -4.0005804    1.2416084   439061 
  251000    0.8274968   -4.0021136   -4.0021136   -2.7608712  0.057210262   -4.0021136    1.2412424   439061 
  252000   0.82740808   -4.0051368   -4.0051368   -2.7640275   0.05703273   -4.0051368    1.2411093   439061 
  253000   0.82558084    -4.004648    -4.004648   -2.7662796   0.05593185    -4.004648    1.2383684   439061 
  254000   0.82557565   -4.0075197   -4.0075197    -2.769159  0.049898199   -4.0075197    1.2383607   439061 
  255000   0.82391704   -4.0080623   -4.0080623   -2.7721895  0.051919181   -4.0080623    1.2358727   439061 
  256000   0.82477701   -4.0104127   -4.0104127     -2.77325  0.050025999   -4.0104127    1.2371627   439061 
  257000   0.82559531   -4.0143061   -4.0143061    -2.775916  0.050768068   -4.0143061    1.2383901   439061 
  258000   0.82514237   -4.0151395   -4.0151395   -2.7774288  0.055371868   -4.0151395    1.2377107   439061 
  259000   0.82433701   -4.0176909   -4.0176909   -2.7811882  0.055247632   -4.0176909    1.2365027   439061 
  260000   0.82480335   -4.0215725   -4.0215725   -2.7843703  0.053731858   -4.0215725    1.2372022   439061 
  261000   0.82214203   -4.0198608   -4.0198608   -2.7866505  0.059441491   -4.0198608    1.2332102   439061 
  262000     0.822284   -4.0243398   -4.0243398   -2.7909166  0.054513133   -4.0243398    1.2334232   439061 
  263000   0.82182087   -4.0278589   -4.0278589   -2.7951304  0.053083958   -4.0278589    1.2327285   439061 
  264000   0.82266478   -4.0308315   -4.0308315   -2.7968371  0.056513332   -4.0308315    1.2339944   439061 
  265000    0.8225113   -4.0330922   -4.0330922   -2.7993281  0.054826989   -4.0330922    1.2337641   439061 
  266000   0.82127151   -4.0330997   -4.0330997   -2.8011953  0.056389436   -4.0330997    1.2319045   439061 
  267000   0.82103493   -4.0362621   -4.0362621   -2.8047125  0.061402178   -4.0362621    1.2315496   439061 
  268000   0.82168185   -4.0386042   -4.0386042   -2.8060843  0.055170038   -4.0386042      1.23252   439061 
  269000   0.82183804   -4.0413667   -4.0413667   -2.8086125  0.058611132   -4.0413667    1.2327542   439061 
  270000   0.82128253   -4.0437865   -4.0437865   -2.8118655  0.048821256   -4.0437865     1.231921   439061 
  271000   0.82035243   -4.0447003   -4.0447003   -2.8141744  0.054805368   -4.0447003    1.2305258   439061 
  272000   0.81874507    -4.046066    -4.046066   -2.8179512  0.054101731    -4.046066    1.2281148   439061 
  273000   0.81870275   -4.0466078   -4.0466078   -2.8185564   0.05419765   -4.0466078    1.2280513   439061 
  274000   0.81702703   -4.0467908   -4.0467908    -2.821253  0.054520531   -4.0467908    1.2255378   439061 
  275000   0.81821588   -4.0503467   -4.0503467   -2.8230256  0.055301624   -4.0503467     1.227321   439061 
  276000   0.81854421   -4.0538909   -4.0538909   -2.8260774  0.055879258   -4.0538909    1.2278135   439061 
  277000   0.81755547   -4.0551704   -4.0551704     -2.82884  0.054393004   -4.0551704    1.2263304   439061 
  278000   0.81657007    -4.056593    -4.056593   -2.8317407  0.055374435    -4.056593    1.2248523   439061 
  279000   0.81637097   -4.0583292   -4.0583292   -2.8337756  0.050052961   -4.0583292    1.2245537   439061 
  280000   0.81679151   -4.0614166   -4.0614166   -2.8362321  0.048095718   -4.0614166    1.2251845   439061 
  281000   0.81599544   -4.0626256   -4.0626256   -2.8386352  0.048407196   -4.0626256    1.2239904   439061 
  282000   0.81708188   -4.0663774   -4.0663774   -2.8407573   0.05495399   -4.0663774      1.22562   439061 
  283000   0.81595794   -4.0670956   -4.0670956   -2.8431615  0.054593035   -4.0670956    1.2239341   439061 
  284000   0.81602717   -4.0695451   -4.0695451   -2.8455072   0.04911721   -4.0695451     1.224038   439061 
  285000   0.81451503   -4.0712036   -4.0712036   -2.8494339  0.058191909   -4.0712036    1.2217698   439061 
  286000   0.81407845   -4.0716545   -4.0716545   -2.8505396  0.055810355   -4.0716545    1.2211149   439061 
  287000   0.81345004   -4.0734326   -4.0734326   -2.8532603   0.05613035   -4.0734326    1.2201723   439061 
  288000    0.8142705   -4.0768623   -4.0768623   -2.8554593  0.051663701   -4.0768623     1.221403   439061 
  289000   0.81356832   -4.0786843   -4.0786843   -2.8583346  0.051582109   -4.0786843    1.2203497   439061 
  290000   0.81297802   -4.0799482   -4.0799482   -2.8604839  0.050891084   -4.0799482    1.2194643   439061 
  291000   0.81252369   -4.0820376   -4.0820376   -2.8632549  0.047643727   -4.0820376    1.2187828   439061 
  292000   0.81247889   -4.0838048   -4.0838048   -2.8650893  0.050981289   -4.0838048    1.2187156   439061 
  293000   0.81094745   -4.0846867   -4.0846867   -2.8682683  0.060210439   -4.0846867    1.2164184   439061 
  294000    0.8120045    -4.087257    -4.087257    -2.869253  0.054216897    -4.087257     1.218004   439061 
  295000   0.81207432   -4.0893598   -4.0893598   -2.8712511  0.053991984   -4.0893598    1.2181087   439061 
  296000   0.81238804    -4.092271    -4.092271   -2.8736918  0.057531988    -4.092271    1.2185793   439061 
  297000   0.81151057    -4.093847    -4.093847   -2.8765839  0.056690657    -4.093847    1.2172631   439061 
  298000   0.81066223   -4.0952816   -4.0952816    -2.879291  0.054264388   -4.0952816    1.2159906   439061 
  299000    0.8102019   -4.0964248   -4.0964248   -2.8811247  0.054004077   -4.0964248    1.2153001   439061 
  300000   0.80838829    -4.095342    -4.095342   -2.8827623  0.058858788    -4.095342    1.2125797   439061 
  301000   0.80990068    -4.100252    -4.100252   -2.8854037  0.050815267    -4.100252    1.2148483   439061 
  302000   0.80932359   -4.1011654   -4.1011654   -2.8871828  0.051573522   -4.1011654    1.2139826   439061 
  303000   0.80824238   -4.1022286   -4.1022286   -2.8898678  0.052412547   -4.1022286    1.2123608   439061 
  304000   0.80790794   -4.1038874   -4.1038874   -2.8920282  0.051510228   -4.1038874    1.2118591   439061 
  305000   0.80872716   -4.1076547   -4.1076547   -2.8945667  0.048061384   -4.1076547     1.213088   439061 
  306000   0.80817599   -4.1090285   -4.1090285   -2.8967672  0.048997791   -4.1090285    1.2122612   439061 
  307000   0.80798613   -4.1119575   -4.1119575   -2.8999811   0.04755765   -4.1119575    1.2119764   439061 
  308000   0.80685422   -4.1123062   -4.1123062   -2.9020276   0.04820352   -4.1123062    1.2102786   439061 
  309000   0.80800338   -4.1155209   -4.1155209   -2.9035186  0.049741473   -4.1155209    1.2120023   439061 
  310000   0.80745837   -4.1173135   -4.1173135   -2.9061287  0.053580829   -4.1173135    1.2111848   439061 
  311000   0.80724916   -4.1190652   -4.1190652   -2.9081942  0.057135266   -4.1190652     1.210871   439061 
  312000   0.80820305   -4.1240366   -4.1240366   -2.9117348  0.051258763   -4.1240366    1.2123018   439061 
  313000   0.80562871   -4.1229111   -4.1229111   -2.9144708  0.056350924   -4.1229111    1.2084403   439061 
  314000   0.80599018   -4.1266856   -4.1266856   -2.9177031  0.051387744   -4.1266856    1.2089825   439061 
  315000   0.80571419   -4.1272005   -4.1272005    -2.918632  0.056660442   -4.1272005    1.2085685   439061 
  316000   0.80575486   -4.1306533   -4.1306533   -2.9220238  0.049434897   -4.1306533    1.2086295   439061 
  317000   0.80508317   -4.1308307   -4.1308307   -2.9232087  0.051227455   -4.1308307     1.207622   439061 
  318000   0.80412642   -4.1319565   -4.1319565   -2.9257696  0.051119236   -4.1319565    1.2061869   439061 
  319000   0.80395451   -4.1337231   -4.1337231    -2.927794  0.045453835   -4.1337231     1.205929   439061 
  320000   0.80343218   -4.1347197   -4.1347197   -2.9295741  0.047893932   -4.1347197    1.2051455   439061 
  321000   0.80243134   -4.1371447   -4.1371447   -2.9335005  0.052378426   -4.1371447    1.2036443   439061 
  322000   0.80317711   -4.1390638   -4.1390638   -2.9343009  0.047588082   -4.1390638    1.2047629   439061 
  323000   0.80276421     -4.13961     -4.13961   -2.9354664  0.053510973     -4.13961    1.2041436   439061 
  324000   0.80355571   -4.1432277   -4.1432277   -2.9378969  0.053712722   -4.1432277    1.2053308   439061 
  325000   0.80227613   -4.1428328   -4.1428328   -2.9394213  0.054440478   -4.1428328    1.2034115   439061 
  326000   0.80107535   -4.1450314   -4.1450314   -2.9434211  0.052673659   -4.1450314    1.2016103   439061 
  327000   0.80067878    -4.146566    -4.146566   -2.9455506  0.052865997    -4.146566    1.2010154   439061 
  328000   0.79984529   -4.1472889   -4.1472889   -2.9475237  0.050290456   -4.1472889    1.1997652   439061 
  329000   0.80021813   -4.1487915   -4.1487915    -2.948467  0.050566396   -4.1487915    1.2003245   439061 
  330000   0.80148751    -4.152599    -4.152599   -2.9503705  0.040596888    -4.152599    1.2022285   439061 
  331000   0.79878229    -4.150168    -4.150168   -2.9519973  0.049241785    -4.150168    1.1981707   439061 
  332000   0.79938689   -4.1535328   -4.1535328   -2.9544552  0.044412809   -4.1535328    1.1990776   439061 
  333000   0.79884155   -4.1544628   -4.1544628   -2.9562032  0.048421923   -4.1544628    1.1982596   439061 
  334000   0.79679935   -4.1552543   -4.1552543    -2.960058  0.048080703   -4.1552543    1.1951963   439061 
  335000   0.79705714    -4.158101    -4.158101   -2.9625181  0.050648835    -4.158101     1.195583   439061 
  336000   0.79810294   -4.1614283   -4.1614283   -2.9642766  0.049310267   -4.1614283    1.1971517   439061 
  337000   0.79888124   -4.1643674   -4.1643674   -2.9660483  0.045598546   -4.1643674    1.1983191   439061 
  338000   0.79713717   -4.1645057   -4.1645057   -2.9688027  0.052169982   -4.1645057     1.195703   439061 
  339000   0.79702086    -4.167224    -4.167224   -2.9716955  0.052182153    -4.167224    1.1955286   439061 
  340000   0.79729183   -4.1695251   -4.1695251   -2.9735901  0.054304091   -4.1695251     1.195935   439061 
  341000   0.79649462   -4.1707802   -4.1707802    -2.976041  0.051558614   -4.1707802    1.1947392   439061 
  342000   0.79660372   -4.1726206   -4.1726206   -2.9777178  0.051423625   -4.1726206    1.1949029   439061 
  343000    0.7967897   -4.1752114   -4.1752114   -2.9800296  0.047042725   -4.1752114    1.1951818   439061 
  344000   0.79601967   -4.1750144   -4.1750144   -2.9809877  0.047992414   -4.1750144    1.1940268   439061 
  345000   0.79750383   -4.1794433   -4.1794433   -2.9831903  0.050972156   -4.1794433     1.196253   439061 
  346000   0.79508021   -4.1783277   -4.1783277   -2.9857101  0.049580732   -4.1783277    1.1926176   439061 
  347000   0.79484784   -4.1788718   -4.1788718   -2.9866028  0.052096047   -4.1788718     1.192269   439061 
  348000   0.79366091   -4.1798181   -4.1798181   -2.9893295  0.045261161   -4.1798181    1.1904887   439061 
  349000   0.79365557   -4.1834032   -4.1834032   -2.9929226  0.044725185   -4.1834032    1.1904806   439061 
  350000   0.79253693   -4.1833517   -4.1833517    -2.994549  0.041442726   -4.1833517    1.1888027   439061 
  351000     0.792682   -4.1838079   -4.1838079   -2.9947876  0.045615398   -4.1838079    1.1890203   439061 
  352000   0.79329027    -4.186275    -4.186275   -2.9963423  0.044535542    -4.186275    1.1899327   439061 
  353000   0.79361374   -4.1899752   -4.1899752   -2.9995573  0.045243211   -4.1899752    1.1904179   439061 
  354000   0.79422286   -4.1932054   -4.1932054   -3.0018738  0.043679826   -4.1932054    1.1913316   439061 
  355000   0.79258925   -4.1928267   -4.1928267   -3.0039456  0.048333733   -4.1928267    1.1888812   439061 
  356000   0.79138736   -4.1947631   -4.1947631   -3.0076848  0.050357119   -4.1947631    1.1870783   439061 
  357000   0.79099269   -4.1961584   -4.1961584   -3.0096721  0.049996041   -4.1961584    1.1864863   439061 
  358000   0.79254089   -4.2001498   -4.2001498   -3.0113412  0.046936694   -4.2001498    1.1888086   439061 
  359000   0.79121471   -4.2010548   -4.2010548   -3.0142354   0.04861908   -4.2010548    1.1868194   439061 
  360000   0.79119711   -4.2033907   -4.2033907   -3.0165977   0.04755027   -4.2033907     1.186793   439061 
  361000   0.78975037   -4.2047498   -4.2047498    -3.020127  0.047151771   -4.2047498    1.1846229   439061 
  362000   0.78978404   -4.2064384   -4.2064384    -3.021765  0.046534922   -4.2064384    1.1846734   439061 
  363000   0.78938004   -4.2071705   -4.2071705   -3.0231031  0.047931117   -4.2071705    1.1840674   439061 
  364000   0.78919401   -4.2092356   -4.2092356   -3.0254472  0.046171634   -4.2092356    1.1837883   439061 
  365000   0.78929604   -4.2113185   -4.2113185   -3.0273772  0.044688739   -4.2113185    1.1839414   439061 
  366000    0.7891863   -4.2140113   -4.2140113   -3.0302346  0.043658461   -4.2140113    1.1837768   439061 
  367000   0.78834235   -4.2134961   -4.2134961   -3.0309853  0.044871513   -4.2134961    1.1825108   439061 
  368000   0.78651713   -4.2141328   -4.2141328   -3.0343598  0.046634009   -4.2141328     1.179773   439061 
  369000   0.78666107   -4.2163304   -4.2163304   -3.0363415  0.044812637   -4.2163304    1.1799889   439061 
  370000   0.78770756   -4.2202596   -4.2202596   -3.0387009  0.042642054   -4.2202596    1.1815586   439061 
  371000   0.78817034   -4.2210805   -4.2210805   -3.0388276  0.044100592   -4.2210805    1.1822528   439061 
  372000   0.78776148   -4.2224887   -4.2224887   -3.0408492  0.047326357   -4.2224887    1.1816395   439061 
  373000   0.78757051   -4.2246554   -4.2246554   -3.0433024  0.048186163   -4.2246554    1.1813531   439061 
  374000   0.78767416   -4.2265681   -4.2265681   -3.0450596   0.04700965   -4.2265681    1.1815085   439061 
  375000   0.78637672   -4.2275586   -4.2275586   -3.0479962  0.045712963   -4.2275586    1.1795624   439061 
  376000   0.78604276   -4.2282632   -4.2282632   -3.0492018  0.047282004   -4.2282632    1.1790615   439061 
  377000   0.78553529   -4.2299111   -4.2299111   -3.0516108  0.044994787   -4.2299111    1.1783003   439061 
  378000   0.78516477   -4.2321115   -4.2321115    -3.054367  0.044182952   -4.2321115    1.1777445   439061 
  379000   0.78368812   -4.2310557   -4.2310557   -3.0555262  0.047742947   -4.2310557    1.1755295   439061 
  380000   0.78409601   -4.2345214   -4.2345214     -3.05838  0.043141388   -4.2345214    1.1761413   439061 
  381000   0.78257071   -4.2344081   -4.2344081   -3.0605547  0.043275243   -4.2344081    1.1738534   439061 
  382000   0.78344132   -4.2369987   -4.2369987   -3.0618394  0.040570872   -4.2369987    1.1751593   439061 
  383000   0.78217089    -4.237587    -4.237587   -3.0643333  0.038434227    -4.237587    1.1732537   439061 
  384000   0.78325523   -4.2414885   -4.2414885   -3.0666084  0.041618696   -4.2414885    1.1748802   439061 
  385000   0.78305383   -4.2422034   -4.2422034   -3.0676253  0.046413524   -4.2422034    1.1745781   439061 
  386000   0.78399898    -4.245959    -4.245959   -3.0699632  0.043219617    -4.245959    1.1759958   439061 
  387000   0.78484336   -4.2488912   -4.2488912   -3.0716288  0.043580251   -4.2488912    1.1772624   439061 
  388000   0.78331127   -4.2485559   -4.2485559   -3.0735916   0.04997796   -4.2485559    1.1749642   439061 
  389000   0.78315995   -4.2500164   -4.2500164   -3.0752792  0.047441207   -4.2500164    1.1747372   439061 
  390000   0.78260238   -4.2520708   -4.2520708   -3.0781699  0.048399133   -4.2520708    1.1739009   439061 
  391000   0.78082562   -4.2524944   -4.2524944   -3.0812586  0.050808649   -4.2524944    1.1712358   439061 
  392000   0.78172039   -4.2564612   -4.2564612   -3.0838833  0.045335966   -4.2564612    1.1725779   439061 
  393000   0.77957817   -4.2541545   -4.2541545   -3.0847899  0.040485317   -4.2541545    1.1693646   439061 
  394000   0.78084843   -4.2574373   -4.2574373   -3.0861674  0.036300955   -4.2574373      1.17127   439061 
  395000   0.77993937   -4.2587048   -4.2587048   -3.0887984  0.040939777   -4.2587048    1.1699064   439061 
  396000   0.77931357   -4.2596543   -4.2596543   -3.0906866  0.039800213   -4.2596543    1.1689677   439061 
  397000   0.77932956   -4.2615764   -4.2615764   -3.0925848  0.041425589   -4.2615764    1.1689917   439061 
  398000   0.78043706   -4.2645232   -4.2645232   -3.0938702  0.040916912   -4.2645232    1.1706529   439061 
  399000   0.77856669   -4.2631404   -4.2631404    -3.095293  0.047554799   -4.2631404    1.1678474   439061 
  400000   0.77841147   -4.2656222   -4.2656222   -3.0980076  0.047256215   -4.2656222    1.1676145   439061 
  401000    0.7801043   -4.2693931   -4.2693931   -3.0992393  0.044717674   -4.2693931    1.1701538   439061 
  402000   0.77946045   -4.2703032   -4.2703032   -3.1011152  0.045500401   -4.2703032     1.169188   439061 
  403000    0.7795386   -4.2719956   -4.2719956   -3.1026903  0.042121148   -4.2719956    1.1693052   439061 
  404000   0.77849961   -4.2732721   -4.2732721   -3.1055253   0.04195276   -4.2732721    1.1677467   439061 
  405000   0.77742968   -4.2746263   -4.2746263   -3.1084844  0.038358842   -4.2746263    1.1661419   439061 
  406000   0.77794907   -4.2757985   -4.2757985   -3.1088775  0.036538138   -4.2757985     1.166921   439061 
  407000   0.77770617   -4.2774182   -4.2774182   -3.1108616  0.037333478   -4.2774182    1.1665566   439061 
  408000   0.77531185   -4.2757684   -4.2757684   -3.1128033  0.042320878   -4.2757684    1.1629651   439061 
  409000   0.77684054   -4.2781871   -4.2781871   -3.1129289   0.03831351   -4.2781871    1.1652582   439061 
  410000   0.77607379   -4.2790405   -4.2790405   -3.1149325  0.043261196   -4.2790405     1.164108   439061 
  411000   0.77680349   -4.2829748   -4.2829748   -3.1177722   0.04097728   -4.2829748    1.1652026   439061 
  412000   0.77564687   -4.2842633   -4.2842633   -3.1207956  0.041681238   -4.2842633    1.1634677   439061 
  413000   0.77578492   -4.2858632   -4.2858632   -3.1221885  0.042688405   -4.2858632    1.1636747   439061 
  414000   0.77526111   -4.2863952   -4.2863952   -3.1235062  0.040484717   -4.2863952     1.162889   439061 
  415000   0.77701568   -4.2897392   -4.2897392   -3.1242183  0.040320624   -4.2897392    1.1655209   439061 
  416000   0.77608781   -4.2896605   -4.2896605   -3.1255315  0.039510459   -4.2896605    1.1641291   439061 
  417000   0.77507755   -4.2902707   -4.2902707    -3.127657  0.038855263   -4.2902707    1.1626137   439061 
  418000   0.77496658    -4.291117    -4.291117   -3.1286698  0.041719215    -4.291117    1.1624472   439061 
  419000   0.77509181   -4.2925203   -4.2925203   -3.1298852  0.034547683   -4.2925203    1.1626351   439061 
  420000   0.77344366   -4.2920707   -4.2920707   -3.1319078  0.041785499   -4.2920707    1.1601628   439061 
  421000   0.77361946    -4.294964    -4.294964   -3.1345375   0.03587944    -4.294964    1.1604265   439061 
  422000   0.77381212     -4.29603     -4.29603   -3.1353145  0.037825597     -4.29603    1.1607155   439061 
  423000   0.77346935   -4.2971339   -4.2971339   -3.1369325  0.036113625   -4.2971339    1.1602014   439061 
  424000   0.77233205   -4.2975577   -4.2975577   -3.1390623  0.044188766   -4.2975577    1.1584954   439061 
  425000   0.77300672   -4.3003879   -4.3003879   -3.1408804  0.041049574   -4.3003879    1.1595074   439061 
  426000   0.77303803   -4.3027765   -4.3027765   -3.1432221  0.035324611   -4.3027765    1.1595544   439061 
  427000   0.77238659   -4.3041283   -4.3041283    -3.145551  0.037301536   -4.3041283    1.1585772   439061 
  428000   0.77169495   -4.3036535   -4.3036535   -3.1461137  0.042144776   -4.3036535    1.1575398   439061 
  429000   0.77171835    -4.304764    -4.304764   -3.1471892  0.040682736    -4.304764    1.1575749   439061 
  430000   0.77072605   -4.3054817   -4.3054817   -3.1493953  0.042557154   -4.3054817    1.1560864   439061 
  431000   0.77144219   -4.3082263   -4.3082263   -3.1510657  0.039050199   -4.3082263    1.1571607   439061 
  432000   0.77124508   -4.3101317   -4.3101317   -3.1532667    0.0354741   -4.3101317     1.156865   439061 
  433000   0.77108167   -4.3117026   -4.3117026   -3.1550828  0.034121249   -4.3117026    1.1566199   439061 
  434000   0.76984818   -4.3125195   -4.3125195   -3.1577499  0.036962522   -4.3125195    1.1547696   439061 
  435000   0.76906067     -4.31229     -4.31229   -3.1587016  0.044192792     -4.31229    1.1535884   439061 
  436000   0.76962883   -4.3143648   -4.3143648   -3.1599241  0.043112152   -4.3143648    1.1544406   439061 
  437000   0.76991839   -4.3171777   -4.3171777   -3.1623027  0.036704722   -4.3171777     1.154875   439061 
  438000   0.77074533   -4.3192895   -4.3192895   -3.1631742  0.035854326   -4.3192895    1.1561154   439061 
  439000   0.76938093   -4.3197726   -4.3197726   -3.1657038  0.040426229   -4.3197726    1.1540688   439061 
  440000   0.76815617   -4.3203266   -4.3203266    -3.168095  0.039630308   -4.3203266    1.1522316   439061 
  441000   0.76930111   -4.3239649   -4.3239649   -3.1700159   0.03901711   -4.3239649     1.153949   439061 
  442000   0.76829593   -4.3247841   -4.3247841   -3.1723428  0.041338103   -4.3247841    1.1524413   439061 
  443000   0.76900114   -4.3282224   -4.3282224   -3.1747233  0.039178311   -4.3282224    1.1534991   439061 
  444000   0.76855182   -4.3278334   -4.3278334   -3.1750083  0.040548255   -4.3278334    1.1528251   439061 
  445000   0.76923385   -4.3307873   -4.3307873   -3.1769392  0.037260721   -4.3307873    1.1538482   439061 
  446000   0.76766038   -4.3296479   -4.3296479     -3.17816  0.037541567   -4.3296479    1.1514879   439061 
  447000   0.76854764   -4.3328152   -4.3328152   -3.1799964  0.036632929   -4.3328152    1.1528188   439061 
  448000   0.76735554   -4.3326559   -4.3326559   -3.1816252  0.037317478   -4.3326559    1.1510307   439061 
  449000   0.76744746   -4.3352474   -4.3352474   -3.1840788  0.034499184   -4.3352474    1.1511686   439061 
  450000   0.76688576    -4.335709    -4.335709    -3.185383  0.032032345    -4.335709     1.150326   439061 
  451000    0.7667393   -4.3370274   -4.3370274   -3.1869211  0.034448841   -4.3370274    1.1501063   439061 
  452000   0.76595509   -4.3381309   -4.3381309   -3.1892009  0.033169861   -4.3381309      1.14893   439061 
  453000   0.76483339   -4.3386643   -4.3386643   -3.1914168  0.033913378   -4.3386643    1.1472475   439061 
  454000   0.76597828   -4.3421582   -4.3421582   -3.1931934  0.031505142   -4.3421582    1.1489648   439061 
  455000   0.76554089   -4.3433206   -4.3433206   -3.1950119  0.038088099   -4.3433206    1.1483087   439061 
  456000   0.76499914   -4.3446855   -4.3446855   -3.1971894  0.038879055   -4.3446855    1.1474961   439061 
  457000   0.76639504   -4.3476608   -4.3476608   -3.1980709  0.039083051   -4.3476608    1.1495899   439061 
  458000   0.76464796   -4.3468733   -4.3468733    -3.199904  0.040507337   -4.3468733    1.1469693   439061 
  459000    0.7646028   -4.3494025   -4.3494025   -3.2025009  0.034801499   -4.3494025    1.1469016   439061 
  460000    0.7633382   -4.3492451   -4.3492451   -3.2042404  0.037845766   -4.3492451    1.1450047   439061 
  461000   0.76373002   -4.3521924   -4.3521924      -3.2066  0.033336564   -4.3521924    1.1455924   439061 
  462000   0.76354864   -4.3529068   -4.3529068   -3.2075864  0.033535719   -4.3529068    1.1453203   439061 
  463000   0.76432607   -4.3562278   -4.3562278   -3.2097413  0.030803139   -4.3562278    1.1464865   439061 
  464000   0.76315143   -4.3552342   -4.3552342   -3.2105097  0.030982117   -4.3552342    1.1447245   439061 
  465000   0.76271162    -4.356282    -4.356282   -3.2122171  0.034637369    -4.356282    1.1440648   439061 
  466000   0.76378647   -4.3593094   -4.3593094   -3.2136323  0.035967887   -4.3593094    1.1456771   439061 
  467000   0.76322162    -4.359495    -4.359495   -3.2146652  0.037632568    -4.359495    1.1448298   439061 
  468000   0.76282677   -4.3602032   -4.3602032   -3.2159657  0.032163158   -4.3602032    1.1442375   439061 
  469000   0.76395641   -4.3622636   -4.3622636   -3.2163316  0.034932301   -4.3622636     1.145932   439061 
  470000   0.76328427   -4.3627937   -4.3627937   -3.2178699  0.033471057   -4.3627937    1.1449238   439061 
  471000   0.76242651   -4.3637303   -4.3637303   -3.2200932   0.03958056   -4.3637303    1.1436372   439061 
  472000   0.76211106   -4.3651807   -4.3651807   -3.2220167  0.035162402   -4.3651807     1.143164   439061 
  473000   0.76276909   -4.3671524   -4.3671524   -3.2230014  0.030833323   -4.3671524     1.144151   439061 
  474000   0.76042426    -4.365515    -4.365515   -3.2248813   0.03549167    -4.365515    1.1406338   439061 
  475000    0.7620497   -4.3699335   -4.3699335   -3.2268616  0.028734983   -4.3699335     1.143072   439061 
  476000   0.76088188   -4.3699239   -4.3699239   -3.2286037  0.033675382   -4.3699239    1.1413202   439061 
  477000   0.76154397   -4.3729532   -4.3729532   -3.2306398  0.031960363   -4.3729532    1.1423134   439061 
  478000   0.76060384    -4.372824    -4.372824   -3.2319208  0.033479527    -4.372824    1.1409032   439061 
  479000   0.75968344    -4.374145    -4.374145   -3.2346225  0.031752233    -4.374145    1.1395226   439061 
  480000    0.7599693   -4.3754511   -4.3754511   -3.2354997  0.034273498   -4.3754511    1.1399514   439061 
  481000   0.76036825   -4.3780056   -4.3780056   -3.2374558   0.03413851   -4.3780056    1.1405498   439061 
  482000   0.75989916    -4.378807    -4.378807   -3.2389609  0.041710137    -4.378807    1.1398461   439061 
  483000    0.7589353   -4.3786028   -4.3786028   -3.2402025  0.038858549   -4.3786028    1.1384004   439061 
  484000   0.75921026   -4.3815825   -4.3815825   -3.2427697  0.031247255   -4.3815825    1.1388128   439061 
  485000   0.75903861   -4.3828152   -4.3828152   -3.2442599  0.031052736   -4.3828152    1.1385553   439061 
  486000   0.75737115   -4.3827436   -4.3827436   -3.2466894  0.033669266   -4.3827436    1.1360541   439061 
  487000   0.75778699   -4.3853115   -4.3853115   -3.2486336  0.032317111   -4.3853115    1.1366779   439061 
  488000   0.75730346   -4.3854785   -4.3854785   -3.2495259  0.037725919   -4.3854785    1.1359526   439061 
  489000   0.75829963   -4.3879692   -4.3879692   -3.2505223  0.034431692   -4.3879692    1.1374469   439061 
  490000   0.75840252   -4.3895934   -4.3895934   -3.2519922  0.030222592   -4.3895934    1.1376012   439061 
  491000    0.7575567   -4.3900041   -4.3900041   -3.2536716  0.033361284   -4.3900041    1.1363325   439061 
  492000   0.75808334   -4.3931909   -4.3931909   -3.2560684  0.034939337   -4.3931909    1.1371224   439061 
  493000   0.75805293   -4.3945653   -4.3945653   -3.2574885  0.033359758   -4.3945653    1.1370768   439061 
  494000   0.75789378   -4.3953865   -4.3953865   -3.2585485  0.034682353   -4.3953865    1.1368381   439061 
  495000   0.75826899   -4.3970852   -4.3970852   -3.2596843  0.032211859   -4.3970852    1.1374009   439061 
  496000    0.7581595   -4.3979475   -4.3979475   -3.2607108  0.033475725   -4.3979475    1.1372367   439061 
  497000    0.7557309   -4.3967631   -4.3967631   -3.2631693  0.030346497   -4.3967631    1.1335938   439061 
  498000   0.75668601    -4.398841    -4.398841   -3.2638146  0.027275109    -4.398841    1.1350264   439061 
  499000   0.75598082   -4.3986727   -4.3986727   -3.2647041  0.028862204   -4.3986727    1.1339686   439061 
  500000   0.75568287   -4.4005152   -4.4005152   -3.2669935  0.026632055   -4.4005152    1.1335217   439061 
  501000   0.75639807   -4.4018218   -4.4018218   -3.2672273  0.025082453   -4.4018218    1.1345945   439061 
  502000   0.75602544   -4.4026544   -4.4026544   -3.2686188  0.028249004   -4.4026544    1.1340356   439061 
  503000   0.75664694   -4.4060455   -4.4060455   -3.2710777  0.025975361   -4.4060455    1.1349678   439061 
  504000   0.75473921   -4.4050337   -4.4050337   -3.2729275  0.034215183   -4.4050337    1.1321062   439061 
  505000    0.7550556   -4.4079703   -4.4079703   -3.2753895  0.033147469   -4.4079703    1.1325808   439061 
  506000   0.75540478   -4.4101541   -4.4101541   -3.2770495  0.035881109   -4.4101541    1.1331046   439061 
  507000   0.75521315   -4.4107744   -4.4107744   -3.2779572  0.036893876   -4.4107744    1.1328171   439061 
  508000   0.75502696   -4.4109814   -4.4109814   -3.2784436  0.038696228   -4.4109814    1.1325379   439061 
  509000   0.75561388   -4.4145665   -4.4145665   -3.2811482  0.036378881   -4.4145665    1.1334182   439061 
  510000   0.75468194   -4.4156939   -4.4156939   -3.2836735  0.035835055   -4.4156939    1.1320203   439061 
  511000   0.75397665   -4.4158519   -4.4158519   -3.2848896  0.031603326   -4.4158519    1.1309624   439061 
  512000    0.7533634   -4.4168427   -4.4168427   -3.2868001  0.029453466   -4.4168427    1.1300425   439061 
  513000   0.75246013   -4.4178044   -4.4178044   -3.2891168  0.030973202   -4.4178044    1.1286876   439061 
  514000    0.7534704   -4.4206115   -4.4206115   -3.2904084  0.023350066   -4.4206115     1.130203   439061 
  515000   0.75275988   -4.4208399   -4.4208399   -3.2917026  0.025759521   -4.4208399    1.1291373   439061 
  516000   0.75326162   -4.4234256   -4.4234256   -3.2935357  0.023628673   -4.4234256    1.1298899   439061 
  517000   0.75209988   -4.4224032   -4.4224032   -3.2942559  0.032303372   -4.4224032    1.1281473   439061 
  518000   0.75262968    -4.426261    -4.426261    -3.297319  0.027887301    -4.426261    1.1289419   439061 
  519000   0.75079299   -4.4261654   -4.4261654   -3.2999785  0.030471822   -4.4261654    1.1261869   439061 
  520000   0.75312879   -4.4310243   -4.4310243   -3.3013337   0.03014891   -4.4310243    1.1296906   439061 
  521000   0.75332481   -4.4315142   -4.4315142   -3.3015295   0.03189003   -4.4315142    1.1299846   439061 
  522000   0.75268861   -4.4325097   -4.4325097   -3.3034794  0.033750064   -4.4325097    1.1290303   439061 
  523000   0.75205953   -4.4338117   -4.4338117    -3.305725  0.031705936   -4.4338117    1.1280867   439061 
  524000   0.75051621   -4.4331715   -4.4331715   -3.3073998  0.034436005   -4.4331715    1.1257718   439061 
  525000   0.75213796   -4.4371841   -4.4371841   -3.3089798  0.028456414   -4.4371841    1.1282044   439061 
  526000   0.74973106   -4.4357515   -4.4357515   -3.3111575   0.02954172   -4.4357515     1.124594   439061 
  527000   0.75042828   -4.4374978   -4.4374978    -3.311858  0.031494508   -4.4374978    1.1256399   439061 
  528000    0.7489459   -4.4365472   -4.4365472   -3.3131309  0.031240572   -4.4365472    1.1234163   439061 
  529000   0.75036015   -4.4398093   -4.4398093   -3.3142716  0.024373909   -4.4398093    1.1255377   439061 
  530000   0.74970606   -4.4404038   -4.4404038   -3.3158473  0.026712819   -4.4404038    1.1245565   439061 
  531000   0.75064952    -4.442215    -4.442215   -3.3162433  0.027224376    -4.442215    1.1259717   439061 
  532000   0.74950731   -4.4414813   -4.4414813   -3.3172229  0.031394213   -4.4414813    1.1242584   439061 
  533000   0.74959951   -4.4415228   -4.4415228   -3.3171261  0.031460626   -4.4415228    1.1243967   439061 
  534000   0.74968064    -4.444366    -4.444366   -3.3198476  0.029243371    -4.444366    1.1245184   439061 
  535000   0.74981448   -4.4455291   -4.4455291   -3.3208099   0.02806243   -4.4455291    1.1247192   439061 
  536000   0.74989698   -4.4467758   -4.4467758   -3.3219329  0.023858784   -4.4467758    1.1248429   439061 
  537000   0.74897333   -4.4470524   -4.4470524    -3.323595  0.027436176   -4.4470524    1.1234574   439061 
  538000   0.74823274   -4.4475309   -4.4475309   -3.3251843  0.021643881   -4.4475309    1.1223465   439061 
  539000   0.74706382   -4.4480669   -4.4480669   -3.3274738  0.022613278   -4.4480669    1.1205932   439061 
  540000   0.74595344   -4.4479939   -4.4479939   -3.3290663  0.026554008   -4.4479939    1.1189276   439061 
  541000   0.74750599   -4.4527113   -4.4527113   -3.3314549   0.02410603   -4.4527113    1.1212564   439061 
  542000   0.74775243   -4.4538339   -4.4538339   -3.3322078  0.029282002   -4.4538339    1.1216261   439061 
  543000   0.74829075   -4.4570019   -4.4570019   -3.3345684    0.0308714   -4.4570019    1.1224336   439061 
  544000   0.74735165   -4.4574481   -4.4574481   -3.3364232   0.03060547   -4.4574481    1.1210249   439061 
  545000   0.74799362   -4.4599737   -4.4599737   -3.3379858  0.032404984   -4.4599737    1.1219879   439061 
  546000   0.74863464   -4.4621583   -4.4621583   -3.3392089  0.028962979   -4.4621583    1.1229494   439061 
  547000   0.74769528   -4.4616212   -4.4616212   -3.3400808  0.032377073   -4.4616212    1.1215404   439061 
  548000   0.74892332   -4.4645016   -4.4645016   -3.3411192  0.027670639   -4.4645016    1.1233824   439061 
  549000    0.7467341   -4.4629669   -4.4629669   -3.3428683  0.025761438   -4.4629669    1.1200986   439061 
  550000   0.74592632   -4.4634706   -4.4634706   -3.3445837   0.02547663   -4.4634706    1.1188869   439061 
  551000   0.74568773   -4.4639764   -4.4639764   -3.3454473  0.025515316   -4.4639764     1.118529   439061 
  552000   0.74506699   -4.4633749   -4.4633749    -3.345777   0.02523697   -4.4633749    1.1175979   439061 
  553000   0.74438017   -4.4638466   -4.4638466   -3.3472789  0.029414456   -4.4638466    1.1165677   439061 
  554000    0.7444875   -4.4661786   -4.4661786   -3.3494499  0.025218948   -4.4661786    1.1167287   439061 
  555000   0.74427963   -4.4672577   -4.4672577   -3.3508408  0.024659526   -4.4672577    1.1164169   439061 
  556000   0.74445401   -4.4685294   -4.4685294   -3.3518509  0.025997914   -4.4685294    1.1166785   439061 
  557000   0.74596684   -4.4719516   -4.4719516   -3.3530039  0.026750611   -4.4719516    1.1189477   439061 
  558000   0.74712172   -4.4739211   -4.4739211   -3.3532411  0.025235373   -4.4739211      1.12068   439061 
  559000   0.74680974   -4.4751771   -4.4751771    -3.354965  0.031296068   -4.4751771    1.1202121   439061 
  560000    0.7452244   -4.4743667   -4.4743667   -3.3565326  0.033871816   -4.4743667    1.1178341   439061 
  561000    0.7461017   -4.4772984   -4.4772984   -3.3581484  0.025734559   -4.4772984      1.11915   439061 
  562000   0.74417005   -4.4765664   -4.4765664   -3.3603139  0.029154508   -4.4765664    1.1162525   439061 
  563000   0.74404341   -4.4771126   -4.4771126     -3.36105  0.027543208   -4.4771126    1.1160626   439061 
  564000   0.74420719   -4.4787858   -4.4787858   -3.3624776  0.023061715   -4.4787858    1.1163082   439061 
  565000   0.74394908   -4.4805062   -4.4805062   -3.3645851  0.020376472   -4.4805062    1.1159211   439061 
  566000   0.74392905   -4.4805914   -4.4805914   -3.3647004   0.02532092   -4.4805914     1.115891   439061 
  567000   0.74315613   -4.4815755   -4.4815755   -3.3668438   0.02386173   -4.4815755    1.1147317   439061 
  568000   0.74282254   -4.4828229   -4.4828229   -3.3685917  0.026422646   -4.4828229    1.1142313   439061 
  569000    0.7437972   -4.4846355   -4.4846355   -3.3689422  0.025442927   -4.4846355    1.1156933   439061 
  570000    0.7436147   -4.4866835   -4.4866835    -3.371264  0.024674063   -4.4866835    1.1154195   439061 
  571000   0.74302113   -4.4870698   -4.4870698   -3.3725406  0.031646436   -4.4870698    1.1145292   439061 
  572000   0.74290362   -4.4886484   -4.4886484   -3.3742955  0.028355511   -4.4886484    1.1143529   439061 
  573000   0.74328113   -4.4914323   -4.4914323   -3.3765132  0.024634225   -4.4914323    1.1149191   439061 
  574000   0.74373309   -4.4925124   -4.4925124   -3.3769153    0.0301166   -4.4925124    1.1155971   439061 
  575000   0.74353244   -4.4931266   -4.4931266   -3.3778305  0.027237068   -4.4931266    1.1152961   439061 
  576000   0.74371013   -4.4938236   -4.4938236   -3.3782609  0.027242139   -4.4938236    1.1155627   439061 
  577000   0.74246007   -4.4939725   -4.4939725   -3.3802849  0.025616158   -4.4939725    1.1136876   439061 
  578000    0.7423805   -4.4949345   -4.4949345   -3.3813663  0.022209366   -4.4949345    1.1135682   439061 
  579000   0.74208853   -4.4949631   -4.4949631   -3.3818328  0.025218535   -4.4949631    1.1131303   439061 
  580000   0.74256047   -4.4973042   -4.4973042    -3.383466  0.022002035   -4.4973042    1.1138382   439061 
  581000   0.74134972   -4.4968085   -4.4968085   -3.3847864   0.02223282   -4.4968085    1.1120221   439061 
  582000   0.74198589    -4.499376    -4.499376   -3.3863997  0.019190938    -4.499376    1.1129763   439061 
  583000   0.74100522   -4.4995315   -4.4995315   -3.3880262  0.023819618   -4.4995315    1.1115053   439061 
  584000   0.74205457   -4.5021402   -4.5021402   -3.3890608  0.023278598   -4.5021402    1.1130793   439061 
  585000   0.74189791   -4.5040682   -4.5040682   -3.3912239  0.027451184   -4.5040682    1.1128443   439061 
  586000   0.73976884   -4.5040944   -4.5040944   -3.3944437  0.027477765   -4.5040944    1.1096507   439061 
  587000   0.73983546   -4.5059994   -4.5059994   -3.3962488  0.025094845   -4.5059994    1.1097507   439061 
  588000   0.74069289    -4.508651    -4.508651   -3.3976142  0.023092349    -4.508651    1.1110368   439061 
  589000   0.74069937   -4.5094899   -4.5094899   -3.3984433  0.026612383   -4.5094899    1.1110465   439061 
  590000   0.74024363   -4.5111468   -4.5111468   -3.4007838  0.027085739   -4.5111468    1.1103629   439061 
  591000   0.74031879   -4.5119431   -4.5119431   -3.4014674  0.025482895   -4.5119431    1.1104757   439061 
  592000   0.74095452    -4.514161    -4.514161   -3.4027318  0.025760151    -4.514161    1.1114293   439061 
  593000    0.7405376   -4.5148473   -4.5148473   -3.4040434  0.024834807   -4.5148473    1.1108039   439061 
  594000    0.7383312    -4.512365    -4.512365   -3.4048707  0.026730634    -4.512365    1.1074943   439061 
  595000   0.73954974   -4.5153735   -4.5153735   -3.4060514  0.026814957   -4.5153735    1.1093221   439061 
  596000   0.73924682   -4.5163769   -4.5163769   -3.4075092  0.025821177   -4.5163769    1.1088677   439061 
  597000   0.73895603   -4.5170356   -4.5170356   -3.4086041  0.025686976   -4.5170356    1.1084315   439061 
  598000   0.73855354   -4.5177889   -4.5177889   -3.4099611  0.021798472   -4.5177889    1.1078278   439061 
  599000   0.73849604   -4.5191681   -4.5191681   -3.4114266  0.017413118   -4.5191681    1.1077415   439061 
  600000   0.73867834   -4.5212989   -4.5212989   -3.4132839  0.019162349   -4.5212989     1.108015   439061 
  601000   0.73789593    -4.520733    -4.520733   -3.4138916  0.027483777    -4.520733    1.1068414   439061 
  602000   0.73811529   -4.5217615   -4.5217615   -3.4145911  0.028383081   -4.5217615    1.1071704   439061 
  603000   0.73771649   -4.5241614   -4.5241614   -3.4175892  0.021390076   -4.5241614    1.1065722   439061 
  604000   0.73779768   -4.5245439   -4.5245439   -3.4178499  0.026512331   -4.5245439     1.106694   439061 
  605000   0.73842352    -4.525789    -4.525789   -3.4181563  0.030088955    -4.525789    1.1076328   439061 
  606000   0.73808369   -4.5264105   -4.5264105   -3.4192875  0.031746452   -4.5264105     1.107123   439061 
  607000   0.73936409   -4.5293006   -4.5293006    -3.420257  0.031331053   -4.5293006    1.1090436   439061 
  608000    0.7380964   -4.5305539   -4.5305539   -3.4234118  0.022773984   -4.5305539    1.1071421   439061 
  609000   0.73703241   -4.5293596   -4.5293596   -3.4238135  0.023378446   -4.5293596    1.1055461   439061 
  610000   0.73596547   -4.5291195   -4.5291195   -3.4251738  0.021823435   -4.5291195    1.1039457   439061 
  611000   0.73674078   -4.5317616   -4.5317616   -3.4266529  0.022986671   -4.5317616    1.1051087   439061 
  612000   0.73677276   -4.5329524   -4.5329524   -3.4277958   0.02438593   -4.5329524    1.1051566   439061 
  613000   0.73517101   -4.5331672   -4.5331672   -3.4304132  0.023370969   -4.5331672     1.102754   439061 
  614000   0.73641584   -4.5352502   -4.5352502   -3.4306289   0.02009341   -4.5352502    1.1046212   439061 
  615000   0.73503179   -4.5349245   -4.5349245   -3.4323793   0.02285545   -4.5349245    1.1025452   439061 
  616000   0.73508034   -4.5367372   -4.5367372   -3.4341192  0.022868177   -4.5367372     1.102618   439061 
  617000    0.7363132   -4.5398221   -4.5398221   -3.4353549  0.021722349   -4.5398221    1.1044673   439061 
  618000   0.73634549   -4.5411342   -4.5411342   -3.4366185  0.020581646   -4.5411342    1.1045157   439061 
  619000   0.73532272   -4.5414383   -4.5414383   -3.4384567  0.017907143   -4.5414383    1.1029816   439061 
  620000   0.73445268   -4.5419702   -4.5419702   -3.4402937  0.023814523   -4.5419702    1.1016765   439061 
  621000    0.7348446   -4.5424484   -4.5424484    -3.440184  0.025852743   -4.5424484    1.1022644   439061 
  622000   0.73565948   -4.5452301   -4.5452301   -3.4417434  0.024513494   -4.5452301    1.1034867   439061 
  623000    0.7342721   -4.5441297   -4.5441297   -3.4427241  0.029590411   -4.5441297    1.1014056   439061 
  624000   0.73542568   -4.5479981   -4.5479981   -3.4448621  0.023816844   -4.5479981     1.103136   439061 
  625000   0.73435054   -4.5471206   -4.5471206   -3.4455973   0.02440682   -4.5471206    1.1015233   439061 
  626000   0.73507448   -4.5501116   -4.5501116   -3.4475024  0.020194285   -4.5501116    1.1026092   439061 
  627000   0.73350174    -4.549516    -4.549516   -3.4492659   0.02020586    -4.549516    1.1002501   439061 
  628000   0.73482156   -4.5520756   -4.5520756   -3.4498458  0.017338388   -4.5520756    1.1022298   439061 
  629000   0.73412173   -4.5524462   -4.5524462   -3.4512661  0.017834959   -4.5524462    1.1011801   439061 
  630000   0.73280434   -4.5511316   -4.5511316   -3.4519276  0.021176955   -4.5511316     1.099204   439061 
  631000   0.73355161   -4.5520974   -4.5520974   -3.4517725  0.021206081   -4.5520974    1.1003249   439061 
  632000   0.73299277   -4.5543867   -4.5543867      -3.4549  0.022643103   -4.5543867    1.0994867   439061 
  633000   0.73239078   -4.5545125   -4.5545125   -3.4559288  0.024830758   -4.5545125    1.0985837   439061 
  634000   0.73191662   -4.5556971   -4.5556971   -3.4578247  0.025757689   -4.5556971    1.0978724   439061 
  635000    0.7327416   -4.5579304   -4.5579304   -3.4588205  0.021106695   -4.5579304    1.0991099   439061 
  636000   0.73337798   -4.5594834   -4.5594834   -3.4594189  0.017721129   -4.5594834    1.1000645   439061 
  637000   0.73312459   -4.5610393   -4.5610393   -3.4613549   0.02508079   -4.5610393    1.0996844   439061 
  638000   0.73261358   -4.5617434   -4.5617434   -3.4628255  0.022484882   -4.5617434    1.0989179   439061 
  639000   0.73163036   -4.5625519   -4.5625519   -3.4651088  0.024199299   -4.5625519     1.097443   439061 
  640000   0.73298967   -4.5655281   -4.5655281   -3.4660461  0.021485824   -4.5655281     1.099482   439061 
  641000   0.73152974   -4.5654101   -4.5654101   -3.4681179  0.023363569   -4.5654101    1.0972921   439061 
  642000   0.73241534   -4.5680841   -4.5680841   -3.4694636  0.019446063   -4.5680841    1.0986205   439061 
  643000   0.73192031   -4.5677493   -4.5677493   -3.4698714  0.024725507   -4.5677493     1.097878   439061 
  644000    0.7312698   -4.5680124   -4.5680124   -3.4711102  0.021873341   -4.5680124    1.0969022   439061 
  645000   0.73198356   -4.5709729   -4.5709729   -3.4730001  0.019553796   -4.5709729    1.0979728   439061 
  646000   0.73076732   -4.5704934   -4.5704934   -3.4743449  0.021512169   -4.5704934    1.0961485   439061 
  647000    0.7305857   -4.5715034   -4.5715034   -3.4756274  0.020051991   -4.5715034    1.0958761   439061 
  648000   0.73185563   -4.5741605   -4.5741605   -3.4763795  0.019662765   -4.5741605    1.0977809   439061 
  649000   0.73015516    -4.573995    -4.573995   -3.4787647  0.021158213    -4.573995    1.0952302   439061 
  650000   0.73066216   -4.5748986   -4.5748986   -3.4789079  0.020332216   -4.5748986    1.0959907   439061 
  651000   0.72855032   -4.5736163   -4.5736163   -3.4807933  0.022404467   -4.5736163     1.092823   439061 
  652000   0.73043724   -4.5767568   -4.5767568   -3.4811035  0.016755814   -4.5767568    1.0956534   439061 
  653000   0.72973888   -4.5770948   -4.5770948    -3.482489   0.01936392   -4.5770948    1.0946058   439061 
  654000   0.73061745   -4.5799613   -4.5799613   -3.4840376  0.018070079   -4.5799613    1.0959237   439061 
  655000    0.7310277   -4.5801262   -4.5801262   -3.4835871  0.016093704   -4.5801262    1.0965391   439061 
  656000   0.73073052   -4.5792333   -4.5792333     -3.48314  0.019989437   -4.5792333    1.0960933   439061 
  657000   0.73024082   -4.5800793   -4.5800793   -3.4847206  0.022822746   -4.5800793    1.0953587   439061 
  658000    0.7317557   -4.5830337   -4.5830337   -3.4854026  0.018815762   -4.5830337    1.0976311   439061 
  659000   0.73102059   -4.5831498   -4.5831498   -3.4866214  0.022902059   -4.5831498    1.0965284   439061 
  660000   0.73072104   -4.5838357   -4.5838357   -3.4877566  0.017284237   -4.5838357    1.0960791   439061 
  661000   0.73008069   -4.5836359   -4.5836359   -3.4885174  0.016392446   -4.5836359    1.0951185   439061 
  662000   0.72870705   -4.5834636   -4.5834636   -3.4904055  0.017741126   -4.5834636    1.0930581   439061 
  663000   0.72973982   -4.5849572   -4.5849572   -3.4903499  0.017958985   -4.5849572    1.0946072   439061 
  664000   0.72911642   -4.5848855   -4.5848855   -3.4912133  0.017783961   -4.5848855    1.0936721   439061 
  665000   0.72944074   -4.5869334   -4.5869334   -3.4927748  0.018540531   -4.5869334    1.0941586   439061 
  666000   0.72801791   -4.5863903   -4.5863903   -3.4943659  0.013964833   -4.5863903    1.0920244   439061 
  667000   0.72816348   -4.5875675   -4.5875675   -3.4953247  0.014293402   -4.5875675    1.0922427   439061 
  668000   0.72892434   -4.5891111   -4.5891111    -3.495727   0.01895466   -4.5891111     1.093384   439061 
  669000   0.72982642   -4.5915073   -4.5915073   -3.4967701  0.024029211   -4.5915073    1.0947371   439061 
  670000   0.72975254   -4.5927161   -4.5927161   -3.4980898  0.022984821   -4.5927161    1.0946263   439061 
  671000   0.72729173   -4.5911671   -4.5911671    -3.500232  0.022164269   -4.5911671    1.0909351   439061 
  672000   0.72771075   -4.5945214   -4.5945214   -3.5029577  0.017858905   -4.5945214    1.0915636   439061 
  673000   0.72739096   -4.5952297   -4.5952297   -3.5041458  0.018186495   -4.5952297     1.091084   439061 
  674000   0.72729687   -4.5961026   -4.5961026   -3.5051598  0.017699116   -4.5961026    1.0909428   439061 
  675000   0.72727032   -4.5979749   -4.5979749   -3.5070719  0.020303341   -4.5979749     1.090903   439061 
  676000   0.72720722   -4.5986912   -4.5986912   -3.5078829  0.014483018   -4.5986912    1.0908083   439061 
[...]
 4835000   0.64950664   -5.0259869   -5.0259869   -4.0517292 -0.00092541556   -5.0259869   0.97425774   439061 
 4836000   0.64976855   -5.0259417   -5.0259417   -4.0512911 0.0074296363   -5.0259417    0.9746506   439061 
 4837000    0.6508959   -5.0272807   -5.0272807   -4.0509391 0.00076497158   -5.0272807   0.97634162   439061 
 4838000   0.64940439   -5.0257066   -5.0257066   -4.0516023 0.0059382719   -5.0257066   0.97410437   439061 
 4839000   0.65039635   -5.0273182   -5.0273182   -4.0517259 0.0017316024   -5.0273182    0.9755923   439061 
 4840000   0.64976659   -5.0267589   -5.0267589   -4.0521113 0.0062611346   -5.0267589   0.97464767   439061 
 4841000   0.65067758   -5.0283326   -5.0283326   -4.0523185 0.0050042101   -5.0283326   0.97601415   439061 
 4842000   0.64986059   -5.0256829   -5.0256829   -4.0508942  0.011171054   -5.0256829   0.97478866   439061 
 4843000   0.65051312   -5.0273895   -5.0273895    -4.051622 0.0011415249   -5.0273895   0.97576746   439061 
 4844000   0.65055379   -5.0272053   -5.0272053   -4.0513768 0.0023233614   -5.0272053   0.97582847   439061 
 4845000    0.6507063   -5.0273718   -5.0273718   -4.0513146 0.0011976387   -5.0273718   0.97605723   439061 
 4846000    0.6498497   -5.0259974   -5.0259974    -4.051225 0.0043708319   -5.0259974   0.97477233   439061 
 4847000   0.64974469   -5.0264057   -5.0264057   -4.0517909 -0.00052263673   -5.0264057   0.97461481   439061 
 4848000   0.65010817   -5.0265114   -5.0265114   -4.0513514 -0.0042920081   -5.0265114   0.97516004   439061 
 4849000   0.65053865   -5.0269752   -5.0269752   -4.0511695 -0.0029677235   -5.0269752   0.97580575   439061 
 4850000   0.64984453   -5.0253409   -5.0253409   -4.0505763 0.0028409498   -5.0253409   0.97476458   439061 
 4851000   0.64991823   -5.0259461   -5.0259461   -4.0510709 0.0042304528   -5.0259461   0.97487513   439061 
 4852000   0.65026031   -5.0264813   -5.0264813   -4.0510931 0.0050163462   -5.0264813   0.97538824   439061 
 4853000   0.65036597   -5.0272651   -5.0272651   -4.0517183 0.0031777011   -5.0272651   0.97554673   439061 
 4854000   0.64998491   -5.0266694   -5.0266694   -4.0516943 0.0020595907   -5.0266694   0.97497515   439061 
 4855000   0.65053105   -5.0267091   -5.0267091   -4.0509148 0.0065540481   -5.0267091   0.97579435   439061 
 4856000   0.65082099   -5.0278828   -5.0278828   -4.0516536 0.0045463273   -5.0278828   0.97622926   439061 
 4857000   0.65135465   -5.0285082   -5.0285082   -4.0514784   0.00517758   -5.0285082   0.97702974   439061 
 4858000   0.65021641   -5.0262746   -5.0262746   -4.0509522 0.0027181158   -5.0262746   0.97532239   439061 
 4859000    0.6502733    -5.026963    -5.026963   -4.0515553 0.0017723822    -5.026963   0.97540773   439061 
 4860000   0.64950254   -5.0259094   -5.0259094   -4.0516578 0.0028216482   -5.0259094   0.97425159   439061 
 4861000   0.65068693   -5.0272388   -5.0272388   -4.0512107 0.0041611619   -5.0272388   0.97602818   439061 
 4862000   0.64988368   -5.0261836   -5.0261836   -4.0513603  0.003633653   -5.0261836    0.9748233   439061 
 4863000   0.64972193    -5.024346    -5.024346   -4.0497654 0.0025443786    -5.024346   0.97458067   439061 
 4864000    0.6500919   -5.0257262   -5.0257262   -4.0505906 -0.00022612266   -5.0257262   0.97513563   439061 
 4865000   0.65117134   -5.0277638   -5.0277638    -4.051009 -0.0021377749   -5.0277638   0.97675479   439061 
 4866000   0.64970036   -5.0249263   -5.0249263   -4.0503779 0.0037519232   -5.0249263   0.97454832   439061 
 4867000   0.64989056   -5.0250829   -5.0250829   -4.0502493 0.0030685084   -5.0250829   0.97483362   439061 
 4868000   0.65030883   -5.0248864   -5.0248864   -4.0494254 0.0026047665   -5.0248864   0.97546102   439061 
 4869000   0.65069585   -5.0261245   -5.0261245   -4.0500829 0.0029040725   -5.0261245   0.97604155   439061 
 4870000    0.6498426   -5.0265966   -5.0265966    -4.051835 0.0010893228   -5.0265966   0.97476167   439061 
 4871000   0.64947712   -5.0256209   -5.0256209   -4.0514074 0.0047377511   -5.0256209   0.97421346   439061 
 4872000    0.6503473   -5.0270186   -5.0270186   -4.0514998 -0.0025128425   -5.0270186   0.97551873   439061 
 4873000   0.65144197   -5.0272773   -5.0272773   -4.0501166 0.0019556513   -5.0272773   0.97716072   439061 
 4874000   0.65188937   -5.0275428   -5.0275428    -4.049711 0.0055478067   -5.0275428   0.97783183   439061 
 4875000   0.65027664   -5.0259762   -5.0259762   -4.0505635  0.007101348   -5.0259762   0.97541274   439061 
 4876000    0.6510458   -5.0277988   -5.0277988   -4.0512324 0.0048556922   -5.0277988   0.97656648   439061 
 4877000   0.65044067   -5.0269108   -5.0269108    -4.051252  0.001728903   -5.0269108   0.97565879   439061 
 4878000   0.64955327   -5.0256758   -5.0256758   -4.0513481 0.00068786111   -5.0256758   0.97432769   439061 
 4879000   0.64985945   -5.0251289   -5.0251289    -4.050342  0.004204088   -5.0251289   0.97478695   439061 
 4880000   0.65119135   -5.0269248   -5.0269248     -4.05014 -0.0013361443   -5.0269248    0.9767848   439061 
 4881000   0.64966243   -5.0250667   -5.0250667   -4.0505752 0.0047695738   -5.0250667   0.97449143   439061 
 4882000   0.64933315   -5.0251774   -5.0251774   -4.0511799 0.0016147151   -5.0251774    0.9739975   439061 
 4883000   0.64899007   -5.0261363   -5.0261363   -4.0526534 -0.0013753397   -5.0261363   0.97348288   439061 
 4884000   0.64917429   -5.0245754   -5.0245754   -4.0508161 0.0032080773   -5.0245754   0.97375922   439061 
 4885000   0.65061422   -5.0251948   -5.0251948   -4.0492757 0.0059335305   -5.0251948   0.97591911   439061 
 4886000   0.65066036   -5.0245612   -5.0245612   -4.0485729 0.0069289522   -5.0245612   0.97598832   439061 
 4887000   0.65341999   -5.0281632   -5.0281632   -4.0480354 0.0067889453   -5.0281632   0.98012775   439061 
 4888000   0.65209912   -5.0258905   -5.0258905   -4.0477441 0.0049400898   -5.0258905   0.97814645   439061 
 4889000   0.65184752   -5.0254003   -5.0254003   -4.0476313 0.0022622055   -5.0254003   0.97776905   439061 
 4890000   0.65042436   -5.0245722   -5.0245722   -4.0489379 0.0018763553   -5.0245722   0.97563432   439061 
 4891000   0.65014095   -5.0244636   -5.0244636   -4.0492544 0.0004141386   -5.0244636   0.97520921   439061 
 4892000   0.64937591   -5.0237517   -5.0237517   -4.0496901 -0.0040017291   -5.0237517   0.97406164   439061 
 4893000   0.64943482     -5.02334     -5.02334     -4.04919 -0.0033089371     -5.02334   0.97415001   439061 
 4894000   0.64893888   -5.0228086   -5.0228086   -4.0494024 0.0017635281   -5.0228086   0.97340611   439061 
 4895000    0.6519794   -5.0273998   -5.0273998    -4.049433 -0.0035717035   -5.0273998   0.97796687   439061 
 4896000   0.65028331   -5.0253814   -5.0253814   -4.0499586 0.0038593464   -5.0253814   0.97542274   439061 
 4897000   0.65005666   -5.0252268   -5.0252268    -4.050144 0.0057238894   -5.0252268   0.97508276   439061 
 4898000   0.65079186   -5.0271005   -5.0271005    -4.050915 0.0027199617   -5.0271005   0.97618557   439061 
 4899000   0.65083368   -5.0266025   -5.0266025   -4.0503542  0.008218439   -5.0266025    0.9762483   439061 
 4900000   0.65074213   -5.0271552   -5.0271552   -4.0510443 0.0099462603   -5.0271552   0.97611098   439061 
 4901000   0.65086438   -5.0276288   -5.0276288   -4.0513345 0.0078037403   -5.0276288   0.97629434   439061 
 4902000   0.64936715   -5.0261548   -5.0261548   -4.0521063 0.0059199913   -5.0261548   0.97404851   439061 
 4903000   0.64996961   -5.0265627   -5.0265627   -4.0516105 0.0028471898   -5.0265627   0.97495219   439061 
 4904000   0.64990935   -5.0256787   -5.0256787   -4.0508169 0.0045712797   -5.0256787   0.97486181   439061 
 4905000   0.65085254   -5.0267462   -5.0267462   -4.0504696 0.0030915476   -5.0267462   0.97627659   439061 
 4906000   0.65040395   -5.0249055   -5.0249055   -4.0493018 -0.0015417015   -5.0249055    0.9756037   439061 
 4907000   0.64873456   -5.0229291   -5.0229291   -4.0498294 0.0014098387   -5.0229291   0.97309963   439061 
 4908000   0.64966419    -5.024599    -5.024599    -4.050105 -0.0025277041    -5.024599   0.97449407   439061 
 4909000   0.64975944   -5.0260279   -5.0260279   -4.0513909 -0.0046177461   -5.0260279   0.97463694   439061 
 4910000   0.65047537   -5.0260857   -5.0260857   -4.0503749 -0.0056194538   -5.0260857   0.97571083   439061 
 4911000   0.64893076   -5.0239644   -5.0239644   -4.0505705 0.0012430179   -5.0239644   0.97339393   439061 
 4912000   0.64957904    -5.024507    -5.024507   -4.0501406 0.0018267463    -5.024507   0.97436634   439061 
 4913000   0.65049557   -5.0274126   -5.0274126   -4.0516715 0.00070637537   -5.0274126   0.97574113   439061 
 4914000   0.65028581   -5.0269272   -5.0269272   -4.0515007 0.0023730748   -5.0269272    0.9754265   439061 
 4915000   0.65233602   -5.0297741   -5.0297741   -4.0512723 0.0048852806   -5.0297741   0.97850181   439061 
 4916000   0.65109786   -5.0276294   -5.0276294   -4.0509848 0.0078977282   -5.0276294   0.97664456   439061 
 4917000   0.65085548   -5.0278665   -5.0278665   -4.0515855 0.0068775598   -5.0278665   0.97628099   439061 
 4918000   0.65042342   -5.0275546   -5.0275546   -4.0519217 0.0033018567   -5.0275546   0.97563291   439061 
 4919000   0.64999079   -5.0265526   -5.0265526   -4.0515686  0.003780083   -5.0265526   0.97498397   439061 
 4920000   0.64939156   -5.0258112   -5.0258112   -4.0517261 3.6955686e-06   -5.0258112   0.97408512   439061 
 4921000   0.64883776   -5.0255058   -5.0255058   -4.0522514 -0.0015697951   -5.0255058   0.97325443   439061 
 4922000   0.64924355   -5.0254079   -5.0254079   -4.0515447 -0.0022499926   -5.0254079   0.97386311   439061 
 4923000   0.64915778   -5.0249513   -5.0249513   -4.0512169 -1.0768154e-05   -5.0249513   0.97373446   439061 
 4924000   0.65016532   -5.0253025   -5.0253025   -4.0500567 -0.0010945223   -5.0253025   0.97524576   439061 
 4925000   0.65127495    -5.027918    -5.027918   -4.0510078 -0.0012527515    -5.027918    0.9769102   439061 
 4926000   0.64912127   -5.0254114   -5.0254114   -4.0517317   0.00111268   -5.0254114   0.97367969   439061 
 4927000   0.64968805   -5.0262377   -5.0262377   -4.0517078 0.0032109583   -5.0262377   0.97452986   439061 
 4928000   0.65042822   -5.0266696   -5.0266696   -4.0510295 0.0045084676   -5.0266696   0.97564011   439061 
 4929000   0.64965137   -5.0257787   -5.0257787   -4.0513038 0.0070493824   -5.0257787   0.97447484   439061 
 4930000   0.65012517   -5.0269993   -5.0269993   -4.0518138 0.0056691491   -5.0269993   0.97518553   439061 
 4931000   0.65025547   -5.0274836   -5.0274836   -4.0521026 0.0029646574   -5.0274836   0.97538098   439061 
 4932000   0.64972128   -5.0267351   -5.0267351   -4.0521555 0.0040016638   -5.0267351    0.9745797   439061 
 4933000   0.65051816   -5.0278328   -5.0278328   -4.0520578 -0.00022992294   -5.0278328   0.97577501   439061 
 4934000   0.64988446   -5.0253902   -5.0253902   -4.0505657 0.0029281509   -5.0253902   0.97482447   439061 
 4935000    0.6511736   -5.0268281   -5.0268281   -4.0500699 0.0046989661   -5.0268281   0.97675818   439061 
 4936000   0.65041322   -5.0258614   -5.0258614   -4.0502438 0.0060647211   -5.0258614    0.9756176   439061 
 4937000   0.65160408   -5.0263118   -5.0263118   -4.0489079 0.0032933239   -5.0263118    0.9774039   439061 
 4938000   0.65167531   -5.0267219   -5.0267219   -4.0492111 -0.00051528142   -5.0267219   0.97751074   439061 
 4939000   0.65019706    -5.026171    -5.026171   -4.0508777 0.00058193885    -5.026171   0.97529337   439061 
 4940000   0.65074219   -5.0257822   -5.0257822   -4.0496712 -0.0023534292   -5.0257822   0.97611106   439061 
 4941000   0.64913623    -5.023287    -5.023287   -4.0495848 0.00027973919    -5.023287   0.97370213   439061 
 4942000   0.64930635   -5.0241847   -5.0241847   -4.0502274  0.003959104   -5.0241847   0.97395731   439061 
 4943000   0.65045293   -5.0268933   -5.0268933   -4.0512161 -0.0022654273   -5.0268933   0.97567717   439061 
 4944000   0.65106769   -5.0257528   -5.0257528   -4.0491535 7.604753e-05   -5.0257528   0.97659931   439061 
 4945000   0.65082004   -5.0250022   -5.0250022   -4.0487743 0.00049044491   -5.0250022   0.97622784   439061 
 4946000   0.65055082   -5.0240335   -5.0240335   -4.0482095  0.009013608   -5.0240335     0.975824   439061 
 4947000    0.6507182   -5.0255242   -5.0255242   -4.0494492  0.006512807   -5.0255242   0.97607508   439061 
 4948000   0.65048033    -5.025882    -5.025882   -4.0501637 0.0036621474    -5.025882   0.97571827   439061 
 4949000   0.64926438   -5.0244288   -5.0244288   -4.0505344 0.0029723216   -5.0244288   0.97389436   439061 
 4950000   0.64988871   -5.0257202   -5.0257202   -4.0508893 0.0015391469   -5.0257202   0.97483085   439061 
 4951000   0.65007313   -5.0270493   -5.0270493   -4.0519418 -0.0011841318   -5.0270493   0.97510748   439061 
 4952000   0.64905436   -5.0246681   -5.0246681   -4.0510888 0.0017743117   -5.0246681   0.97357932   439061 
 4953000   0.64929776   -5.0261913   -5.0261913   -4.0522469 -0.0047168653   -5.0261913   0.97394443   439061 
 4954000   0.64976804   -5.0266903   -5.0266903   -4.0520404 -0.0030515473   -5.0266903   0.97464984   439061 
 4955000   0.64843165   -5.0252163   -5.0252163    -4.052571  0.003077207   -5.0252163   0.97264527   439061 
 4956000    0.6490947   -5.0264706   -5.0264706   -4.0528308 0.0042103235   -5.0264706   0.97363983   439061 
 4957000    0.6496582   -5.0259219   -5.0259219   -4.0514368   0.01050868   -5.0259219   0.97448508   439061 
 4958000      0.65009   -5.0260062   -5.0260062   -4.0508735 0.0091714269   -5.0260062   0.97513277   439061 
 4959000   0.65117964   -5.0278219   -5.0278219   -4.0510547 0.0092518023   -5.0278219   0.97676723   439061 
 4960000   0.65021965   -5.0269003   -5.0269003   -4.0515731 0.0081114377   -5.0269003   0.97532725   439061 
 4961000   0.64952079   -5.0260919   -5.0260919   -4.0518129 0.0040326877   -5.0260919   0.97427897   439061 
 4962000   0.65023497   -5.0260364   -5.0260364   -4.0506861 0.0030114831   -5.0260364   0.97535023   439061 
 4963000   0.65040488   -5.0259039   -5.0259039   -4.0502988 0.0020178798   -5.0259039   0.97560511   439061 
 4964000   0.65033577    -5.024906    -5.024906   -4.0494045 0.0030569718    -5.024906   0.97550143   439061 
 4965000   0.64990284   -5.0240589   -5.0240589   -4.0492068 0.00013824245   -5.0240589   0.97485204   439061 
 4966000   0.64986413   -5.0252731   -5.0252731   -4.0504791 -0.0026372668   -5.0252731   0.97479398   439061 
 4967000    0.6486252   -5.0233382   -5.0233382   -4.0504026 0.00081832127   -5.0233382   0.97293558   439061 
 4968000   0.64938581    -5.023545    -5.023545   -4.0494685 0.0034192063    -5.023545    0.9740765   439061 
 4969000   0.64993231   -5.0239048   -5.0239048   -4.0490085 0.0023356555   -5.0239048   0.97489624   439061 
 4970000   0.64947447   -5.0234175   -5.0234175    -4.049208 0.0042380721   -5.0234175   0.97420949   439061 
 4971000   0.65074825   -5.0260184   -5.0260184   -4.0498982 0.0018424245   -5.0260184   0.97612015   439061 
 4972000   0.65012986   -5.0249414   -5.0249414   -4.0497489 0.0052487155   -5.0249414   0.97519257   439061 
 4973000   0.65100081   -5.0271582   -5.0271582   -4.0506592 0.0043290787   -5.0271582   0.97649899   439061 
 4974000   0.65126577    -5.027533    -5.027533   -4.0506366 0.0048639441    -5.027533   0.97689644   439061 
 4975000   0.65025892   -5.0253385   -5.0253385   -4.0499524  0.010247867   -5.0253385   0.97538616   439061 
 4976000   0.65057097   -5.0257268   -5.0257268   -4.0498725 0.0039487438   -5.0257268   0.97585423   439061 
 4977000   0.65003767   -5.0259062   -5.0259062   -4.0508519 0.0041637803   -5.0259062   0.97505428   439061 
 4978000   0.65015778   -5.0268315   -5.0268315    -4.051597 0.00034331093   -5.0268315   0.97523445   439061 
 4979000   0.64965097   -5.0259144   -5.0259144   -4.0514401 0.00083771703   -5.0259144   0.97447424   439061 
 4980000   0.64904793   -5.0254867   -5.0254867    -4.051917 -0.0011021747   -5.0254867   0.97356968   439061 
 4981000    0.6487323   -5.0263363   -5.0263363     -4.05324 -0.00069647721   -5.0263363   0.97309623   439061 
 4982000   0.64872622   -5.0259686   -5.0259686   -4.0528815 -0.00027636855   -5.0259686   0.97308712   439061 
 4983000   0.64974716   -5.0254623   -5.0254623   -4.0508438 0.0092066812   -5.0254623   0.97461851   439061 
 4984000   0.65148593   -5.0279019   -5.0279019   -4.0506753 0.0057729959   -5.0279019   0.97722667   439061 
 4985000   0.65075509   -5.0272541   -5.0272541   -4.0511236  0.007918358   -5.0272541   0.97613041   439061 
 4986000   0.65092533   -5.0270075   -5.0270075   -4.0506217  0.010474918   -5.0270075   0.97638577   439061 
 4987000   0.65073835   -5.0279561   -5.0279561   -4.0518508 0.0054906221   -5.0279561    0.9761053   439061 
 4988000   0.65075086    -5.026845    -5.026845   -4.0507209 0.0066672889    -5.026845   0.97612407   439061 
 4989000   0.64999531   -5.0257006   -5.0257006   -4.0507099 0.0047160834   -5.0257006   0.97499075   439061 
 4990000   0.64911842   -5.0242924   -5.0242924    -4.050617 0.0034507678   -5.0242924   0.97367541   439061 
 4991000   0.64911119    -5.023341    -5.023341   -4.0496764 0.0014626346    -5.023341   0.97366457   439061 
 4992000   0.64949996   -5.0246899   -5.0246899   -4.0504422 -0.0030340646   -5.0246899   0.97424773   439061 
 4993000   0.65027424   -5.0254344   -5.0254344   -4.0500253 -0.0059512534   -5.0254344   0.97540914   439061 
 4994000   0.65050457   -5.0252029   -5.0252029   -4.0494482 -0.003571596   -5.0252029   0.97575464   439061 
 4995000   0.65020378    -5.025317    -5.025317   -4.0500136 -0.00064796852    -5.025317   0.97530345   439061 
 4996000   0.64957858   -5.0246904   -5.0246904   -4.0503248 0.0050802859   -5.0246904   0.97436565   439061 
 4997000   0.65016227   -5.0247433   -5.0247433   -4.0495021 0.0047759312   -5.0247433   0.97524118   439061 
 4998000     0.650669     -5.02573     -5.02573   -4.0497287 0.00026876669     -5.02573   0.97600128   439061 
 4999000   0.64945997   -5.0245242   -5.0245242   -4.0503365 0.0098177667   -5.0245242   0.97418773   439061 
 5000000   0.64939952   -5.0240284   -5.0240284   -4.0499313  0.011093929   -5.0240284   0.97409706   439061 
Loop time of 30538.1 on 64 procs for 5000000 steps with 439061 atoms

Performance: 70731.205 tau/day, 163.730 timesteps/s
98.7% CPU use with 64 MPI tasks x 1 OpenMP threads

MPI task timing breakdown:
Section |  min time  |  avg time  |  max time  |%varavg|  %CPU | %total
-----------------------------------------------------------------------
Pair    | 13052      | 16699      | 17677      | 991.3 |  98.5 | 54.68
Bond    | 2.2269     | 4.1739     | 7.0726     |  89.5 | 100.0 |  0.01
Neigh   | 4304.1     | 5488.2     | 5811.3     | 557.8 |  99.7 | 17.97
Comm    | 4711.1     | 6776.1     | 11799      |2293.2 |  98.1 | 22.19
Output  | 213.1      | 213.37     | 213.42     |   0.3 |  98.7 |  0.70
Modify  | 517.59     | 919.56     | 2241.8     |2220.8 |  99.4 |  3.01
Other   |            | 437.8      |            |       |       |  1.43

Nlocal:        6860.33 ave        7001 max        6462 min
Histogram: 1 1 0 0 1 1 9 37 6 8
Nghost:        8144.58 ave        8939 max        5909 min
Histogram: 16 0 0 0 0 0 0 0 0 48
Neighs:       272449.0 ave      282758 max      221762 min
Histogram: 2 1 5 0 0 0 0 0 16 40

Total # of neighbors = 17436725
Ave neighs/atom = 39.713673
Ave special neighs/atom = 0.0000000
Neighbor list builds = 500000
Dangerous builds = 492650
write_data	data.lj
System init for write_data ...
WARNING: Not all mixed pair coeffs generated from mixing. Use write_data with 'pair ij' option to store all pair coeffs. (src/write_data.cpp:312)


## Evaporation
#region          regevap block EDGE EDGE EDGE EDGE 140 EDGE units box
#fix             4 solvent evaporate ${evap} 1 regevap 156415

#run 		20000000
Total wall time: 8:29:02
