LAMMPS (29 Oct 2020)
  using 1 OpenMP thread(s) per MPI task
Created orthogonal box = (0.0000000 0.0000000 0.0000000) to (40.000000 40.000000 80.000000)
  1 by 1 by 4 MPI processor grid
Lattice spacing in x,y,z = 1.1485556 1.1485556 1.1485556
Created 49000 atoms
  create_atoms CPU = 0.028 seconds
Lattice spacing in x,y,z = 2.8114422 2.8114422 2.8114422
Created 0 atoms
  create_atoms CPU = 0.005 seconds
49000 atoms in group solvent
Balancing ...
Neighbor list info ...
  update every 1 steps, delay 10 steps, check yes
  max neighbors/atom: 2000, page size: 100000
  master list distance cutoff = 1.9
  ghost atom cutoff = 1.9
  binsize = 0.95, bins = 43 43 85
  1 neighbor lists, perpetual/occasional/extra = 1 0 0
  (1) pair lj/smooth/linear, perpetual
      attributes: half, newton on
      pair build: half/bin/newton
      stencil: half/bin/3d/newton
      bin: standard
 rebalancing time: 0.047 seconds
  iteration count = 3
  initial/final maximal load/proc = 20825.000 13475.000
  initial/final imbalance factor  = 1.7000000 1.1000000
  x cuts: 0.0000000 1.0000000
  y cuts: 0.0000000 1.0000000
  z cuts: 0.0000000 0.15625 0.28125 0.4375 1.0000000
Setting up Verlet run ...
  Unit style    : lj
  Current step  : 0
  Time step     : 0.005
Per MPI rank memory allocation (min/avg/max) = 12.96 | 13.24 | 13.58 Mbytes
Step Temp E_pair E_mol TotEng Press 
       0          0.5  -0.57754581            0   0.17243888   0.60677542 
  100000    0.3369227   -0.3207188            0   0.18465493   0.21058545 
Loop time of 436.242 on 4 procs for 100000 steps with 49000 atoms

Performance: 99027.503 tau/day, 229.230 timesteps/s
99.7% CPU use with 4 MPI tasks x 1 OpenMP threads

MPI task timing breakdown:
Section |  min time  |  avg time  |  max time  |%varavg| %total
---------------------------------------------------------------
Pair    | 69.924     | 128.46     | 266.71     | 707.5 | 29.45
Bond    | 0.010243   | 0.028695   | 0.078561   |  17.0 |  0.01
Neigh   | 25.411     | 47.506     | 101.04     | 450.1 | 10.89
Comm    | 22.811     | 214.55     | 315.71     | 784.8 | 49.18
Output  | 0.00015228 | 0.00017062 | 0.00017765 |   0.0 |  0.00
Modify  | 10.81      | 18.76      | 37.079     | 247.6 |  4.30
Other   |            | 26.93      |            |       |  6.17

Nlocal:        12250.0 ave       27675 max        5976 min
Histogram: 3 0 0 0 0 0 0 0 0 1
Nghost:        4555.25 ave        7067 max        2881 min
Histogram: 1 0 1 1 0 0 0 0 0 1
Neighs:        62433.5 ave      141492 max       29605 min
Histogram: 3 0 0 0 0 0 0 0 0 1

Total # of neighbors = 249734
Ave neighs/atom = 5.0966122
Ave special neighs/atom = 0.0000000
Neighbor list builds = 7451
Dangerous builds = 433
dynamic group thermo defined
New timer settings: style=full  mode=nosync  timeout=off
Setting up Verlet run ...
  Unit style    : lj
  Current step  : 100000
  Time step     : 0.005
Per MPI rank memory allocation (min/avg/max) = 17.87 | 22.68 | 29.87 Mbytes
Step Temp E_pair E_vdwl TotEng Press PotEng KinEng Volume 
  100000    0.3369227   -0.3207188   -0.3207188   0.18465493   0.21058545   -0.3207188   0.50537374       128000 
  101000   0.42662206  -0.28916239  -0.28916239   0.35075764   0.30517912  -0.28916239   0.63992003       128000 
  102000   0.46724506  -0.27686465  -0.27686465   0.42398863   0.34154971  -0.27686465   0.70085328       128000 
  103000   0.48699835  -0.27094279  -0.27094279   0.45953983   0.35561415  -0.27094279   0.73048262       128000 
  104000   0.49388709  -0.26954948  -0.26954948   0.47126604   0.36092277  -0.26954948   0.74081552       128000 
  105000   0.49548117   -0.2717875   -0.2717875   0.47141909   0.36360375   -0.2717875   0.74320658       128000 
  106000   0.49819316   -0.2693883   -0.2693883   0.47788619   0.36168539   -0.2693883   0.74727449       128000 
  107000   0.49935918  -0.26835823  -0.26835823   0.48066526   0.36866695  -0.26835823   0.74902348       128000 
  108000   0.49914505   -0.2680833   -0.2680833     0.480619   0.36852291   -0.2680833    0.7487023       128000 
  109000   0.50179868  -0.26626788  -0.26626788   0.48641478   0.37408367  -0.26626788   0.75268266       128000 
  110000   0.50308375  -0.26894862  -0.26894862    0.4856616   0.36464408  -0.26894862   0.75461022       128000 
  111000     0.501118  -0.26777916  -0.26777916   0.48388249   0.36835407  -0.26777916   0.75166165       128000 
  112000   0.50274323  -0.26790425  -0.26790425   0.48619521   0.37001514  -0.26790425   0.75409946       128000 
  113000   0.50395997  -0.26546287  -0.26546287   0.49046166   0.37817876  -0.26546287   0.75592453       128000 
  114000   0.50275948  -0.26620637  -0.26620637   0.48791747   0.37275618  -0.26620637   0.75412383       128000 
  115000   0.50174841  -0.26893014  -0.26893014   0.48367711   0.36462354  -0.26893014   0.75260725       128000 
  116000   0.50143115   -0.2687393   -0.2687393   0.48339207   0.36750143   -0.2687393   0.75213137       128000 
  117000   0.49876482  -0.26721492  -0.26721492   0.48091704   0.37236619  -0.26721492   0.74813197       128000 
  118000   0.50236594  -0.27046192  -0.27046192   0.48307162   0.36312447  -0.27046192   0.75353354       128000 
  119000    0.5027203   -0.2693977   -0.2693977   0.48466737   0.37222081   -0.2693977   0.75406507       128000 
  120000   0.50243218  -0.26849058  -0.26849058    0.4851423    0.3705927  -0.26849058   0.75363288       128000 
  121000   0.50167864  -0.26576824  -0.26576824   0.48673436   0.37312685  -0.26576824    0.7525026       128000 
  122000   0.50517522  -0.26809671  -0.26809671   0.48965066   0.37535469  -0.26809671   0.75774737       128000 
  123000   0.50358106  -0.26789988  -0.26789988   0.48745629   0.37347588  -0.26789988   0.75535617       128000 
  124000   0.50439138  -0.26947839  -0.26947839   0.48709323   0.36531475  -0.26947839   0.75657163       128000 
  125000   0.50093974  -0.26701139  -0.26701139   0.48438288   0.37297872  -0.26701139   0.75139427       128000 
  126000   0.49898097   -0.2693929   -0.2693929   0.47906328   0.36604387   -0.2693929   0.74845618       128000 
  127000   0.50455515  -0.27031853  -0.27031853   0.48649875   0.36315912  -0.27031853   0.75681727       128000 
  128000   0.49911848  -0.26763268  -0.26763268   0.48102975    0.3692345  -0.26763268   0.74866244       128000 
  129000   0.50072888   -0.2690384   -0.2690384    0.4820396      0.36324   -0.2690384     0.751078       128000 
  130000   0.50368344  -0.26765858  -0.26765858   0.48785116   0.36994706  -0.26765858   0.75550974       128000 
  131000   0.50493052  -0.26597171  -0.26597171   0.49140861    0.3719509  -0.26597171   0.75738032       128000 
  132000   0.50650327  -0.26618273  -0.26618273   0.49355667   0.37414393  -0.26618273    0.7597394       128000 
  133000    0.5059768  -0.26670576  -0.26670576   0.49224394   0.37062015  -0.26670576   0.75894971       128000 
  134000   0.50558572  -0.26680554  -0.26680554   0.49155756   0.37163823  -0.26680554   0.75836311       128000 
  135000   0.50140376  -0.26802856  -0.26802856   0.48406173    0.3673753  -0.26802856   0.75209029       128000 
  136000   0.50340154  -0.27014734  -0.27014734   0.48493955   0.36099286  -0.27014734   0.75508689       128000 
  137000   0.50315538   -0.2683339   -0.2683339   0.48638376   0.36866563   -0.2683339   0.75471767       128000 
  138000   0.50424939  -0.26696559  -0.26696559   0.48939306   0.37321209  -0.26696559   0.75635865       128000 
  139000   0.50356943  -0.26873443  -0.26873443    0.4866043   0.36362576  -0.26873443   0.75533873       128000 
  140000   0.49895569  -0.26509812  -0.26509812   0.48332014   0.37315104  -0.26509812   0.74841826       128000 
  141000   0.50321165  -0.26752068  -0.26752068   0.48728138   0.36735479  -0.26752068   0.75480207       128000 
  142000   0.50161553  -0.26811729  -0.26811729   0.48429065   0.36790693  -0.26811729   0.75240795       128000 
  143000   0.50243622  -0.26582199  -0.26582199   0.48781696   0.37427993  -0.26582199   0.75363894       128000 
  144000   0.50312787  -0.26794234  -0.26794234   0.48673407   0.36752125  -0.26794234    0.7546764       128000 
  145000   0.50413777  -0.26574031  -0.26574031    0.4904509   0.37730899  -0.26574031   0.75619122       128000 
  146000   0.50340922  -0.26592166  -0.26592166   0.48917676   0.37561008  -0.26592166   0.75509842       128000 
  147000   0.50388445  -0.26800059  -0.26800059   0.48781066   0.37066459  -0.26800059   0.75581124       128000 
  148000   0.50628193  -0.26768698  -0.26768698   0.49172041   0.37081214  -0.26768698   0.75940739       128000 
  149000   0.50366673  -0.26695694  -0.26695694   0.48852774   0.37090225  -0.26695694   0.75548467       128000 
  150000   0.50843012  -0.26578271  -0.26578271   0.49684691   0.37576186  -0.26578271   0.76262962       128000 
  151000   0.50624174  -0.26562075  -0.26562075   0.49372636   0.37636961  -0.26562075   0.75934711       128000 
  152000   0.50608732  -0.26611791  -0.26611791   0.49299758   0.37352751  -0.26611791   0.75911548       128000 
  153000   0.50338981  -0.26470285  -0.26470285   0.49036645   0.37615973  -0.26470285    0.7550693       128000 
  154000   0.50365711  -0.26740159  -0.26740159   0.48806865   0.37448252  -0.26740159   0.75547024       128000 
  155000   0.50308693  -0.26737772  -0.26737772   0.48723727   0.37076358  -0.26737772   0.75461499       128000 
  156000   0.50385019  -0.26855702  -0.26855702   0.48720284   0.37215351  -0.26855702   0.75575986       128000 
  157000   0.50467422  -0.26688046  -0.26688046   0.49011542   0.37466966  -0.26688046   0.75699588       128000 
  158000   0.50597475  -0.26777799  -0.26777799   0.49116865   0.37550246  -0.26777799   0.75894664       128000 
  159000   0.50568861  -0.26689267  -0.26689267   0.49162476   0.37189839  -0.26689267   0.75851743       128000 
  160000   0.50602721  -0.26755014  -0.26755014   0.49147518    0.3691489  -0.26755014   0.75902532       128000 
  161000   0.50159356  -0.26714836  -0.26714836   0.48522662   0.37242261  -0.26714836   0.75237498       128000 
  162000   0.50753787  -0.26848277  -0.26848277   0.49280849   0.37211019  -0.26848277   0.76129126       128000 
  163000   0.50617212  -0.26712016  -0.26712016   0.49212252   0.36764624  -0.26712016   0.75924269       128000 
  164000   0.50746577  -0.26681659  -0.26681659   0.49436653   0.37338656  -0.26681659   0.76118312       128000 
  165000   0.50711022  -0.26620428  -0.26620428   0.49444552   0.37538821  -0.26620428    0.7606498       128000 
  166000   0.50392827  -0.26459986  -0.26459986   0.49127711   0.37627473  -0.26459986   0.75587698       128000 
  167000   0.50601599  -0.26576871  -0.26576871   0.49323978   0.37048769  -0.26576871   0.75900849       128000 
  168000   0.50273413  -0.26592325  -0.26592325   0.48816256    0.3732177  -0.26592325    0.7540858       128000 
  169000   0.50409261  -0.26539867  -0.26539867   0.49072481   0.37613225  -0.26539867   0.75612349       128000 
  170000   0.50633989  -0.26679075  -0.26679075   0.49270359   0.37381358  -0.26679075   0.75949434       128000 
  171000   0.50781324  -0.26688726  -0.26688726   0.49481706   0.36917681  -0.26688726   0.76170432       128000 
  172000   0.50560202  -0.26671266  -0.26671266   0.49167489   0.37088255  -0.26671266   0.75838755       128000 
  173000   0.50671177  -0.26618672  -0.26618672   0.49386541   0.37385801  -0.26618672   0.76005214       128000 
  174000   0.50907112  -0.26698179  -0.26698179   0.49660932   0.37346994  -0.26698179    0.7635911       128000 
  175000   0.50739399  -0.26423933  -0.26423933   0.49683613   0.37865004  -0.26423933   0.76107546       128000 
  176000   0.51133014  -0.26501843  -0.26501843   0.50196113   0.37928916  -0.26501843   0.76697956       128000 
  177000   0.51075491  -0.26526098  -0.26526098   0.50085575   0.37794693  -0.26526098   0.76611673       128000 
  178000   0.50811244   -0.2645431   -0.2645431      0.49761    0.3759423   -0.2645431    0.7621531       128000 
  179000   0.51094644  -0.26607107  -0.26607107   0.50033295   0.38095699  -0.26607107   0.76640402       128000 
  180000    0.5097243   -0.2650982   -0.2650982   0.49947265   0.37431174   -0.2650982   0.76457085       128000 
  181000   0.50940092  -0.26736067  -0.26736067   0.49672512   0.37603208  -0.26736067   0.76408578       128000 
  182000   0.50559242  -0.26713756  -0.26713756   0.49123559   0.37086499  -0.26713756   0.75837316       128000 
  183000   0.50585214  -0.26578728  -0.26578728   0.49297544   0.37636121  -0.26578728   0.75876272       128000 
  184000    0.5091758  -0.26720825  -0.26720825   0.49653987   0.37404126  -0.26720825   0.76374812       128000 
  185000   0.50802416  -0.26470834  -0.26470834   0.49731234    0.3789494  -0.26470834   0.76202068       128000 
  186000    0.5106823  -0.26550404  -0.26550404   0.50050378   0.37535885  -0.26550404   0.76600782       128000 
  187000   0.50876531  -0.26567485  -0.26567485   0.49745754   0.37926213  -0.26567485   0.76313239       128000 
  188000   0.50510711  -0.26581712  -0.26581712   0.49182809   0.37351602  -0.26581712   0.75764521       128000 
  189000    0.5069123  -0.26697728  -0.26697728   0.49337565   0.37011025  -0.26697728   0.76035293       128000 
  190000   0.50619622  -0.26678296  -0.26678296   0.49249587   0.37154754  -0.26678296   0.75927883       128000 
  191000    0.5083432  -0.26626827  -0.26626827   0.49623097   0.37661185  -0.26626827   0.76249924       128000 
  192000   0.51023221  -0.26514022  -0.26514022   0.50019247   0.37844396  -0.26514022   0.76533269       128000 
  193000   0.50985961  -0.26564723  -0.26564723   0.49912657   0.37786344  -0.26564723    0.7647738       128000 
  194000   0.50860257  -0.26721045  -0.26721045   0.49567784    0.3719678  -0.26721045   0.76288829       128000 
  195000   0.50926138  -0.26512805  -0.26512805   0.49874844   0.37604546  -0.26512805   0.76387648       128000 
  196000   0.50587362  -0.26707418  -0.26707418   0.49172076   0.36959945  -0.26707418   0.75879494       128000 
  197000   0.50928151   -0.2663388   -0.2663388   0.49756787    0.3758517   -0.2663388   0.76390667       128000 
  198000    0.5094615   -0.2657207   -0.2657207   0.49845595   0.37616264   -0.2657207   0.76417665       128000 
  199000   0.50789151  -0.26340121  -0.26340121    0.4984205   0.37980779  -0.26340121   0.76182171       128000 
  200000   0.50906471  -0.26406053  -0.26406053   0.49952095   0.38006836  -0.26406053   0.76358148       128000 
  201000   0.50706575  -0.26397767  -0.26397767   0.49660544   0.37824794  -0.26397767   0.76058311       128000 
  202000   0.50904375  -0.26682727  -0.26682727   0.49672278   0.37393181  -0.26682727   0.76355005       128000 
  203000   0.50903465  -0.26554021  -0.26554021   0.49799618   0.37594625  -0.26554021   0.76353639       128000 
  204000   0.51353322  -0.26519603  -0.26519603   0.50508808   0.38119136  -0.26519603   0.77028411       128000 
  205000   0.50769858  -0.26506587  -0.26506587   0.49646646   0.37717465  -0.26506587   0.76153233       128000 
  206000   0.51171401  -0.26522844  -0.26522844   0.50232691   0.37640061  -0.26522844   0.76755536       128000 
  207000   0.51111791  -0.26565152  -0.26565152    0.5010097   0.37407863  -0.26565152   0.76666122       128000 
  208000    0.5107525  -0.26635182  -0.26635182   0.49976129   0.37385093  -0.26635182   0.76611311       128000 
  209000   0.51257788   -0.2660236   -0.2660236   0.50282752   0.37674093   -0.2660236   0.76885112       128000 
  210000   0.51025623  -0.26508725  -0.26508725   0.50028147    0.3764302  -0.26508725   0.76536873       128000 
  211000    0.5125413  -0.26827799  -0.26827799   0.50051828   0.37001297  -0.26827799   0.76879626       128000 
  212000    0.5111851    -0.266718    -0.266718   0.50004401   0.37295827    -0.266718   0.76676201       128000 
  213000   0.50667007  -0.26455677  -0.26455677   0.49543283   0.37856517  -0.26455677    0.7599896       128000 
  214000   0.50854514  -0.26565766  -0.26565766   0.49714448   0.37852731  -0.26565766   0.76280214       128000 
  215000   0.51055793  -0.26596826  -0.26596826     0.499853    0.3751538  -0.26596826   0.76582126       128000 
  216000   0.51266494  -0.26494304  -0.26494304   0.50403867   0.37606202  -0.26494304   0.76898171       128000 
  217000   0.51027211  -0.26508385  -0.26508385   0.50030869   0.37919249  -0.26508385   0.76539254       128000 
  218000   0.51149419  -0.26593903  -0.26593903   0.50128659    0.3758551  -0.26593903   0.76722562       128000 
  219000   0.50816766  -0.26463123  -0.26463123   0.49760471   0.37771833  -0.26463123   0.76223594       128000 
  220000    0.5102021  -0.26382471  -0.26382471   0.50146282   0.38210637  -0.26382471   0.76528753       128000 
  221000   0.51378184  -0.26450941  -0.26450941   0.50614761   0.37922462  -0.26450941   0.77065703       128000 
  222000   0.51289943  -0.26395363  -0.26395363   0.50537981   0.37892928  -0.26395363   0.76933344       128000 
  223000   0.51129032  -0.26461137  -0.26461137   0.50230846   0.37573704  -0.26461137   0.76691983       128000 
  224000   0.51174817  -0.26628789  -0.26628789   0.50131871   0.37690159  -0.26628789    0.7676066       128000 
  225000   0.51214743  -0.26411032  -0.26411032   0.50409514   0.38049339  -0.26411032   0.76820546       128000 
  226000   0.51135945  -0.26430604  -0.26430604   0.50271748   0.38191276  -0.26430604   0.76702353       128000 
  227000   0.51021963  -0.26420507  -0.26420507   0.50110875   0.38025124  -0.26420507   0.76531382       128000 
  228000   0.50947957  -0.26627112  -0.26627112   0.49793265   0.37473578  -0.26627112   0.76420376       128000 
  229000    0.5128293  -0.26462874  -0.26462874   0.50459951   0.37978647  -0.26462874   0.76922825       128000 
  230000   0.51046799  -0.26714594  -0.26714594   0.49854042   0.37202215  -0.26714594   0.76568636       128000 
  231000   0.51144927  -0.26516004  -0.26516004   0.50199821   0.37679042  -0.26516004   0.76715824       128000 
  232000   0.51249144  -0.26590056  -0.26590056   0.50282091   0.37306635  -0.26590056   0.76872147       128000 
  233000   0.51301732  -0.26323247  -0.26323247   0.50627781    0.3837424  -0.26323247   0.76951027       128000 
  234000   0.51503794  -0.26496747  -0.26496747   0.50757367   0.38206315  -0.26496747   0.77254114       128000 
  235000   0.51634669  -0.26582386  -0.26582386   0.50868037   0.37766463  -0.26582386   0.77450423       128000 
  236000   0.51491711   -0.2653488   -0.2653488    0.5070111   0.38168849   -0.2653488    0.7723599       128000 
  237000   0.51531244  -0.26364244  -0.26364244   0.50931044   0.38444049  -0.26364244   0.77295288       128000 
  238000      0.51441  -0.26509382  -0.26509382   0.50650543   0.37844501  -0.26509382   0.77159925       128000 
  239000   0.51532203  -0.26256614  -0.26256614   0.51040113   0.38659131  -0.26256614   0.77296727       128000 
  240000   0.51365027  -0.26456124  -0.26456124   0.50589844   0.38328944  -0.26456124   0.77045968       128000 
  241000    0.5131868  -0.26416875  -0.26416875   0.50559575    0.3833514  -0.26416875   0.76976449       128000 
  242000   0.51647105   -0.2654857   -0.2654857   0.50920507   0.37494886   -0.2654857   0.77469077       128000 
  243000   0.51685617  -0.26559651  -0.26559651   0.50967193   0.37865943  -0.26559651   0.77526844       128000 
  244000   0.51622731  -0.26504453  -0.26504453   0.50928063   0.37551573  -0.26504453   0.77432516       128000 
  245000    0.5169948  -0.26334977  -0.26334977   0.51212661   0.38463546  -0.26334977   0.77547638       128000 
  246000   0.51486293  -0.26334345  -0.26334345   0.50893519   0.38559317  -0.26334345   0.77227864       128000 
  247000   0.51654877  -0.26403391  -0.26403391   0.51077343    0.3852677  -0.26403391   0.77480734       128000 
  248000   0.51516681  -0.26498611  -0.26498611   0.50774833   0.37719554  -0.26498611   0.77273444       128000 
  249000   0.51473633  -0.26411093  -0.26411093    0.5079778   0.37885282  -0.26411093   0.77208873       128000 
  250000   0.51678943  -0.26362352  -0.26362352   0.51154481   0.38137284  -0.26362352   0.77516833       128000 
  251000   0.51596329  -0.26500103  -0.26500103   0.50892811   0.38296684  -0.26500103   0.77392914       128000 
  252000   0.51563731  -0.26379681  -0.26379681   0.50964337   0.38365854  -0.26379681   0.77344018       128000 
  253000   0.51309414  -0.26447966  -0.26447966   0.50514585   0.38230539  -0.26447966   0.76962551       128000 
  254000   0.51679416  -0.26528358  -0.26528358   0.50989184   0.38301848  -0.26528358   0.77517542       128000 
  255000   0.51702295   -0.2633638   -0.2633638    0.5121548   0.37858076   -0.2633638    0.7755186       128000 
  256000   0.51709998  -0.26353664  -0.26353664    0.5120975   0.38459151  -0.26353664   0.77563413       128000 
  257000   0.51614662   -0.2650628   -0.2650628   0.50914133   0.37556897   -0.2650628   0.77420414       128000 
  258000   0.51612197  -0.26232127  -0.26232127   0.51184588   0.38667965  -0.26232127   0.77416715       128000 
  259000   0.51345198  -0.26357929  -0.26357929   0.50658296   0.38451109  -0.26357929   0.77016225       128000 
  260000   0.51250058  -0.26338345  -0.26338345   0.50535173   0.37873066  -0.26338345   0.76873518       128000 
  261000   0.51393831  -0.26475701  -0.26475701   0.50613472    0.3812342  -0.26475701   0.77089173       128000 
  262000    0.5179492  -0.26390717  -0.26390717   0.51300077    0.3859182  -0.26390717   0.77690795       128000 
  263000   0.51589638  -0.26168411  -0.26168411   0.51214466   0.39137812  -0.26168411   0.77382877       128000 
  264000   0.51502486  -0.26490002  -0.26490002    0.5076215   0.38219728  -0.26490002   0.77252152       128000 
  265000   0.51506435  -0.26354096  -0.26354096   0.50903979   0.38293086  -0.26354096   0.77258076       128000 
  266000   0.51563016  -0.26618685  -0.26618685   0.50724261   0.37875948  -0.26618685   0.77342946       128000 
  267000   0.51405619  -0.26347684  -0.26347684   0.50759172   0.38829954  -0.26347684   0.77106856       128000 
  268000   0.51397477  -0.26468394  -0.26468394   0.50626248   0.37866149  -0.26468394   0.77094642       128000 
  269000   0.51738633  -0.26438093  -0.26438093   0.51168272   0.38124626  -0.26438093   0.77606365       128000 
  270000   0.51466025  -0.26373281  -0.26373281   0.50824181   0.38230515  -0.26373281   0.77197462       128000 
  271000   0.51420677   -0.2630094   -0.2630094   0.50828502   0.38393168   -0.2630094   0.77129442       128000 
  272000   0.51726255  -0.26525772  -0.26525772   0.51062027    0.3799182  -0.26525772   0.77587799       128000 
  273000   0.51620336  -0.26626429  -0.26626429   0.50802495   0.37347774  -0.26626429   0.77428924       128000 
  274000   0.51658075   -0.2627064   -0.2627064   0.51214892   0.38633272   -0.2627064   0.77485532       128000 
  275000   0.51614124  -0.26470115  -0.26470115   0.50949491    0.3843458  -0.26470115   0.77419606       128000 
  276000   0.51765481  -0.26127409  -0.26127409   0.51519227   0.38975441  -0.26127409   0.77646636       128000 
  277000   0.51704431  -0.26332541  -0.26332541   0.51222522   0.38525539  -0.26332541   0.77555063       128000 
  278000   0.51727967  -0.26556056  -0.26556056   0.51034311     0.382122  -0.26556056   0.77590367       128000 
  279000   0.51681014  -0.26574364  -0.26574364   0.50945574    0.3781423  -0.26574364   0.77519939       128000 
  280000   0.51760009  -0.26395594  -0.26395594   0.51242835   0.38562173  -0.26395594   0.77638428       128000 
  281000   0.51994045  -0.26443265  -0.26443265   0.51546211   0.38051481  -0.26443265   0.77989475       128000 
  282000   0.51899405  -0.26346207  -0.26346207   0.51501311   0.38298152  -0.26346207   0.77847518       128000 
  283000   0.51693988  -0.26363133  -0.26363133   0.51176267   0.38432993  -0.26363133     0.775394       128000 
  284000   0.51518319  -0.26239302  -0.26239302   0.51036598   0.38556694  -0.26239302   0.77275901       128000 
  285000    0.5189705  -0.26530123  -0.26530123   0.51313864   0.37861919  -0.26530123   0.77843986       128000 
  286000   0.51809252  -0.26374322  -0.26374322   0.51337971   0.38534654  -0.26374322   0.77712293       128000 
  287000   0.51386832  -0.26342884  -0.26342884   0.50735791   0.38361611  -0.26342884   0.77078675       128000 
  288000   0.51665826  -0.26389875  -0.26389875   0.51107283   0.38168333  -0.26389875   0.77497158       128000 
  289000   0.51833261  -0.26222659  -0.26222659   0.51525646   0.38648837  -0.26222659   0.77748305       128000 
  290000   0.52100365  -0.26446511  -0.26446511   0.51702441   0.38603593  -0.26446511   0.78148952       128000 
  291000   0.52052518  -0.26146053  -0.26146053   0.51931131   0.38677876  -0.26146053   0.78077184       128000 
  292000   0.52150912  -0.26355453  -0.26355453   0.51869319   0.38761275  -0.26355453   0.78224772       128000 
  293000   0.52121561   -0.2611763   -0.2611763   0.52063116   0.39135614   -0.2611763   0.78180746       128000 
  294000    0.5186062   -0.2614181   -0.2614181   0.51647533   0.39040943   -0.2614181   0.77789342       128000 
  295000   0.52108244  -0.26471455  -0.26471455   0.51689315   0.38033261  -0.26471455    0.7816077       128000 
  296000   0.52352611  -0.26264841  -0.26264841   0.52262473   0.38960029  -0.26264841   0.78527314       128000 
  297000   0.51887491  -0.26250769  -0.26250769   0.51578879   0.38649145  -0.26250769   0.77829649       128000 
  298000   0.51895218  -0.26258257  -0.26258257   0.51582981   0.38489961  -0.26258257   0.77841238       128000 
  299000   0.52164799  -0.26204354  -0.26204354   0.52041247   0.39064925  -0.26204354   0.78245601       128000 
  300000   0.52054845  -0.26441367  -0.26441367   0.51639307   0.38254682  -0.26441367   0.78080674       128000 
  301000   0.52094257  -0.26237847  -0.26237847   0.51901944   0.38353842  -0.26237847   0.78139791       128000 
  302000   0.52120649  -0.26281143  -0.26281143   0.51898235    0.3893687  -0.26281143   0.78179378       128000 
  303000    0.5220436  -0.26503811  -0.26503811   0.51801131   0.38567878  -0.26503811   0.78304943       128000 
  304000   0.52015017  -0.26217226  -0.26217226   0.51803708    0.3878922  -0.26217226   0.78020934       128000 
  305000   0.51898799  -0.26046553  -0.26046553   0.51800057    0.3958867  -0.26046553    0.7784661       128000 
  306000   0.52065951  -0.26346186  -0.26346186   0.51751147   0.38824174  -0.26346186   0.78097333       128000 
  307000   0.52136938  -0.26281895  -0.26281895   0.51921915    0.3917497  -0.26281895    0.7820381       128000 
  308000    0.5187579  -0.26373546  -0.26373546   0.51438551   0.38677781  -0.26373546   0.77812097       128000 
  309000   0.51755839  -0.26215264  -0.26215264    0.5141691   0.38893925  -0.26215264   0.77632174       128000 
  310000   0.51869924  -0.26197413  -0.26197413   0.51605885   0.38874679  -0.26197413   0.77803298       128000 
  311000   0.51934809  -0.26118549  -0.26118549   0.51782075   0.39060272  -0.26118549   0.77900624       128000 
  312000   0.51975119  -0.26366868  -0.26366868   0.51594219   0.38832277  -0.26366868   0.77961087       128000 
  313000   0.52384644  -0.26340564  -0.26340564   0.52234798   0.38407091  -0.26340564   0.78575362       128000 
  314000   0.52301306  -0.26153174  -0.26153174   0.52297183   0.39333953  -0.26153174   0.78450357       128000 
  315000   0.52116043   -0.2610073   -0.2610073   0.52071739   0.39367805   -0.2610073   0.78172469       128000 
  316000   0.52142514   -0.2634886   -0.2634886   0.51863314   0.38527827   -0.2634886   0.78212174       128000 
  317000   0.52323568  -0.26351318  -0.26351318   0.52132432    0.3832577  -0.26351318    0.7848375       128000 
  318000   0.51958898  -0.26073861  -0.26073861   0.51862895   0.39307615  -0.26073861   0.77936756       128000 
  319000   0.52329041  -0.26177405  -0.26177405   0.52314556   0.38901029  -0.26177405    0.7849196       128000 
  320000   0.52462858  -0.26031872  -0.26031872   0.52660809   0.39710293  -0.26031872   0.78692681       128000 
  321000   0.52214154  -0.26091399  -0.26091399   0.52228234   0.39203852  -0.26091399   0.78319633       128000 
  322000   0.52156755  -0.26170478  -0.26170478   0.52063057   0.38796102  -0.26170478   0.78233536       128000 
  323000   0.52083511  -0.26347807  -0.26347807   0.51775865   0.38642707  -0.26347807   0.78123672       128000 
  324000   0.51917146  -0.26252798  -0.26252798   0.51621332    0.3865636  -0.26252798    0.7787413       128000 
  325000   0.52376774  -0.26353137  -0.26353137   0.52210421   0.38861684  -0.26353137   0.78563558       128000 
  326000   0.52287381  -0.26159587  -0.26159587   0.52269884   0.39146302  -0.26159587   0.78429471       128000 
  327000   0.52271982  -0.26080546  -0.26080546   0.52325826   0.39369887  -0.26080546   0.78406372       128000 
  328000   0.52160914  -0.26099452  -0.26099452   0.52140322    0.3912638  -0.26099452   0.78239774       128000 
  329000   0.52395687  -0.26384767  -0.26384767    0.5220716   0.38756538  -0.26384767   0.78591927       128000 
  330000   0.52173319  -0.26214512  -0.26214512   0.52043869   0.38845651  -0.26214512   0.78258381       128000 
  331000   0.52172862  -0.26392449  -0.26392449   0.51865247   0.38668253  -0.26392449   0.78257696       128000 
  332000   0.52258029  -0.26121036  -0.26121036   0.52264407   0.39006193  -0.26121036   0.78385443       128000 
  333000   0.52216864  -0.25996832  -0.25996832   0.52326866   0.39214276  -0.25996832   0.78323698       128000 
  334000   0.52377788  -0.25988493  -0.25988493   0.52576586    0.3926268  -0.25988493   0.78565079       128000 
  335000   0.52639634  -0.26318587  -0.26318587   0.52639253   0.38887478  -0.26318587    0.7895784       128000 
  336000    0.5243601  -0.26422376  -0.26422376   0.52230034    0.3840516  -0.26422376    0.7865241       128000 
  337000   0.52226363  -0.26185526  -0.26185526   0.52152419    0.3935747  -0.26185526   0.78337945       128000 
  338000   0.52416079  -0.25995265  -0.25995265   0.52627248   0.39389734  -0.25995265   0.78622513       128000 
  339000   0.52294648  -0.26215945  -0.26215945   0.52224427   0.38940053  -0.26215945   0.78440372       128000 
  340000   0.52241993  -0.26413588  -0.26413588   0.51947802   0.38407514  -0.26413588    0.7836139       128000 
  341000   0.52247512  -0.26345641  -0.26345641   0.52024028     0.388105  -0.26345641   0.78369668       128000 
  342000   0.52511488  -0.26364088  -0.26364088   0.52401537    0.3873039  -0.26364088   0.78765625       128000 
  343000   0.52372178  -0.26161362  -0.26161362   0.52395302    0.3853396  -0.26161362   0.78556664       128000 
  344000    0.5243655  -0.26178032  -0.26178032   0.52475188   0.38778575  -0.26178032    0.7865322       128000 
  345000   0.52709565  -0.25992771  -0.25992771   0.53069964    0.3948906  -0.25992771   0.79062735       128000 
  346000   0.52202076  -0.26150134  -0.26150134   0.52151382    0.3915185  -0.26150134   0.78301516       128000 
  347000   0.52287411  -0.26159505  -0.26159505    0.5227001   0.39100136  -0.26159505   0.78429516       128000 
  348000   0.52243252  -0.26186294  -0.26186294   0.52176984   0.39365143  -0.26186294   0.78363278       128000 
  349000   0.52685167  -0.26127464  -0.26127464   0.52898673   0.39541987  -0.26127464   0.79026137       128000 
  350000   0.52763416  -0.26006524  -0.26006524   0.53136985   0.39392704  -0.26006524   0.79143509       128000 
  351000   0.52171682  -0.26059986  -0.26059986    0.5219594   0.39415285  -0.26059986   0.78255926       128000 
  352000   0.52161936  -0.26166646  -0.26166646   0.52074662    0.3894831  -0.26166646   0.78241307       128000 
  353000   0.52559185  -0.26092972  -0.26092972   0.52744197   0.39501495  -0.26092972   0.78837168       128000 
  354000   0.52711201  -0.26053425  -0.26053425   0.53011763   0.39257579  -0.26053425   0.79065188       128000 
  355000   0.52485033    -0.261832    -0.261832   0.52542743    0.3900022    -0.261832   0.78725943       128000 
  356000   0.52739642  -0.26234518  -0.26234518   0.52873331   0.39209595  -0.26234518   0.79107849       128000 
  357000   0.52367252  -0.26285347  -0.26285347   0.52263929    0.3901726  -0.26285347   0.78549275       128000 
  358000   0.52342759  -0.25943232  -0.25943232   0.52569305   0.39416119  -0.25943232   0.78512537       128000 
  359000   0.52531016  -0.26124429  -0.26124429   0.52670487   0.38985339  -0.26124429   0.78794916       128000 
  360000   0.52624827   -0.2605683   -0.2605683   0.52878799   0.39076779   -0.2605683   0.78935629       128000 
  361000   0.52583375  -0.26033149  -0.26033149   0.52840304   0.39287752  -0.26033149   0.78873453       128000 
  362000   0.52660598   -0.2600792   -0.2600792   0.52981366   0.39933473   -0.2600792   0.78989285       128000 
  363000   0.52268196  -0.26179351  -0.26179351   0.52221343   0.39053555  -0.26179351   0.78400694       128000 
  364000   0.52442091  -0.26158238  -0.26158238   0.52503293    0.3936899  -0.26158238   0.78661531       128000 
  365000   0.52773075  -0.26355463  -0.26355463   0.52802534   0.38749118  -0.26355463   0.79157997       128000 
  366000   0.52851761  -0.26192191  -0.26192191   0.53083833   0.39013289  -0.26192191   0.79276023       128000 
  367000   0.52711296  -0.25798519  -0.25798519   0.53266811   0.39974195  -0.25798519    0.7906533       128000 
  368000   0.52775736  -0.26092141  -0.26092141   0.53069847    0.3928486  -0.26092141   0.79161989       128000 
  369000   0.52555679  -0.26221774  -0.26221774   0.52610136   0.39027868  -0.26221774    0.7883191       128000 
  370000   0.52517039  -0.26117674  -0.26117674   0.52656278    0.3955965  -0.26117674   0.78773951       128000 
  371000   0.52603802  -0.25975707  -0.25975707   0.52928386   0.39407015  -0.25975707   0.78904093       128000 
  372000   0.52608321  -0.25977319  -0.25977319   0.52933553   0.39714768  -0.25977319   0.78910871       128000 
  373000   0.52701627  -0.26128593  -0.26128593   0.52922234    0.3913147  -0.26128593   0.79050827       128000 
  374000   0.52864593  -0.26181493  -0.26181493   0.53113778   0.39478821  -0.26181493   0.79295272       128000 
  375000   0.52884706  -0.26151441  -0.26151441   0.53173998   0.39202106  -0.26151441   0.79325439       128000 
  376000   0.52781082  -0.26216073  -0.26216073   0.52953934   0.38955177  -0.26216073   0.79170007       128000 
  377000   0.52891961  -0.26263041  -0.26263041   0.53073281   0.38977059  -0.26263041   0.79336322       128000 
  378000   0.52339744   -0.2608172   -0.2608172   0.52426293    0.3912684   -0.2608172   0.78508013       128000 
  379000   0.52909331  -0.26289507  -0.26289507   0.53072869   0.39137603  -0.26289507   0.79362377       128000 
  380000   0.52841625  -0.26347918  -0.26347918   0.52912902   0.38424479  -0.26347918    0.7926082       128000 
  381000   0.52687977  -0.25923721  -0.25923721   0.53106632   0.39854371  -0.25923721   0.79030353       128000 
  382000   0.52738652  -0.25984908  -0.25984908   0.53121455   0.39588775  -0.25984908   0.79106364       128000 
  383000   0.52690692  -0.25890723  -0.25890723   0.53143703   0.40014724  -0.25890723   0.79034426       128000 
  384000   0.52607752  -0.26321385  -0.26321385   0.52588633   0.38338025  -0.26321385   0.78910018       128000 
  385000   0.52474133  -0.26226458  -0.26226458   0.52483135   0.39186329  -0.26226458   0.78709593       128000 
  386000   0.52647954  -0.26088659  -0.26088659   0.52881661   0.39762696  -0.26088659    0.7897032       128000 
  387000   0.52888406  -0.26124165  -0.26124165   0.53206825   0.39697992  -0.26124165    0.7933099       128000 
  388000   0.52728813  -0.26385758  -0.26385758   0.52705847   0.38769282  -0.26385758   0.79091605       128000 
  389000   0.52670442  -0.26153093  -0.26153093   0.52850958   0.39071972  -0.26153093    0.7900405       128000 
  390000   0.52909168   -0.2604478   -0.2604478   0.53317352   0.39394329   -0.2604478   0.79362132       128000 
  391000   0.53043761  -0.26034599  -0.26034599   0.53529419   0.39782516  -0.26034599   0.79564017       128000 
  392000   0.52775767  -0.25996637  -0.25996637   0.53165397   0.39264321  -0.25996637   0.79162034       128000 
  393000   0.52912964  -0.26050246  -0.26050246    0.5331758   0.39374579  -0.26050246   0.79367826       128000 
  394000   0.53111262  -0.26000086  -0.26000086   0.53665181   0.39629509  -0.26000086   0.79665268       128000 
  395000   0.53115251  -0.26100336  -0.26100336   0.53570915   0.39394269  -0.26100336   0.79671251       128000 
  396000   0.52854341  -0.25979771  -0.25979771   0.53300123   0.39490963  -0.25979771   0.79279894       128000 
  397000   0.53028846  -0.26297601  -0.26297601   0.53244045   0.39123184  -0.26297601   0.79541646       128000 
  398000   0.52726679  -0.25940111  -0.25940111   0.53148293   0.39182744  -0.25940111   0.79088404       128000 
  399000   0.52930302  -0.26326974  -0.26326974    0.5306686   0.38255808  -0.26326974   0.79393833       128000 
  400000   0.52945136  -0.26049139  -0.26049139   0.53366945   0.39577926  -0.26049139   0.79416084       128000 
  401000   0.52978884  -0.25804815  -0.25804815    0.5366189   0.39892901  -0.25804815   0.79466705       128000 
  402000   0.53055453  -0.26042288  -0.26042288   0.53539266   0.39780135  -0.26042288   0.79581555       128000 
  403000   0.53004261   -0.2599318   -0.2599318   0.53511589   0.39837379   -0.2599318   0.79504769       128000 
  404000   0.53104826  -0.26223694  -0.26223694   0.53431919   0.39240666  -0.26223694   0.79655613       128000 
  405000   0.53074878  -0.26000215  -0.26000215   0.53610477   0.39908841  -0.26000215   0.79610692       128000 
  406000   0.53168504  -0.26078723  -0.26078723   0.53672405   0.39483184  -0.26078723   0.79751128       128000 
  407000   0.53044966  -0.25822612  -0.25822612   0.53743213   0.40101711  -0.25822612   0.79565826       128000 
  408000   0.53175974  -0.26102722  -0.26102722    0.5365961   0.39745595  -0.26102722   0.79762333       128000 
  409000   0.53182905  -0.26141811  -0.26141811   0.53630919   0.38990567  -0.26141811    0.7977273       128000 
  410000   0.53201958  -0.26058268  -0.26058268   0.53743041   0.39518624  -0.26058268   0.79801309       128000 
  411000   0.53080335  -0.26184499  -0.26184499   0.53434379   0.39128964  -0.26184499   0.79618878       128000 
  412000   0.53265189  -0.26134812  -0.26134812    0.5376134   0.39639925  -0.26134812   0.79896153       128000 
  413000   0.53048434  -0.26131121  -0.26131121   0.53439906   0.39687761  -0.26131121   0.79571028       128000 
  414000   0.53098896  -0.25929562  -0.25929562   0.53717156   0.40043327  -0.25929562   0.79646719       128000 
  415000   0.53098504  -0.25862672  -0.25862672   0.53783458   0.40111985  -0.25862672   0.79646131       128000 
  416000   0.53026791  -0.25965827  -0.25965827   0.53572736   0.39691479  -0.25965827   0.79538563       128000 
  417000   0.52899791  -0.26075733  -0.26075733   0.53272334   0.39608429  -0.26075733   0.79348067       128000 
  418000   0.52930858  -0.26019029  -0.26019029   0.53375638   0.39766293  -0.26019029   0.79394667       128000 
  419000   0.53386769  -0.25935277  -0.25935277   0.54143242   0.40150098  -0.25935277    0.8007852       128000 
  420000   0.53551147  -0.25923902  -0.25923902   0.54401179   0.40254175  -0.25923902   0.80325081       128000 
  421000   0.53415053  -0.25849837  -0.25849837   0.54271107   0.39994701  -0.25849837   0.80120944       128000 
  422000   0.53515088  -0.25946095  -0.25946095   0.54324898   0.39818909  -0.25946095   0.80270994       128000 
  423000   0.53248001  -0.25943523  -0.25943523   0.53926849   0.39885394  -0.25943523   0.79870372       128000 
  424000   0.53142678  -0.26045703  -0.26045703   0.53666687   0.39613224  -0.26045703    0.7971239       128000 
  425000   0.53395084   -0.2584568   -0.2584568   0.54245311   0.40313587   -0.2584568   0.80090991       128000 
  426000   0.53369218  -0.25923435  -0.25923435   0.54128759   0.40292798  -0.25923435   0.80052193       128000 
  427000   0.53290237  -0.25889354  -0.25889354   0.54044369   0.39683963  -0.25889354   0.79933723       128000 
  428000   0.53184748  -0.25834784  -0.25834784   0.53940711   0.40005656  -0.25834784   0.79775495       128000 
  429000   0.53080276  -0.25939239  -0.25939239    0.5367955    0.3972502  -0.25939239   0.79618788       128000 
  430000   0.53275025  -0.26054854  -0.26054854   0.53856053   0.39563273  -0.26054854   0.79910907       128000 
  431000   0.53244861  -0.25979419  -0.25979419   0.53886244   0.40294461  -0.25979419   0.79865662       128000 
  432000   0.53368731  -0.26016304  -0.26016304   0.54035159   0.39931639  -0.26016304   0.80051463       128000 
  433000   0.53309589  -0.25971938  -0.25971938   0.53990813   0.39758552  -0.25971938   0.79962752       128000 
  434000   0.53586788    -0.261151    -0.261151   0.54263441   0.39452847    -0.261151   0.80378541       128000 
  435000   0.53059665  -0.26027303  -0.26027303   0.53560569   0.39945993  -0.26027303   0.79587873       128000 
  436000   0.52998112  -0.25979422  -0.25979422   0.53516124   0.39798899  -0.25979422   0.79495546       128000 
  437000   0.53065747  -0.25892699  -0.25892699   0.53704298   0.39924984  -0.25892699   0.79596997       128000 
  438000   0.53205063  -0.26054338  -0.26054338   0.53751628   0.39557821  -0.26054338   0.79805966       128000 
  439000   0.53327476  -0.25951563  -0.25951563   0.54038019   0.40075616  -0.25951563   0.79989582       128000 
  440000   0.53081649  -0.26032914  -0.26032914   0.53587935   0.39908031  -0.26032914   0.79620849       128000 
  441000   0.53274882  -0.25817493  -0.25817493   0.54093199   0.39356143  -0.25817493   0.79910693       128000 
  442000   0.53230721  -0.25969667  -0.25969667   0.53874786   0.39424212  -0.25969667   0.79844453       128000 
  443000   0.53376281  -0.25980984  -0.25980984   0.54081803   0.39907558  -0.25980984   0.80062787       128000 
  444000   0.53319294  -0.25945066  -0.25945066   0.54032244   0.39758111  -0.25945066   0.79977309       128000 
  445000   0.53543076  -0.26061538  -0.26061538   0.54251437   0.39673331  -0.26061538   0.80312975       128000 
  446000   0.53409783  -0.25966034  -0.25966034   0.54147006   0.39804431  -0.25966034    0.8011304       128000 
  447000   0.53550609  -0.25803289  -0.25803289   0.54520986   0.40100453  -0.25803289   0.80324275       128000 
  448000   0.53516064  -0.26004498  -0.26004498    0.5426796   0.39965842  -0.26004498   0.80272458       128000 
  449000   0.53281685  -0.26131927  -0.26131927   0.53788969   0.39500415  -0.26131927   0.79920896       128000 
  450000    0.5327036  -0.26013555  -0.26013555   0.53890353   0.39908666  -0.26013555   0.79903909       128000 
  451000   0.53250625  -0.25916572  -0.25916572   0.53957736   0.39628926  -0.25916572   0.79874308       128000 
  452000    0.5320965  -0.25881862  -0.25881862   0.53930983   0.39797641  -0.25881862   0.79812846       128000 
  453000    0.5332858  -0.26204625  -0.26204625   0.53786613   0.39762962  -0.26204625   0.79991238       128000 
  454000   0.53436735    -0.259081    -0.259081   0.54245367    0.3998509    -0.259081   0.80153467       128000 
  455000   0.53361521   -0.2587399   -0.2587399   0.54166658   0.39986054   -0.2587399   0.80040648       128000 
  456000   0.53326742  -0.25972433  -0.25972433   0.54016048   0.39620882  -0.25972433   0.79988481       128000 
  457000   0.53626639  -0.25708828  -0.25708828   0.54729489   0.40478075  -0.25708828   0.80438317       128000 
  458000   0.53544252  -0.25737015  -0.25737015   0.54577725   0.40345975  -0.25737015   0.80314739       128000 
  459000   0.53992592  -0.26026011  -0.26026011   0.54961224   0.39919443  -0.26026011   0.80987236       128000 
  460000   0.53604518   -0.2592752   -0.2592752   0.54477617   0.39720018   -0.2592752   0.80405137       128000 
  461000   0.53338035   -0.2565343   -0.2565343    0.5435199   0.40102529   -0.2565343   0.80005419       128000 
  462000   0.53543652  -0.26031181  -0.26031181   0.54282658   0.39892954  -0.26031181   0.80313839       128000 
  463000   0.53608972  -0.25746904  -0.25746904   0.54664912   0.39808075  -0.25746904   0.80411816       128000 
  464000   0.53461903  -0.25833186  -0.25833186   0.54358032   0.39913313  -0.25833186   0.80191218       128000 
  465000     0.536032  -0.25945403  -0.25945403   0.54457756    0.3990457  -0.25945403    0.8040316       128000 
  466000   0.53908663  -0.25926336  -0.25926336   0.54935009    0.3985813  -0.25926336   0.80861345       128000 
  467000   0.53886447  -0.25859468  -0.25859468   0.54968552   0.40179336  -0.25859468    0.8082802       128000 
  468000   0.53393478  -0.25718441  -0.25718441   0.54370141   0.40200795  -0.25718441   0.80088582       128000 
  469000   0.53439423  -0.26052448  -0.26052448    0.5410505   0.39908336  -0.26052448   0.80157498       128000 
  470000   0.53250812  -0.25930964  -0.25930964   0.53943623   0.40080167  -0.25930964   0.79874588       128000 
  471000   0.53141272  -0.25970582  -0.25970582   0.53739699   0.39924928  -0.25970582   0.79710281       128000 
  472000   0.53408699  -0.25758586  -0.25758586   0.54352828   0.40476248  -0.25758586   0.80111414       128000 
  473000   0.53507488  -0.25951679  -0.25951679   0.54307915   0.39874585  -0.25951679   0.80259594       128000 
  474000   0.53580208  -0.25885751  -0.25885751    0.5448292   0.40024724  -0.25885751   0.80368671       128000 
  475000   0.53783635  -0.26006505  -0.26006505   0.54667301   0.40053579  -0.26006505   0.80673806       128000 
  476000   0.53335791  -0.25836847  -0.25836847   0.54165207   0.40273986  -0.25836847   0.80002054       128000 
  477000   0.53646766   -0.2566721   -0.2566721   0.54801296    0.4066277   -0.2566721   0.80468506       128000 
  478000   0.53899252  -0.25896846  -0.25896846   0.54950383   0.39920133  -0.25896846   0.80847228       128000 
  479000    0.5382559  -0.25747589  -0.25747589   0.54989148   0.39973507  -0.25747589   0.80736737       128000 
  480000   0.53655031  -0.25819808  -0.25819808   0.54661096   0.40511437  -0.25819808   0.80480904       128000 
  481000   0.53375572  -0.25654276  -0.25654276   0.54407447   0.40631038  -0.25654276   0.80061724       128000 
  482000   0.53614347  -0.25981329  -0.25981329   0.54438551   0.39899371  -0.25981329    0.8041988       128000 
  483000   0.53875577  -0.26026561  -0.26026561   0.54785155   0.39970439  -0.26026561   0.80811716       128000 
  484000   0.54144711  -0.26053116  -0.26053116   0.55162293   0.39577999  -0.26053116   0.81215409       128000 
  485000   0.53865418  -0.25711126  -0.25711126   0.55085352   0.40789302  -0.25711126   0.80796479       128000 
  486000   0.53889314  -0.25644918  -0.25644918   0.55187404    0.4068791  -0.25644918   0.80832321       128000 
  487000    0.5390858  -0.25881874  -0.25881874   0.54979345   0.40260087  -0.25881874   0.80861219       128000 
  488000   0.53427196  -0.25846577  -0.25846577   0.54292581   0.40069025  -0.25846577   0.80139159       128000 
  489000   0.53374747  -0.25846551  -0.25846551   0.54213936   0.39833856  -0.25846551   0.80060487       128000 
  490000   0.53811296   -0.2582046   -0.2582046   0.54894838   0.40291617   -0.2582046   0.80715297       128000 
  491000   0.54072707  -0.25936808  -0.25936808   0.55170598   0.40270064  -0.25936808   0.81107406       128000 
  492000   0.54154431  -0.26022765  -0.26022765   0.55207224   0.39994134  -0.26022765   0.81229989       128000 
  493000   0.54068688  -0.25911986  -0.25911986   0.55189391   0.40062011  -0.25911986   0.81101377       128000 
  494000   0.54158183  -0.25748008  -0.25748008   0.55487608    0.4101982  -0.25748008   0.81235617       128000 
  495000   0.54017578  -0.25781339  -0.25781339   0.55243374   0.40584011  -0.25781339   0.81024713       128000 
  496000   0.54148508    -0.256795    -0.256795   0.55541605   0.40671175    -0.256795   0.81221105       128000 
  497000    0.5425755  -0.25824441  -0.25824441   0.55560224   0.41058474  -0.25824441   0.81384664       128000 
  498000   0.54121281  -0.25587072  -0.25587072   0.55593193   0.40829466  -0.25587072   0.81180265       128000 
  499000   0.53974533  -0.25526011  -0.25526011   0.55434135   0.40846295  -0.25526011   0.80960147       128000 
  500000   0.54077594   -0.2590983   -0.2590983   0.55204906   0.40879385   -0.2590983   0.81114736       128000 
  501000   0.53998016  -0.25768148  -0.25768148   0.55227223   0.40427946  -0.25768148   0.80995371       128000 
  502000   0.54035229  -0.25834954  -0.25834954   0.55216235   0.40296733  -0.25834954   0.81051189       128000 
  503000   0.54107734  -0.25880393  -0.25880393   0.55279552   0.40271291  -0.25880393   0.81159945       128000 
  504000   0.53669951  -0.25773692  -0.25773692   0.54729591   0.40345263  -0.25773692   0.80503283       128000 
  505000    0.5412147  -0.25991443  -0.25991443   0.55189105    0.3985789  -0.25991443   0.81180548       128000 
  506000   0.54134981  -0.25817365  -0.25817365    0.5538345   0.40540993  -0.25817365   0.81200815       128000 
  507000   0.54319833  -0.25893238  -0.25893238   0.55584848   0.40155525  -0.25893238   0.81478086       128000 
  508000    0.5384222  -0.25957551  -0.25957551   0.54804131   0.40050587  -0.25957551   0.80761682       128000 
  509000   0.54227443   -0.2568744   -0.2568744   0.55652064   0.41117751   -0.2568744   0.81339504       128000 
  510000   0.54349666  -0.25681476  -0.25681476    0.5584136   0.40703369  -0.25681476   0.81522836       128000 
  511000   0.54050282  -0.25845549  -0.25845549    0.5522822   0.40236308  -0.25845549   0.81073769       128000 
  512000   0.53547707  -0.25778229  -0.25778229   0.54541692   0.40467902  -0.25778229   0.80319922       128000 
  513000   0.54012755  -0.25748359  -0.25748359    0.5526912   0.40679587  -0.25748359   0.81017479       128000 
  514000   0.54381665  -0.25838363  -0.25838363   0.55732469   0.40653091  -0.25838363   0.81570833       128000 
  515000   0.54257582  -0.25632777  -0.25632777   0.55751936    0.4070619  -0.25632777   0.81384712       128000 
  516000   0.54388984  -0.25478238  -0.25478238   0.56103572   0.41378038  -0.25478238   0.81581811       128000 
  517000   0.54259526   -0.2578391   -0.2578391   0.55603718    0.4067084   -0.2578391   0.81387629       128000 
  518000    0.5462603  -0.25803925  -0.25803925   0.56133447   0.40270255  -0.25803925   0.81937373       128000 
  519000   0.54281281  -0.25735151  -0.25735151   0.55685109   0.40521465  -0.25735151    0.8142026       128000 
  520000    0.5424525  -0.25645983  -0.25645983   0.55720232   0.41405945  -0.25645983   0.81366215       128000 
  521000   0.54173663  -0.25717965  -0.25717965   0.55540871   0.41368294  -0.25717965   0.81258836       128000 
  522000   0.53936026  -0.25516462  -0.25516462   0.55385926   0.41186211  -0.25516462   0.80902387       128000 
  523000   0.53965017   -0.2557501   -0.2557501   0.55370863   0.40612578   -0.2557501   0.80945873       128000 
  524000   0.54257631  -0.25616784  -0.25616784   0.55768001   0.40956678  -0.25616784   0.81384785       128000 
  525000   0.54460502  -0.25625298  -0.25625298   0.56063788   0.40837709  -0.25625298   0.81689086       128000 
  526000   0.54524383  -0.25653241  -0.25653241   0.56131664   0.41138145  -0.25653241   0.81784906       128000 
  527000   0.54151718  -0.25646678  -0.25646678   0.55579241   0.41008558  -0.25646678    0.8122592       128000 
  528000   0.54507337  -0.25608141  -0.25608141   0.56151196   0.40761848  -0.25608141   0.81759337       128000 
  529000   0.54588246   -0.2571179   -0.2571179   0.56168907   0.40701996   -0.2571179   0.81880697       128000 
  530000   0.54597431  -0.25679148  -0.25679148   0.56215328   0.40883813  -0.25679148   0.81894476       128000 
  531000   0.54300443  -0.25701092  -0.25701092   0.55747911   0.41142044  -0.25701092   0.81449003       128000 
  532000   0.54098381  -0.25467839  -0.25467839   0.55678077   0.40758014  -0.25467839   0.81145915       128000 
  533000    0.5432979  -0.25671906  -0.25671906   0.55821117   0.40753405  -0.25671906   0.81493023       128000 
  534000   0.54048383  -0.25669779  -0.25669779   0.55401141   0.40967319  -0.25669779    0.8107092       128000 
  535000   0.54349456  -0.25432514  -0.25432514   0.56090007   0.41459753  -0.25432514   0.81522521       128000 
  536000   0.54334471  -0.25702711  -0.25702711   0.55797332   0.41181406  -0.25702711   0.81500043       128000 
  537000    0.5429463  -0.25731827  -0.25731827   0.55708456   0.40591128  -0.25731827   0.81440283       128000 
  538000   0.54408707  -0.25679984  -0.25679984   0.55931412   0.41033676  -0.25679984   0.81611396       128000 
  539000   0.54195668  -0.25747594  -0.25747594    0.5554425   0.40620978  -0.25747594   0.81291843       128000 
  540000   0.54317967    -0.256374    -0.256374   0.55837887   0.41144599    -0.256374   0.81475288       128000 
  541000   0.54332133  -0.25542211  -0.25542211   0.55954326   0.41462441  -0.25542211   0.81496537       128000 
  542000   0.54239501   -0.2558854   -0.2558854   0.55769051   0.41333144   -0.2558854    0.8135759       128000 
  543000   0.54582643  -0.25707774  -0.25707774   0.56164519   0.41203689  -0.25707774   0.81872294       128000 
  544000   0.54120261  -0.25682029  -0.25682029   0.55496706   0.40489838  -0.25682029   0.81178735       128000 
  545000    0.5431166  -0.25806672  -0.25806672   0.55659155   0.40467524  -0.25806672   0.81465827       128000 
  546000   0.54376702  -0.25697991  -0.25697991   0.55865398   0.40886041  -0.25697991   0.81563389       128000 
  547000   0.54452399  -0.25673412  -0.25673412    0.5600352   0.41146889  -0.25673412   0.81676932       128000 
  548000   0.54260231  -0.25533874  -0.25533874    0.5585481   0.40963774  -0.25533874   0.81388685       128000 
  549000   0.54476949  -0.25683697  -0.25683697   0.56030059   0.41087392  -0.25683697   0.81713756       128000 
  550000   0.54492717  -0.25645446  -0.25645446   0.56091962   0.41037024  -0.25645446   0.81737408       128000 
  551000   0.54560913  -0.25666331  -0.25666331   0.56173368   0.41299057  -0.25666331   0.81839699       128000 
  552000   0.54482763  -0.25777052  -0.25777052   0.55945424   0.40986702  -0.25777052   0.81722476       128000 
  553000   0.54600633  -0.25574568  -0.25574568   0.56324709   0.41528146  -0.25574568   0.81899278       128000 
  554000   0.54614913  -0.25646135  -0.25646135   0.56274563   0.41036269  -0.25646135   0.81920698       128000 
  555000   0.54488554  -0.25682383  -0.25682383   0.56048779   0.41117841  -0.25682383   0.81731163       128000 
  556000   0.54788895  -0.25512181  -0.25512181   0.56669485   0.41432846  -0.25512181   0.82181666       128000 
  557000   0.55216438  -0.25617528  -0.25617528   0.57205438   0.42057084  -0.25617528   0.82822967       128000 
  558000    0.5476617  -0.25849046  -0.25849046   0.56298532   0.40820968  -0.25849046   0.82147578       128000 
  559000   0.54492746  -0.25526096  -0.25526096   0.56211355   0.41476707  -0.25526096   0.81737451       128000 
  560000   0.55107664  -0.25667623  -0.25667623   0.56992186   0.41031298  -0.25667623   0.82659809       128000 
  561000   0.54321316  -0.25546559  -0.25546559   0.55933753   0.41253038  -0.25546559   0.81480312       128000 
  562000   0.54714153  -0.25694483  -0.25694483   0.56375072   0.40834907  -0.25694483   0.82069555       128000 
  563000   0.54805405  -0.25807476  -0.25807476   0.56398954    0.4060459  -0.25807476   0.82206429       128000 
  564000   0.54673386  -0.25709062  -0.25709062   0.56299343   0.40845495  -0.25709062   0.82008406       128000 
  565000   0.54871383  -0.25725824  -0.25725824   0.56579571   0.40601696  -0.25725824   0.82305394       128000 
  566000   0.54707118  -0.25547777  -0.25547777   0.56511226   0.41310392  -0.25547777   0.82059003       128000 
  567000   0.54947133  -0.25733219  -0.25733219   0.56685799   0.40747404  -0.25733219   0.82419018       128000 
  568000   0.54565845  -0.25509666  -0.25509666   0.56337431   0.41623255  -0.25509666   0.81847097       128000 
  569000   0.54474219  -0.25685459  -0.25685459   0.56024202   0.40898599  -0.25685459   0.81709661       128000 
  570000   0.54487827  -0.25719987  -0.25719987   0.56010086   0.40797244  -0.25719987   0.81730073       128000 
  571000    0.5463668  -0.25543259  -0.25543259   0.56410088   0.41381295  -0.25543259   0.81953347       128000 
  572000   0.54458397  -0.25643692  -0.25643692   0.56042236   0.41179636  -0.25643692   0.81685928       128000 
  573000    0.5464074   -0.2558881   -0.2558881   0.56370628   0.41065829   -0.2558881   0.81959438       128000 
  574000   0.54352808  -0.25687167  -0.25687167   0.55840381     0.409001  -0.25687167   0.81527548       128000 
  575000   0.54356443   -0.2557103   -0.2557103   0.55961971   0.41099787   -0.2557103      0.81533       128000 
  576000   0.54745218  -0.25563436  -0.25563436   0.56552715   0.41414329  -0.25563436   0.82116151       128000 
  577000   0.54841275  -0.25623175  -0.25623175   0.56637059   0.40950257  -0.25623175   0.82260234       128000 
  578000   0.54853482  -0.25631152  -0.25631152   0.56647393   0.41027294  -0.25631152   0.82278544       128000 
  579000   0.55075711  -0.25665552  -0.25665552   0.56946328   0.41381919  -0.25665552    0.8261188       128000 
  580000   0.54631473  -0.25294138  -0.25294138     0.566514   0.41935598  -0.25294138   0.81945537       128000 
  581000    0.5485141  -0.25639255  -0.25639255   0.56636181   0.41116034  -0.25639255   0.82275436       128000 
  582000   0.55148608  -0.25478541  -0.25478541   0.57242683   0.41480497  -0.25478541   0.82721223       128000 
  583000   0.55008506  -0.25401526  -0.25401526   0.57109549   0.41971265  -0.25401526   0.82511075       128000 
  584000   0.54813279   -0.2573391   -0.2573391    0.5648433   0.40927762   -0.2573391    0.8221824       128000 
  585000    0.5455884  -0.25627367  -0.25627367   0.56209222   0.40942909  -0.25627367   0.81836589       128000 
  586000   0.54524742   -0.2562889   -0.2562889   0.56156553   0.41108369   -0.2562889   0.81785443       128000 
  587000   0.54812589  -0.25453923  -0.25453923   0.56763283    0.4147638  -0.25453923   0.82217205       128000 
  588000   0.54883404  -0.25569452  -0.25569452   0.56753974   0.41365973  -0.25569452   0.82323426       128000 
  589000   0.54997305  -0.25693785  -0.25693785   0.56800489   0.41014587  -0.25693785   0.82494274       128000 
  590000   0.54620637  -0.25602516  -0.25602516   0.56326767   0.41104158  -0.25602516   0.81929283       128000 
  591000   0.55054176   -0.2575469   -0.2575469   0.56824888   0.41373979   -0.2575469   0.82579579       128000 
  592000   0.54816452   -0.2550185   -0.2550185    0.5672115   0.41431174   -0.2550185      0.82223       128000 
  593000   0.54857296  -0.25489511  -0.25489511   0.56794755   0.41859095  -0.25489511   0.82284265       128000 
  594000   0.54654267  -0.25572422  -0.25572422   0.56407306   0.40882782  -0.25572422   0.81979727       128000 
  595000   0.55131538  -0.25709377  -0.25709377   0.56986242   0.41610669  -0.25709377   0.82695619       128000 
  596000   0.55092235   -0.2535158   -0.2535158   0.57285086   0.41828084   -0.2535158   0.82636666       128000 
  597000   0.55034267    -0.253785    -0.253785   0.57171216   0.41948521    -0.253785   0.82549716       128000 
  598000   0.55000518  -0.25636399  -0.25636399   0.56862695    0.4136292  -0.25636399   0.82499093       128000 
  599000   0.55178541  -0.25674781  -0.25674781   0.57091342     0.412138  -0.25674781   0.82766123       128000 
  600000   0.55197771  -0.25583946  -0.25583946    0.5721102   0.41284011  -0.25583946   0.82794967       128000 
  601000   0.55093208  -0.25359577  -0.25359577   0.57278549    0.4180198  -0.25359577   0.82638125       128000 
  602000   0.55130913   -0.2550388   -0.2550388   0.57190802   0.41184189   -0.2550388   0.82694682       128000 
  603000   0.55259965  -0.25692373  -0.25692373   0.57195883   0.40725295  -0.25692373   0.82888256       128000 
  604000    0.5520749  -0.25612545  -0.25612545      0.57197   0.41539299  -0.25612545   0.82809545       128000 
  605000   0.55376765  -0.25458718  -0.25458718   0.57604734   0.41591924  -0.25458718   0.83063452       128000 
  606000   0.55131272  -0.25633437  -0.25633437   0.57061783   0.41129253  -0.25633437    0.8269522       128000 
  607000   0.54914868  -0.25663859  -0.25663859   0.56706762   0.41150979  -0.25663859   0.82370622       128000 
  608000   0.54843984  -0.25531383  -0.25531383   0.56732915   0.41545076  -0.25531383   0.82264297       128000 
  609000   0.54782865  -0.25523516  -0.25523516   0.56649103   0.41365928  -0.25523516    0.8217262       128000 
  610000   0.55166707  -0.25635229  -0.25635229   0.57113144   0.41229898  -0.25635229   0.82748372       128000 
  611000   0.55058608  -0.25510937  -0.25510937    0.5707529   0.41713996  -0.25510937   0.82586227       128000 
  612000   0.55367943  -0.25456098  -0.25456098   0.57594122   0.41735727  -0.25456098    0.8305022       128000 
  613000   0.55242535  -0.25274343  -0.25274343   0.57587769   0.41872091  -0.25274343   0.82862112       128000 
  614000   0.55546382  -0.25642549  -0.25642549   0.57675323   0.41626879  -0.25642549   0.83317872       128000 
  615000   0.55161584  -0.25525239  -0.25525239   0.57215448   0.41620862  -0.25525239   0.82740687       128000 
  616000   0.55038495  -0.25395827  -0.25395827   0.57160232   0.41550011  -0.25395827   0.82556058       128000 
  617000   0.55236785  -0.25714839  -0.25714839   0.57138647   0.40829407  -0.25714839   0.82853486       128000 
  618000   0.55198446  -0.25501325  -0.25501325   0.57294654   0.41670223  -0.25501325   0.82795979       128000 
  619000   0.55131723  -0.25379006  -0.25379006   0.57316891   0.42134545  -0.25379006   0.82695897       128000 
  620000   0.55592694   -0.2556513   -0.2556513   0.57822209   0.41487659   -0.2556513   0.83387339       128000 
  621000   0.55234793   -0.2520859   -0.2520859   0.57641908   0.42556152   -0.2520859   0.82850498       128000 
  622000   0.55133495  -0.25392802  -0.25392802   0.57305752   0.41955504  -0.25392802   0.82698554       128000 
  623000   0.55401084   -0.2557343   -0.2557343     0.575265   0.41295289   -0.2557343    0.8309993       128000 
  624000   0.55041301  -0.25654904  -0.25654904   0.56905362    0.4129976  -0.25654904   0.82560266       128000 
  625000   0.55156854  -0.25543068  -0.25543068   0.57190525   0.41390658  -0.25543068   0.82733593       128000 
  626000   0.55018313  -0.25621466  -0.25621466   0.56904319   0.41846513  -0.25621466   0.82525785       128000 
  627000   0.55003432   -0.2548651   -0.2548651   0.57016954   0.41987463   -0.2548651   0.82503464       128000 
  628000   0.55336789   -0.2557576   -0.2557576   0.57427729   0.41947548   -0.2557576   0.83003489       128000 
  629000   0.54883111  -0.25373746  -0.25373746    0.5694924   0.41502992  -0.25373746   0.82322986       128000 
  630000    0.5522031  -0.25368377  -0.25368377   0.57460398   0.41928788  -0.25368377   0.82828775       128000 
  631000     0.552611   -0.2534175   -0.2534175   0.57548209   0.41880638   -0.2534175   0.82889958       128000 
  632000   0.55444414  -0.25440647  -0.25440647   0.57724278   0.41698868  -0.25440647   0.83164924       128000 
  633000   0.55430177  -0.25397216  -0.25397216   0.57746353     0.415261  -0.25397216   0.83143569       128000 
  634000   0.55536994  -0.25433218  -0.25433218   0.57870573   0.42063552  -0.25433218   0.83303791       128000 
  635000   0.55475519  -0.25325224  -0.25325224   0.57886357   0.42121645  -0.25325224    0.8321158       128000 
  636000   0.55280992  -0.25358984  -0.25358984   0.57560811   0.42355903  -0.25358984   0.82919795       128000 
  637000   0.55657498  -0.25328764  -0.25328764   0.58155779    0.4232152  -0.25328764   0.83484543       128000 
  638000   0.55171967  -0.25127158  -0.25127158   0.57629103   0.42436586  -0.25127158   0.82756261       128000 
  639000   0.55325003  -0.25501272  -0.25501272   0.57484538   0.41907156  -0.25501272   0.82985811       128000 
  640000   0.55378278  -0.25471947  -0.25471947   0.57593775   0.42082014  -0.25471947   0.83065722       128000 
  641000   0.55274679   -0.2539992   -0.2539992   0.57510406    0.4160681   -0.2539992   0.82910326       128000 
  642000    0.5533733  -0.25099549  -0.25099549   0.57904752   0.42856782  -0.25099549   0.83004301       128000 
  643000   0.55298124  -0.25320621  -0.25320621   0.57624872   0.42378897  -0.25320621   0.82945494       128000 
  644000   0.55604311   -0.2540385   -0.2540385   0.58000915   0.41904607   -0.2540385   0.83404765       128000 
  645000   0.55363644  -0.25340097  -0.25340097   0.57703674   0.42236251  -0.25340097   0.83043771       128000 
  646000   0.55229147  -0.25443771  -0.25443771   0.57398259   0.41696057  -0.25443771    0.8284203       128000 
  647000   0.55346834  -0.25460932  -0.25460932   0.57557624   0.41590816  -0.25460932   0.83018557       128000 
  648000   0.55215057  -0.25414543  -0.25414543   0.57406352   0.41204977  -0.25414543   0.82820895       128000 
  649000   0.55689051  -0.25463932  -0.25463932    0.5806794   0.42196047  -0.25463932   0.83531872       128000 
  650000   0.55541299  -0.25353413  -0.25353413   0.57956835   0.41991972  -0.25353413   0.83310248       128000 
  651000   0.55528648  -0.25470477  -0.25470477   0.57820795   0.42019477  -0.25470477   0.83291273       128000 
  652000    0.5543467  -0.25450427  -0.25450427   0.57699881    0.4183991  -0.25450427   0.83150308       128000 
  653000   0.55291415  -0.25424626  -0.25424626   0.57510804   0.41759787  -0.25424626    0.8293543       128000 
  654000   0.54914269  -0.25256787  -0.25256787   0.57112935   0.41963235  -0.25256787   0.82369722       128000 
  655000   0.55693873  -0.25373453  -0.25373453   0.58165652    0.4211182  -0.25373453   0.83539105       128000 
  656000   0.55301688  -0.25402536  -0.25402536   0.57548302   0.42224432  -0.25402536   0.82950839       128000 
  657000   0.55319015  -0.25497477  -0.25497477   0.57479352   0.41325883  -0.25497477   0.82976829       128000 
  658000   0.55700662  -0.25546614  -0.25546614   0.58002674   0.41752989  -0.25546614   0.83549288       128000 
  659000   0.55912735  -0.25239884  -0.25239884   0.58627507   0.42189685  -0.25239884   0.83867392       128000 
  660000   0.55807165  -0.25467388  -0.25467388   0.58241652   0.42019132  -0.25467388    0.8370904       128000 
  661000   0.55618935  -0.25275909  -0.25275909   0.58150791   0.42006812  -0.25275909     0.834267       128000 
  662000   0.55649616  -0.25466151  -0.25466151   0.58006569   0.42067481  -0.25466151    0.8347272       128000 
  663000   0.55952085  -0.25249867  -0.25249867   0.58676548      0.42512  -0.25249867   0.83926414       128000 
  664000   0.56091575  -0.25402632  -0.25402632   0.58733014   0.42004478  -0.25402632   0.84135646       128000 
  665000   0.56028012  -0.25347828  -0.25347828   0.58692475   0.42152558  -0.25347828   0.84040303       128000 
  666000   0.55379862  -0.25313074  -0.25313074   0.57755023   0.42069646  -0.25313074   0.83068097       128000 
  667000   0.55346379  -0.25577426  -0.25577426   0.57440448    0.4151466  -0.25577426   0.83017874       128000 
  668000   0.55728783   -0.2558465   -0.2558465   0.58006819   0.41602224   -0.2558465   0.83591469       128000 
  669000   0.55425135  -0.25343413  -0.25343413   0.57792593   0.41789212  -0.25343413   0.83136006       128000 
  670000   0.55622154  -0.25394029  -0.25394029   0.58037499   0.42123781  -0.25394029   0.83431528       128000 
  671000   0.55524524  -0.25471296  -0.25471296    0.5781379   0.41839528  -0.25471296   0.83285086       128000 
  672000   0.55659058  -0.25219676  -0.25219676   0.58267206   0.42652272  -0.25219676   0.83486883       128000 
  673000   0.55507592  -0.25116769  -0.25116769   0.58142919   0.42820943  -0.25116769   0.83259688       128000 
  674000   0.55900267  -0.25371187  -0.25371187   0.58477501   0.42278117  -0.25371187   0.83848689       128000 
  675000   0.55885133  -0.25413741  -0.25413741   0.58412248   0.41885242  -0.25413741   0.83825989       128000 
  676000   0.55916929  -0.25447196  -0.25447196   0.58426485   0.41996482  -0.25447196   0.83873681       128000 
  677000    0.5587131  -0.25359952  -0.25359952   0.58445302   0.42362121  -0.25359952   0.83805254       128000 
  678000   0.56189089  -0.25572893  -0.25572893    0.5870902   0.41528029  -0.25572893   0.84281913       128000 
  679000   0.56100948  -0.25560903  -0.25560903   0.58588801   0.41733225  -0.25560903   0.84149704       128000 
  680000   0.55732064  -0.25359906  -0.25359906   0.58236484   0.42296462  -0.25359906    0.8359639       128000 
  681000   0.55477237  -0.25251359  -0.25251359   0.57962797   0.42434592  -0.25251359   0.83214157       128000 
  682000   0.55677995  -0.25231771  -0.25231771   0.58283517   0.42384872  -0.25231771   0.83515288       128000 
  683000   0.55758891  -0.25465042  -0.25465042   0.58171588   0.41971004  -0.25465042    0.8363663       128000 
  684000   0.55542532  -0.25327104  -0.25327104   0.57984993   0.42178741  -0.25327104   0.83312097       128000 
  685000   0.55729578  -0.25233795  -0.25233795   0.58358866   0.42323683  -0.25233795   0.83592661       128000 
  686000   0.55958235  -0.25232812  -0.25232812   0.58702828   0.42647333  -0.25232812    0.8393564       128000 
  687000   0.56060216   -0.2523286   -0.2523286   0.58855748   0.42715519   -0.2523286   0.84088608       128000 
  688000   0.55662954  -0.25321216  -0.25321216   0.58171511   0.42409529  -0.25321216   0.83492727       128000 
  689000   0.55937926  -0.25310794  -0.25310794   0.58594383   0.42462746  -0.25310794   0.83905177       128000 
  690000    0.5571956  -0.25437256  -0.25437256   0.58140377   0.41844822  -0.25437256   0.83577634       128000 
  691000   0.55992208  -0.25298274  -0.25298274   0.58688324   0.42014522  -0.25298274   0.83986598       128000 
  692000   0.55862735  -0.25332131  -0.25332131   0.58460261   0.42495082  -0.25332131   0.83792392       128000 
  693000   0.55891085  -0.25246038  -0.25246038   0.58588878   0.42171882  -0.25246038   0.83834916       128000 
  694000   0.56069203  -0.25213126  -0.25213126   0.58888962   0.42630725  -0.25213126   0.84102088       128000 
  695000   0.55680282  -0.25411004  -0.25411004   0.58107714   0.42275203  -0.25411004   0.83518718       128000 
  696000   0.55791022  -0.25394926  -0.25394926   0.58289898   0.42395764  -0.25394926   0.83684824       128000 
  697000     0.558825  -0.24953094  -0.24953094   0.58868945   0.43212822  -0.24953094   0.83822039       128000 
  698000   0.55966294  -0.25298406  -0.25298406   0.58649322   0.42658715  -0.25298406   0.83947728       128000 
  699000   0.55790268  -0.25158469  -0.25158469   0.58525225   0.42383417  -0.25158469   0.83683694       128000 
  700000   0.56157283  -0.25369492  -0.25369492   0.58864714   0.42795149  -0.25369492   0.84234206       128000 
  701000   0.56357367  -0.25013962  -0.25013962   0.59520363   0.43316099  -0.25013962   0.84534325       128000 
  702000    0.5624483  -0.25229048  -0.25229048   0.59136475   0.42648909  -0.25229048   0.84365523       128000 
  703000   0.56024483  -0.25171601  -0.25171601   0.58863409     0.423553  -0.25171601    0.8403501       128000 
  704000   0.55708457  -0.25199343  -0.25199343   0.58361637   0.42485242  -0.25199343    0.8356098       128000 
  705000   0.55917636  -0.25130733  -0.25130733   0.58744009     0.430233  -0.25130733   0.83874742       128000 
  706000   0.56018853   -0.2521461   -0.2521461   0.58811955   0.41980828   -0.2521461   0.84026565       128000 
  707000   0.56096043  -0.25326346  -0.25326346   0.58816002   0.42202748  -0.25326346   0.84142348       128000 
  708000   0.55654813  -0.25466274  -0.25466274   0.58014241   0.41649565  -0.25466274   0.83480515       128000 
  709000   0.55962889  -0.25180533  -0.25180533   0.58762087   0.42475421  -0.25180533    0.8394262       128000 
  710000   0.56035164  -0.25202073  -0.25202073   0.58848958    0.4278858  -0.25202073   0.84051031       128000 
  711000   0.56064153  -0.25070617  -0.25070617   0.59023897   0.43009287  -0.25070617   0.84094514       128000 
  712000   0.56094323  -0.25399805  -0.25399805   0.58739962   0.41840517  -0.25399805   0.84139767       128000 
  713000   0.55862379  -0.25136135  -0.25136135   0.58655723   0.42821476  -0.25136135   0.83791858       128000 
  714000   0.56009532  -0.25499662  -0.25499662   0.58512921   0.41976687  -0.25499662   0.84012583       128000 
  715000   0.56105561  -0.25153171  -0.25153171   0.59003453   0.42517821  -0.25153171   0.84156624       128000 
  716000   0.55925067  -0.25147784  -0.25147784   0.58738105   0.42722938  -0.25147784   0.83885889       128000 
  717000   0.56058115  -0.25109367  -0.25109367   0.58976089    0.4293182  -0.25109367   0.84085456       128000 
  718000   0.55964242  -0.25028825  -0.25028825   0.58915825   0.43300515  -0.25028825    0.8394465       128000 
  719000   0.56079179  -0.25410066  -0.25410066   0.58706987   0.41909604  -0.25410066   0.84117052       128000 
  720000   0.56001427  -0.25218481  -0.25218481   0.58781946   0.42409303  -0.25218481   0.84000427       128000 
  721000   0.56014369  -0.25274174  -0.25274174   0.58745665   0.42846874  -0.25274174   0.84019839       128000 
  722000   0.56277707  -0.25192366  -0.25192366   0.59222471   0.42799314  -0.25192366   0.84414837       128000 
  723000   0.56248156  -0.24966746  -0.24966746   0.59403766   0.43276237  -0.24966746   0.84370512       128000 
  724000   0.56570551  -0.25467753  -0.25467753   0.59386342   0.42411472  -0.25467753   0.84854095       128000 
  725000   0.56436859  -0.25081935  -0.25081935   0.59571625    0.4350277  -0.25081935    0.8465356       128000 
  726000   0.56121154  -0.25297722  -0.25297722    0.5888229   0.42880104  -0.25297722   0.84180012       128000 
  727000     0.563583   -0.2543384   -0.2543384   0.59101885   0.42160997   -0.2543384   0.84535725       128000 
  728000    0.5651711  -0.25153124  -0.25153124    0.5962081   0.43142222  -0.25153124   0.84773934       128000 
  729000   0.55967773  -0.25158235  -0.25158235   0.58791711   0.42829446  -0.25158235   0.83949946       128000 
  730000    0.5625105  -0.25398553  -0.25398553   0.58976299   0.42275727  -0.25398553   0.84374852       128000 
  731000   0.56033171  -0.25124387  -0.25124387   0.58923655   0.43077953  -0.25124387   0.84048042       128000 
  732000   0.56114452  -0.25284318  -0.25284318   0.58885641   0.42430102  -0.25284318    0.8416996       128000 
  733000   0.56404744  -0.25128115  -0.25128115   0.59477275   0.42893122  -0.25128115    0.8460539       128000 
  734000    0.5640835  -0.25016179  -0.25016179   0.59594619   0.42945994  -0.25016179   0.84610798       128000 
  735000   0.56401819  -0.25061508  -0.25061508   0.59539494   0.43152281  -0.25061508   0.84601002       128000 
  736000   0.56521248  -0.25286977  -0.25286977   0.59493165   0.42267111  -0.25286977   0.84780142       128000 
  737000   0.56467995   -0.2537046   -0.2537046   0.59329804   0.42557663   -0.2537046   0.84700265       128000 
  738000   0.56250198   -0.2512957   -0.2512957   0.59244004   0.42899832   -0.2512957   0.84373575       128000 
  739000    0.5628338  -0.25173885  -0.25173885   0.59249462   0.42570686  -0.25173885   0.84423347       128000 
  740000   0.56100433  -0.25257467  -0.25257467   0.58891465   0.42374759  -0.25257467   0.84148932       128000 
  741000   0.55825614  -0.25390363  -0.25390363   0.58346349   0.42161035  -0.25390363   0.83736712       128000 
  742000   0.56076572  -0.25283355  -0.25283355   0.58829786   0.42404025  -0.25283355   0.84113141       128000 
  743000   0.56332754  -0.25213274  -0.25213274   0.59284133   0.42905407  -0.25213274   0.84497407       128000 
  744000   0.56206282  -0.25072186  -0.25072186   0.59235517   0.42584933  -0.25072186   0.84307703       128000 
  745000   0.56115231  -0.25153604  -0.25153604   0.59017525   0.42646582  -0.25153604   0.84171129       128000 
  746000   0.56461294  -0.25316508  -0.25316508   0.59373704   0.42462869  -0.25316508   0.84690212       128000 
  747000   0.56366247  -0.25116768  -0.25116768   0.59430877   0.43057496  -0.25116768   0.84547645       128000 
  748000   0.56460216  -0.25035483  -0.25035483   0.59653113   0.42970369  -0.25035483   0.84688596       128000 
  749000   0.56528806  -0.25179688  -0.25179688   0.59611791   0.42527313  -0.25179688   0.84791479       128000 
  750000    0.5663595  -0.25018306  -0.25018306   0.59933885   0.43074438  -0.25018306   0.84952191       128000 
  751000   0.56518923  -0.24906618  -0.24906618   0.59870036   0.43806256  -0.24906618   0.84776654       128000 
  752000   0.56483492  -0.25272214  -0.25272214   0.59451295    0.4257421  -0.25272214   0.84723509       128000 
  753000   0.56510008  -0.25201594  -0.25201594   0.59561688   0.42864725  -0.25201594   0.84763282       128000 
  754000   0.56958874  -0.25314933  -0.25314933   0.60121634   0.43147084  -0.25314933   0.85436567       128000 
  755000   0.56933082   -0.2488649   -0.2488649   0.60511391   0.43910807   -0.2488649   0.85397881       128000 
  756000   0.56840351  -0.25051682  -0.25051682   0.60207105   0.43874521  -0.25051682   0.85258786       128000 
  757000   0.56531651  -0.25183603  -0.25183603   0.59612143    0.4257595  -0.25183603   0.84795746       128000 
  758000   0.56511902  -0.25256677  -0.25256677   0.59509446   0.43018226  -0.25256677   0.84766123       128000 
  759000   0.56901821   -0.2514855   -0.2514855    0.6020244   0.43128676   -0.2514855   0.85350989       128000 
  760000   0.56724428  -0.25138208  -0.25138208   0.59946698   0.43017185  -0.25138208   0.85084906       128000 
  761000    0.5650147  -0.25071313  -0.25071313   0.59679162   0.43073679  -0.25071313   0.84750475       128000 
  762000   0.56483161  -0.25061654  -0.25061654   0.59661359   0.43325179  -0.25061654   0.84723013       128000 
  763000   0.56638824  -0.25184929  -0.25184929   0.59771574   0.42768976  -0.25184929   0.84956503       128000 
  764000   0.56520714  -0.25176196  -0.25176196   0.59603145   0.42814525  -0.25176196   0.84779341       128000 
  765000   0.56912145  -0.25295428  -0.25295428   0.60071047   0.42689138  -0.25295428   0.85366475       128000 
  766000   0.56612908  -0.24885679  -0.24885679    0.6003195   0.43360555  -0.24885679   0.84917629       128000 
  767000   0.56888993  -0.25144762  -0.25144762   0.60186985   0.42914962  -0.25144762   0.85331747       128000 
  768000   0.56828671  -0.25061123  -0.25061123   0.60180145   0.43300455  -0.25061123   0.85241267       128000 
  769000   0.56721588  -0.25131765  -0.25131765    0.5994888   0.43193894  -0.25131765   0.85080645       128000 
  770000   0.56830392  -0.24944751  -0.24944751   0.60299098   0.43695028  -0.24944751   0.85243849       128000 
  771000   0.56794324  -0.25081482  -0.25081482   0.60108264   0.43111347  -0.25081482   0.85189747       128000 
  772000   0.56799424  -0.25145827  -0.25145827    0.6005157   0.43494637  -0.25145827   0.85197397       128000 
  773000   0.56783614  -0.25227769  -0.25227769   0.59945915    0.4269806  -0.25227769   0.85173683       128000 
  774000   0.56731155  -0.25061176  -0.25061176   0.60033819   0.43173899  -0.25061176   0.85094996       128000 
[...]
  938000   0.58356479  -0.24768935  -0.24768935   0.62763997    0.4468701  -0.24768935   0.87532932       128000 
  939000   0.58139804  -0.24627992  -0.24627992   0.62579934     0.445266  -0.24627992   0.87207926       128000 
  940000   0.57984329  -0.24716745  -0.24716745   0.62257974   0.44964083  -0.24716745   0.86974719       128000 
  941000   0.58539316  -0.24900835  -0.24900835   0.62906347   0.44102616  -0.24900835   0.87807182       128000 
  942000   0.58420396  -0.24559744  -0.24559744   0.63069062   0.45069756  -0.24559744   0.87628805       128000 
  943000   0.58501551  -0.24738804  -0.24738804   0.63011732   0.45027847  -0.24738804   0.87750536       128000 
  944000   0.58450499  -0.24618486  -0.24618486   0.63055473   0.45202463  -0.24618486   0.87673959       128000 
  945000   0.58850792  -0.24684765  -0.24684765   0.63589621   0.44894946  -0.24684765   0.88274386       128000 
  946000     0.588278  -0.24748655  -0.24748655   0.63491245   0.45178951  -0.24748655     0.882399       128000 
  947000   0.58875708  -0.24784381  -0.24784381   0.63527379   0.44554726  -0.24784381    0.8831176       128000 
  948000   0.58660246  -0.24617748  -0.24617748   0.63370825   0.45264098  -0.24617748   0.87988573       128000 
  949000   0.58791395  -0.24869324  -0.24869324   0.63315968   0.44342068  -0.24869324   0.88185292       128000 
  950000   0.58229351  -0.24420059  -0.24420059   0.62922185   0.45394182  -0.24420059   0.87342244       128000 
  951000   0.58475125  -0.24573083  -0.24573083   0.63137814   0.45043034  -0.24573083   0.87710897       128000 
  952000   0.58542462  -0.24715724  -0.24715724   0.63096177   0.44927464  -0.24715724   0.87811901       128000 
  953000    0.5816941  -0.24769902  -0.24769902   0.62482433   0.44467901  -0.24769902   0.87252335       128000 
  954000   0.58627541   -0.2495539   -0.2495539   0.62984127   0.44090931   -0.2495539   0.87939517       128000 
  955000   0.58459797  -0.24747159  -0.24747159   0.62940747    0.4426016  -0.24747159   0.87687906       128000 
  956000   0.58770446   -0.2467597   -0.2467597   0.63477899   0.44872518   -0.2467597   0.88153869       128000 
  957000   0.58572826   -0.2444337   -0.2444337   0.63414076   0.44931733   -0.2444337   0.87857446       128000 
  958000   0.58638737  -0.24810824  -0.24810824   0.63145487   0.44408825  -0.24810824   0.87956311       128000 
  959000   0.58561357  -0.24612602  -0.24612602   0.63227641   0.45347831  -0.24612602   0.87840243       128000 
  960000   0.58813081  -0.24701338  -0.24701338   0.63516483   0.44812894  -0.24701338   0.88217821       128000 
  961000    0.5880276  -0.24428469  -0.24428469   0.63773871   0.45463827  -0.24428469    0.8820234       128000 
  962000   0.58977533  -0.24560071  -0.24560071   0.63904423   0.45026815  -0.24560071   0.88464494       128000 
  963000   0.58848929  -0.24298164  -0.24298164   0.63973428   0.45579274  -0.24298164   0.88271591       128000 
  964000   0.58526968  -0.24742625  -0.24742625   0.63046036   0.44843042  -0.24742625   0.87788661       128000 
  965000   0.58402606  -0.24636343  -0.24636343   0.62965778   0.45239715  -0.24636343   0.87602121       128000 
  966000   0.58235209  -0.24429789  -0.24429789   0.62921242   0.45658093  -0.24429789   0.87351031       128000 
  967000   0.58665748  -0.24642225  -0.24642225     0.633546   0.45133935  -0.24642225   0.87996825       128000 
  968000   0.58588013  -0.24606364  -0.24606364   0.63273861   0.44651762  -0.24606364   0.87880225       128000 
  969000   0.58611377  -0.24638653  -0.24638653   0.63276618   0.45517275  -0.24638653   0.87915271       128000 
  970000   0.58694555  -0.24665689  -0.24665689   0.63374347   0.44533547  -0.24665689   0.88040036       128000 
  971000   0.58611476  -0.24492599  -0.24492599   0.63422822   0.45551108  -0.24492599    0.8791542       128000 
  972000   0.58584203  -0.24639581  -0.24639581    0.6323493   0.45292057  -0.24639581   0.87874511       128000 
  973000   0.58699328  -0.24457671  -0.24457671   0.63589525   0.45507852  -0.24457671   0.88047196       128000 
  974000   0.58478841  -0.24774671  -0.24774671   0.62941801   0.44568044  -0.24774671   0.87716472       128000 
  975000   0.59082318  -0.24711123  -0.24711123   0.63910544   0.44845154  -0.24711123   0.88621668       128000 
  976000   0.58931104  -0.24896196  -0.24896196   0.63498656   0.44414829  -0.24896196   0.88394852       128000 
  977000   0.58477917  -0.24669651  -0.24669651   0.63045435   0.44706664  -0.24669651   0.87715086       128000 
  978000   0.58685284  -0.24770432  -0.24770432   0.63255697   0.44359165  -0.24770432    0.8802613       128000 
  979000   0.58657987  -0.24653598  -0.24653598   0.63331586   0.44596142  -0.24653598   0.87985184       128000 
  980000   0.58718403  -0.24700648  -0.24700648   0.63375158   0.44982657  -0.24700648   0.88075806       128000 
  981000   0.58536339  -0.24664287  -0.24664287   0.63138429    0.4523624  -0.24664287   0.87802716       128000 
  982000   0.58954844  -0.24601571  -0.24601571   0.63828891   0.45273254  -0.24601571   0.88430462       128000 
  983000   0.58942824  -0.24454616  -0.24454616   0.63957815   0.45436934  -0.24454616   0.88412431       128000 
  984000   0.58968836  -0.24667828  -0.24667828   0.63783621   0.45216924  -0.24667828   0.88451448       128000 
  985000   0.58931059  -0.24591411  -0.24591411   0.63803373   0.45032874  -0.24591411   0.88394784       128000 
  986000   0.58703998  -0.24588904  -0.24588904   0.63465296   0.44983628  -0.24588904     0.880542       128000 
  987000   0.58925351  -0.24462376  -0.24462376   0.63923846   0.45228452  -0.24462376   0.88386222       128000 
  988000   0.59106984   -0.2459876   -0.2459876   0.64059906   0.44752041   -0.2459876   0.88658666       128000 
  989000   0.58830325  -0.24584776  -0.24584776   0.63658911   0.45119989  -0.24584776   0.88243687       128000 
  990000   0.58947865  -0.24478963  -0.24478963    0.6394103   0.44864132  -0.24478963   0.88419993       128000 
  991000   0.59161285   -0.2452212   -0.2452212   0.64217996    0.4544743   -0.2452212   0.88740116       128000 
  992000   0.59084749  -0.24452858  -0.24452858   0.64172457   0.45438136  -0.24452858   0.88625315       128000 
  993000   0.59184642  -0.24797758  -0.24797758   0.63977393   0.44467051  -0.24797758   0.88775151       128000 
  994000   0.58800951   -0.2442351   -0.2442351   0.63776117   0.45293909   -0.2442351   0.88199627       128000 
  995000   0.58940042  -0.24572592  -0.24572592   0.63835667   0.45328526  -0.24572592   0.88408259       128000 
  996000   0.58724729  -0.24388444  -0.24388444   0.63696852   0.45538765  -0.24388444   0.88085296       128000 
  997000   0.58931825   -0.2459008   -0.2459008   0.63805853   0.45294174   -0.2459008   0.88395933       128000 
  998000   0.59004861  -0.24645692  -0.24645692   0.63859793   0.44674418  -0.24645692   0.88505485       128000 
  999000     0.587424  -0.24787543  -0.24787543   0.63324259   0.44201013  -0.24787543   0.88111801       128000 
 1000000    0.5873372  -0.24728006  -0.24728006   0.63370776   0.44583681  -0.24728006   0.88098781       128000 
 1001000   0.58684525  -0.24507159  -0.24507159   0.63517832   0.45485382  -0.24507159   0.88024991       128000 
 1002000   0.58764317  -0.24560719  -0.24560719   0.63583957   0.45205883  -0.24560719   0.88144677       128000 
 1003000   0.58854117  -0.24536651  -0.24536651   0.63742723   0.45041041  -0.24536651   0.88279373       128000 
 1004000   0.58670783  -0.24542912  -0.24542912   0.63461466   0.45396248  -0.24542912   0.88004379       128000 
 1005000   0.58879589  -0.24593832  -0.24593832   0.63723749    0.4509264  -0.24593832   0.88317581       128000 
 1006000   0.58955174   -0.2466774   -0.2466774   0.63763216   0.44496262   -0.2466774   0.88430957       128000 
 1007000   0.58894551  -0.24474104  -0.24474104    0.6386592   0.45195684  -0.24474104   0.88340024       128000 
 1008000    0.5894223  -0.24401779  -0.24401779   0.64009761     0.456256  -0.24401779   0.88411541       128000 
 1009000   0.59015129  -0.24413883  -0.24413883   0.64107005   0.45659676  -0.24413883   0.88520887       128000 
 1010000   0.59221355  -0.24807128  -0.24807128   0.64023092   0.44222678  -0.24807128    0.8883022       128000 
 1011000   0.59007577  -0.24463682  -0.24463682   0.64045878   0.45282958  -0.24463682    0.8850956       128000 
 1012000   0.58916207  -0.24521009  -0.24521009   0.63851498   0.45497677  -0.24521009   0.88372507       128000 
 1013000   0.58918981  -0.24691485  -0.24691485   0.63685183   0.44804063  -0.24691485   0.88376668       128000 
 1014000   0.58984453  -0.24645756  -0.24645756   0.63829117   0.45334319  -0.24645756   0.88474873       128000 
 1015000   0.59387855  -0.24591034  -0.24591034    0.6448893   0.44947002  -0.24591034   0.89079964       128000 
 1016000   0.59042468  -0.24425831  -0.24425831   0.64136064     0.454171  -0.24425831   0.88561895       128000 
 1017000   0.58853784  -0.24455085  -0.24455085    0.6382379   0.45238356  -0.24455085   0.88278874       128000 
 1018000   0.59378878  -0.24370968  -0.24370968   0.64695531   0.45704659  -0.24370968   0.89066499       128000 
 1019000   0.59611391  -0.24505059  -0.24505059   0.64910203   0.45427227  -0.24505059   0.89415262       128000 
 1020000   0.59360631  -0.24404536  -0.24404536   0.64634592    0.4558745  -0.24404536   0.89039129       128000 
 1021000   0.59059798  -0.24470919  -0.24470919    0.6411697   0.45123086  -0.24470919    0.8858789       128000 
 1022000   0.59396803  -0.24276057  -0.24276057    0.6481733   0.46307841  -0.24276057   0.89093387       128000 
 1023000   0.58761961  -0.24277912  -0.24277912   0.63863231   0.45879504  -0.24277912   0.88141143       128000 
 1024000   0.58930863  -0.24413041  -0.24413041    0.6398145   0.45260114  -0.24413041    0.8839449       128000 
 1025000   0.59425378  -0.24534281  -0.24534281   0.64601967   0.45164442  -0.24534281   0.89136249       128000 
 1026000   0.59125176  -0.24552982  -0.24552982   0.64132971    0.4489284  -0.24552982   0.88685954       128000 
 1027000   0.59430439  -0.24344901  -0.24344901   0.64798938   0.45670757  -0.24344901   0.89143838       128000 
 1028000   0.59496515  -0.24351034  -0.24351034   0.64891917   0.45884345  -0.24351034   0.89242951       128000 
 1029000   0.59272431  -0.24374896  -0.24374896   0.64531936    0.4595098  -0.24374896   0.88906832       128000 
 1030000   0.59196314  -0.24553711  -0.24553711   0.64238948   0.45451221  -0.24553711   0.88792659       128000 
 1031000   0.59338851  -0.24419878  -0.24419878   0.64586581   0.45271272  -0.24419878   0.89006459       128000 
 1032000   0.59279955  -0.24482686  -0.24482686   0.64435432   0.45655895  -0.24482686   0.88918118       128000 
 1033000   0.59273468  -0.24479584  -0.24479584   0.64428804   0.45356899  -0.24479584   0.88908388       128000 
 1034000   0.59413759  -0.24665748  -0.24665748   0.64453071   0.44820581  -0.24665748    0.8911882       128000 
 1035000   0.59237825  -0.24442784  -0.24442784   0.64412141   0.45686716  -0.24442784   0.88854924       128000 
 1036000   0.59868445  -0.24603882  -0.24603882   0.65196953   0.45600047  -0.24603882   0.89800835       128000 
 1037000   0.59672993  -0.24564508  -0.24564508   0.64943154   0.45688556  -0.24564508   0.89507663       128000 
 1038000    0.5909142  -0.24481519  -0.24481519   0.64153802    0.4521932  -0.24481519   0.88635321       128000 
 1039000     0.593905  -0.24420441  -0.24420441    0.6466349   0.45890329  -0.24420441   0.89083931       128000 
 1040000   0.59335552   -0.2463419   -0.2463419   0.64367321   0.45119537   -0.2463419   0.89001512       128000 
 1041000   0.59377382  -0.24296527  -0.24296527   0.64767729   0.45994972  -0.24296527   0.89064256       128000 
 1042000   0.59596949  -0.24653144  -0.24653144   0.64740455   0.45103388  -0.24653144   0.89393599       128000 
 1043000   0.58987842  -0.24431825  -0.24431825   0.64048132   0.45822889  -0.24431825   0.88479957       128000 
 1044000   0.59211719  -0.24693198  -0.24693198   0.64122568   0.45222554  -0.24693198   0.88815765       128000 
 1045000   0.59378446  -0.24578779  -0.24578779   0.64487072   0.45159584  -0.24578779   0.89065851       128000 
 1046000   0.59573236  -0.24417956  -0.24417956   0.64940075   0.45991334  -0.24417956   0.89358031       128000 
 1047000   0.59220642  -0.24570195  -0.24570195   0.64258955   0.44861666  -0.24570195   0.88829149       128000 
 1048000    0.5978113  -0.24694659  -0.24694659   0.64975207   0.45438613  -0.24694659   0.89669866       128000 
 1049000   0.59616002  -0.24495173  -0.24495173   0.64927005    0.4551441  -0.24495173   0.89422178       128000 
 1050000   0.59449989  -0.24402431  -0.24402431   0.64770732   0.45871435  -0.24402431   0.89173163       128000 
 1051000   0.59397731  -0.24410368  -0.24410368   0.64684409   0.45491787  -0.24410368   0.89094778       128000 
 1052000   0.59334323  -0.24363933  -0.24363933   0.64635734   0.45908894  -0.24363933   0.88999668       128000 
 1053000   0.59361208  -0.24557721  -0.24557721   0.64482274    0.4516295  -0.24557721   0.89039995       128000 
 1054000   0.59248174  -0.24253789  -0.24253789   0.64616658   0.46494301  -0.24253789   0.88870447       128000 
 1055000   0.59414519  -0.24482962  -0.24482962   0.64636998   0.45248483  -0.24482962    0.8911996       128000 
 1056000   0.59499763  -0.24324378  -0.24324378   0.64923445   0.45720827  -0.24324378   0.89247824       128000 
 1057000   0.59544844  -0.23895368  -0.23895368   0.65420076   0.47231334  -0.23895368   0.89315444       128000 
 1058000   0.60076644  -0.24335116  -0.24335116   0.65778011   0.45701292  -0.24335116   0.90113127       128000 
 1059000   0.60205376  -0.24175619  -0.24175619   0.66130601   0.46165517  -0.24175619   0.90306221       128000 
 1060000   0.59960165  -0.24359886  -0.24359886   0.65578526   0.46233425  -0.24359886   0.89938412       128000 
 1061000   0.59872031   -0.2426674   -0.2426674   0.65539473    0.4635501   -0.2426674   0.89806214       128000 
 1062000   0.59857866  -0.24280471  -0.24280471   0.65504496   0.46468282  -0.24280471   0.89784967       128000 
 1063000    0.5969584  -0.24255354  -0.24255354   0.65286579   0.46208355  -0.24255354   0.89541933       128000 
 1064000   0.59968668  -0.24250979  -0.24250979   0.65700187   0.46320241  -0.24250979   0.89951166       128000 
 1065000   0.60069296  -0.24500652  -0.24500652   0.65601454   0.45646647  -0.24500652   0.90102106       128000 
 1066000   0.60062058  -0.24312327  -0.24312327   0.65778922   0.46366924  -0.24312327   0.90091249       128000 
 1067000   0.59590515   -0.2430409   -0.2430409   0.65079858   0.46212795   -0.2430409   0.89383948       128000 
 1068000   0.59545624  -0.24184972  -0.24184972    0.6513164   0.46295139  -0.24184972   0.89316613       128000 
 1069000   0.59864351  -0.24534312  -0.24534312   0.65260382   0.45631649  -0.24534312   0.89794694       128000 
 1070000   0.59575312  -0.24300104  -0.24300104    0.6506104   0.45977045  -0.24300104   0.89361144       128000 
 1071000   0.59844395  -0.24517569  -0.24517569   0.65247192    0.4602043  -0.24517569   0.89764761       128000 
 1072000   0.59956144  -0.24189797  -0.24189797   0.65742584    0.4651314  -0.24189797   0.89932381       128000 
 1073000   0.59788416  -0.24405575  -0.24405575   0.65275219   0.45647576  -0.24405575   0.89680794       128000 
 1074000   0.59861031  -0.24358729  -0.24358729   0.65430986   0.46474171  -0.24358729   0.89789714       128000 
 1075000   0.59985977  -0.24301638  -0.24301638   0.65675491   0.46477015  -0.24301638   0.89977129       128000 
 1076000   0.59698932  -0.24200742  -0.24200742   0.65345828     0.461539  -0.24200742    0.8954657       128000 
 1077000   0.60078093  -0.24189419  -0.24189419   0.65925881   0.46628704  -0.24189419     0.901153       128000 
 1078000   0.59929784  -0.24346479  -0.24346479   0.65546362   0.46404499  -0.24346479   0.89892842       128000 
 1079000    0.5999482   -0.2442125   -0.2442125   0.65569144   0.45897016   -0.2442125   0.89990393       128000 
 1080000   0.59844646  -0.24538753  -0.24538753   0.65226384   0.45456598  -0.24538753   0.89765137       128000 
 1081000   0.59645971  -0.24303364  -0.24303364   0.65163767   0.45751816  -0.24303364   0.89467131       128000 
 1082000   0.59947523   -0.2452642   -0.2452642   0.65393029   0.45646407   -0.2452642   0.89919449       128000 
 1083000   0.60010207  -0.24362098  -0.24362098   0.65651375   0.45827585  -0.24362098   0.90013473       128000 
 1084000   0.59775297  -0.24249433  -0.24249433   0.65411683   0.46082511  -0.24249433   0.89661116       128000 
 1085000   0.59613535  -0.24377951  -0.24377951   0.65040527   0.46265371  -0.24377951   0.89418478       128000 
 1086000   0.60005565  -0.24704767  -0.24704767   0.65301744   0.45328861  -0.24704767   0.90006511       128000 
 1087000   0.59850289  -0.24360774  -0.24360774   0.65412828   0.45506216  -0.24360774   0.89773602       128000 
 1088000   0.59976248  -0.24406102  -0.24406102   0.65556434    0.4601567  -0.24406102   0.89962536       128000 
 1089000   0.59896106  -0.24322011  -0.24322011   0.65520315    0.4607979  -0.24322011   0.89842325       128000 
 1090000    0.6015418  -0.24284177  -0.24284177   0.65945251    0.4614795  -0.24284177   0.90229428       128000 
 1091000   0.60014553  -0.24273893  -0.24273893     0.657461   0.46578411  -0.24273893   0.90019993       128000 
 1092000   0.59821974  -0.24447484  -0.24447484   0.65283646   0.46217688  -0.24447484    0.8973113       128000 
 1093000   0.59851272  -0.24131306  -0.24131306   0.65643769    0.4658946  -0.24131306   0.89775075       128000 
 1094000    0.5971222  -0.24244053  -0.24244053   0.65322449   0.46124207  -0.24244053   0.89566502       128000 
 1095000   0.59705758  -0.24411651  -0.24411651   0.65145159   0.45902421  -0.24411651   0.89556809       128000 
 1096000   0.59935555  -0.24156708  -0.24156708   0.65744789   0.46650878  -0.24156708   0.89901498       128000 
 1097000   0.59736047  -0.24306327  -0.24306327   0.65295915   0.46007803  -0.24306327   0.89602242       128000 
 1098000   0.59570402  -0.24271839  -0.24271839   0.65081941   0.46050554  -0.24271839    0.8935378       128000 
 1099000   0.59646529  -0.24316238  -0.24316238   0.65151729   0.46010529  -0.24316238   0.89467967       128000 
 1100000   0.59553266  -0.24347624  -0.24347624   0.64980452   0.45962962  -0.24347624   0.89328076       128000 
Loop time of 3016.23 on 4 procs for 1000000 steps with 49000 atoms

Performance: 143225.059 tau/day, 331.539 timesteps/s
99.4% CPU use with 4 MPI tasks x 1 OpenMP threads

MPI task timing breakdown:
Section |  min time  |  avg time  |  max time  |%varavg|  %CPU | %total
-----------------------------------------------------------------------
Pair    | 1130.5     | 1257.6     | 1361.3     | 239.0 |  99.3 | 41.69
Bond    | 0.39167    | 0.5838     | 1.0808     |  37.7 | 100.0 |  0.02
Neigh   | 514.83     | 560.81     | 588.6      | 116.8 |  99.6 | 18.59
Comm    | 180.27     | 334.45     | 521.05     | 677.2 |  98.9 | 11.09
Output  | 54.953     | 54.979     | 54.988     |   0.2 |  98.1 |  1.82
Modify  | 729.4      | 758.68     | 792.84     |  83.8 |  99.4 | 25.15
Other   |            | 49.14      |            |       |       |  1.63

Nlocal:        12250.0 ave       12453 max       12014 min
Histogram: 1 0 0 0 0 1 1 0 0 1
Nghost:        4534.50 ave        5258 max        3836 min
Histogram: 2 0 0 0 0 0 0 0 0 2
Neighs:        62288.8 ave       64359 max       59761 min
Histogram: 1 0 0 0 0 1 1 0 0 1

Total # of neighbors = 249155
Ave neighs/atom = 5.0847959
Ave special neighs/atom = 0.0000000
Neighbor list builds = 89313
Dangerous builds = 10124
System init for write_restart ...
System init for write_data ...
Total wall time: 0:57:33
