LAMMPS (24 Dec 2020)
OMP_NUM_THREADS environment is not set. Defaulting to 1 thread. (src/comm.cpp:94)
  using 1 OpenMP thread(s) per MPI task
Created orthogonal box = (0.0000000 0.0000000 0.0000000) to (80.000000 80.000000 160.00000)
  6 by 4 by 8 MPI processor grid
Lattice spacing in x,y,z = 1.1485556 1.1485556 1.1485556
Created 421400 atoms
  create_atoms CPU = 0.144 seconds
Lattice spacing in x,y,z = 2.8114422 2.8114422 2.8114422
Created 17661 atoms
  create_atoms CPU = 0.004 seconds
439061 atoms in group solvent
System init for delete_atoms ...
Neighbor list info ...
  update every 1 steps, delay 10 steps, check yes
  max neighbors/atom: 2000, page size: 100000
  master list distance cutoff = 2.4
  ghost atom cutoff = 2.4
  binsize = 1.2, bins = 67 67 134
  2 neighbor lists, perpetual/occasional/extra = 1 1 0
  (1) command delete_atoms, occasional
      attributes: full, newton on
      pair build: full/bin
      stencil: full/bin/3d
      bin: standard
  (2) pair lj/smooth/linear, perpetual
      attributes: half, newton on
      pair build: half/bin/newton
      stencil: half/bin/3d/newton
      bin: standard
WARNING: Ignoring 'compress yes' for molecular system (src/delete_atoms.cpp:125)
Deleted 0 atoms, new total = 439061
Balancing ...
Neighbor list info ...
  update every 1 steps, delay 10 steps, check yes
  max neighbors/atom: 2000, page size: 100000
  master list distance cutoff = 2.4
  ghost atom cutoff = 2.4
  binsize = 1.2, bins = 67 67 134
  1 neighbor lists, perpetual/occasional/extra = 1 0 0
  (1) pair lj/smooth/linear, perpetual
      attributes: half, newton on
      pair build: half/bin/newton
      stencil: half/bin/3d/newton
      bin: standard
 rebalancing time: 0.006 seconds
  iteration count = 5
  initial/final maximal load/proc = 3888.0000 2808.0000
  initial/final imbalance factor  = 1.7002102 1.2279296
  x cuts: 0.0000000 0.16666667 0.33333333 0.50000000 0.66666667 0.83333333 1.0000000
  y cuts: 0.0000000 0.25000000 0.50000000 0.75000000 1.0000000
  z cuts: 0.0000000 0.089843750 0.17578125 0.25390625 0.33593750 0.41406250 0.50390625 0.58203125 1.0000000
dynamic group thermo defined
New timer settings: style=full  mode=nosync  timeout=off
Setting up Verlet run ...
  Unit style    : lj
  Current step  : 0
  Time step     : 0.005
Per MPI rank memory allocation (min/avg/max) = 9.917 | 9.995 | 10.07 Mbytes
Step Temp E_pair E_vdwl TotEng Press PotEng KinEng Atoms 
       0         0.35   0.22342731   0.22342731   0.74842611    4.3819762   0.22342731    0.5249988   439061 
    1000    1.5143183   -2.0381272   -2.0381272   0.23334511     1.962326   -2.0381272    2.2714723   439061 
    2000     1.425936   -2.1033519   -2.1033519  0.035547217     1.122918   -2.1033519    2.1388991   439061 
    3000    1.2704159   -2.0515355   -2.0515355  -0.14591601    0.7938383   -2.0515355    1.9056195   439061 
    4000    1.1798753   -2.0600651   -2.0600651  -0.29025611   0.63710917   -2.0600651     1.769809   439061 
    5000    1.1227902   -2.0648143   -2.0648143  -0.38063285   0.50012089   -2.0648143    1.6841815   439061 
    6000    1.0867821   -2.0630597   -2.0630597  -0.43289021   0.40086663   -2.0630597    1.6301695   439061 
    7000    1.0624667   -2.0594334   -2.0594334  -0.46573698   0.39397685   -2.0594334    1.5936965   439061 
    8000    1.0457841   -2.0607003   -2.0607003  -0.49202763   0.43514511   -2.0607003    1.5686726   439061 
    9000    1.0376871   -2.0707647   -2.0707647  -0.51423753   0.45630653   -2.0707647    1.5565271   439061 
   10000    1.0339927   -2.0872597   -2.0872597  -0.53627414   0.46675593   -2.0872597    1.5509855   439061 
   11000    1.0303435   -2.1004067   -2.1004067  -0.55489496   0.48290893   -2.1004067    1.5455118   439061 
   12000    1.0276824   -2.1132069   -2.1132069  -0.57168682   0.49472709   -2.1132069    1.5415201   439061 
   13000    1.0216645   -2.1181901   -2.1181901   -0.5856968   0.48500627   -2.1181901    1.5324933   439061 
   14000    1.0078865   -2.1103443   -2.1103443  -0.59851795   0.45163231   -2.1103443    1.5118264   439061 
   15000   0.99053094   -2.0963295   -2.0963295  -0.61053645   0.41247396   -2.0963295     1.485793   439061 
   16000   0.97178539   -2.0798415   -2.0798415  -0.62216672   0.37145763   -2.0798415    1.4576748   439061 
   17000   0.95711328   -2.0688401   -2.0688401  -0.63317349    0.3541902   -2.0688401    1.4356667   439061 
   18000   0.94751688   -2.0675037   -2.0675037  -0.64623163   0.38483955   -2.0675037    1.4212721   439061 
   19000   0.93589505   -2.0765655   -2.0765655  -0.67272612   0.46518283   -2.0765655    1.4038394   439061 
   20000   0.91912906   -2.0867386   -2.0867386  -0.70804816   0.45099176   -2.0867386    1.3786904   439061 
   21000   0.90269325   -2.0907555   -2.0907555  -0.73671874   0.40905563   -2.0907555    1.3540368   439061 
   22000   0.88762596   -2.0932183   -2.0932183  -0.76178242   0.39865032   -2.0932183    1.3314359   439061 
   23000   0.87739527    -2.101541    -2.101541  -0.78545108   0.39748887    -2.101541    1.3160899   439061 
   24000   0.86737149   -2.1104838   -2.1104838  -0.80942948   0.39437953   -2.1104838    1.3010543   439061 
   25000   0.85899313   -2.1216703   -2.1216703  -0.83318349   0.38810249   -2.1216703    1.2884868   439061 
   26000   0.84963763   -2.1300751   -2.1300751  -0.85562152   0.37648349   -2.1300751    1.2744535   439061 
   27000   0.84174239   -2.1389506   -2.1389506  -0.87633985   0.36156774   -2.1389506    1.2626107   439061 
   28000   0.83124151   -2.1435567   -2.1435567  -0.89669732   0.35260847   -2.1435567    1.2468594   439061 
   29000    0.8216475   -2.1481857   -2.1481857  -0.91571723   0.32431009   -2.1481857    1.2324684   439061 
   30000   0.81218983   -2.1513679   -2.1513679  -0.93308596   0.30563269   -2.1513679     1.218282   439061 
   31000   0.80241559   -2.1537898   -2.1537898  -0.95016921     0.291306   -2.1537898    1.2036206   439061 
   32000   0.79436264   -2.1580765   -2.1580765   -0.9665352   0.27267319   -2.1580765    1.1915413   439061 
   33000   0.78419838    -2.158277    -2.158277   -0.9819821   0.26109228    -2.158277    1.1762949   439061 
   34000   0.77555915   -2.1609214   -2.1609214  -0.99758537   0.24553389   -2.1609214    1.1633361   439061 
   35000   0.76808101   -2.1635366   -2.1635366   -1.0114177   0.23904957   -2.1635366    1.1521189   439061 
   36000   0.76290731   -2.1702712   -2.1702712   -1.0259129   0.22310355   -2.1702712    1.1443584   439061 
   37000   0.75838922   -2.1765085   -2.1765085   -1.0389272   0.22359607   -2.1765085    1.1375812   439061 
   38000   0.75573232   -2.1845489   -2.1845489    -1.050953   0.22314454   -2.1845489    1.1335959   439061 
   39000   0.75062664   -2.1890913   -2.1890913   -1.0631539   0.21604077   -2.1890913    1.1259374   439061 
   40000   0.74733955   -2.1957321   -2.1957321   -1.0747253   0.21378459   -2.1957321    1.1210068   439061 
   41000   0.74430751   -2.2024699   -2.2024699   -1.0860111   0.20698353   -2.2024699    1.1164587   439061 
   42000   0.74209116   -2.2099677   -2.2099677   -1.0968334   0.20200716   -2.2099677    1.1131342   439061 
   43000   0.73948094   -2.2158422   -2.2158422   -1.1066233   0.20167034   -2.2158422    1.1092189   439061 
   44000   0.73749415   -2.2230527   -2.2230527    -1.116814    0.1981855   -2.2230527    1.1062387   439061 
   45000   0.73344599   -2.2269694   -2.2269694   -1.1268029    0.1932821   -2.2269694    1.1001665   439061 
   46000   0.72834961   -2.2292766   -2.2292766   -1.1367547   0.18919687   -2.2292766    1.0925219   439061 
   47000   0.72594637   -2.2352034   -2.2352034   -1.1462863   0.18103893   -2.2352034    1.0889171   439061 
   48000   0.72100315   -2.2370405   -2.2370405   -1.1555382   0.17727019   -2.2370405    1.0815023   439061 
   49000   0.71756745   -2.2412483   -2.2412483   -1.1648996   0.17182913   -2.2412483    1.0763487   439061 
   50000   0.71510786   -2.2468173   -2.2468173    -1.174158    0.1788887   -2.2468173    1.0726593   439061 
   51000   0.71624775   -2.2586828   -2.2586828   -1.1843136   0.19285419   -2.2586828    1.0743692   439061 
   52000   0.71380064   -2.2662557   -2.2662557   -1.1955572   0.21119447   -2.2662557    1.0706985   439061 
   53000   0.70947956   -2.2716873   -2.2716873   -1.2074704    0.2013807   -2.2716873    1.0642169   439061 
   54000   0.70501437   -2.2754627   -2.2754627   -1.2179436   0.19486953   -2.2754627    1.0575191   439061 
   55000   0.70193301   -2.2811154   -2.2811154   -1.2282183   0.18973213   -2.2811154    1.0528971   439061 
   56000    0.6984696   -2.2857939   -2.2857939   -1.2380919   0.19382796   -2.2857939     1.047702   439061 
   57000   0.69617504   -2.2932263   -2.2932263   -1.2489661   0.18635737   -2.2932263    1.0442602   439061 
   58000   0.69227162   -2.2979582   -2.2979582   -1.2595532   0.18689447   -2.2979582    1.0384051   439061 
   59000   0.68944117   -2.3027609   -2.3027609   -1.2686015   0.17688528   -2.3027609    1.0341594   439061 
   60000   0.68563372   -2.3055748   -2.3055748   -1.2771266   0.17409057   -2.3055748    1.0284482   439061 
   61000   0.68218773   -2.3092467   -2.3092467   -1.2859674   0.16871639   -2.3092467    1.0232793   439061 
   62000   0.68029548   -2.3152261   -2.3152261   -1.2947852   0.16614901   -2.3152261    1.0204409   439061 
   63000   0.67757761   -2.3200842   -2.3200842   -1.3037201   0.16390695   -2.3200842    1.0163641   439061 
   64000   0.67477223   -2.3245883   -2.3245883   -1.3124323   0.16495822   -2.3245883     1.012156   439061 
   65000   0.67111599   -2.3277277   -2.3277277    -1.321056   0.15575082   -2.3277277    1.0066717   439061 
   66000   0.66807752   -2.3311061   -2.3311061   -1.3289921   0.15175826   -2.3311061     1.002114   439061 
   67000   0.66385485   -2.3327561   -2.3327561   -1.3369761    0.1458568   -2.3327561      0.99578   439061 
   68000   0.66097986   -2.3359932   -2.3359932   -1.3445256   0.13859784   -2.3359932   0.99146753   439061 
   69000   0.65792613   -2.3393809   -2.3393809   -1.3524939   0.13838569   -2.3393809   0.98688694   439061 
   70000   0.65467485   -2.3413686   -2.3413686   -1.3593585   0.13887219   -2.3413686   0.98201004   439061 
   71000   0.65127271   -2.3434341   -2.3434341   -1.3665272   0.13474112   -2.3434341   0.97690685   439061 
   72000   0.64924584   -2.3475184   -2.3475184   -1.3736519   0.12672355   -2.3475184   0.97386654   439061 
   73000   0.64604722   -2.3496847   -2.3496847    -1.380616   0.12893921   -2.3496847   0.96906862   439061 
   74000   0.64434192    -2.353882    -2.353882   -1.3873713   0.12605618    -2.353882   0.96651067   439061 
   75000    0.6435556   -2.3592988   -2.3592988   -1.3939676   0.12343161   -2.3592988    0.9653312   439061 
   76000   0.64244506   -2.3636178   -2.3636178   -1.3999524   0.11919378   -2.3636178    0.9636654   439061 
   77000   0.64024716   -2.3668641   -2.3668641   -1.4064955   0.12032548   -2.3668641   0.96036855   439061 
   78000   0.63847132   -2.3712868   -2.3712868    -1.413582   0.11827102   -2.3712868   0.95770479   439061 
   79000   0.63739802   -2.3751265   -2.3751265   -1.4190316   0.11873946   -2.3751265   0.95609485   439061 
   80000   0.63615771    -2.380154    -2.380154   -1.4259196   0.11524688    -2.380154    0.9542344   439061 
   81000   0.63520832   -2.3847486   -2.3847486   -1.4319383   0.11502228   -2.3847486   0.95281031   439061 
   82000   0.63324413   -2.3879473   -2.3879473   -1.4380832   0.11386148   -2.3879473   0.94986402   439061 
   83000    0.6317086   -2.3915805   -2.3915805   -1.4440198   0.11015407   -2.3915805   0.94756075   439061 
   84000   0.63003704   -2.3944828   -2.3944828   -1.4494294   0.10615897   -2.3944828   0.94505341   439061 
   85000   0.62936438   -2.3989958   -2.3989958   -1.4549514   0.10902539   -2.3989958   0.94404442   439061 
   86000   0.62721577   -2.4019667   -2.4019667   -1.4611452   0.10921227   -2.4019667   0.94082151   439061 
   87000   0.62589125   -2.4053641   -2.4053641   -1.4665294   0.10853296   -2.4053641   0.93883473   439061 
   88000   0.62511497   -2.4102434   -2.4102434    -1.472573    0.1090364   -2.4102434   0.93767032   439061 
   89000   0.62501395    -2.416307    -2.416307   -1.4787882    0.1137844    -2.416307   0.93751879   439061 
   90000   0.62348922   -2.4205575   -2.4205575   -1.4853259   0.11729597   -2.4205575   0.93523169   439061 
   91000    0.6234747   -2.4268743   -2.4268743   -1.4916644   0.12270143   -2.4268743   0.93520993   439061 
   92000   0.62129521   -2.4298095   -2.4298095   -1.4978688   0.11906721   -2.4298095    0.9319407   439061 
   93000   0.61943591   -2.4321408   -2.4321408   -1.5029891   0.11510888   -2.4321408   0.92915175   439061 
   94000   0.61839773   -2.4365477   -2.4365477   -1.5089532   0.11774074   -2.4365477   0.92759448   439061 
   95000   0.61703541   -2.4398764   -2.4398764   -1.5143254   0.11463901   -2.4398764     0.925551   439061 
   96000   0.61574191   -2.4444321   -2.4444321   -1.5208214   0.11176837   -2.4444321   0.92361076   439061 
   97000   0.61418568   -2.4481385   -2.4481385    -1.526862   0.11005885   -2.4481385   0.92127642   439061 
   98000   0.61304543    -2.452513    -2.452513    -1.532947    0.1108033    -2.452513   0.91956604   439061 
   99000   0.61133191   -2.4548787   -2.4548787   -1.5378829   0.11081726   -2.4548787   0.91699578   439061 
  100000   0.61034452   -2.4595838   -2.4595838   -1.5440691   0.11094922   -2.4595838    0.9155147   439061 
  101000   0.60842918   -2.4627395   -2.4627395   -1.5500978   0.10711621   -2.4627395   0.91264169   439061 
  102000   0.60684722   -2.4654248   -2.4654248    -1.555156   0.10271679   -2.4654248   0.91026875   439061 
  103000   0.60576882   -2.4692208   -2.4692208   -1.5605696   0.10390835   -2.4692208   0.90865116   439061 
  104000   0.60374611   -2.4718395   -2.4718395   -1.5662224  0.096905765   -2.4718395   0.90561711   439061 
  105000   0.60297175   -2.4753028   -2.4753028   -1.5708472  0.098028419   -2.4753028   0.90445556   439061 
  106000   0.60219327   -2.4792122   -2.4792122   -1.5759244  0.098062184   -2.4792122   0.90328785   439061 
  107000   0.59961261   -2.4808885   -2.4808885   -1.5814716  0.093882096   -2.4808885   0.89941686   439061 
  108000   0.59800245   -2.4837767   -2.4837767    -1.586775  0.091198481   -2.4837767   0.89700164   439061 
  109000   0.59695923   -2.4873943   -2.4873943   -1.5919575  0.089393428   -2.4873943   0.89543681   439061 
  110000   0.59535206   -2.4910684   -2.4910684   -1.5980423  0.088894964   -2.4910684   0.89302606   439061 
  111000   0.59266566   -2.4925425   -2.4925425    -1.603546  0.090506648   -2.4925425   0.88899647   439061 
  112000   0.59126808   -2.4950577   -2.4950577   -1.6081576  0.091528866   -2.4950577    0.8869001   439061 
  113000   0.59049844   -2.4983304   -2.4983304   -1.6125848  0.089332183   -2.4983304   0.88574565   439061 
  114000   0.58873158   -2.5007088   -2.5007088   -1.6176134  0.087104557   -2.5007088   0.88309536   439061 
  115000   0.58896662   -2.5057764   -2.5057764   -1.6223285  0.084538212   -2.5057764   0.88344792   439061 
  116000   0.58650051   -2.5073802   -2.5073802   -1.6276314  0.081064125   -2.5073802   0.87974877   439061 
  117000   0.58479464   -2.5094728   -2.5094728   -1.6322828  0.086163994   -2.5094728   0.87718996   439061 
  118000   0.58446767   -2.5144214   -2.5144214   -1.6377219  0.076831345   -2.5144214   0.87669952   439061 
  119000   0.58258786   -2.5172679   -2.5172679   -1.6433881   0.07803143   -2.5172679    0.8738798   439061 
  120000   0.58236245   -2.5217957   -2.5217957    -1.648254  0.078393464   -2.5217957   0.87354168   439061 
  121000   0.58094934   -2.5232837   -2.5232837   -1.6518617  0.078463342   -2.5232837   0.87142203   439061 
  122000   0.58090189   -2.5279685   -2.5279685   -1.6566177  0.077685662   -2.5279685   0.87135085   439061 
  123000    0.5801151   -2.5316309   -2.5316309   -1.6614602  0.075397374   -2.5316309   0.87017066   439061 
  124000    0.5785325   -2.5334263   -2.5334263   -1.6656295  0.075356101   -2.5334263   0.86779677   439061 
  125000   0.57613777   -2.5348577   -2.5348577    -1.670653  0.069620604   -2.5348577   0.86420468   439061 
  126000   0.57548664   -2.5386031   -2.5386031   -1.6753751  0.070711232   -2.5386031     0.863228   439061 
  127000   0.57563488   -2.5437319   -2.5437319   -1.6802816  0.071239302   -2.5437319   0.86345036   439061 
  128000   0.57500563   -2.5469309   -2.5469309   -1.6844245  0.074469686   -2.5469309   0.86250647   439061 
  129000   0.57450999   -2.5506027   -2.5506027   -1.6888396  0.072696029   -2.5506027   0.86176303   439061 
  130000    0.5734972   -2.5538544   -2.5538544   -1.6936106  0.073293859   -2.5538544   0.86024384   439061 
  131000   0.57422698   -2.5585295   -2.5585295    -1.697191  0.073272411   -2.5585295   0.86133851   439061 
  132000   0.57183015    -2.559532    -2.559532   -1.7017887   0.07603844    -2.559532   0.85774328   439061 
  133000   0.57136624   -2.5636024   -2.5636024    -1.706555  0.076582201   -2.5636024   0.85704741   439061 
  134000   0.57129428   -2.5681067   -2.5681067   -1.7111673  0.074331705   -2.5681067   0.85693947   439061 
  135000   0.57038047   -2.5712956   -2.5712956   -1.7157268  0.075609069   -2.5712956   0.85556876   439061 
  136000   0.56955183   -2.5747792   -2.5747792   -1.7204534  0.079287602   -2.5747792    0.8543258   439061 
  137000    0.5688748   -2.5786677   -2.5786677   -1.7253574  0.076220945   -2.5786677   0.85331026   439061 
  138000   0.56804832   -2.5821656   -2.5821656   -1.7300951   0.07626741   -2.5821656   0.85207054   439061 
  139000   0.56742727   -2.5856271   -2.5856271   -1.7344881  0.076670882   -2.5856271   0.85113896   439061 
  140000   0.56732307   -2.5893109   -2.5893109   -1.7383282  0.073703708   -2.5893109   0.85098266   439061 
  141000   0.56594894   -2.5914344   -2.5914344   -1.7425129  0.074931488   -2.5914344   0.84892148   439061 
  142000   0.56431204    -2.593142    -2.593142   -1.7466758  0.073240122    -2.593142   0.84646613   439061 
  143000    0.5631426   -2.5957502   -2.5957502   -1.7510382  0.072289716   -2.5957502   0.84471197   439061 
  144000   0.56394319   -2.6010977   -2.6010977   -1.7551848  0.071143662   -2.6010977   0.84591286   439061 
  145000   0.56272505   -2.6035896   -2.6035896   -1.7595039   0.07190542   -2.6035896   0.84408565   439061 
  146000     0.562286   -2.6075074   -2.6075074   -1.7640803  0.070792065   -2.6075074   0.84342708   439061 
  147000   0.56112209   -2.6101027   -2.6101027   -1.7684215  0.072516245   -2.6101027   0.84168122   439061 
  148000   0.56006222    -2.612757    -2.612757   -1.7726656  0.067336751    -2.612757   0.84009142   439061 
  149000    0.5591292   -2.6156535   -2.6156535   -1.7769616   0.06520508   -2.6156535    0.8386919   439061 
  150000   0.55810842   -2.6189455   -2.6189455   -1.7817847  0.064937441   -2.6189455   0.83716072   439061 
  151000   0.55741706   -2.6218794   -2.6218794   -1.7857558  0.063737508   -2.6218794   0.83612368   439061 
  152000    0.5563699   -2.6240827   -2.6240827   -1.7895297  0.067537233   -2.6240827   0.83455295   439061 
  153000   0.55531515     -2.62753     -2.62753   -1.7945591  0.067041003     -2.62753   0.83297083   439061 
  154000   0.55436732   -2.6295163   -2.6295163   -1.7979672  0.064403246   -2.6295163   0.83154909   439061 
  155000   0.55350171    -2.631948    -2.631948   -1.8016973  0.060927626    -2.631948   0.83025068   439061 
  156000   0.55254135   -2.6336768   -2.6336768   -1.8048667  0.058661135   -2.6336768   0.82881014   439061 
  157000   0.55132292   -2.6360666   -2.6360666   -1.8090841  0.059066155   -2.6360666    0.8269825   439061 
  158000   0.54992518   -2.6382318   -2.6382318   -1.8133459   0.05727174   -2.6382318   0.82488589   439061 
  159000   0.55045907   -2.6429614   -2.6429614   -1.8172746   0.05859115   -2.6429614   0.82568673   439061 
  160000   0.54888913   -2.6444952   -2.6444952   -1.8211634  0.061633176   -2.6444952   0.82333183   439061 
  161000    0.5483288   -2.6479345   -2.6479345   -1.8254432  0.057576229   -2.6479345   0.82249132   439061 
  162000   0.54678624   -2.6496904   -2.6496904   -1.8295129  0.057175099   -2.6496904    0.8201775   439061 
  163000   0.54682488   -2.6536665   -2.6536665   -1.8334311  0.049587536   -2.6536665   0.82023545   439061 
  164000   0.54678447   -2.6568737   -2.6568737   -1.8366989  0.051424044   -2.6568737   0.82017484   439061 
  165000   0.54611135   -2.6595521   -2.6595521    -1.840387  0.058022603   -2.6595521   0.81916516   439061 
  166000   0.54598953   -2.6632498   -2.6632498   -1.8442674  0.058448608   -2.6632498   0.81898243   439061 
  167000   0.54502411   -2.6657117   -2.6657117   -1.8481774  0.055106614   -2.6657117    0.8175343   439061 
  168000   0.54357536     -2.66748     -2.66748   -1.8521188  0.051408896     -2.66748   0.81536118   439061 
  169000   0.54314344   -2.6704553   -2.6704553    -1.855742  0.054409152   -2.6704553    0.8147133   439061 
  170000    0.5421661   -2.6730706   -2.6730706   -1.8598233   0.05039754   -2.6730706    0.8132473   439061 
  171000   0.54264287   -2.6775136   -2.6775136   -1.8635511  0.053940302   -2.6775136   0.81396246   439061 
  172000   0.54172605   -2.6802326   -2.6802326   -1.8676454  0.051218494   -2.6802326   0.81258722   439061 
  173000   0.54038892    -2.682049    -2.682049   -1.8714675  0.050893738    -2.682049   0.81058154   439061 
  174000   0.54116818   -2.6870435   -2.6870435   -1.8752931  0.051533116   -2.6870435   0.81175042   439061 
  175000   0.54000057   -2.6891035   -2.6891035   -1.8791045  0.051445015   -2.6891035   0.80999901   439061 
  176000   0.53947401   -2.6920107   -2.6920107   -1.8828016  0.049916657   -2.6920107   0.80920917   439061 
  177000   0.53970326   -2.6960276   -2.6960276   -1.8864745  0.046916339   -2.6960276   0.80955305   439061 
  178000   0.53772508   -2.6966531   -2.6966531   -1.8900673  0.050546012   -2.6966531   0.80658579   439061 
  179000   0.53734157   -2.6994675   -2.6994675    -1.893457  0.046406694   -2.6994675   0.80601052   439061 
  180000   0.53756064   -2.7030457   -2.7030457   -1.8967065  0.049798449   -2.7030457   0.80633912   439061 
  181000   0.53587424   -2.7047053   -2.7047053   -1.9008958  0.050500172   -2.7047053   0.80380952   439061 
  182000   0.53591299   -2.7091235   -2.7091235   -1.9052558   0.05006977   -2.7091235   0.80386765   439061 
  183000   0.53723038   -2.7140651   -2.7140651   -1.9082214  0.047150529   -2.7140651   0.80584373   439061 
  184000   0.53439385   -2.7133136   -2.7133136   -1.9117246  0.048945457   -2.7133136   0.80158895   439061 
  185000   0.53498484   -2.7176307   -2.7176307   -1.9151552  0.050173458   -2.7176307   0.80247543   439061 
  186000   0.53368603   -2.7195752   -2.7195752   -1.9190479  0.052401875   -2.7195752   0.80052721   439061 
  187000   0.53334818    -2.722575    -2.722575   -1.9225545  0.051102891    -2.722575   0.80002045   439061 
  188000   0.53326838   -2.7257342   -2.7257342   -1.9258334  0.046252793   -2.7257342   0.79990074   439061 
  189000   0.53112114   -2.7265338   -2.7265338   -1.9298539  0.050643466   -2.7265338   0.79667989   439061 
  190000   0.53127422   -2.7297417   -2.7297417   -1.9328322  0.049226663   -2.7297417   0.79690952   439061 
  191000   0.53069336   -2.7328046   -2.7328046   -1.9367664  0.046376359   -2.7328046   0.79603822   439061 
  192000   0.53020549   -2.7361127   -2.7361127   -1.9408063  0.048461309   -2.7361127   0.79530642   439061 
  193000   0.52955187    -2.738762    -2.738762    -1.944436  0.049651655    -2.738762   0.79432599   439061 
  194000    0.5296931   -2.7426198   -2.7426198   -1.9480819  0.049686083   -2.7426198   0.79453784   439061 
  195000   0.52949635   -2.7459597   -2.7459597    -1.951717  0.044843363   -2.7459597   0.79424272   439061 
  196000   0.52821253   -2.7482415   -2.7482415   -1.9559245  0.044021798   -2.7482415   0.79231699   439061 
  197000   0.52823104   -2.7517714   -2.7517714   -1.9594266  0.043031436   -2.7517714   0.79234476   439061 
  198000   0.52723605   -2.7534852   -2.7534852   -1.9626329  0.043398399   -2.7534852   0.79085227   439061 
  199000   0.52676736   -2.7560708   -2.7560708   -1.9659216   0.04327425   -2.7560708   0.79014924   439061 
  200000   0.52655589   -2.7588801   -2.7588801    -1.969048   0.04883979   -2.7588801   0.78983204   439061 
  201000   0.52522777    -2.760143    -2.760143   -1.9723031   0.05008821    -2.760143   0.78783986   439061 
  202000   0.52581003   -2.7643558   -2.7643558   -1.9756426  0.043843252   -2.7643558   0.78871325   439061 
  203000    0.5247442   -2.7657879   -2.7657879   -1.9786734  0.045165884   -2.7657879   0.78711451   439061 
  204000   0.52342805   -2.7679848   -2.7679848   -1.9828445  0.042549183   -2.7679848   0.78514029   439061 
  205000   0.52271822   -2.7702768   -2.7702768   -1.9862013  0.040578651   -2.7702768   0.78407555   439061 
  206000    0.5217866   -2.7721683   -2.7721683   -1.9894902  0.038578738   -2.7721683   0.78267812   439061 
  207000   0.52132071   -2.7751191   -2.7751191   -1.9931398  0.039191046   -2.7751191   0.78197929   439061 
  208000   0.52147326    -2.779004    -2.779004   -1.9967958   0.04320224    -2.779004   0.78220811   439061 
  209000   0.52065171   -2.7817457   -2.7817457   -2.0007699  0.046190525   -2.7817457   0.78097578   439061 
  210000   0.52069141   -2.7848506   -2.7848506   -2.0038153  0.042952579   -2.7848506   0.78103533   439061 
  211000   0.51988138   -2.7868402   -2.7868402   -2.0070199  0.037479046   -2.7868402    0.7798203   439061 
  212000   0.51992066   -2.7898918   -2.7898918   -2.0100126  0.038624818   -2.7898918   0.77987921   439061 
  213000   0.51881403   -2.7917085   -2.7917085   -2.0134893  0.039449743   -2.7917085   0.77821927   439061 
  214000   0.51780669    -2.793843    -2.793843   -2.0171347  0.036474163    -2.793843   0.77670826   439061 
  215000   0.51817459   -2.7973518   -2.7973518   -2.0200917  0.037760858   -2.7973518   0.77726011   439061 
  216000    0.5186859   -2.8011278   -2.8011278   -2.0231007  0.037701418   -2.8011278   0.77802708   439061 
  217000   0.51785317   -2.8033192   -2.8033192   -2.0265412  0.041687998   -2.8033192   0.77677798   439061 
  218000   0.51700963    -2.805576    -2.805576   -2.0300633  0.038848094    -2.805576   0.77551269   439061 
  219000   0.51585729   -2.8073597   -2.8073597   -2.0335755  0.038358762   -2.8073597   0.77378418   439061 
  220000   0.51556207   -2.8106898   -2.8106898   -2.0373485   0.03658126   -2.8106898   0.77334135   439061 
  221000   0.51497393   -2.8133645   -2.8133645   -2.0409053  0.036110496   -2.8133645   0.77245914   439061 
  222000   0.51415496   -2.8151032   -2.8151032   -2.0438725   0.03593014   -2.8151032   0.77123068   439061 
  223000   0.51377823   -2.8181088   -2.8181088   -2.0474432  0.035493609   -2.8181088   0.77066559   439061 
  224000    0.5138967   -2.8208373   -2.8208373    -2.049994  0.036989252   -2.8208373   0.77084329   439061 
  225000   0.51337832   -2.8234097   -2.8234097    -2.053344  0.033972856   -2.8234097   0.77006573   439061 
  226000   0.51281792   -2.8259387   -2.8259387   -2.0567135  0.037142334   -2.8259387   0.76922513   439061 
  227000   0.51303968    -2.829362    -2.829362   -2.0598043  0.036110397    -2.829362   0.76955776   439061 
  228000   0.51217796   -2.8313464   -2.8313464   -2.0630813  0.037691848   -2.8313464   0.76826519   439061 
  229000   0.51148956   -2.8337189   -2.8337189   -2.0664863  0.036311215   -2.8337189    0.7672326   439061 
  230000   0.51148913   -2.8367025   -2.8367025   -2.0694705  0.035245837   -2.8367025   0.76723195   439061 
  231000   0.51004825   -2.8379193   -2.8379193   -2.0728487  0.030453012   -2.8379193   0.76507063   439061 
  232000   0.50978994    -2.840161    -2.840161   -2.0754779  0.037498462    -2.840161   0.76468317   439061 
  233000   0.50961286   -2.8431579   -2.8431579   -2.0787404  0.034256104   -2.8431579   0.76441755   439061 
  234000   0.50925791   -2.8453501   -2.8453501   -2.0814649  0.033349987   -2.8453501   0.76388513   439061 
  235000   0.50901107     -2.84772     -2.84772   -2.0842051  0.033436057     -2.84772   0.76351487   439061 
  236000   0.50845446   -2.8503307   -2.8503307   -2.0876507  0.037001997   -2.8503307   0.76267995   439061 
  237000   0.50816734   -2.8533422   -2.8533422    -2.091093  0.032976211   -2.8533422   0.76224927   439061 
  238000   0.50934019   -2.8576539   -2.8576539   -2.0936453  0.030932635   -2.8576539   0.76400854   439061 
  239000   0.50815509   -2.8593143   -2.8593143   -2.0970834  0.033503837   -2.8593143    0.7622309   439061 
  240000   0.50694249   -2.8604927   -2.8604927   -2.1000807  0.035246735   -2.8604927     0.760412   439061 
  241000   0.50741103   -2.8640266   -2.8640266   -2.1029118  0.033486998   -2.8640266   0.76111481   439061 
  242000   0.50694821   -2.8666196   -2.8666196    -2.106199  0.036119834   -2.8666196   0.76042058   439061 
  243000   0.50700813   -2.8696554   -2.8696554   -2.1091449   0.03592609   -2.8696554   0.76051046   439061 
  244000   0.50618159   -2.8717239   -2.8717239   -2.1124532  0.036296412   -2.8717239   0.75927065   439061 
  245000   0.50642644   -2.8747489   -2.8747489    -2.115111  0.032941669   -2.8747489   0.75963793   439061 
  246000   0.50587708   -2.8764398   -2.8764398   -2.1176259  0.033424937   -2.8764398   0.75881389   439061 
  247000   0.50482909   -2.8780523   -2.8780523   -2.1208104  0.028680422   -2.8780523    0.7572419   439061 
  248000   0.50427961   -2.8805346   -2.8805346    -2.124117   0.03186771   -2.8805346   0.75641769   439061 
  249000   0.50273737   -2.8813476   -2.8813476   -2.1272433  0.033424823   -2.8813476   0.75410434   439061 
  250000   0.50385457   -2.8862943   -2.8862943   -2.1305142  0.036358936   -2.8862943   0.75578014   439061 
  251000   0.50339622   -2.8893033   -2.8893033   -2.1342107  0.035555904   -2.8893033   0.75509261   439061 
  252000   0.50311219   -2.8918717   -2.8918717   -2.1372052  0.033687631   -2.8918717   0.75466656   439061 
  253000   0.50130361   -2.8924347   -2.8924347    -2.140481  0.033124927   -2.8924347   0.75195371   439061 
  254000    0.5012351   -2.8953573   -2.8953573   -2.1435064  0.029030521   -2.8953573   0.75185094   439061 
  255000   0.50142022   -2.8989748   -2.8989748   -2.1468462  0.026975417   -2.8989748   0.75212862   439061 
  256000   0.50011668   -2.9001656   -2.9001656   -2.1499922  0.030937248   -2.9001656   0.75017331   439061 
  257000   0.50052541    -2.902783    -2.902783   -2.1519966  0.030116713    -2.902783   0.75078641   439061 
  258000   0.50064994   -2.9062283   -2.9062283   -2.1552551  0.031362154   -2.9062283    0.7509732   439061 
  259000   0.50038668   -2.9083732   -2.9083732   -2.1577949  0.033085098   -2.9083732   0.75057831   439061 
  260000    0.4997872   -2.9098535   -2.9098535   -2.1601744  0.035088498   -2.9098535   0.74967909   439061 
  261000   0.50009674   -2.9138595   -2.9138595   -2.1637161  0.030586712   -2.9138595    0.7501434   439061 
  262000   0.49884703   -2.9152088   -2.9152088     -2.16694  0.025317433   -2.9152088   0.74826884   439061 
  263000   0.49865784   -2.9174229   -2.9174229   -2.1694379  0.025414449   -2.9174229   0.74798506   439061 
  264000   0.49841967   -2.9199558   -2.9199558    -2.172328  0.024690717   -2.9199558    0.7476278   439061 
  265000   0.49756101   -2.9222833   -2.9222833   -2.1759435  0.033145128   -2.9222833   0.74633981   439061 
  266000    0.4988038   -2.9273228   -2.9273228   -2.1791188  0.029880729   -2.9273228     0.748204   439061 
  267000   0.49746482   -2.9282076   -2.9282076   -2.1820121  0.031364747   -2.9282076   0.74619554   439061 
  268000   0.49693627   -2.9301163   -2.9301163   -2.1847136  0.026525653   -2.9301163   0.74540271   439061 
  269000   0.49678003   -2.9336593   -2.9336593    -2.188491  0.024090715   -2.9336593   0.74516835   439061 
  270000   0.49592757   -2.9350401   -2.9350401   -2.1911505  0.029896616   -2.9350401   0.74388966   439061 
  271000   0.49590727   -2.9375945   -2.9375945   -2.1937353  0.027855435   -2.9375945   0.74385922   439061 
  272000   0.49468071   -2.9391073   -2.9391073   -2.1970879  0.025005168   -2.9391073   0.74201937   439061 
  273000   0.49459579    -2.941349    -2.941349   -2.1994571  0.026845572    -2.941349   0.74189199   439061 
  274000   0.49411542   -2.9427305   -2.9427305    -2.201559  0.027129905   -2.9427305   0.74117144   439061 
  275000   0.49423095   -2.9456681   -2.9456681   -2.2043234  0.026838113   -2.9456681   0.74134474   439061 
  276000   0.49335954   -2.9479853   -2.9479853   -2.2079477  0.028674448   -2.9479853   0.74003762   439061 
  277000   0.49387967    -2.951347    -2.951347   -2.2105292  0.027955343    -2.951347   0.74081782   439061 
  278000   0.49370531   -2.9550102   -2.9550102   -2.2144539  0.025301254   -2.9550102   0.74055628   439061 
  279000   0.49326182   -2.9559566   -2.9559566   -2.2160656  0.028069698   -2.9559566   0.73989105   439061 
  280000   0.49259824   -2.9586019   -2.9586019   -2.2197063   0.02592242   -2.9586019   0.73889568   439061 
  281000   0.49206482   -2.9595396   -2.9595396   -2.2214441  0.025779966   -2.9595396   0.73809555   439061 
  282000    0.4927514   -2.9625945   -2.9625945   -2.2234691  0.023704943   -2.9625945   0.73912541   439061 
  283000   0.49262094   -2.9649007   -2.9649007   -2.2259709  0.022425647   -2.9649007   0.73892973   439061 
  284000   0.49097053   -2.9656525   -2.9656525   -2.2291984  0.024366158   -2.9656525   0.73645412   439061 
  285000   0.49174527   -2.9696021   -2.9696021   -2.2319859   0.02717736   -2.9696021   0.73761623   439061 
  286000   0.49101694   -2.9711536   -2.9711536   -2.2346298  0.023103151   -2.9711536   0.73652373   439061 
  287000   0.49128451   -2.9737789   -2.9737789   -2.2368538  0.022382488   -2.9737789   0.73692508   439061 
  288000   0.49008516   -2.9749031   -2.9749031   -2.2397771   0.02490366   -2.9749031   0.73512606   439061 
  289000   0.49066184    -2.978498    -2.978498   -2.2425069  0.026818607    -2.978498   0.73599108   439061 
  290000   0.49020791   -2.9803977   -2.9803977   -2.2450875  0.024678986   -2.9803977   0.73531019   439061 
  291000   0.48949871    -2.982051    -2.982051   -2.2478046   0.02217473    -2.982051    0.7342464   439061 
  292000   0.48946385    -2.984024    -2.984024   -2.2498299  0.022097984    -2.984024    0.7341941   439061 
  293000   0.48856414    -2.985344    -2.985344   -2.2524995  0.023060753    -2.985344   0.73284454   439061 
  294000   0.48826221   -2.9883841   -2.9883841   -2.2559925  0.025735143   -2.9883841   0.73239165   439061 
  295000   0.48981846   -2.9930655   -2.9930655   -2.2583395  0.025876477   -2.9930655   0.73472602   439061 
  296000    0.4880375   -2.9929804   -2.9929804   -2.2609258  0.022236362   -2.9929804   0.73205458   439061 
  297000    0.4880583   -2.9957822   -2.9957822   -2.2636964  0.024190832   -2.9957822   0.73208578   439061 
  298000   0.48839808   -2.9988595   -2.9988595    -2.266264  0.026743473   -2.9988595   0.73259545   439061 
  299000   0.48737259   -3.0013175   -3.0013175   -2.2702603  0.024187356   -3.0013175   0.73105722   439061 
  300000   0.48775929   -3.0047237   -3.0047237   -2.2730864  0.023831987   -3.0047237   0.73163727   439061 
  301000   0.48660754   -3.0057389   -3.0057389   -2.2758293  0.023603544   -3.0057389   0.72990965   439061 
  302000   0.48693332   -3.0085646   -3.0085646   -2.2781663  0.023220134   -3.0085646   0.73039832   439061 
  303000   0.48659223   -3.0107046   -3.0107046   -2.2808179  0.023420897   -3.0107046   0.72988669   439061 
  304000   0.48557319   -3.0113992   -3.0113992   -2.2830411  0.023140709   -3.0113992   0.72835813   439061 
  305000   0.48607087   -3.0150602   -3.0150602   -2.2859555  0.021556573   -3.0150602   0.72910464   439061 
  306000   0.48420995   -3.0154242   -3.0154242    -2.289111  0.019708179   -3.0154242   0.72631327   439061 
  307000   0.48408847   -3.0182347   -3.0182347   -2.2921037  0.021763983   -3.0182347   0.72613104   439061 
  308000   0.48532507   -3.0226457   -3.0226457   -2.2946597  0.018183022   -3.0226457   0.72798595   439061 
  309000   0.48393848   -3.0226446   -3.0226446   -2.2967386  0.020113451   -3.0226446   0.72590606   439061 
  310000   0.48375613   -3.0250365   -3.0250365    -2.299404  0.021505315   -3.0250365   0.72563254   439061 
  311000   0.48370482   -3.0272665   -3.0272665   -2.3017109  0.021747212   -3.0272665   0.72555557   439061 
  312000    0.4833531   -3.0292696   -3.0292696   -2.3042416  0.022204953   -3.0292696   0.72502799   439061 
  313000   0.48297168    -3.031394    -3.031394   -2.3069381  0.021317097    -3.031394   0.72445587   439061 
  314000    0.4823979   -3.0334779   -3.0334779   -2.3098827  0.022704811   -3.0334779    0.7235952   439061 
  315000   0.48224742   -3.0353431   -3.0353431   -2.3119737  0.020923097   -3.0353431   0.72336948   439061 
  316000   0.48163507   -3.0378538   -3.0378538   -2.3154029  0.015780402   -3.0378538   0.72245096   439061 
  317000   0.48122219     -3.03871     -3.03871   -2.3168784  0.019429833     -3.03871   0.72183164   439061 
  318000   0.48111603   -3.0415049   -3.0415049   -2.3198325  0.021195047   -3.0415049    0.7216724   439061 
  319000   0.48225439    -3.045305    -3.045305   -2.3219251  0.021125326    -3.045305   0.72337994   439061 
  320000   0.48091333    -3.046032    -3.046032   -2.3246637  0.021876604    -3.046032   0.72136836   439061 
  321000   0.48112485   -3.0489975   -3.0489975   -2.3273118  0.021910281   -3.0489975   0.72168563   439061 
  322000   0.48147924   -3.0520132   -3.0520132    -2.329796  0.020329904   -3.0520132   0.72221722   439061 
  323000   0.48091863   -3.0539767   -3.0539767   -2.3326004  0.018079147   -3.0539767    0.7213763   439061 
  324000   0.47995635   -3.0554623   -3.0554623   -2.3355294  0.016524652   -3.0554623   0.71993288   439061 
  325000   0.47920765   -3.0559493   -3.0559493   -2.3371394  0.018788618   -3.0559493   0.71880984   439061 
  326000   0.47873839   -3.0571015   -3.0571015   -2.3389955  0.013985355   -3.0571015   0.71810595   439061 
  327000   0.47906551   -3.0604537   -3.0604537    -2.341857  0.016932891   -3.0604537   0.71859663   439061 
  328000   0.47905037   -3.0626766   -3.0626766   -2.3441027  0.020916181   -3.0626766   0.71857392   439061 
  329000   0.47906229   -3.0653131   -3.0653131   -2.3467213  0.019993515   -3.0653131    0.7185918   439061 
  330000   0.48027753    -3.069367    -3.069367   -2.3489524  0.020445669    -3.069367   0.72041465   439061 
  331000   0.47874361   -3.0699162   -3.0699162   -2.3518024  0.020626099   -3.0699162   0.71811379   439061 
  332000   0.47855961   -3.0724509   -3.0724509   -2.3546131  0.018682336   -3.0724509   0.71783778   439061 
  333000   0.47860997   -3.0742662   -3.0742662   -2.3563529  0.018999958   -3.0742662   0.71791332   439061 
  334000   0.47754265   -3.0759799   -3.0759799   -2.3596676  0.017541708   -3.0759799   0.71631234   439061 
  335000   0.47757614   -3.0774794   -3.0774794   -2.3611168  0.018920175   -3.0774794   0.71636258   439061 
  336000    0.4758035   -3.0778086   -3.0778086    -2.364105  0.014105986   -3.0778086   0.71370363   439061 
  337000   0.47710584   -3.0818722   -3.0818722   -2.3662151   0.01541292   -3.0818722   0.71565713   439061 
  338000   0.47690532   -3.0838782   -3.0838782   -2.3685218  0.016485237   -3.0838782   0.71535635   439061 
  339000   0.47736968   -3.0871002   -3.0871002   -2.3710473   0.01736488   -3.0871002   0.71605289   439061 
  340000   0.47655695   -3.0881493   -3.0881493   -2.3733155  0.019349916   -3.0881493    0.7148338   439061 
  341000   0.47610202   -3.0896245   -3.0896245   -2.3754731  0.017080679   -3.0896245    0.7141514   439061 
  342000   0.47556238   -3.0914001   -3.0914001   -2.3780581  0.018357696   -3.0914001   0.71334195   439061 
  343000     0.474486   -3.0926408   -3.0926408   -2.3809134  0.017743823   -3.0926408   0.71172738   439061 
  344000    0.4750884   -3.0955146   -3.0955146   -2.3828836  0.017183753   -3.0955146   0.71263098   439061 
  345000   0.47498572   -3.0978522   -3.0978522   -2.3853753  0.012667731   -3.0978522   0.71247696   439061 
  346000   0.47399219   -3.0989532   -3.0989532   -2.3879666  0.017178848   -3.0989532   0.71098666   439061 
  347000   0.47396545   -3.1017368   -3.1017368   -2.3907902  0.017289425   -3.1017368   0.71094655   439061 
  348000   0.47458833    -3.105687    -3.105687   -2.3938061  0.019227808    -3.105687   0.71188088   439061 
  349000   0.47477152   -3.1077566   -3.1077566    -2.395601  0.018460993   -3.1077566   0.71215566   439061 
  350000   0.47419557   -3.1095329   -3.1095329   -2.3982411  0.016402081   -3.1095329   0.71129174   439061 
  351000   0.47355474   -3.1115022   -3.1115022   -2.4011717  0.014035429   -3.1115022   0.71033049   439061 
  352000   0.47273473   -3.1126453   -3.1126453   -2.4035448  0.016897307   -3.1126453   0.70910048   439061 
  353000   0.47168469   -3.1135924   -3.1135924    -2.406067  0.015129852   -3.1135924   0.70752542   439061 
  354000    0.4725642    -3.117944    -3.117944   -2.4090993  0.011890222    -3.117944   0.70884469   439061 
  355000    0.4725788    -3.120104    -3.120104   -2.4112375  0.013492011    -3.120104   0.70886659   439061 
  356000   0.47247549   -3.1211794   -3.1211794   -2.4124678  0.016346978   -3.1211794   0.70871163   439061 
  357000   0.47194161   -3.1232628   -3.1232628    -2.415352    0.0160431   -3.1232628    0.7079108   439061 
  358000   0.47191076   -3.1263096   -3.1263096    -2.418445  0.015813218   -3.1263096   0.70786453   439061 
  359000   0.47194608   -3.1289263   -3.1289263   -2.4210088  0.011774287   -3.1289263   0.70791751   439061 
  360000   0.47125383   -3.1305642   -3.1305642   -2.4236851  0.012574507   -3.1305642   0.70687913   439061 
  361000   0.47030192   -3.1321845   -3.1321845   -2.4267332  0.010793492   -3.1321845   0.70545128   439061 
  362000   0.47038058   -3.1339391   -3.1339391   -2.4283699  0.014417917   -3.1339391   0.70556926   439061 
  363000   0.46980523   -3.1360368   -3.1360368   -2.4313305  0.014435193   -3.1360368   0.70470623   439061 
  364000   0.47051037   -3.1395039   -3.1395039   -2.4337399   0.01023021   -3.1395039   0.70576394   439061 
  365000   0.46994573   -3.1407045   -3.1407045   -2.4357875  0.013384171   -3.1407045   0.70491698   439061 
  366000   0.46986812   -3.1425923   -3.1425923   -2.4377917  0.015902502   -3.1425923   0.70480057   439061 
  367000   0.46982587   -3.1455866   -3.1455866   -2.4408494  0.016615644   -3.1455866    0.7047372   439061 
  368000   0.47040953   -3.1486074   -3.1486074   -2.4429947  0.015479022   -3.1486074   0.70561269   439061 
  369000   0.46983401    -3.149872    -3.149872   -2.4451226 0.0088119117    -3.149872   0.70474941   439061 
  370000   0.46839112   -3.1496637   -3.1496637   -2.4470787  0.013816597   -3.1496637   0.70258507   439061 
  371000   0.46880106   -3.1524283   -3.1524283   -2.4492283  0.011015446   -3.1524283   0.70319999   439061 
  372000   0.46883168   -3.1551435   -3.1551435   -2.4518976   0.01234477   -3.1551435   0.70324592   439061 
  373000   0.46785862   -3.1561047   -3.1561047   -2.4543184  0.011374416   -3.1561047   0.70178634   439061 
  374000   0.46819852   -3.1583121   -3.1583121   -2.4560159  0.013592789   -3.1583121   0.70229618   439061 
  375000   0.46806455   -3.1604507   -3.1604507   -2.4583555  0.014076753   -3.1604507   0.70209523   439061 
  376000   0.46835435   -3.1636255   -3.1636255   -2.4610956  0.012040365   -3.1636255   0.70252992   439061 
  377000   0.46682521   -3.1642962   -3.1642962     -2.46406  0.014676679   -3.1642962   0.70023622   439061 
  378000   0.46615793   -3.1659474   -3.1659474   -2.4667121 0.0097347416   -3.1659474    0.6992353   439061 
  379000    0.4659475    -3.167609    -3.167609   -2.4686893  0.011168612    -3.167609   0.69891966   439061 
  380000   0.46702102   -3.1712418   -3.1712418   -2.4707118 0.0078881658   -3.1712418   0.70052993   439061 
  381000    0.4662554   -3.1719697   -3.1719697   -2.4725882  0.011955928   -3.1719697    0.6993815   439061 
  382000   0.46707514   -3.1753703   -3.1753703   -2.4747592   0.01647576   -3.1753703   0.70061111   439061 
  383000   0.46662921   -3.1768616   -3.1768616   -2.4769194  0.012265474   -3.1768616   0.69994221   439061 
  384000   0.46552477    -3.177645    -3.177645   -2.4793594  0.012357686    -3.177645   0.69828556   439061 
  385000   0.46584924   -3.1810473   -3.1810473    -2.482275  0.011092409   -3.1810473   0.69877226   439061 
  386000   0.46474583   -3.1816846   -3.1816846   -2.4845675  0.010517334   -3.1816846   0.69711716   439061 
  387000   0.46511147   -3.1849407   -3.1849407   -2.4872751   0.01242486   -3.1849407   0.69766561   439061 
  388000   0.46453968   -3.1858581   -3.1858581   -2.4890502   0.01278741   -3.1858581   0.69680794   439061 
  389000   0.46456626   -3.1879827   -3.1879827   -2.4911349  0.013514125   -3.1879827   0.69684781   439061 
  390000   0.46486209    -3.190915    -3.190915   -2.4936234  0.012152214    -3.190915   0.69729154   439061 
  391000   0.46467513    -3.192781    -3.192781   -2.4957699   0.01172675    -3.192781   0.69701111   439061 
  392000   0.46521589   -3.1958059   -3.1958059   -2.4979837 0.0083958797   -3.1958059   0.69782224   439061 
  393000   0.46404855   -3.1962816   -3.1962816   -2.5002104  0.009268374   -3.1962816   0.69607124   439061 
  394000   0.46326249   -3.1975059   -3.1975059   -2.5026138  0.012596126   -3.1975059   0.69489215   439061 
  395000    0.4631068   -3.1996772   -3.1996772   -2.5050186 0.0084395469   -3.1996772   0.69465862   439061 
  396000   0.46383565   -3.2030538   -3.2030538   -2.5073019 0.0089423419   -3.2030538   0.69575189   439061 
  397000   0.46335689   -3.2045172   -3.2045172   -2.5094835 0.0080532908   -3.2045172   0.69503375   439061 
  398000   0.46377604   -3.2073205   -3.2073205    -2.511658  0.011087169   -3.2073205   0.69566248   439061 
  399000   0.46275188   -3.2088814   -3.2088814   -2.5147551  0.012204751   -3.2088814   0.69412624   439061 
  400000    0.4636672   -3.2124362   -3.2124362    -2.516937  0.011732232   -3.2124362   0.69549922   439061 
  401000   0.46301849   -3.2140841   -3.2140841    -2.519558 0.0097136347   -3.2140841   0.69452616   439061 
  402000    0.4624175   -3.2148388   -3.2148388   -2.5212141   0.01017201   -3.2148388   0.69362467   439061 
  403000   0.46242264   -3.2170153   -3.2170153   -2.5233829   0.00675742   -3.2170153   0.69363238   439061 
  404000   0.46176024   -3.2183953   -3.2183953   -2.5257565 0.0084600312   -3.2183953   0.69263878   439061 
  405000   0.46163542    -3.220541    -3.220541   -2.5280894 0.0048918133    -3.220541   0.69245156   439061 
  406000   0.46222007    -3.222877    -3.222877   -2.5295485 0.0069804154    -3.222877   0.69332853   439061 
  407000   0.46128823   -3.2243262   -3.2243262   -2.5323955 0.0077404532   -3.2243262   0.69193077   439061 
  408000    0.4612186   -3.2257716   -3.2257716   -2.5339453  0.011662418   -3.2257716   0.69182632   439061 
  409000   0.46136933   -3.2286221   -3.2286221   -2.5365696  0.010550076   -3.2286221   0.69205241   439061 
  410000   0.46038063   -3.2300683   -3.2300683   -2.5394989  0.010454995   -3.2300683   0.69056937   439061 
  411000   0.46042507   -3.2324646   -3.2324646   -2.5418286 0.0075986523   -3.2324646   0.69063603   439061 
  412000   0.46019014   -3.2342189   -3.2342189   -2.5439353 0.0064287599   -3.2342189   0.69028363   439061 
  413000    0.4594574   -3.2350295   -3.2350295   -2.5458449  0.010144591   -3.2350295   0.68918453   439061 
  414000   0.45994572   -3.2383229   -3.2383229   -2.5484059 0.0062030549   -3.2383229   0.68991701   439061 
  415000   0.45989844   -3.2401831   -3.2401831    -2.550337 0.0059746406   -3.2401831   0.68984609   439061 
  416000   0.46026299   -3.2426431   -3.2426431   -2.5522502 0.0066942246   -3.2426431   0.69039292   439061 
  417000    0.4590828   -3.2432926   -3.2432926   -2.5546699 0.0087182253   -3.2432926   0.68862263   439061 
  418000   0.45936671   -3.2455154   -3.2455154    -2.556467 0.0091779705   -3.2455154   0.68904849   439061 
  419000   0.45893863   -3.2473668   -3.2473668   -2.5589604 0.0076513164   -3.2473668   0.68840638   439061 
  420000   0.45878957   -3.2497957   -3.2497957    -2.561613 0.0043062907   -3.2497957   0.68818279   439061 
  421000   0.45888807   -3.2519748   -3.2519748   -2.5636442 0.0084131715   -3.2519748   0.68833054   439061 
  422000   0.45776081   -3.2531762   -3.2531762   -2.5665365 0.0075616355   -3.2531762   0.68663965   439061 
  423000   0.45782583   -3.2551524   -3.2551524   -2.5684152 0.0072046929   -3.2551524   0.68673717   439061 
  424000   0.45750291   -3.2576699   -3.2576699   -2.5714171 0.0041108154   -3.2576699    0.6862528   439061 
  425000   0.45710619   -3.2580941   -3.2580941   -2.5724363 0.0054949939   -3.2580941   0.68565772   439061 
  426000   0.45708215   -3.2604434   -3.2604434   -2.5748217 0.0046566826   -3.2604434   0.68562167   439061 
  427000   0.45665721   -3.2619764   -3.2619764   -2.5769922 0.0061878899   -3.2619764   0.68498426   439061 
  428000   0.45644337   -3.2637273   -3.2637273   -2.5790638 0.0075667922   -3.2637273   0.68466349   439061 
  429000   0.45603051   -3.2653305   -3.2653305   -2.5812862 0.0084362094   -3.2653305   0.68404421   439061 
  430000   0.45608049   -3.2666849   -3.2666849   -2.5825657 0.0092048016   -3.2666849   0.68411918   439061 
  431000   0.45554068   -3.2682228   -3.2682228   -2.5849133 0.0094187355   -3.2682228   0.68330946   439061 
  432000   0.45650148   -3.2721957   -3.2721957   -2.5874451 0.0051733061   -3.2721957   0.68475066   439061 
  433000   0.45547742   -3.2723683   -3.2723683   -2.5891537 0.0062537225   -3.2723683   0.68321457   439061 
  434000   0.45608599   -3.2755452   -3.2755452   -2.5914178  0.005544974   -3.2755452   0.68412742   439061 
  435000   0.45558512   -3.2766331   -3.2766331   -2.5932569 0.0033859461   -3.2766331   0.68337613   439061 
  436000   0.45528609   -3.2784185   -3.2784185    -2.595491 0.0055115513   -3.2784185   0.68292758   439061 
  437000   0.45534571   -3.2804823   -3.2804823   -2.5974653  0.005156091   -3.2804823   0.68301702   439061 
  438000   0.45530338   -3.2829564   -3.2829564   -2.6000029 0.0049393316   -3.2829564   0.68295351   439061 
  439000   0.45424285   -3.2831386   -3.2831386   -2.6017759 0.0069013768   -3.2831386   0.68136272   439061 
  440000   0.45502501     -3.28623     -3.28623   -2.6036941 0.0018370064     -3.28623   0.68253596   439061 
  441000   0.45498594   -3.2887134   -3.2887134   -2.6062361 0.0036348299   -3.2887134   0.68247736   439061 
  442000   0.45406744   -3.2893653   -3.2893653   -2.6082657 0.0017254644   -3.2893653   0.68109961   439061 
  443000    0.4544882   -3.2921824   -3.2921824   -2.6104516 0.00071995853   -3.2921824   0.68173075   439061 
  444000   0.45300895   -3.2919831   -3.2919831   -2.6124713  0.004799451   -3.2919831   0.67951187   439061 
  445000    0.4530384   -3.2944499   -3.2944499   -2.6148939 0.0055429096   -3.2944499   0.67955605   439061 
  446000   0.45322366   -3.2966035   -3.2966035   -2.6167696 0.0057186401   -3.2966035   0.67983394   439061 
  447000   0.45336506   -3.2986311   -3.2986311    -2.618585 0.0032039864   -3.2986311   0.68004605   439061 
  448000   0.45250843   -3.2998325   -3.2998325   -2.6210714 0.0019069642   -3.2998325    0.6787611   439061 
  449000   0.45281633   -3.3019914   -3.3019914   -2.6227684 0.0022317624   -3.3019914   0.67922296   439061 
  450000   0.45270147   -3.3040643   -3.3040643   -2.6250136 0.00051648547   -3.3040643   0.67905066   439061 
  451000   0.45269681   -3.3057786   -3.3057786    -2.626735 0.0018347028   -3.3057786   0.67904367   439061 
  452000   0.45302968   -3.3084058   -3.3084058   -2.6288629 0.0040475416   -3.3084058   0.67954297   439061 
  453000   0.45157551   -3.3086892   -3.3086892   -2.6313275 0.0037127964   -3.3086892   0.67736172   439061 
  454000   0.45250683   -3.3124157   -3.3124157    -2.633657 0.0053298544   -3.3124157   0.67875871   439061 
  455000   0.45150351    -3.312599    -3.312599   -2.6353453 0.0070862907    -3.312599   0.67725372   439061 
  456000    0.4522053   -3.3158753   -3.3158753   -2.6375689 0.0030762897   -3.3158753    0.6783064   439061 
  457000   0.45219852    -3.317932    -3.317932   -2.6396357 0.00072760248    -3.317932   0.67829623   439061 
  458000   0.45048735   -3.3168404   -3.3168404   -2.6411109 0.0028537306   -3.3168404   0.67572949   439061 
  459000   0.45104809   -3.3192766   -3.3192766    -2.642706 -0.0011356423   -3.3192766    0.6765706   439061 
  460000   0.44993779   -3.3193441   -3.3193441    -2.644439  0.002143908   -3.3193441   0.67490515   439061 
  461000   0.45125647   -3.3229398   -3.3229398   -2.6460567 -0.0012020766   -3.3229398   0.67688316   439061 
  462000   0.45095655   -3.3241973   -3.3241973    -2.647764 0.0018912609   -3.3241973   0.67643329   439061 
  463000   0.45037562   -3.3266219   -3.3266219     -2.65106 0.0042129225   -3.3266219   0.67556189   439061 
  464000   0.45043057   -3.3290491   -3.3290491   -2.6534048 0.0036090974   -3.3290491   0.67564432   439061 
  465000   0.44973135   -3.3299584   -3.3299584   -2.6553629 0.0030508748   -3.3299584   0.67459548   439061 
  466000   0.44989389   -3.3326128   -3.3326128   -2.6577735 0.0022506712   -3.3326128    0.6748393   439061 
  467000   0.44952096   -3.3337752   -3.3337752   -2.6594953 0.0036888327   -3.3337752   0.67427991   439061 
  468000   0.44899152   -3.3357713   -3.3357713   -2.6622856 -0.0023572841   -3.3357713   0.67348574   439061 
  469000   0.44864033   -3.3367185   -3.3367185   -2.6637596 -0.00059845037   -3.3367185   0.67295896   439061 
  470000   0.44879424   -3.3387372   -3.3387372   -2.6655474 -0.0010112581   -3.3387372   0.67318983   439061 
  471000   0.44841907   -3.3404034   -3.3404034   -2.6677763 -0.0024368069   -3.3404034   0.67262707   439061 
  472000   0.44809664   -3.3421657   -3.3421657   -2.6700223 -0.0025326088   -3.3421657   0.67214343   439061 
  473000   0.44804988   -3.3443762   -3.3443762   -2.6723029 -0.0009604917   -3.3443762   0.67207328   439061 
  474000   0.44782444   -3.3467763   -3.3467763   -2.6750412 -0.0012225651   -3.3467763   0.67173513   439061 
  475000   0.44780303   -3.3483708   -3.3483708   -2.6766678 -0.0019775046   -3.3483708   0.67170302   439061 
  476000   0.44726944   -3.3498476   -3.3498476    -2.678945 -5.1392612e-05   -3.3498476   0.67090264   439061 
  477000   0.44815806   -3.3528829   -3.3528829   -2.6806473 0.00022279507   -3.3528829   0.67223556   439061 
  478000   0.44688612   -3.3532963   -3.3532963   -2.6829686 0.0028445394   -3.3532963   0.67032766   439061 
  479000    0.4472205   -3.3550694   -3.3550694   -2.6842402 0.0038357839   -3.3550694   0.67082922   439061 
  480000    0.4473418   -3.3572628   -3.3572628   -2.6862516 -0.00072476004   -3.3572628   0.67101117   439061 
  481000   0.44587575   -3.3570829   -3.3570829   -2.6882708 0.0027705127   -3.3570829    0.6688121   439061 
  482000   0.44656274   -3.3599673   -3.3599673   -2.6901247 0.0026134982   -3.3599673   0.66984258   439061 
  483000   0.44499172   -3.3604328   -3.3604328   -2.6929468 0.0035240562   -3.3604328   0.66748606   439061 
  484000   0.44559781   -3.3636285   -3.3636285   -2.6952333 -0.00043491664   -3.3636285    0.6683952   439061 
  485000   0.44480102   -3.3641711   -3.3641711   -2.6969711 0.0003543502   -3.3641711   0.66720001   439061 
  486000   0.44452395   -3.3660183   -3.3660183   -2.6992338 -0.0037418583   -3.3660183   0.66678441   439061 
  487000   0.44492711   -3.3685952   -3.3685952   -2.7012061 -0.0046871803   -3.3685952   0.66738915   439061 
  488000   0.44507331   -3.3708373   -3.3708373   -2.7032289 -0.0026645829   -3.3708373   0.66760844   439061 
  489000    0.4440292   -3.3716732   -3.3716732   -2.7056309  -0.00201533   -3.3716732   0.66604229   439061 
  490000   0.44533472   -3.3751352   -3.3751352   -2.7071347  0.001746424   -3.3751352   0.66800056   439061 
  491000   0.44490904   -3.3762041   -3.3762041   -2.7088421 0.0025704633   -3.3762041   0.66736204   439061 
  492000   0.44558531   -3.3796278   -3.3796278   -2.7112513 -0.0012920443   -3.3796278   0.66837644   439061 
  493000   0.44460413   -3.3801327   -3.3801327   -2.7132281 -0.0019728739   -3.3801327   0.66690467   439061 
  494000   0.44485709   -3.3818101   -3.3818101    -2.714526 -0.004702665   -3.3818101   0.66728412   439061 
  495000   0.44340376   -3.3817502   -3.3817502   -2.7166461 0.0010317169   -3.3817502   0.66510413   439061 
  496000   0.44373977    -3.384429    -3.384429   -2.7188208 -0.0054140351    -3.384429   0.66560814   439061 
  497000   0.44336548    -3.385627    -3.385627   -2.7205803 -0.0023941109    -3.385627    0.6650467   439061 
  498000   0.44306249   -3.3873783   -3.3873783   -2.7227861 -0.0045098283   -3.3873783   0.66459222   439061 
  499000   0.44378336   -3.3902002   -3.3902002   -2.7245266 -0.0023162172   -3.3902002   0.66567353   439061 
  500000   0.44275313   -3.3909911   -3.3909911   -2.7268629 -0.0010026194   -3.3909911   0.66412818   439061 
  501000   0.44390965   -3.3939357   -3.3939357   -2.7280728 -0.00069229491   -3.3939357   0.66586296   439061 
  502000   0.44375055   -3.3958205   -3.3958205   -2.7301962 -0.0017659724   -3.3958205    0.6656243   439061 
  503000   0.44269978   -3.3960733   -3.3960733   -2.7320251 -0.00085444845   -3.3960733   0.66404815   439061 
  504000   0.44281091   -3.3980515   -3.3980515   -2.7338367 -0.00072982395   -3.3980515   0.66421485   439061 
  505000   0.44180408   -3.3979464   -3.3979464   -2.7352417 -0.002905146   -3.3979464   0.66270461   439061 
  506000   0.44165059   -3.3995364   -3.3995364    -2.737062 -0.0065460211   -3.3995364   0.66247438   439061 
  507000   0.44148551   -3.4018872   -3.4018872   -2.7396604 -0.0074892091   -3.4018872   0.66222675   439061 
  508000   0.44188376    -3.404367    -3.404367   -2.7415429 -0.007916933    -3.404367   0.66282412   439061 
  509000   0.44172734   -3.4057683   -3.4057683   -2.7431788 -0.0039666182   -3.4057683    0.6625895   439061 
  510000   0.44155206   -3.4080318   -3.4080318   -2.7457052 -0.003709002   -3.4080318   0.66232658   439061 
  511000   0.44107995   -3.4085121   -3.4085121   -2.7468937 0.00024714887   -3.4085121   0.66161841   439061 
  512000   0.44120548   -3.4105133   -3.4105133   -2.7487066 -0.00030841086   -3.4105133   0.66180672   439061 
  513000   0.44051382   -3.4114128   -3.4114128   -2.7506435 -0.0046211431   -3.4114128   0.66076922   439061 
  514000   0.44034683   -3.4127638   -3.4127638    -2.752245 -0.0053720318   -3.4127638   0.66051875   439061 
  515000   0.44014209   -3.4133116   -3.4133116      -2.7531 -0.005986695   -3.4133116   0.66021163   439061 
  516000   0.43965381   -3.4149793   -3.4149793   -2.7555001 -0.0061776422   -3.4149793   0.65947921   439061 
  517000   0.44009869   -3.4176346   -3.4176346   -2.7574881 -0.0038858373   -3.4176346   0.66014654   439061 
  518000   0.43983907   -3.4189264   -3.4189264   -2.7591693 -0.00053964774   -3.4189264    0.6597571   439061 
  519000   0.44019875   -3.4211501   -3.4211501   -2.7608535 -0.0031112082   -3.4211501   0.66029661   439061 
  520000   0.44006277   -3.4235323   -3.4235323   -2.7634397 -0.0044558985   -3.4235323   0.66009266   439061 
  521000   0.43993673   -3.4249589   -3.4249589   -2.7650553 -0.0043642688   -3.4249589    0.6599036   439061 
  522000   0.43918969    -3.426036    -3.426036    -2.767253 -0.0061180714    -3.426036   0.65878303   439061 
  523000   0.43905769   -3.4278979   -3.4278979   -2.7693129 -0.010361341   -3.4278979   0.65858504   439061 
  524000   0.43887723   -3.4293247   -3.4293247   -2.7710103 -0.0071940628   -3.4293247   0.65831435   439061 
  525000   0.43901841   -3.4315343   -3.4315343   -2.7730082 -0.0078283894   -3.4315343   0.65852611   439061 
  526000   0.43847376   -3.4329597   -3.4329597   -2.7752506 -0.0061945087   -3.4329597   0.65770914   439061 
  527000   0.43869942    -3.435308    -3.435308   -2.7772603 -0.0070920601    -3.435308   0.65804763   439061 
  528000   0.43905842   -3.4374557   -3.4374557   -2.7788695 -0.0020212885   -3.4374557   0.65858612   439061 
  529000   0.43895291   -3.4386888   -3.4386888   -2.7802609 -0.0024390279   -3.4386888   0.65842786   439061 
  530000   0.43745694   -3.4392826   -3.4392826   -2.7830987 -0.00088915981   -3.4392826   0.65618392   439061 
  531000   0.43837945   -3.4420179   -3.4420179   -2.7844503 -0.0058205869   -3.4420179   0.65756768   439061 
  532000   0.43653529   -3.4412284   -3.4412284    -2.786427 -0.0055727362   -3.4412284   0.65480144   439061 
  533000   0.43804598    -3.444857    -3.444857   -2.7877895 -0.0093313169    -3.444857   0.65706748   439061 
  534000   0.43700379   -3.4449785   -3.4449785   -2.7894743 -0.0080227208   -3.4449785   0.65550419   439061 
  535000   0.43727906   -3.4468468   -3.4468468   -2.7909297 -0.005027586   -3.4468468   0.65591709   439061 
  536000   0.43722256   -3.4495478   -3.4495478   -2.7937155 -0.0062268554   -3.4495478   0.65583235   439061 
  537000   0.43751548   -3.4520284   -3.4520284   -2.7957566 -0.0068462737   -3.4520284   0.65627173   439061 
  538000   0.43694167   -3.4535737   -3.4535737   -2.7981627 -0.005989766   -3.4535737   0.65541101   439061 
  539000   0.43636125   -3.4550822   -3.4550822   -2.8005418 -0.0046537966   -3.4550822   0.65454038   439061 
  540000   0.43714609    -3.457918    -3.457918   -2.8022004 -0.0055491254    -3.457918   0.65571763   439061 
  541000   0.43681571   -3.4586438   -3.4586438   -2.8034217 -0.0062584775   -3.4586438   0.65522208   439061 
  542000    0.4368858   -3.4600804   -3.4600804   -2.8047532 -0.0082101011   -3.4600804   0.65532721   439061 
  543000     0.435187   -3.4594497   -3.4594497   -2.8066707 -0.0060303712   -3.4594497   0.65277901   439061 
  544000   0.43555217    -3.461476    -3.461476   -2.8081492 -0.0091208342    -3.461476   0.65332676   439061 
  545000   0.43607939   -3.4635394   -3.4635394   -2.8094218 -0.010498606   -3.4635394   0.65411759   439061 
  546000   0.43516429   -3.4645009   -3.4645009   -2.8117559 -0.0076540893   -3.4645009   0.65274494   439061 
  547000   0.43497271    -3.466297    -3.466297   -2.8138394 -0.0066579307    -3.466297   0.65245758   439061 
  548000   0.43549994   -3.4689043   -3.4689043   -2.8156559 -0.0042629999   -3.4689043   0.65324842   439061 
  549000   0.43501921    -3.470281    -3.470281   -2.8177536 -0.0069678351    -3.470281   0.65252733   439061 
  550000   0.43511702   -3.4724003   -3.4724003   -2.8197262 -0.0040768201   -3.4724003   0.65267404   439061 
  551000   0.43511732   -3.4738132   -3.4738132   -2.8211387 -0.0049979397   -3.4738132    0.6526745   439061 
  552000   0.43480987   -3.4757526   -3.4757526   -2.8235393 -0.007217704   -3.4757526   0.65221331   439061 
  553000   0.43485808   -3.4778034   -3.4778034   -2.8255178 -0.009172763   -3.4778034   0.65228563   439061 
  554000   0.43419375   -3.4786072   -3.4786072    -2.827318 -0.0081345811   -3.4786072   0.65128914   439061 
  555000   0.43388266   -3.4801771   -3.4801771   -2.8293546 -0.009598201   -3.4801771    0.6508225   439061 
  556000   0.43312728   -3.4811531   -3.4811531   -2.8314637 -0.0073759984   -3.4811531   0.64968945   439061 
  557000   0.43372117   -3.4833266   -3.4833266   -2.8327463 -0.008320327   -3.4833266   0.65058028   439061 
  558000   0.43404568   -3.4849273   -3.4849273   -2.8338603 -0.0049134436   -3.4849273   0.65106703   439061 
  559000   0.43387767   -3.4868423   -3.4868423   -2.8360273 -0.0058091764   -3.4868423   0.65081502   439061 
  560000   0.43430347   -3.4886742   -3.4886742   -2.8372205 -0.0084240066   -3.4886742   0.65145371   439061 
  561000   0.43359222    -3.489743    -3.489743   -2.8393561 -0.011216709    -3.489743   0.65038684   439061 
  562000   0.43299037   -3.4906274   -3.4906274   -2.8411433 -0.0076144176   -3.4906274   0.64948408   439061 
  563000   0.43216132   -3.4914465   -3.4914465    -2.843206 -0.0090732519   -3.4914465    0.6482405   439061 
  564000   0.43256665   -3.4942947   -3.4942947   -2.8454462 -0.010923089   -3.4942947    0.6488485   439061 
  565000   0.43333644   -3.4979192   -3.4979192    -2.847916 -0.010581054   -3.4979192   0.65000317   439061 
  566000    0.4330629   -3.4993369   -3.4993369   -2.8497441 -0.0093903167   -3.4993369   0.64959288   439061 
  567000   0.43254764   -3.4996957   -3.4996957   -2.8508757 -0.0094714294   -3.4996957   0.64881998   439061 
  568000   0.43284909   -3.5022245   -3.5022245   -2.8529523 -0.006427562   -3.5022245   0.64927216   439061 
  569000   0.43248165   -3.5039716   -3.5039716   -2.8552506 -0.0090906774   -3.5039716     0.648721   439061 
  570000    0.4318622    -3.504973    -3.504973   -2.8571812 -0.0074997797    -3.504973   0.64779183   439061 
  571000   0.43201914   -3.5068119   -3.5068119   -2.8587846 -0.011036839   -3.5068119   0.64802724   439061 
  572000   0.43151428   -3.5076751   -3.5076751   -2.8604052 -0.011548954   -3.5076751   0.64726994   439061 
  573000   0.43054388   -3.5081963   -3.5081963    -2.862382 -0.009403048   -3.5081963   0.64581435   439061 
  574000   0.43215908   -3.5122432   -3.5122432    -2.864006 -0.014115518   -3.5122432   0.64823714   439061 
  575000   0.43159943    -3.512853    -3.512853   -2.8654553 -0.010671659    -3.512853   0.64739768   439061 
  576000   0.43182609   -3.5154069   -3.5154069   -2.8676692  -0.01337691   -3.5154069   0.64773766   439061 
  577000    0.4315988   -3.5173942   -3.5173942   -2.8699974 -0.0079389725   -3.5173942   0.64739672   439061 
  578000   0.43185611   -3.5193754   -3.5193754   -2.8715927 -0.0073861409   -3.5193754   0.64778269   439061 
  579000   0.43116053   -3.5204387   -3.5204387   -2.8736993 -0.0077327058   -3.5204387   0.64673932   439061 
  580000   0.43088721    -3.521471    -3.521471   -2.8751416 -0.0084458181    -3.521471   0.64632934   439061 
  581000   0.42987668   -3.5226089   -3.5226089   -2.8777954 -0.013492424   -3.5226089   0.64481355   439061 
  582000   0.42932502   -3.5229114   -3.5229114   -2.8789254 -0.012334208   -3.5229114   0.64398606   439061 
  583000   0.42988254   -3.5255882   -3.5255882   -2.8807659 -0.014361857   -3.5255882   0.64482235   439061 
  584000   0.42987386   -3.5272946   -3.5272946   -2.8824853 -0.014896069   -3.5272946   0.64480932   439061 
  585000   0.43014585   -3.5291314   -3.5291314   -2.8839141 -0.013261573   -3.5291314   0.64521731   439061 
  586000    0.4298141    -3.530407    -3.530407   -2.8856873  -0.01109771    -3.530407   0.64471968   439061 
  587000   0.42989655   -3.5327667   -3.5327667   -2.8879234 -0.0087031128   -3.5327667   0.64484336   439061 
  588000   0.42960009   -3.5334043   -3.5334043   -2.8890057 -0.0083950546   -3.5334043   0.64439866   439061 
  589000   0.43020808   -3.5358614   -3.5358614   -2.8905508 -0.013355524   -3.5358614   0.64531066   439061 
  590000   0.42932379   -3.5362896   -3.5362896   -2.8923054 -0.012641935   -3.5362896   0.64398422   439061 
  591000   0.42896251   -3.5369183   -3.5369183   -2.8934761 -0.012027043   -3.5369183   0.64344229   439061 
  592000   0.42882801   -3.5382373   -3.5382373   -2.8949968 -0.013999326   -3.5382373   0.64324055   439061 
  593000   0.42855213   -3.5399217   -3.5399217   -2.8970949 -0.014444939   -3.5399217   0.64282673   439061 
  594000   0.42856543   -3.5420239   -3.5420239   -2.8991772 -0.014179104   -3.5420239   0.64284668   439061 
  595000   0.42853044   -3.5441393   -3.5441393   -2.9013451  -0.01262874   -3.5441393    0.6427942   439061 
  596000   0.42834386   -3.5458829   -3.5458829   -2.9033686 -0.011610567   -3.5458829   0.64251433   439061 
  597000   0.42843578   -3.5484945   -3.5484945   -2.9058423 -0.0099139215   -3.5484945   0.64265221   439061 
  598000   0.42816495   -3.5492117   -3.5492117   -2.9069657 -0.010292739   -3.5492117   0.64224597   439061 
  599000   0.42782937   -3.5502781   -3.5502781   -2.9085355 -0.0091162468   -3.5502781    0.6417426   439061 
  600000   0.42657662   -3.5505249   -3.5505249   -2.9106614 -0.0094787316   -3.5505249   0.63986347   439061 
  601000   0.42754959   -3.5528648   -3.5528648   -2.9115419 -0.016261762   -3.5528648   0.64132292   439061 
  602000   0.42772984   -3.5547105   -3.5547105   -2.9131172 -0.013316926   -3.5547105   0.64159329   439061 
  603000   0.42753574   -3.5562373   -3.5562373   -2.9149352 -0.013821507   -3.5562373   0.64130215   439061 
  604000   0.42703387   -3.5576459   -3.5576459   -2.9170965 -0.014522422   -3.5576459   0.64054934   439061 
  605000   0.42783298   -3.5608786   -3.5608786   -2.9191306 -0.015572265   -3.5608786   0.64174801   439061 
  606000   0.42718945   -3.5619686   -3.5619686   -2.9211858 -0.012025123   -3.5619686   0.64078271   439061 
  607000   0.42748946   -3.5646479   -3.5646479   -2.9234151 -0.014222238   -3.5646479   0.64123273   439061 
  608000   0.42572744   -3.5636963   -3.5636963   -2.9251066 -0.010545658   -3.5636963    0.6385897   439061 
  609000   0.42647069   -3.5659919   -3.5659919   -2.9262873 -0.011416591   -3.5659919   0.63970457   439061 
  610000   0.42555373   -3.5670246   -3.5670246   -2.9286955 -0.015326788   -3.5670246   0.63832914   439061 
  611000   0.42596046   -3.5687658   -3.5687658   -2.9298266 -0.016830291   -3.5687658   0.63893923   439061 
  612000   0.42504777   -3.5690644   -3.5690644   -2.9314942 -0.014020979   -3.5690644   0.63757021   439061 
  613000    0.4252829   -3.5716035   -3.5716035   -2.9336806 -0.012845584   -3.5716035    0.6379229   439061 
  614000   0.42625343   -3.5748052   -3.5748052   -2.9354265 -0.017838985   -3.5748052    0.6393787   439061 
  615000   0.42544187   -3.5763319   -3.5763319   -2.9381706 -0.012004484   -3.5763319   0.63816135   439061 
  616000   0.42571456   -3.5784981   -3.5784981   -2.9399277 -0.012214275   -3.5784981   0.63857039   439061 
  617000   0.42513555   -3.5795859   -3.5795859    -2.941884   -0.0138405   -3.5795859   0.63770188   439061 
  618000   0.42472738   -3.5811116   -3.5811116    -2.944022 -0.014615869   -3.5811116   0.63708963   439061 
  619000   0.42442554   -3.5824785   -3.5824785   -2.9458417 -0.017564213   -3.5824785   0.63663686   439061 
  620000   0.42477864   -3.5842925   -3.5842925    -2.947126  -0.02194076   -3.5842925    0.6371665   439061 
  621000   0.42382225   -3.5844934   -3.5844934   -2.9487614 -0.017449265   -3.5844934   0.63573193   439061 
  622000    0.4244232   -3.5864407   -3.5864407   -2.9498073 -0.017610689   -3.5864407   0.63663335   439061 
  623000   0.42404785   -3.5879773   -3.5879773    -2.951907 -0.016361465   -3.5879773   0.63607033   439061 
  624000   0.42379086   -3.5902755   -3.5902755   -2.9545906 -0.014092668   -3.5902755   0.63568484   439061 
  625000   0.42425723   -3.5925471   -3.5925471   -2.9561627 -0.016768346   -3.5925471   0.63638439   439061 
  626000   0.42374965   -3.5935964   -3.5935964   -2.9579734 -0.015302992   -3.5935964   0.63562302   439061 
  627000   0.42472784   -3.5965572   -3.5965572   -2.9594669  -0.01628779   -3.5965572    0.6370903   439061 
  628000    0.4234211   -3.5971081   -3.5971081   -2.9619779 -0.016119556   -3.5971081    0.6351302   439061 
  629000   0.42322908   -3.5990995   -3.5990995   -2.9642573 -0.020053118   -3.5990995   0.63484217   439061 
  630000    0.4222158   -3.5993523   -3.5993523     -2.96603 -0.017908267   -3.5993523   0.63332226   439061 
  631000   0.42325823   -3.6023993   -3.6023993   -2.9675134 -0.022271843   -3.6023993    0.6348859   439061 
  632000   0.42312924   -3.6032012   -3.6032012   -2.9685087  -0.01719493   -3.6032012   0.63469241   439061 
  633000   0.42283542   -3.6041815   -3.6041815   -2.9699298 -0.016249661   -3.6041815   0.63425169   439061 
  634000   0.42256591   -3.6057673   -3.6057673   -2.9719198 -0.016826008   -3.6057673   0.63384742   439061 
  635000   0.42276906   -3.6075174   -3.6075174   -2.9733652 -0.015605964   -3.6075174   0.63415214   439061 
  636000   0.42218934    -3.608576    -3.608576   -2.9752934 -0.014484829    -3.608576   0.63328257   439061 
  637000   0.42176265   -3.6099733   -3.6099733   -2.9773308 -0.017586345   -3.6099733   0.63264253   439061 
  638000   0.42225361   -3.6119407   -3.6119407   -2.9785617 -0.018485156   -3.6119407   0.63337897   439061 
  639000   0.42156742    -3.612194    -3.612194   -2.9798443 -0.019608166    -3.612194   0.63234968   439061 
  640000   0.42123177   -3.6138348   -3.6138348   -2.9819886 -0.019915279   -3.6138348   0.63184622   439061 
  641000   0.42097824    -3.615143    -3.615143   -2.9836771 -0.017627963    -3.615143   0.63146592   439061 
  642000   0.42149182   -3.6174436   -3.6174436   -2.9852074 -0.018292345   -3.6174436   0.63223629   439061 
  643000    0.4211137   -3.6184598   -3.6184598   -2.9867907 -0.016873086   -3.6184598   0.63166911   439061 
  644000   0.42090078   -3.6193939   -3.6193939   -2.9880441 -0.016686211   -3.6193939   0.63134974   439061 
  645000   0.42150245    -3.621506    -3.621506   -2.9892538 -0.018497372    -3.621506   0.63225223   439061 
  646000   0.42013775   -3.6207732   -3.6207732    -2.990568 -0.018488908   -3.6207732    0.6302052   439061 
  647000   0.42059956   -3.6239095   -3.6239095   -2.9930116 -0.023234217   -3.6239095    0.6308979   439061 
  648000   0.42012884   -3.6249916   -3.6249916   -2.9947998 -0.022589094   -3.6249916   0.63019183   439061 
  649000   0.41946799   -3.6253559   -3.6253559   -2.9961553 -0.016713554   -3.6253559   0.62920055   439061 
  650000   0.42036375   -3.6287447   -3.6287447   -2.9982005 -0.013883719   -3.6287447   0.63054419   439061 
  651000   0.42045099   -3.6304242   -3.6304242   -2.9997491 -0.015340903   -3.6304242   0.63067505   439061 
  652000   0.42062657   -3.6330587   -3.6330587   -3.0021203  -0.01676015   -3.6330587   0.63093841   439061 
  653000   0.42005101    -3.633696    -3.633696   -3.0036209 -0.018065991    -3.633696   0.63007509   439061 
  654000   0.41939647   -3.6347969   -3.6347969   -3.0057037 -0.020926768   -3.6347969   0.62909327   439061 
  655000   0.41804972   -3.6342945   -3.6342945   -3.0072213 -0.022158228   -3.6342945   0.62707315   439061 
  656000   0.41839071    -3.635833    -3.635833   -3.0082483  -0.02239528    -3.635833   0.62758464   439061 
  657000   0.41948371   -3.6382973   -3.6382973   -3.0090732 -0.019081604   -3.6382973   0.62922413   439061 
  658000   0.41922739   -3.6395523   -3.6395523   -3.0107126 -0.018102188   -3.6395523   0.62883965   439061 
  659000   0.41944954   -3.6421963   -3.6421963   -3.0130234 -0.017842489   -3.6421963   0.62917288   439061 
  660000   0.41845526   -3.6423946   -3.6423946   -3.0147131 -0.015303146   -3.6423946   0.62768147   439061 
  661000   0.41751105   -3.6435971   -3.6435971   -3.0173319 -0.019814391   -3.6435971   0.62626515   439061 
  662000    0.4181356   -3.6454723   -3.6454723   -3.0182703 -0.020392585   -3.6454723   0.62720197   439061 
  663000   0.41825663   -3.6473071   -3.6473071   -3.0199236 -0.022565459   -3.6473071   0.62738352   439061 
  664000   0.41690905    -3.646615    -3.646615   -3.0212529 -0.018931639    -3.646615   0.62536215   439061 
  665000   0.41748617   -3.6488324   -3.6488324   -3.0226046 -0.017354519   -3.6488324   0.62622783   439061 
  666000   0.41762259    -3.651499    -3.651499   -3.0250666 -0.018802884    -3.651499   0.62643246   439061 
  667000   0.41711919   -3.6524457   -3.6524457   -3.0267684 -0.016161291   -3.6524457   0.62567736   439061 
  668000   0.41773885   -3.6544112   -3.6544112   -3.0278044 -0.019592802   -3.6544112   0.62660686   439061 
  669000    0.4170939   -3.6554657   -3.6554657   -3.0298263 -0.019255839   -3.6554657   0.62563943   439061 
  670000   0.41696691   -3.6567172   -3.6567172   -3.0312682 -0.019088584   -3.6567172   0.62544894   439061 
  671000   0.41653216   -3.6579947   -3.6579947   -3.0331979 -0.021828816   -3.6579947   0.62479681   439061 
  672000   0.41611855   -3.6588853   -3.6588853   -3.0347089  -0.02232506   -3.6588853   0.62417641   439061 
  673000   0.41691803   -3.6615931   -3.6615931   -3.0362175 -0.022881261   -3.6615931   0.62537561   439061 
  674000   0.41688143   -3.6634156   -3.6634156   -3.0380949 -0.020708573   -3.6634156   0.62532071   439061 
  675000   0.41656428    -3.664368    -3.664368    -3.039523 -0.019588047    -3.664368     0.624845   439061 
  676000   0.41646877   -3.6661866   -3.6661866   -3.0414849   -0.0220031   -3.6661866   0.62470174   439061 
  677000   0.41634008   -3.6663642   -3.6663642   -3.0418555 -0.017088275   -3.6663642    0.6245087   439061 
  678000   0.41680184   -3.6689209   -3.6689209   -3.0437196 -0.020227998   -3.6689209   0.62520134   439061 
  679000   0.41578828   -3.6698732   -3.6698732   -3.0461922 -0.021352699   -3.6698732     0.623681   439061 
  680000   0.41515973    -3.671193    -3.671193   -3.0484548   -0.0260643    -3.671193   0.62273818   439061 
  681000   0.41490317   -3.6721838   -3.6721838   -3.0498304  -0.02715869   -3.6721838   0.62235334   439061 
  682000   0.41554753   -3.6736531   -3.6736531   -3.0503332 -0.025813047   -3.6736531   0.62331988   439061 
  683000   0.41515321   -3.6747055   -3.6747055   -3.0519771 -0.022307814   -3.6747055    0.6227284   439061 
  684000   0.41612366   -3.6773073   -3.6773073   -3.0531233 -0.023895373   -3.6773073   0.62418407   439061 
  685000   0.41673119   -3.6799236   -3.6799236   -3.0548283 -0.021246931   -3.6799236   0.62509536   439061 
  686000   0.41526742   -3.6792074   -3.6792074   -3.0563077 -0.015127849   -3.6792074   0.62289971   439061 
  687000   0.41579119   -3.6822842   -3.6822842   -3.0585988  -0.02054482   -3.6822842   0.62368537   439061 
  688000   0.41567303   -3.6838868   -3.6838868   -3.0603787  -0.02031355   -3.6838868   0.62350813   439061 
  689000   0.41482134   -3.6846392   -3.6846392   -3.0624086 -0.023996363   -3.6846392   0.62223059   439061 
  690000   0.41440012   -3.6854706   -3.6854706   -3.0638718 -0.023285379   -3.6854706   0.62159876   439061 
  691000   0.41388748   -3.6861804   -3.6861804   -3.0653506 -0.020605634   -3.6861804    0.6208298   439061 
  692000    0.4152044     -3.68945     -3.68945   -3.0666448 -0.025492019     -3.68945   0.62280518   439061 
  693000   0.41461608    -3.690164    -3.690164   -3.0682413 -0.024309521    -3.690164   0.62192271   439061 
  694000   0.41366387   -3.6898804   -3.6898804    -3.069386 -0.022122413   -3.6898804   0.62049439   439061 
  695000   0.41414082   -3.6925249   -3.6925249   -3.0713151  -0.02490872   -3.6925249   0.62120981   439061 
  696000   0.41405278   -3.6939853   -3.6939853   -3.0729075 -0.024264664   -3.6939853   0.62107775   439061 
  697000   0.41357562   -3.6949275   -3.6949275   -3.0745655 -0.022762214   -3.6949275   0.62036202   439061 
  698000   0.41381142   -3.6965187   -3.6965187    -3.075803 -0.024621873   -3.6965187   0.62071571   439061 
  699000   0.41347856   -3.6976165   -3.6976165   -3.0774001 -0.026372168   -3.6976165   0.62021642   439061 
  700000   0.41349245    -3.699156    -3.699156   -3.0789187  -0.02723496    -3.699156   0.62023726   439061 
  701000   0.41296752   -3.7004753   -3.7004753   -3.0810254 -0.024667153   -3.7004753   0.61944987   439061 
  702000   0.41275139   -3.7017841   -3.7017841   -3.0826584 -0.023049455   -3.7017841   0.61912567   439061 
  703000   0.41297051   -3.7036467   -3.7036467   -3.0841923 -0.026434602   -3.7036467   0.61945435   439061 
[...]
 4832000   0.34989524   -4.2563263   -4.2563263   -3.7314847  -0.16058927   -4.2563263   0.52484166   439061 
 4833000   0.35036808   -4.2572616   -4.2572616   -3.7317107   -0.1639979   -4.2572616   0.52555092   439061 
 4834000   0.35034193   -4.2569127   -4.2569127    -3.731401  -0.16320813   -4.2569127   0.52551169   439061 
 4835000   0.34967908   -4.2564888   -4.2564888   -3.7319713  -0.16521555   -4.2564888   0.52451742   439061 
 4836000    0.3499127   -4.2568797   -4.2568797   -3.7320119    -0.165228   -4.2568797   0.52486786   439061 
 4837000   0.34941071   -4.2563173   -4.2563173   -3.7322024  -0.16320116   -4.2563173   0.52411487   439061 
 4838000   0.34969171   -4.2570172   -4.2570172   -3.7324808  -0.16423782   -4.2570172   0.52453638   439061 
 4839000   0.35027152     -4.25747     -4.25747   -3.7320639  -0.16464593     -4.25747   0.52540608   439061 
 4840000   0.34983891   -4.2567944   -4.2567944   -3.7320372  -0.16384883   -4.2567944   0.52475717   439061 
 4841000   0.34940267   -4.2572489   -4.2572489   -3.7331461  -0.16409531   -4.2572489   0.52410282   439061 
 4842000   0.34884664   -4.2560277   -4.2560277   -3.7327589  -0.16295975   -4.2560277   0.52326876   439061 
 4843000    0.3496299   -4.2569155   -4.2569155   -3.7324719  -0.16505108   -4.2569155   0.52444366   439061 
 4844000   0.34969079   -4.2559306   -4.2559306   -3.7313956  -0.15971909   -4.2559306   0.52453499   439061 
 4845000   0.35035027   -4.2562924   -4.2562924   -3.7307682  -0.16176032   -4.2562924    0.5255242   439061 
 4846000   0.34961823   -4.2556022   -4.2556022   -3.7311761  -0.16351013   -4.2556022   0.52442614   439061 
 4847000   0.34981042    -4.256077    -4.256077   -3.7313626  -0.16386906    -4.256077   0.52471443   439061 
 4848000   0.35059712   -4.2571995   -4.2571995    -3.731305  -0.16854451   -4.2571995   0.52589449   439061 
 4849000   0.34984525   -4.2562997   -4.2562997    -3.731533  -0.16373724   -4.2562997   0.52476669   439061 
 4850000   0.34911768    -4.255218    -4.255218   -3.7315427  -0.16176352    -4.255218   0.52367532   439061 
 4851000   0.34970126   -4.2564494   -4.2564494   -3.7318987  -0.16355414   -4.2564494   0.52455069   439061 
 4852000   0.35028585   -4.2571122   -4.2571122   -3.7316846  -0.16226283   -4.2571122   0.52542758   439061 
 4853000   0.34947731   -4.2561372   -4.2561372   -3.7319225  -0.16314004   -4.2561372   0.52421477   439061 
 4854000     0.349977   -4.2563192   -4.2563192   -3.7313549  -0.16276401   -4.2563192    0.5249643   439061 
 4855000   0.34989016   -4.2566414   -4.2566414   -3.7318073  -0.16437816   -4.2566414   0.52483404   439061 
 4856000   0.34958585   -4.2561629   -4.2561629   -3.7317853  -0.16798104   -4.2561629   0.52437758   439061 
 4857000   0.35023265   -4.2568757   -4.2568757   -3.7315279    -0.165084   -4.2568757   0.52534778   439061 
 4858000   0.34979949   -4.2559095   -4.2559095   -3.7312115  -0.16595501   -4.2559095   0.52469803   439061 
 4859000   0.34967863   -4.2562035   -4.2562035   -3.7316868  -0.16261418   -4.2562035   0.52451675   439061 
 4860000   0.35014056   -4.2566257   -4.2566257    -3.731416  -0.16203454   -4.2566257   0.52520964   439061 
 4861000    0.3492712   -4.2558521   -4.2558521   -3.7319465   -0.1621134   -4.2558521   0.52390561   439061 
 4862000   0.34968347   -4.2570611   -4.2570611   -3.7325371  -0.16347976   -4.2570611   0.52452401   439061 
 4863000   0.34927531   -4.2559104   -4.2559104   -3.7319986  -0.16520127   -4.2559104   0.52391178   439061 
 4864000    0.3495963   -4.2562439   -4.2562439   -3.7318506  -0.16314774   -4.2562439   0.52439326   439061 
 4865000   0.34941392   -4.2555495   -4.2555495   -3.7314298  -0.16110002   -4.2555495   0.52411969   439061 
 4866000   0.34972709   -4.2555908   -4.2555908   -3.7310014  -0.16238089   -4.2555908   0.52458944   439061 
 4867000   0.35059734   -4.2570456   -4.2570456   -3.7311508   -0.1648378   -4.2570456   0.52589481   439061 
 4868000   0.35000538    -4.255588    -4.255588   -3.7305811  -0.16368914    -4.255588   0.52500688   439061 
 4869000    0.3504895   -4.2554461   -4.2554461    -3.729713  -0.16356742   -4.2554461   0.52573306   439061 
 4870000   0.35018657   -4.2558674   -4.2558674   -3.7305887  -0.16453239   -4.2558674   0.52527866   439061 
 4871000   0.35003556   -4.2562021   -4.2562021   -3.7311499  -0.16618968   -4.2562021   0.52505215   439061 
 4872000   0.35003052   -4.2564156   -4.2564156    -3.731371  -0.16399427   -4.2564156   0.52504458   439061 
 4873000   0.35025156   -4.2560809   -4.2560809   -3.7307048  -0.16064498   -4.2560809   0.52537615   439061 
 4874000   0.35035741   -4.2563006   -4.2563006   -3.7307657  -0.16108554   -4.2563006   0.52553492   439061 
 4875000   0.35024958    -4.256597    -4.256597   -3.7312239  -0.16181021    -4.256597   0.52537317   439061 
 4876000   0.35020554   -4.2567369   -4.2567369   -3.7314298  -0.16385102   -4.2567369   0.52530711   439061 
 4877000   0.35002377   -4.2561577   -4.2561577   -3.7311233  -0.16421323   -4.2561577   0.52503446   439061 
 4878000   0.34967647   -4.2559441   -4.2559441   -3.7314306  -0.16276699   -4.2559441   0.52451351   439061 
 4879000   0.34938107   -4.2557941   -4.2557941   -3.7317237  -0.16349106   -4.2557941   0.52407041   439061 
 4880000   0.34992958   -4.2562992   -4.2562992   -3.7314061  -0.16129335   -4.2562992   0.52489317   439061 
 4881000   0.34973975    -4.256148    -4.256148   -3.7315396  -0.15985799    -4.256148   0.52460843   439061 
 4882000   0.34967409   -4.2561592   -4.2561592   -3.7316493  -0.16148303   -4.2561592   0.52450994   439061 
 4883000   0.34995705   -4.2563422   -4.2563422   -3.7314078  -0.16165332   -4.2563422   0.52493437   439061 
 4884000   0.34998844   -4.2566978   -4.2566978   -3.7317164  -0.16612259   -4.2566978   0.52498147   439061 
 4885000   0.34990845   -4.2561517   -4.2561517   -3.7312902  -0.16611271   -4.2561517   0.52486147   439061 
 4886000    0.3502145    -4.257013    -4.257013   -3.7316924  -0.16742086    -4.257013   0.52532055   439061 
 4887000   0.34997116   -4.2563475   -4.2563475   -3.7313919  -0.16572903   -4.2563475   0.52495554   439061 
 4888000   0.34988338   -4.2564123   -4.2564123   -3.7315884   -0.1640659   -4.2564123   0.52482387   439061 
 4889000   0.35028303   -4.2565173   -4.2565173    -3.731094  -0.16193106   -4.2565173   0.52542335   439061 
 4890000   0.35011515   -4.2567351   -4.2567351   -3.7315636  -0.16398944   -4.2567351   0.52517152   439061 
 4891000   0.34977201   -4.2569806   -4.2569806   -3.7323238  -0.16545041   -4.2569806   0.52465682   439061 
 4892000   0.34985841   -4.2570992   -4.2570992   -3.7323128  -0.16629663   -4.2570992   0.52478643   439061 
 4893000   0.34941736   -4.2563032   -4.2563032   -3.7321784  -0.16538759   -4.2563032   0.52412485   439061 
 4894000   0.34975364   -4.2569548   -4.2569548   -3.7323255  -0.16667701   -4.2569548   0.52462926   439061 
 4895000   0.34927975   -4.2554835   -4.2554835   -3.7315651  -0.16247012   -4.2554835   0.52391843   439061 
 4896000   0.34976236   -4.2562649   -4.2562649   -3.7316225   -0.1632783   -4.2562649   0.52464234   439061 
 4897000   0.34961675   -4.2558831   -4.2558831   -3.7314592   -0.1624897   -4.2558831   0.52442393   439061 
 4898000   0.34971853   -4.2560488   -4.2560488   -3.7314722  -0.16048912   -4.2560488   0.52457661   439061 
 4899000   0.35014203   -4.2568953   -4.2568953   -3.7316834  -0.16710661   -4.2568953   0.52521184   439061 
 4900000   0.35001638   -4.2567311   -4.2567311   -3.7317077  -0.16709979   -4.2567311   0.52502338   439061 
 4901000   0.35010781    -4.256433    -4.256433   -3.7312724  -0.16486939    -4.256433   0.52516052   439061 
 4902000   0.34966839   -4.2564193   -4.2564193    -3.731918  -0.16432812   -4.2564193   0.52450139   439061 
 4903000   0.34986601   -4.2565216   -4.2565216   -3.7317238  -0.16138131   -4.2565216   0.52479782   439061 
 4904000    0.3497919   -4.2568634   -4.2568634   -3.7321767  -0.16263528   -4.2568634   0.52468666   439061 
 4905000    0.3495941   -4.2559605   -4.2559605   -3.7315705  -0.16270137   -4.2559605   0.52438996   439061 
 4906000   0.34952884   -4.2562405   -4.2562405   -3.7319485  -0.16417701   -4.2562405   0.52429207   439061 
 4907000   0.34932226   -4.2557183   -4.2557183   -3.7317361  -0.16578234   -4.2557183    0.5239822   439061 
 4908000   0.34926922   -4.2564498   -4.2564498   -3.7325471  -0.16577533   -4.2564498   0.52390264   439061 
 4909000   0.34926064   -4.2558811   -4.2558811   -3.7319913  -0.16280248   -4.2558811   0.52388977   439061 
 4910000   0.34940222   -4.2560574   -4.2560574   -3.7319552  -0.16071117   -4.2560574   0.52410213   439061 
 4911000   0.34988544   -4.2563904   -4.2563904   -3.7315635  -0.16109734   -4.2563904   0.52482696   439061 
 4912000   0.35014107   -4.2571741   -4.2571741   -3.7319637  -0.16430036   -4.2571741   0.52521041   439061 
 4913000   0.34952598   -4.2559119   -4.2559119   -3.7316241  -0.16402991   -4.2559119   0.52428778   439061 
 4914000   0.35012843   -4.2566551   -4.2566551   -3.7314636  -0.16829592   -4.2566551   0.52519145   439061 
 4915000   0.35001683   -4.2562591   -4.2562591    -3.731235  -0.16635077   -4.2562591   0.52502405   439061 
 4916000   0.34937511    -4.255155    -4.255155   -3.7310935   -0.1624007    -4.255155   0.52406147   439061 
 4917000   0.34964223   -4.2551821   -4.2551821   -3.7307199  -0.16187908   -4.2551821   0.52446215   439061 
 4918000   0.35056609   -4.2565876   -4.2565876   -3.7307397  -0.16323748   -4.2565876   0.52584794   439061 
 4919000   0.35062384   -4.2571757   -4.2571757   -3.7312412  -0.16409458   -4.2571757   0.52593456   439061 
 4920000   0.35047732    -4.256836    -4.256836   -3.7311212  -0.16475173    -4.256836   0.52571478   439061 
 4921000   0.34937496   -4.2557208   -4.2557208   -3.7316596  -0.16447514   -4.2557208   0.52406125   439061 
 4922000    0.3496292   -4.2561105   -4.2561105   -3.7316679  -0.16564431   -4.2561105    0.5244426   439061 
 4923000   0.34994077   -4.2567606   -4.2567606   -3.7318506  -0.16542315   -4.2567606   0.52490996   439061 
 4924000   0.34974333   -4.2567994   -4.2567994   -3.7321856  -0.16621936   -4.2567994    0.5246138   439061 
 4925000   0.34981454    -4.257034    -4.257034   -3.7323134  -0.16078141    -4.257034   0.52472061   439061 
 4926000   0.34948031   -4.2563496   -4.2563496   -3.7321303   -0.1633657   -4.2563496   0.52421928   439061 
 4927000   0.34949084   -4.2559673   -4.2559673   -3.7317323  -0.16138518   -4.2559673   0.52423506   439061 
 4928000    0.3498379   -4.2563407   -4.2563407   -3.7315851  -0.16523615   -4.2563407   0.52475566   439061 
 4929000   0.34992851   -4.2575658   -4.2575658   -3.7326742  -0.16942713   -4.2575658   0.52489157   439061 
 4930000   0.34985475   -4.2566176   -4.2566176   -3.7318367   -0.1643806   -4.2566176   0.52478093   439061 
 4931000   0.34998899   -4.2566037   -4.2566037   -3.7316214  -0.16336741   -4.2566037   0.52498229   439061 
 4932000   0.35009725   -4.2568866   -4.2568866    -3.731742  -0.16299909   -4.2568866   0.52514468   439061 
 4933000   0.34973733    -4.256013    -4.256013   -3.7314082  -0.16051681    -4.256013    0.5246048   439061 
 4934000   0.34993032   -4.2572726   -4.2572726   -3.7323783  -0.16432389   -4.2572726   0.52489428   439061 
 4935000   0.34973511   -4.2570269   -4.2570269   -3.7324254  -0.16714311   -4.2570269   0.52460147   439061 
 4936000   0.34991285   -4.2568383   -4.2568383   -3.7319702  -0.16654408   -4.2568383   0.52486808   439061 
 4937000   0.34958022    -4.255891    -4.255891   -3.7315219  -0.16417876    -4.255891   0.52436914   439061 
 4938000   0.35001314   -4.2560866   -4.2560866   -3.7310681  -0.16366797   -4.2560866   0.52501851   439061 
 4939000   0.35038318   -4.2562603   -4.2562603   -3.7306867  -0.16216797   -4.2562603   0.52557358   439061 
 4940000   0.35019399   -4.2564162   -4.2564162   -3.7311265  -0.16109412   -4.2564162   0.52528979   439061 
 4941000   0.34945495   -4.2556992   -4.2556992    -3.731518  -0.16057641   -4.2556992   0.52418123   439061 
 4942000   0.34966066   -4.2556443   -4.2556443   -3.7311545  -0.16170281   -4.2556443    0.5244898   439061 
 4943000   0.35016765   -4.2569192   -4.2569192   -3.7316689  -0.16542884   -4.2569192   0.52525028   439061 
 4944000   0.34992557   -4.2561525   -4.2561525   -3.7312653  -0.16670614   -4.2561525   0.52488716   439061 
 4945000   0.34973908   -4.2558369   -4.2558369   -3.7312295  -0.16252677   -4.2558369   0.52460742   439061 
 4946000   0.35011216   -4.2560686   -4.2560686   -3.7309015  -0.16236609   -4.2560686   0.52516704   439061 
 4947000    0.3499457   -4.2558449   -4.2558449   -3.7309275   -0.1624219   -4.2558449   0.52491736   439061 
 4948000   0.35010675   -4.2560857   -4.2560857   -3.7309268  -0.16165321   -4.2560857   0.52515893   439061 
 4949000   0.35009413   -4.2560173   -4.2560173   -3.7308774  -0.16358048   -4.2560173      0.52514   439061 
 4950000   0.34996983   -4.2563442   -4.2563442   -3.7313906  -0.16541925   -4.2563442   0.52495354   439061 
 4951000   0.34966221   -4.2561741   -4.2561741    -3.731682  -0.16570538   -4.2561741   0.52449212   439061 
 4952000   0.34946707   -4.2557963   -4.2557963   -3.7315969  -0.16430931   -4.2557963   0.52419941   439061 
 4953000   0.34983714   -4.2561102   -4.2561102   -3.7313557  -0.16288211   -4.2561102   0.52475451   439061 
 4954000   0.34970884   -4.2559537   -4.2559537   -3.7313916  -0.16193756   -4.2559537   0.52456207   439061 
 4955000   0.34964197    -4.255426    -4.255426   -3.7309642  -0.15818648    -4.255426   0.52446176   439061 
 4956000   0.34984938    -4.256026    -4.256026   -3.7312531   -0.1630083    -4.256026   0.52477287   439061 
 4957000   0.34973269   -4.2557469   -4.2557469   -3.7311491  -0.16423216   -4.2557469   0.52459784   439061 
 4958000   0.35028565   -4.2562415   -4.2562415   -3.7308142  -0.16365186   -4.2562415   0.52542728   439061 
 4959000   0.34966528   -4.2552406   -4.2552406   -3.7307439  -0.16512698   -4.2552406   0.52449673   439061 
 4960000   0.35044047     -4.25598     -4.25598   -3.7303205  -0.16482612     -4.25598   0.52565951   439061 
 4961000   0.35020876   -4.2556152   -4.2556152   -3.7303033  -0.16287066   -4.2556152   0.52531194   439061 
 4962000   0.35050256   -4.2561756   -4.2561756    -3.730423  -0.16524962   -4.2561756   0.52575265   439061 
 4963000   0.35007127   -4.2552118   -4.2552118   -3.7301061  -0.16097661   -4.2552118    0.5251057   439061 
 4964000   0.34976817   -4.2549421   -4.2549421   -3.7302911  -0.16270941   -4.2549421   0.52465107   439061 
 4965000   0.35011074   -4.2558956   -4.2558956   -3.7307306  -0.16592746   -4.2558956   0.52516491   439061 
 4966000   0.34979866   -4.2561654   -4.2561654   -3.7314686  -0.16600102   -4.2561654    0.5246968   439061 
 4967000   0.34987955   -4.2566399   -4.2566399   -3.7318217  -0.16477541   -4.2566399   0.52481813   439061 
 4968000   0.34967026   -4.2562036   -4.2562036   -3.7316995  -0.16134484   -4.2562036   0.52450419   439061 
 4969000    0.3501055     -4.25661     -4.25661   -3.7314529  -0.16044419     -4.25661   0.52515706   439061 
 4970000   0.34999508   -4.2559306   -4.2559306   -3.7309391  -0.16006824   -4.2559306   0.52499143   439061 
 4971000    0.3494898   -4.2559721   -4.2559721   -3.7317386  -0.16543105   -4.2559721   0.52423351   439061 
 4972000   0.35006693   -4.2562221   -4.2562221   -3.7311229  -0.16644041   -4.2562221   0.52509919   439061 
 4973000    0.3499534   -4.2559937   -4.2559937   -3.7310648  -0.16773809   -4.2559937    0.5249289   439061 
 4974000    0.3500042   -4.2556595   -4.2556595   -3.7306544  -0.16518382   -4.2556595   0.52500511   439061 
 4975000   0.35055228   -4.2563102   -4.2563102    -3.730483  -0.16105209   -4.2563102   0.52582722   439061 
 4976000   0.35054169   -4.2560423   -4.2560423    -3.730231  -0.16177448   -4.2560423   0.52581134   439061 
 4977000   0.35036889   -4.2561057   -4.2561057   -3.7305535  -0.16245644   -4.2561057   0.52555214   439061 
 4978000   0.35018524   -4.2553286   -4.2553286   -3.7300519  -0.16255164   -4.2553286   0.52527667   439061 
 4979000   0.35039284    -4.254876    -4.254876   -3.7292879  -0.16362519    -4.254876   0.52558807   439061 
 4980000    0.3507676   -4.2553755   -4.2553755   -3.7292253  -0.16582487   -4.2553755   0.52615021   439061 
 4981000   0.35063546   -4.2551317   -4.2551317   -3.7291797  -0.16583292   -4.2551317   0.52595199   439061 
 4982000   0.34992258   -4.2541144   -4.2541144   -3.7292317  -0.16223776   -4.2541144   0.52488267   439061 
 4983000   0.35060247   -4.2548994   -4.2548994   -3.7289969  -0.16333602   -4.2548994   0.52590251   439061 
 4984000   0.35079389   -4.2556796   -4.2556796     -3.72949  -0.16001408   -4.2556796   0.52618964   439061 
 4985000   0.35057472   -4.2548451   -4.2548451   -3.7289842  -0.16171467   -4.2548451   0.52586088   439061 
 4986000   0.35079845   -4.2552893   -4.2552893   -3.7290929  -0.16239129   -4.2552893   0.52619648   439061 
 4987000   0.35009593   -4.2554972   -4.2554972   -3.7303545  -0.16515616   -4.2554972   0.52514269   439061 
 4988000   0.34961652   -4.2549766   -4.2549766    -3.730553  -0.16694286   -4.2549766   0.52442359   439061 
 4989000   0.34991516   -4.2557231   -4.2557231   -3.7308515  -0.16283812   -4.2557231   0.52487155   439061 
 4990000   0.35013702   -4.2556905   -4.2556905   -3.7304862  -0.16127248   -4.2556905   0.52520434   439061 
 4991000   0.35025293   -4.2563062   -4.2563062    -3.730928  -0.15904945   -4.2563062    0.5253782   439061 
 4992000   0.35020033   -4.2558865   -4.2558865   -3.7305872  -0.16000358   -4.2558865    0.5252993   439061 
 4993000    0.3501492   -4.2559565   -4.2559565   -3.7307339  -0.16123433   -4.2559565   0.52522261   439061 
 4994000   0.34972279   -4.2547942   -4.2547942   -3.7302112  -0.16311051   -4.2547942   0.52458299   439061 
 4995000   0.35001576   -4.2554052   -4.2554052   -3.7303828  -0.16742434   -4.2554052   0.52502244   439061 
 4996000   0.34994494   -4.2554406   -4.2554406   -3.7305244  -0.16608747   -4.2554406   0.52491622   439061 
 4997000   0.34978415   -4.2546402   -4.2546402   -3.7299652  -0.16050243   -4.2546402   0.52467503   439061 
 4998000    0.3501384   -4.2554226   -4.2554226   -3.7302161  -0.16120487   -4.2554226   0.52520641   439061 
 4999000   0.34994639   -4.2551144   -4.2551144    -3.730196   -0.1578985   -4.2551144   0.52491838   439061 
 5000000   0.34997833   -4.2558323   -4.2558323    -3.730866  -0.16103765   -4.2558323    0.5249663   439061 
Loop time of 7190.17 on 192 procs for 5000000 steps with 439061 atoms

Performance: 300410.051 tau/day, 695.394 timesteps/s
90.3% CPU use with 192 MPI tasks x 1 OpenMP threads

MPI task timing breakdown:
Section |  min time  |  avg time  |  max time  |%varavg|  %CPU | %total
-----------------------------------------------------------------------
Pair    | 2130.7     | 3511.1     | 3878       | 538.4 |  92.4 | 48.83
Bond    | 3.1066     | 3.31       | 3.4941     |   4.5 | 100.0 |  0.05
Neigh   | 632.08     | 951.57     | 1089.8     | 248.9 |  97.9 | 13.23
Comm    | 1344.5     | 1948.8     | 3767       |1056.6 |  87.0 | 27.10
Output  | 267.73     | 268.12     | 268.13     |   0.2 |  67.2 |  3.73
Modify  | 109.26     | 260.89     | 637.47     |1226.2 |  91.8 |  3.63
Other   |            | 246.4      |            |       |       |  3.43

Nlocal:        2286.78 ave        2649 max        1858 min
Histogram: 1 2 2 1 33 135 8 2 5 3
Nghost:        3257.55 ave        3571 max        2237 min
Histogram: 10 10 4 24 0 0 0 0 17 127
Neighs:        60234.2 ave       65931 max       42981 min
Histogram: 1 2 2 1 3 4 18 93 65 3

Total # of neighbors = 11564974
Ave neighs/atom = 26.340244
Ave special neighs/atom = 0.0000000
Neighbor list builds = 396872
Dangerous builds = 39329
System init for write_data ...
Total wall time: 1:59:55
