LAMMPS (29 Oct 2020)
  using 1 OpenMP thread(s) per MPI task
#Read the equilibrated lj fluid and add nanocubes

units           lj
atom_style      full
#atom_modify     map array first cubes
dimension       3
boundary        p p f
pair_style      lj/cut/opt 2.5

variable        sigma           equal 1.0
variable        epsilon         equal 1.0
read_restart	restart.dat.10000000
Reading restart file ...
  restart file = 29 Oct 2020, LAMMPS = 29 Oct 2020
WARNING: Restart file used different # of processors: 64 vs. 128 (src/read_restart.cpp:697)
  restoring atom style full from restart
  orthogonal box = (0.0000000 0.0000000 0.0000000) to (80.000000 80.000000 160.00000)
  4 by 4 by 8 MPI processor grid
  restoring pair style lj/cut/opt from restart
  507356 atoms
Finding 1-2 1-3 1-4 neighbors ...
  special bond factors lj:    0.0      0.0      0.0     
  special bond factors coul:  0.0      0.0      0.0     
     0 = max # of 1-2 neighbors
     0 = max # of 1-3 neighbors
     0 = max # of 1-4 neighbors
     1 = max # of special neighbors
  special bonds CPU = 5.716 seconds
  read_restart CPU = 5.997 seconds

group		solvent type 1
307331 atoms in group solvent
group 		hull  type 2
78050 atoms in group hull
group 		dummy type 3
121975 atoms in group dummy

neighbor      0.4 bin
neigh_modify  exclude molecule/intra cubes

pair_modify   shift yes

pair_coeff    1 1 1.0 1.0 #solvent
pair_coeff    2 2 1.0 1.0 1.12 #np
pair_coeff    3 3 0.0 0.0 0.0 #dummy
pair_coeff    2 3 0.0 0.0 0.0 #np dummy
pair_coeff    1 2 ${sol} 1.0  #np solvent
pair_coeff    1 2 0.70 1.0  
pair_coeff    1 3 0.0 0.0 0.0 #dummy solvent


comm_modify   mode multi cutoff/multi 1 2.5 cutoff/multi 2 2.5 cutoff/multi 3 6.95

reset_timestep 	0

balance 	1.05 shift z 10 1.05
Balancing ...
Unused restart file global fix info:
  fix style: STORE, fix ID: msd_COMPUTE_STORE
Unused restart file peratom fix info:
  fix style: STORE, fix ID: bin1_COMPUTE_STORE
  fix style: STORE, fix ID: bin3_COMPUTE_STORE
Neighbor list info ...
  update every 1 steps, delay 10 steps, check yes
  max neighbors/atom: 2000, page size: 100000
  master list distance cutoff = 2.9
  ghost atom cutoff = 6.95
  binsize = 1.45, bins = 56 56 111
  1 neighbor lists, perpetual/occasional/extra = 1 0 0
  (1) pair lj/cut/opt, perpetual
      attributes: half, newton on
      pair build: half/bin/newton
      stencil: half/bin/3d/newton
      bin: standard
 rebalancing time: 0.012 seconds
  iteration count = 5
  initial/final maximal load/proc = 6487.0000 5118.0000
  initial/final imbalance factor  = 1.6365944 1.2912117
  x cuts: 0.0000000 0.25 0.5 0.75 1.0000000
  y cuts: 0.0000000 0.25 0.5 0.75 1.0000000
  z cuts: 0.0000000 0.10546875 0.19921875 0.27734375 0.3671875 0.4609375 0.5546875 0.6328125 1.0000000

####################### WALLS ###########################

variable       epsilonWall equal 2*${epsilon}
variable       epsilonWall equal 2*1
variable       repulsive   equal   0.7147*${sigma}
variable       repulsive   equal   0.7147*1
variable       full	   equal   3*${sigma}
variable       full	   equal   3*1
region         lowWall block EDGE EDGE EDGE EDGE EDGE 2

fix            topWall all wall/lj93 zhi EDGE 	       ${epsilonWall} ${sigma} ${repulsive} units box
fix            topWall all wall/lj93 zhi EDGE 	       2 ${sigma} ${repulsive} units box
fix            topWall all wall/lj93 zhi EDGE 	       2 1 ${repulsive} units box
fix            topWall all wall/lj93 zhi EDGE 	       2 1 0.7147 units box
fix            lowSol solvent wall/lj93 zlo EDGE                ${epsilonWall} ${sigma} ${full} units box
fix            lowSol solvent wall/lj93 zlo EDGE                2 ${sigma} ${full} units box
fix            lowSol solvent wall/lj93 zlo EDGE                2 1 ${full} units box
fix            lowSol solvent wall/lj93 zlo EDGE                2 1 3 units box
fix 	       lowCub cubes wall/lj93 zlo EDGE                ${epsilonWall} ${sigma} ${repulsive} units box
fix 	       lowCub cubes wall/lj93 zlo EDGE                2 ${sigma} ${repulsive} units box
fix 	       lowCub cubes wall/lj93 zlo EDGE                2 1 ${repulsive} units box
fix 	       lowCub cubes wall/lj93 zlo EDGE                2 1 0.7147 units box


###################### COMPUTES ##########################

compute        bin1 solvent chunk/atom bin/1d z lower 1.0 units box
compute        bin3 solvent chunk/atom bin/3d x lower 5.0 y lower 5.0 z lower 5.0 units box

compute 	pe solvent 	   pe/atom
compute 	pe2 all 	   pe/atom

######################  FIXES ############################


fix             peclet solvent ave/chunk 10 10 10000 bin1 density/number norm                  none ave one file density.profile

fix              temp solvent ave/chunk 10 10 10000 bin1 temp norm                  none ave one file temp.profile

fix 		 dens solvent ave/chunk 10 10 500000 bin3 density/number norm 		 none ave one file dens3.profile

fix		 temp2 solvent ave/chunk 10 10 500000 bin3 temp norm none ave one file temp3.profile

fix 		pe solvent ave/chunk 1 1 500000 bin3 c_pe norm none ave one file pe3.profile



################### INTEGRATION

fix             1 cubes rigid/nve/small molecule
  create bodies CPU = 0.012 seconds
  175 rigid bodies with 200025 atoms
  6.9282032 = max distance from body owner to body atom

fix             2 solvent nve



## Thermostat
region          regthermo block EDGE EDGE EDGE EDGE 0 15
group           thermo dynamic solvent region regthermo every 1000
dynamic group thermo defined
fix             3 thermo langevin ${temp} ${temp} 10 156453
fix             3 thermo langevin 1.0 ${temp} 10 156453
fix             3 thermo langevin 1.0 1.0 10 156453

## Evaporation
region		regevap block EDGE EDGE EDGE EDGE 140 EDGE
fix 		4 solvent evaporate ${evap} 1 regevap 156415
fix 		4 solvent evaporate 85 1 regevap 156415


#### Load balancing

fix             bal all balance 1000 1.05 shift z 10 1.05

############### Diagnostics and computes ###################

compute        	com cubes          rigid/local   1 mol x y z
compute        	quat cubes         rigid/local   1 mol quatw quati quatj quatk

compute 	cc2 cubes 	   chunk/atom 	 molecule
compute 	msd cubes 	   msd/chunk 	 cc2

fix 		msd all ave/time  1 1 10000 c_msd[*] file dump.msd ave one mode vector

dump            1 all custom 500000 dump.lammpstrj id mol type x y z vx vy vz c_pe2
dump		sol  solvent custom 500000 dump.soltrj id x y z vx vy vz c_pe
dump		cubetrj cubes custom 500000 cubes.lammpstrj id mol type x y z vx vy vz
dump            com cubes local 500000 dump.*.xyz c_com[*]
dump	        xyz hull xyz 500000 cubes.xyz
#dump            quat cubes      local 100000 dump.*.quat c_quat[*]
dump		order cubes 	local 100000 dump.*.order c_com[*] c_quat[*]
#dump		mol cubes molfile 10000 mol.xyz xyz


dump            2 all image 100000 image.*.png type type zoom 1.5 size 1280 720
dump_modify     2 pad 8
dump		image cubes image 100000 image_cubes.*.png type type zoom 1.5 size 1280 720
dump_modify	image pad 8
dump            3 all movie 5000 movie.avi type type zoom 1.5 size 1280 720
dump		4 cubes movie 5000 movie_cubes.avi type type size 1280 720


thermo          1000
thermo_style    custom step temp epair evdwl etotal press pe ke atoms

restart         1000000 restart.dat
timestep        0.005
timer           full
New timer settings: style=full  mode=nosync  timeout=off

run 		${steps}
run 		30000000
Per MPI rank memory allocation (min/avg/max) = 22.25 | 26.31 | 28.13 Mbytes
Step Temp E_pair E_vdwl TotEng Press PotEng KinEng Atoms 
       0    1.0088862   -1.9606054   -1.9606054   -1.0428649  0.072365557   -1.9606054   0.91774052   507356 
    1000    1.0089528   -1.9600498   -1.9600498   -1.0422288  0.075684068   -1.9600498   0.91782098   507345 
    2000    1.0065649   -1.9584227   -1.9584227   -1.0427522  0.069402956   -1.9584227   0.91567047   507333 
    3000    1.0079899   -1.9602355   -1.9602355    -1.043247  0.064694043   -1.9602355   0.91698848   507321 
    4000    1.0078424   -1.9595032   -1.9595032   -1.0426273  0.074474203   -1.9595032   0.91687595   507309 
    5000    1.0094655   -1.9601335   -1.9601335   -1.0417611   0.06104358   -1.9601335   0.91837243   507298 
    6000    1.0091639   -1.9595447   -1.9595447   -1.0414249  0.076692556   -1.9595447    0.9181198   507286 
    7000    1.0088531   -1.9595854   -1.9595854   -1.0417266  0.063958581   -1.9595854    0.9178588   507274 
    8000    1.0094618   -1.9593778   -1.9593778   -1.0409435  0.069718009   -1.9593778   0.91843424   507262 
    9000    1.0086834   -1.9598903   -1.9598903   -1.0421444  0.075431285   -1.9598903     0.917746   507251 
   10000    1.0077134   -1.9588229   -1.9588229   -1.0419378  0.073232117   -1.9588229   0.91688508   507239 
   11000    1.0075847   -1.9595658   -1.9595658   -1.0427762  0.074868629   -1.9595658   0.91678966   507227 
   12000    1.0083159   -1.9604377   -1.9604377    -1.042961  0.073455279   -1.9604377   0.91747668   507215 
   13000    1.0064616    -1.959105    -1.959105   -1.0432956  0.073802127    -1.959105   0.91580934   507204 
   14000    1.0063392   -1.9594341   -1.9594341   -1.0437145  0.065393888   -1.9594341   0.91571964   507192 
   15000    1.0052593   -1.9592548   -1.9592548   -1.0444962  0.070596376   -1.9592548   0.91475865   507180 
   16000    1.0075308   -1.9602605   -1.9602605   -1.0434132  0.061674209   -1.9602605    0.9168473   507168 
   17000    1.0062341   -1.9582169   -1.9582169    -1.042528  0.070073057   -1.9582169   0.91568898   507156 
   18000    1.0066033   -1.9587812   -1.9587812   -1.0427364  0.077899636   -1.9587812   0.91604479   507145 
   19000    1.0074718   -1.9606291   -1.9606291   -1.0437722  0.057226619   -1.9606291    0.9168569   507133 
   20000    1.0054075   -1.9586816   -1.9586816   -1.0436816  0.081203953   -1.9586816   0.91499993   507121 
   21000    1.0067932   -1.9605014   -1.9605014   -1.0442187  0.072060237   -1.9605014   0.91628272   507109 
   22000    1.0070384   -1.9600176   -1.9600176   -1.0434919  0.077115167   -1.9600176   0.91652569   507098 
   23000    1.0059339   -1.9585255   -1.9585255   -1.0429833   0.07100183   -1.9585255   0.91554218   507086 
   24000    1.0066199     -1.95855     -1.95855   -1.0423618  0.067973131     -1.95855    0.9161882   507074 
   25000    1.0074963   -1.9585897   -1.9585897   -1.0415821  0.067408328   -1.9585897   0.91700759   507062 
   26000    1.0093523   -1.9597645   -1.9597645   -1.0410477  0.076628548   -1.9597645   0.91871677   507051 
   27000    1.0086975   -1.9585873   -1.9585873   -1.0404448   0.06937471   -1.9585873   0.91814255   507039 
   28000    1.0092178   -1.9596455   -1.9596455   -1.0410076  0.071717391   -1.9596455   0.91863789   507027 
   29000     1.007083   -1.9575215   -1.9575215   -1.0408052  0.076021107   -1.9575215   0.91671634   507015 
   30000    1.0066307    -1.957406    -1.957406   -1.0410815  0.072774723    -1.957406   0.91632454   507004 
   31000    1.0057976   -1.9568057   -1.9568057   -1.0412179  0.071379388   -1.9568057   0.91558781   506992 
   32000    1.0070331   -1.9581317   -1.9581317   -1.0413974  0.063756123   -1.9581317   0.91673425   506980 
   33000    1.0071018   -1.9567802   -1.9567802   -1.0399618  0.075542383   -1.9567802   0.91681844   506968 
   34000    1.0060357   -1.9556886   -1.9556886    -1.039819  0.066567816   -1.9556886   0.91586965   506956 
   35000    1.0056885   -1.9555164   -1.9555164    -1.039943  0.069062623   -1.9555164   0.91557336   506945 
   36000    1.0051171   -1.9545411   -1.9545411   -1.0394662  0.069226276   -1.9545411    0.9150749   506933 
   37000    1.0054063   -1.9544015   -1.9544015   -1.0390416  0.068053662   -1.9544015   0.91535983   506921 
   38000    1.0039415    -1.953484    -1.953484   -1.0394362  0.080476793    -1.953484   0.91404788   506909 
   39000    1.0058179   -1.9546739   -1.9546739   -1.0388977  0.070748715   -1.9546739   0.91577613   506898 
   40000    1.0050832    -1.953611    -1.953611   -1.0384821  0.061695386    -1.953611   0.91512885   506886 
   41000    1.0055515   -1.9544453   -1.9544453   -1.0388685  0.062110398   -1.9544453   0.91557688   506874 
   42000    1.0069548   -1.9562489   -1.9562489   -1.0393725  0.063842309   -1.9562489   0.91687638   506862 
   43000    1.0062166   -1.9548474   -1.9548474   -1.0386233  0.080855467   -1.9548474   0.91622404   506851 
   44000    1.0050808   -1.9539232   -1.9539232   -1.0387118  0.062761579   -1.9539232    0.9152115   506839 
   45000    1.0070388   -1.9553603   -1.9553603   -1.0383442  0.070043892   -1.9553603   0.91701615   506827 
   46000    1.0054839   -1.9555393   -1.9555393   -1.0399174  0.062306932   -1.9555393   0.91562191   506815 
   47000    1.0058391   -1.9558344   -1.9558344   -1.0398691   0.06305781   -1.9558344   0.91596529   506804 
   48000    1.0049106   -1.9547677   -1.9547677   -1.0396263  0.077040871   -1.9547677    0.9151414   506792 
   49000    1.0048802   -1.9553448   -1.9553448   -1.0402094  0.067091092   -1.9553448    0.9151354   506780 
   50000    1.0052215   -1.9559044   -1.9559044   -1.0404365  0.062527833   -1.9559044    0.9154679   506768 
   51000    1.0042912   -1.9545114   -1.9545114   -1.0398691  0.071478498   -1.9545114   0.91464228   506756 
   52000    1.0059488   -1.9562947   -1.9562947   -1.0401229  0.075885987   -1.9562947   0.91617184   506745 
   53000    1.0040151   -1.9554524   -1.9554524     -1.04102  0.072061692   -1.9554524   0.91443239   506733 
   54000    1.0063429   -1.9570451   -1.9570451   -1.0404709  0.076003455   -1.9570451   0.91657413   506721 
   55000    1.0059895   -1.9566249   -1.9566249   -1.0403509  0.081209439   -1.9566249   0.91627396   506709 
   56000    1.0052051   -1.9563051   -1.9563051   -1.0407257  0.072598047   -1.9563051    0.9155794   506698 
   57000     1.004429   -1.9552267   -1.9552267   -1.0403325  0.069552819   -1.9552267   0.91489419   506686 
   58000    1.0052162   -1.9570908   -1.9570908   -1.0414579  0.074256208   -1.9570908   0.91563289   506674 
   59000    1.0060135   -1.9580004   -1.9580004   -1.0416195  0.072991115   -1.9580004   0.91638087   506662 
   60000    1.0048897   -1.9574851   -1.9574851   -1.0421081  0.070752439   -1.9574851   0.91537701   506651 
   61000    1.0043939   -1.9575151   -1.9575151    -1.042568  0.067236035   -1.9575151   0.91494709   506639 
   62000    1.0051991   -1.9585083   -1.9585083   -1.0428061  0.065359608   -1.9585083   0.91570225   506627 
   63000    1.0064301   -1.9593057   -1.9593057   -1.0424603  0.067171244   -1.9593057   0.91684541   506615 
   64000    1.0065447   -1.9581598   -1.9581598   -1.0411902   0.06810183   -1.9581598   0.91696967   506604 
   65000    1.0060237   -1.9571902   -1.9571902   -1.0406735  0.076039594   -1.9571902   0.91651677   506592 
   66000    1.0055278   -1.9575748   -1.9575748   -1.0414881  0.075319862   -1.9575748   0.91608667   506580 
   67000    1.0070435   -1.9603031   -1.9603031   -1.0428138  0.075259849   -1.9603031   0.91748931   506568 
   68000    1.0069433   -1.9602846   -1.9602846   -1.0428648  0.065396475   -1.9602846   0.91741976   506556 
   69000    1.0050562   -1.9589239   -1.9589239   -1.0432036  0.069700407   -1.9589239   0.91572029   506545 
   70000    1.0050235   -1.9581854   -1.9581854   -1.0424732  0.065268215   -1.9581854   0.91571223   506533 
   71000    1.0060147   -1.9585091   -1.9585091   -1.0418721  0.077434744   -1.9585091   0.91663699   506521 
   72000    1.0060352   -1.9583482   -1.9583482   -1.0416708  0.067610514   -1.9583482   0.91667742   506509 
   73000    1.0040814   -1.9573989   -1.9573989   -1.0424819  0.074307648   -1.9573989   0.91491705   506498 
   74000    1.0049007    -1.958269    -1.958269   -1.0425837  0.064493939    -1.958269   0.91568532   506486 
   75000    1.0039715    -1.958596    -1.958596   -1.0437358  0.074936834    -1.958596   0.91486024   506474 
   76000    1.0053908   -1.9598522   -1.9598522   -1.0436769  0.073555735   -1.9598522   0.91617526   506462 
   77000    1.0046619   -1.9604066   -1.9604066   -1.0448756  0.061295589   -1.9604066   0.91553097   506451 
   78000    1.0024862   -1.9568595   -1.9568595   -1.0432896  0.061334972   -1.9568595   0.91356995   506439 
   79000    1.0035576   -1.9570147   -1.9570147   -1.0424468  0.067411552   -1.9570147   0.91456792   506427 
   80000    1.0034376   -1.9569743   -1.9569743   -1.0424941  0.076306307   -1.9569743   0.91448027   506415 
   81000     1.001965   -1.9550754   -1.9550754   -1.0419174  0.073277586   -1.9550754   0.91315802   506404 
   82000    1.0029246   -1.9563136   -1.9563136   -1.0422593  0.060447434   -1.9563136   0.91405428   506392 
   83000    1.0027958   -1.9567768   -1.9567768   -1.0428182  0.062742212   -1.9567768   0.91395856   506380 
   84000    1.0035776   -1.9575259   -1.9575259   -1.0428332  0.066536814   -1.9575259    0.9146927   506368 
   85000     1.003171   -1.9570865   -1.9570865   -1.0427427  0.072872394   -1.9570865   0.91434379   506356 
   86000     1.004021   -1.9585016   -1.9585016   -1.0433632  0.059629776   -1.9585016   0.91513843   506345 
   87000    1.0022397   -1.9566455   -1.9566455   -1.0431091  0.068590903   -1.9566455   0.91353648   506333 
   88000    1.0040844    -1.957416    -1.957416   -1.0421764  0.068906582    -1.957416   0.91523963   506321 
   89000    1.0044441   -1.9589391   -1.9589391   -1.0433499  0.062918705   -1.9589391   0.91558921   506309 
   90000    1.0042607   -1.9576641   -1.9576641   -1.0422222  0.075780335   -1.9576641   0.91544192   506298 
   91000    1.0015382   -1.9561909   -1.9561909   -1.0432091   0.06292765   -1.9561909   0.91298177   506286 
   92000    1.0019579      -1.9564      -1.9564    -1.043014  0.070705772      -1.9564   0.91338606   506274 
   93000    1.0025611    -1.957545    -1.957545   -1.0435874  0.078374727    -1.957545    0.9139576   506262 
   94000    1.0037746   -1.9596273   -1.9596273   -1.0445436  0.066571423   -1.9596273   0.91508371   506251 
   95000    1.0044545   -1.9603443   -1.9603443    -1.044619  0.074379436   -1.9603443   0.91572527   506239 
   96000    1.0033771   -1.9586485   -1.9586485   -1.0438837  0.072142258   -1.9586485   0.91476475   506227 
   97000    1.0047959   -1.9593066   -1.9593066   -1.0432266  0.073640787   -1.9593066   0.91607993   506215 
   98000    1.0046866    -1.959602    -1.959602   -1.0436017   0.06617492    -1.959602   0.91600022   506204 
   99000    1.0053382   -1.9597256   -1.9597256   -1.0431096  0.076013225   -1.9597256   0.91661601   506192 
  100000    1.0037235   -1.9589813   -1.9589813   -1.0438158   0.07162879   -1.9589813   0.91516551   506180 
  101000    1.0037689   -1.9597184   -1.9597184   -1.0444898  0.071897725   -1.9597184   0.91522856   506168 
  102000    1.0025198   -1.9588192   -1.9588192   -1.0447078  0.066381827   -1.9588192   0.91411136   506156 
  103000    1.0019631   -1.9582938   -1.9582938   -1.0446702  0.073092906   -1.9582938   0.91362361   506145 
  104000    1.0017818    -1.957797    -1.957797   -1.0443171  0.074760821    -1.957797   0.91347992   506133 
  105000    1.0026887   -1.9581224   -1.9581224   -1.0437938  0.070001362   -1.9581224   0.91432856   506121 
  106000    1.0009182   -1.9574158   -1.9574158   -1.0446801  0.068556154   -1.9574158    0.9127357   506109 
  107000    1.0023761   -1.9585406   -1.9585406   -1.0444556  0.070292576   -1.9585406   0.91408504   506098 
  108000    1.0039475   -1.9590281   -1.9590281   -1.0434883  0.064173193   -1.9590281   0.91553975   506086 
  109000    1.0023105   -1.9575642   -1.9575642   -1.0434957  0.074814891   -1.9575642   0.91406857   506074 
  110000    1.0036495   -1.9569484   -1.9569484   -1.0416371  0.069069537   -1.9569484   0.91531135   506062 
  111000      1.00288   -1.9574542   -1.9574542   -1.0428248  0.055519644   -1.9574542   0.91462948   506051 
  112000    1.0012987   -1.9568663   -1.9568663   -1.0436573  0.072605957   -1.9568663   0.91320899   506039 
  113000    1.0022366    -1.956662    -1.956662   -1.0425759  0.072890504    -1.956662   0.91408612   506027 
  114000    1.0030882   -1.9572577   -1.9572577   -1.0423733  0.070934944   -1.9572577   0.91488443   506015 
  115000    1.0026748    -1.956207    -1.956207   -1.0416797   0.07566385    -1.956207   0.91452726   506004 
  116000    1.0021958   -1.9559996   -1.9559996   -1.0418874  0.063879981   -1.9559996   0.91411212   505992 
  117000    1.0008058   -1.9543409   -1.9543409    -1.041475  0.066391991   -1.9543409   0.91286588   505980 
  118000    1.0027183   -1.9556461   -1.9556461    -1.041014  0.074351931   -1.9556461   0.91463202   505968 
  119000     1.000748   -1.9538942   -1.9538942   -1.0410377  0.069735614   -1.9538942   0.91285653   505956 
  120000    1.0032319   -1.9556274   -1.9556274   -1.0404853  0.053991476   -1.9556274    0.9151421   505945 
  121000    1.0023569    -1.954778    -1.954778   -1.0404124  0.073600865    -1.954778   0.91436561   505933 
  122000    1.0015361   -1.9540922   -1.9540922   -1.0404537  0.071221701   -1.9540922   0.91363854   505921 
  123000    1.0048367   -1.9571085   -1.9571085   -1.0404372  0.068626116   -1.9571085   0.91667123   505909 
  124000     1.002222   -1.9552114   -1.9552114   -1.0409055  0.057729895   -1.9552114   0.91430583   505898 
  125000    1.0025993   -1.9558551   -1.9558551   -1.0411834  0.072510238   -1.9558551    0.9146717   505886 
  126000    1.0012106   -1.9545243   -1.9545243   -1.0410979  0.070337976   -1.9545243   0.91342648   505874 
  127000    1.0023936   -1.9558814   -1.9558814   -1.0413539  0.070990562   -1.9558814   0.91452751   505862 
  128000    1.0023145    -1.954973    -1.954973   -1.0404978  0.063170995    -1.954973   0.91447522   505851 
  129000    1.0020379   -1.9552856   -1.9552856   -1.0410411  0.059155321   -1.9552856   0.91424452   505839 
  130000    1.0007759   -1.9535811   -1.9535811   -1.0404664  0.060427702   -1.9535811   0.91311471   505827 
  131000     1.001226   -1.9557943   -1.9557943   -1.0422472  0.067347637   -1.9557943    0.9135471   505815 
  132000    1.0019099   -1.9550612   -1.9550612   -1.0408702   0.05921114   -1.9550612   0.91419099   505804 
  133000    1.0030235    -1.956134    -1.956134   -1.0409051  0.057342489    -1.956134   0.91522883   505792 
  134000    1.0005647   -1.9549679   -1.9549679    -1.041961  0.062712183   -1.9549679   0.91300685   505780 
  135000   0.99971998   -1.9532275   -1.9532275   -1.0409698  0.064114152   -1.9532275   0.91225772   505768 
  136000     1.000811   -1.9543556   -1.9543556   -1.0410806  0.060248128   -1.9543556   0.91327496   505756 
  137000    1.0010626   -1.9548095   -1.9548095   -1.0412852  0.065270788   -1.9548095   0.91352439   505745 
  138000    1.0002115   -1.9550643   -1.9550643   -1.0422949   0.06260086   -1.9550643   0.91276939   505733 
  139000    1.0007236   -1.9551853   -1.9551853   -1.0419269  0.073007519   -1.9551853   0.91325842   505721 
  140000    1.0020376   -1.9565718   -1.9565718   -1.0420925  0.075228938   -1.9565718   0.91447928   505709 
  141000    1.0011678   -1.9568474   -1.9568474   -1.0431421  0.066210066   -1.9568474   0.91370532   505698 
  142000    1.0016071    -1.957247    -1.957247   -1.0431191  0.063145658    -1.957247   0.91412792   505686 
  143000    1.0023685   -1.9583342   -1.9583342   -1.0434896  0.071010297   -1.9583342   0.91484459   505674 
  144000   0.99972684   -1.9565642   -1.9565642    -1.044109  0.067151581   -1.9565642   0.91245522   505662 
  145000    1.0014417   -1.9576045   -1.9576045   -1.0435642  0.060466706   -1.9576045   0.91404024   505651 
  146000    1.0010625   -1.9569617   -1.9569617   -1.0432458  0.077436462   -1.9569617   0.91371589   505639 
  147000    1.0010393   -1.9566885   -1.9566885   -1.0429721  0.067222392   -1.9566885   0.91371635   505627 
  148000    1.0008625   -1.9568593   -1.9568593   -1.0432827  0.067628931   -1.9568593   0.91357661   505615 
  149000    1.0015546   -1.9576413   -1.9576413    -1.043413  0.068588277   -1.9576413   0.91422828   505604 
  150000    1.0039381   -1.9606371   -1.9606371   -1.0442114  0.064924599   -1.9606371   0.91642571   505592 
  151000    1.0039826   -1.9599674   -1.9599674   -1.0434793  0.067774411   -1.9599674   0.91648806   505580 
  152000    1.0020689   -1.9585301   -1.9585301   -1.0437673  0.070116738   -1.9585301   0.91476286   505568 
  153000    1.0029788   -1.9594962   -1.9594962   -1.0438809   0.06049777   -1.9594962   0.91561524   505556 
  154000     1.002265    -1.958581    -1.958581   -1.0435975  0.070879986    -1.958581   0.91498349   505545 
  155000    1.0010653   -1.9570097   -1.9570097   -1.0430997  0.083506523   -1.9570097   0.91390999   505533 
  156000    1.0017679   -1.9590411   -1.9590411   -1.0444679  0.064114719   -1.9590411   0.91457312   505521 
  157000    1.0010618   -1.9572611   -1.9572611    -1.043311  0.066863689   -1.9572611   0.91395016   505509 
  158000    1.0011694   -1.9577286   -1.9577286   -1.0436602  0.070615872   -1.9577286   0.91406833   505498 
  159000    1.0012328   -1.9579801   -1.9579801   -1.0438322  0.067796054   -1.9579801    0.9141479   505486 
  160000    1.0009361   -1.9583184   -1.9583184   -1.0444197  0.062344099   -1.9583184   0.91389867   505474 
  161000    1.0009837   -1.9586282   -1.9586282   -1.0446644  0.077849976   -1.9586282   0.91396381   505462 
  162000     1.002695   -1.9595255   -1.9595255   -1.0439792  0.076083463   -1.9595255   0.91554632   505451 
  163000    1.0042875   -1.9603888   -1.9603888   -1.0433667  0.065339346   -1.9603888   0.91702213   505439 
  164000    1.0012131    -1.958536    -1.958536   -1.0442994  0.068802291    -1.958536   0.91423658   505427 
  165000    1.0004119   -1.9571993   -1.9571993   -1.0436726  0.072412182   -1.9571993   0.91352669   505415 
  166000    1.0027645   -1.9598785   -1.9598785   -1.0441836  0.061989322   -1.9598785   0.91569488   505404 
  167000    1.0001846   -1.9582316   -1.9582316   -1.0448708  0.060406677   -1.9582316   0.91336076   505392 
  168000    1.0000846   -1.9569763   -1.9569763   -1.0436852  0.063206047   -1.9569763    0.9132911   505380 
  169000    1.0013075   -1.9577095   -1.9577095   -1.0432799  0.064486893   -1.9577095    0.9144296   505368 
  170000    1.0010759   -1.9569431   -1.9569431   -1.0427033  0.055298598   -1.9569431   0.91423976   505356 
  171000   0.99978053   -1.9565567   -1.9565567   -1.0434801  0.055200196   -1.9565567   0.91307664   505345 
  172000   0.99980414   -1.9566806   -1.9566806   -1.0435607  0.065516624   -1.9566806   0.91311987   505333 
  173000    0.9962836   -1.9540267   -1.9540267   -1.0441005  0.059928664   -1.9540267   0.90992618   505321 
  174000   0.99749943   -1.9542566   -1.9542566   -1.0431983  0.059484854   -1.9542566   0.91105825   505309 
  175000   0.99820106   -1.9553726   -1.9553726   -1.0436536  0.065271615   -1.9553726   0.91171893   505298 
  176000    1.0013603   -1.9569891   -1.9569891   -1.0423629  0.057635607   -1.9569891   0.91462615   505286 
  177000   0.99922867   -1.9544953   -1.9544953   -1.0417944  0.073575814   -1.9544953   0.91270086   505274 
  178000    1.0014631   -1.9556983   -1.9556983   -1.0409347  0.064602972   -1.9556983   0.91476351   505262 
  179000    1.0010202   -1.9567526   -1.9567526   -1.0423737  0.071446614   -1.9567526   0.91437886   505251 
  180000   0.99893765   -1.9555968   -1.9555968   -1.0430986  0.064384638   -1.9555968   0.91249826   505239 
  181000    1.0020877   -1.9571375   -1.9571375     -1.04174  0.066251102   -1.9571375   0.91539748   505227 
  182000    1.0000454    -1.956656    -1.956656   -1.0431025  0.072477508    -1.956656   0.91355355   505215 
  183000   0.99867557   -1.9552686   -1.9552686   -1.0429465  0.071993578   -1.9552686   0.91232205   505204 
  184000    1.0001305   -1.9561407   -1.9561407   -1.0424678  0.064403453   -1.9561407    0.9136729   505192 
  185000   0.99952013    -1.956161    -1.956161    -1.043024   0.06335217    -1.956161   0.91313696   505180 
  186000   0.99886193   -1.9547045   -1.9547045   -1.0421472  0.068429225   -1.9547045   0.91255733   505168 
  187000    0.9986925   -1.9553743   -1.9553743   -1.0429501  0.065505501   -1.9553743    0.9124242   505156 
  188000    1.0000666   -1.9569704   -1.9569704   -1.0432709  0.058978074   -1.9569704   0.91369949   505145 
  189000   0.99890808   -1.9560011   -1.9560011   -1.0433384  0.067766321   -1.9560011   0.91266272   505133 
  190000     1.001402   -1.9590398   -1.9590398   -1.0440767  0.069761639   -1.9590398   0.91496308   505121 
  191000   0.99919207   -1.9570497   -1.9570497   -1.0440842  0.065811647   -1.9570497   0.91296557   505109 
  192000    1.0005295   -1.9576089   -1.9576089   -1.0434014  0.064805909   -1.9576089    0.9142075   505098 
  193000   0.99885288   -1.9575266   -1.9575266   -1.0448294  0.061206933   -1.9575266   0.91269721   505086 
  194000    0.9985335   -1.9576047   -1.9576047   -1.0451776  0.069717775   -1.9576047   0.91242705   505074 
  195000   0.99791459   -1.9567823   -1.9567823   -1.0448992  0.073117893   -1.9567823   0.91188317   505062 
  196000    0.9974865   -1.9576404   -1.9576404   -1.0461285  0.064574795   -1.9576404   0.91151185   505051 
  197000   0.99926019   -1.9588255   -1.9588255   -1.0456711  0.055602042   -1.9588255   0.91315435   505039 
  198000    1.0001746   -1.9585788   -1.9585788   -1.0445671  0.070307028   -1.9585788   0.91401173   505027 
  199000    0.9977902   -1.9571181   -1.9571181   -1.0452638  0.069504224   -1.9571181   0.91185437   505015 
  200000   0.99882401   -1.9585358   -1.9585358   -1.0457168  0.068651427   -1.9585358   0.91281902   505004 
  201000   0.99653718   -1.9570883   -1.9570883   -1.0463376   0.06578178   -1.9570883   0.91075074   504992 
  202000   0.99966401   -1.9595852   -1.9595852   -1.0459551  0.065465642   -1.9595852   0.91363012   504980 
  203000   0.99851665    -1.958831    -1.958831   -1.0462278  0.075520242    -1.958831   0.91260318   504968 
  204000   0.99882401   -1.9593066   -1.9593066   -1.0464008  0.067562114   -1.9593066   0.91290579   504956 
  205000   0.99748772   -1.9585075   -1.9585075   -1.0468032  0.069775544   -1.9585075   0.91170431   504945 
  206000   0.99898155   -1.9594282   -1.9594282   -1.0463369  0.062443227   -1.9594282   0.91309137   504933 
  207000   0.99948626    -1.959989    -1.959989   -1.0464146  0.063327441    -1.959989    0.9135744   504921 
  208000   0.99885846   -1.9593373   -1.9593373   -1.0463151  0.066993593   -1.9593373   0.91302226   504909 
  209000   0.99920099   -1.9596332   -1.9596332   -1.0462779  0.060279021   -1.9596332   0.91335525   504898 
  210000   0.99968516    -1.958979    -1.958979   -1.0451594  0.074537563    -1.958979   0.91381955   504886 
  211000   0.99677111   -1.9574556   -1.9574556   -1.0462781  0.071359929   -1.9574556   0.91117745   504874 
  212000   0.99726358   -1.9583086   -1.9583086   -1.0466593  0.070601223   -1.9583086    0.9116493   504862 
  213000   0.99624164   -1.9581104   -1.9581104   -1.0473754  0.065965908   -1.9581104   0.91073493   504851 
  214000   0.99821948   -1.9600454   -1.9600454   -1.0474807  0.065162078   -1.9600454   0.91256471   504839 
  215000   0.99638255   -1.9565735   -1.9565735   -1.0456665  0.076143165   -1.9565735   0.91090705   504827 
  216000   0.99593088   -1.9571512   -1.9571512   -1.0466354  0.066065448   -1.9571512   0.91051577   504815 
  217000   0.99694806   -1.9574578   -1.9574578   -1.0459922  0.064413277   -1.9574578   0.91146557   504804 
  218000   0.99663705   -1.9582286   -1.9582286   -1.0470257  0.062765569   -1.9582286   0.91120289   504792 
  219000   0.99410051   -1.9564767   -1.9564767   -1.0475714  0.057243631   -1.9564767    0.9089054   504780 
  220000   0.99483231     -1.95803     -1.95803   -1.0484339  0.064587508     -1.95803   0.90959611   504768 
  221000   0.99617845   -1.9580221   -1.9580221   -1.0471735  0.069402671   -1.9580221   0.91084857   504756 
  222000   0.99708101   -1.9588322   -1.9588322   -1.0471385  0.060768497   -1.9588322   0.91169369   504745 
  223000   0.99742728   -1.9589221   -1.9589221   -1.0468901  0.061834935   -1.9589221   0.91203198   504733 
  224000   0.99767535   -1.9575178   -1.9575178   -1.0452373  0.068091243   -1.9575178    0.9122805   504721 
  225000   0.99865125   -1.9578115   -1.9578115   -1.0446169  0.068824041   -1.9578115   0.91319459   504709 
  226000   0.99975233   -1.9591046   -1.9591046   -1.0448832  0.068229787   -1.9591046   0.91422137   504698 
  227000   0.99924145   -1.9583442   -1.9583442   -1.0445683  0.065287407   -1.9583442   0.91377592   504686 
  228000   0.99816163   -1.9574051   -1.9574051    -1.044595  0.073679858   -1.9574051   0.91281016   504674 
  229000   0.99666709   -1.9568267   -1.9568267   -1.0453616  0.066250524   -1.9568267   0.91146509   504662 
  230000   0.99766701   -1.9585076   -1.9585076   -1.0461082  0.068330946   -1.9585076   0.91239941   504651 
  231000    0.9968569   -1.9577456   -1.9577456   -1.0460654  0.065409919   -1.9577456   0.91168022   504639 
  232000   0.99661752   -1.9574058   -1.9574058   -1.0459228  0.074016552   -1.9574058   0.91148298   504627 
  233000   0.99783074     -1.95821     -1.95821   -1.0455958  0.066033967     -1.95821   0.91261426   504615 
  234000   0.99756264   -1.9577696   -1.9577696   -1.0453806  0.064443578   -1.9577696   0.91238894   504604 
  235000   0.99671891   -1.9569722   -1.9569722   -1.0453333  0.055775811   -1.9569722   0.91163893   504592 
  236000   0.99652245    -1.957224    -1.957224   -1.0457431  0.063686335    -1.957224   0.91148091   504580 
  237000   0.99762158   -1.9562983   -1.9562983   -1.0437904   0.07032051   -1.9562983   0.91250795   504568 
  238000   0.99552406   -1.9554448   -1.9554448   -1.0448337  0.070258377   -1.9554448   0.91061104   504556 
  239000   0.99507926   -1.9565409   -1.9565409   -1.0463169  0.068961694   -1.9565409   0.91022402   504545 
  240000   0.99829576   -1.9582068   -1.9582068   -1.0450188  0.067270852   -1.9582068   0.91318796   504533 
  241000   0.99884773    -1.957475    -1.957475   -1.0437604  0.062549025    -1.957475    0.9137146   504521 
  242000   0.99625472   -1.9558336   -1.9558336   -1.0444694  0.067616801   -1.9558336   0.91136428   504509 
  243000   0.99677282   -1.9564484   -1.9564484   -1.0445903  0.062771792   -1.9564484   0.91185811   504498 
  244000   0.99708608    -1.955337    -1.955337   -1.0431707  0.070124443    -1.955337   0.91216638   504486 
  245000    0.9958232   -1.9542779   -1.9542779   -1.0432451   0.06002579   -1.9542779   0.91103273   504474 
  246000   0.99492089   -1.9540138   -1.9540138   -1.0437849  0.070764133   -1.9540138    0.9102289   504462 
  247000   0.99651174   -1.9568234   -1.9568234   -1.0451192  0.066718271   -1.9568234   0.91170421   504451 
  248000   0.99574921    -1.955928    -1.955928   -1.0448998  0.068835838    -1.955928   0.91102824   504439 
  249000   0.99545294   -1.9555381   -1.9555381   -1.0447593  0.062137656   -1.9555381   0.91077885   504427 
  250000   0.99644339   -1.9571949   -1.9571949   -1.0454882  0.066477001   -1.9571949   0.91170673   504415 
  251000   0.99595519   -1.9573476   -1.9573476   -1.0460677  0.068260194   -1.9573476   0.91127992   504404 
  252000   0.99359702   -1.9557267   -1.9557267   -1.0465828  0.063332964   -1.9557267   0.90914388   504392 
  253000   0.99248331   -1.9546268   -1.9546268   -1.0464804  0.059715578   -1.9546268   0.90814643   504380 
  254000   0.99440201   -1.9546552   -1.9546552   -1.0447315   0.07105922   -1.9546552   0.90992374   504368 
  255000    0.9946209   -1.9550218   -1.9550218   -1.0448761  0.072377064   -1.9550218   0.91014568   504356 
  256000   0.99396651   -1.9547452   -1.9547452   -1.0451785  0.058142162   -1.9547452   0.90956671   504345 
  257000   0.99295487    -1.954023    -1.954023   -1.0453604  0.067722006    -1.954023   0.90866259   504333 
  258000   0.99440945    -1.954962    -1.954962   -1.0449466  0.068255754    -1.954962   0.91001535   504321 
  259000   0.99777462   -1.9576048   -1.9576048   -1.0444882  0.058717932   -1.9576048   0.91311665   504309 
  260000   0.99580925   -1.9562923   -1.9562923   -1.0449544   0.06610829   -1.9562923    0.9113379   504298 
  261000   0.99765165   -1.9575101   -1.9575101   -1.0444643  0.067171261   -1.9575101   0.91304575   504286 
  262000   0.99781432   -1.9576376   -1.9576376   -1.0444212  0.065972572   -1.9576376   0.91321636   504274 
  263000   0.99645321   -1.9564765   -1.9564765   -1.0444842  0.065350362   -1.9564765   0.91199234   504262 
  264000   0.99576943   -1.9561453   -1.9561453   -1.0447589  0.072715693   -1.9561453   0.91138641   504251 
  265000   0.99707253   -1.9576081   -1.9576081   -1.0450073  0.068105457   -1.9576081    0.9126008   504239 
  266000   0.99448712   -1.9549422   -1.9549422   -1.0446861  0.065218592   -1.9549422   0.91025609   504227 
  267000   0.99602793   -1.9560983   -1.9560983   -1.0444102  0.066196249   -1.9560983   0.91168809   504215 
  268000   0.99684618   -1.9563042   -1.9563042   -1.0438472  0.069149716   -1.9563042   0.91245696   504204 
  269000   0.99631522   -1.9559927   -1.9559927       -1.044  0.069061974   -1.9559927   0.91199265   504192 
  270000   0.99455163   -1.9552623   -1.9552623   -1.0448623  0.066270413   -1.9552623   0.91039999   504180 
  271000   0.99603538   -1.9571552   -1.9571552   -1.0453753  0.066879817   -1.9571552    0.9117799   504168 
  272000   0.99451647    -1.955822    -1.955822   -1.0454108  0.070171447    -1.955822   0.91041114   504156 
  273000   0.99624109   -1.9575441   -1.9575441   -1.0455342  0.064458646   -1.9575441   0.91200981   504145 
  274000   0.99301979   -1.9570504   -1.9570504   -1.0479678   0.07087085   -1.9570504   0.90908251   504133 
  275000   0.99491698   -1.9577813   -1.9577813   -1.0469402  0.073787103   -1.9577813   0.91084102   504121 
  276000   0.99480527   -1.9580716   -1.9580716   -1.0473112  0.068442833   -1.9580716   0.91076042   504109 
  277000   0.99573088   -1.9589427   -1.9589427   -1.0473149  0.061103456   -1.9589427   0.91162773   504098 
  278000   0.99485646   -1.9576923   -1.9576923   -1.0468434  0.059881698   -1.9576923   0.91084885   504086 
  279000   0.99261348   -1.9568919   -1.9568919    -1.048075   0.06532637   -1.9568919   0.90881691   504074 
  280000   0.99362917   -1.9577936   -1.9577936    -1.048025  0.061068676   -1.9577936   0.90976851   504062 
  281000   0.99460497   -1.9585864   -1.9585864   -1.0479046  0.064481393   -1.9585864   0.91068182   504051 
  282000   0.99387152   -1.9577511   -1.9577511   -1.0477192  0.062294639   -1.9577511   0.91003193   504039 
  283000   0.99258033   -1.9574236   -1.9574236   -1.0485523  0.061603352   -1.9574236   0.90887129   504027 
  284000   0.99343757   -1.9573976   -1.9573976   -1.0477197  0.068127056   -1.9573976    0.9096779   504015 
  285000   0.99370534   -1.9577413   -1.9577413   -1.0477983  0.069602889   -1.9577413   0.90994295   504004 
  286000   0.99339882   -1.9576398   -1.9576398   -1.0479559  0.063951602   -1.9576398   0.90968393   503992 
  287000    0.9937785   -1.9573134   -1.9573134   -1.0472601  0.064691732   -1.9573134   0.91005328   503980 
  288000   0.99472923   -1.9579862   -1.9579862   -1.0470406  0.064112396   -1.9579862    0.9109456   503968 
  289000   0.99458078    -1.958333    -1.958333   -1.0475017  0.065312102    -1.958333   0.91083135   503956 
  290000   0.99592933   -1.9587233   -1.9587233    -1.046637  0.071915249   -1.9587233   0.91208625   503945 
  291000   0.99639748   -1.9583157   -1.9583157    -1.045779  0.073325902   -1.9583157   0.91253672   503933 
  292000   0.99564443   -1.9578088   -1.9578088     -1.04594  0.068069404   -1.9578088   0.91186876   503921 
  293000   0.99447666   -1.9570435   -1.9570435   -1.0462226  0.069641856   -1.9570435   0.91082094   503909 
  294000    0.9945856   -1.9568813   -1.9568813   -1.0459407  0.067900022   -1.9568813    0.9109406   503898 
  295000    0.9961111   -1.9584913   -1.9584913   -1.0461317  0.061776046   -1.9584913   0.91235953   503886 
  296000   0.99514384   -1.9576733   -1.9576733    -1.046178  0.059832456   -1.9576733    0.9114953   503874 
  297000    0.9943165   -1.9575577   -1.9575577   -1.0467985  0.060298449   -1.9575577    0.9107592   503862 
  298000   0.99334465   -1.9565807   -1.9565807   -1.0466918  0.057825879   -1.9565807   0.90988888   503851 
  299000   0.99309173   -1.9562999   -1.9562999   -1.0466211  0.058254869   -1.9562999   0.90967887   503839 
  300000   0.99221301   -1.9560285   -1.9560285   -1.0471329   0.05919558   -1.9560285   0.90889561   503827 
  301000   0.99454162   -1.9573172   -1.9573172   -1.0462668  0.069819587   -1.9573172   0.91105038   503815 
  302000   0.99402436   -1.9566074   -1.9566074    -1.046011  0.063705823   -1.9566074   0.91059643   503804 
  303000    0.9946953   -1.9566563   -1.9566563   -1.0454236  0.057144235   -1.9566563   0.91123276   503792 
  304000   0.99502042   -1.9568229   -1.9568229   -1.0452706   0.06959873   -1.9568229   0.91155231   503780 
  305000   0.99358045   -1.9548663   -1.9548663   -1.0446114  0.063741555   -1.9548663   0.91025482   503768 
  306000   0.99495827    -1.955629    -1.955629   -1.0440902  0.054884647    -1.955629    0.9115388   503756 
  307000   0.99395713   -1.9541417   -1.9541417   -1.0435002  0.068386906   -1.9541417   0.91064148   503745 
  308000   0.99371424   -1.9552357   -1.9552357    -1.044795  0.060701514   -1.9552357   0.91044064   503733 
  309000   0.99606446   -1.9558115   -1.9558115   -1.0431959  0.066821411   -1.9558115   0.91261565   503721 
  310000   0.99343409   -1.9543094   -1.9543094   -1.0440821  0.066358298   -1.9543094   0.91022734   503709 
  311000   0.99604243   -1.9560992   -1.9560992   -1.0434621  0.055902848   -1.9560992   0.91263714   503698 
  312000   0.99435812   -1.9541898   -1.9541898   -1.0430743  0.067175295   -1.9541898   0.91111557   503686 
  313000   0.99337611   -1.9543402   -1.9543402   -1.0441027  0.068284248   -1.9543402   0.91023746   503674 
  314000    0.9930001   -1.9530392   -1.9530392   -1.0431246  0.063821378   -1.9530392    0.9099146   503662 
  315000   0.99217908    -1.952546    -1.952546   -1.0433638  0.070593092    -1.952546   0.90918213   503651 
  316000   0.99312073   -1.9539741   -1.9539741   -1.0439074   0.05928275   -1.9539741    0.9100667   503639 
  317000    0.9929219   -1.9533299   -1.9533299   -1.0434237  0.060106691   -1.9533299   0.90990617   503627 
  318000   0.99178617   -1.9523516   -1.9523516   -1.0434646   0.06865527   -1.9523516   0.90888705   503615 
  319000   0.99226843   -1.9528949   -1.9528949   -1.0435461  0.066828714   -1.9528949   0.90934887   503604 
  320000   0.99316004   -1.9537205   -1.9537205   -1.0435329  0.065029445   -1.9537205   0.91018765   503592 
  321000    0.9946966    -1.954833    -1.954833   -1.0432155  0.063866293    -1.954833   0.91161757   503580 
  322000   0.99325529   -1.9538257   -1.9538257   -1.0435074   0.05573621   -1.9538257   0.91031833   503568 
  323000     0.992618   -1.9534661   -1.9534661   -1.0437102   0.06064923   -1.9534661   0.90975594   503556 
  324000   0.99116122    -1.952698    -1.952698   -1.0442574  0.062672023    -1.952698   0.90844061   503545 
  325000    0.9913328   -1.9519059   -1.9519059   -1.0432864   0.07977304   -1.9519059   0.90861952   503533 
  326000    0.9932415   -1.9543929   -1.9543929   -1.0440022  0.063668734   -1.9543929   0.91039066   503521 
  327000   0.99320961   -1.9547297   -1.9547297   -1.0443466  0.066635588   -1.9547297   0.91038313   503509 
  328000   0.99207316   -1.9541343   -1.9541343    -1.044773  0.053689606   -1.9541343   0.90936131   503498 
  329000    0.9930216   -1.9531277   -1.9531277   -1.0428753  0.066987756   -1.9531277   0.91025238   503486 
  330000   0.99259775   -1.9538179   -1.9538179   -1.0439324  0.058608427   -1.9538179   0.90988554   503474 
  331000   0.99508015   -1.9565728   -1.9565728   -1.0443899   0.06237805   -1.9565728   0.91218283   503462 
  332000   0.99290187   -1.9543717   -1.9543717   -1.0441658  0.060471359   -1.9543717    0.9102059   503451 
  333000   0.99343254   -1.9547381   -1.9547381    -1.044024  0.074557379   -1.9547381   0.91071408   503439 
  334000   0.99285978   -1.9543993   -1.9543993   -1.0441886  0.070597862   -1.9543993   0.91021071   503427 
  335000   0.99173807   -1.9541306   -1.9541306   -1.0449266   0.06733667   -1.9541306   0.90920404   503415 
  336000   0.99199274   -1.9551406   -1.9551406   -1.0456832  0.055808575   -1.9551406    0.9094574   503404 
  337000   0.99206382   -1.9552131   -1.9552131   -1.0456689  0.067647763   -1.9552131   0.90954424   503392 
  338000   0.99244816   -1.9550092   -1.9550092   -1.0450909  0.061689356   -1.9550092    0.9099183   503380 
  339000   0.99305131   -1.9553877   -1.9553877   -1.0448947  0.059448754   -1.9553877     0.910493   503368 
  340000   0.99226793   -1.9557985   -1.9557985   -1.0460021  0.068960497   -1.9557985   0.90979644   503356 
  341000   0.98967204   -1.9544671   -1.9544671    -1.047031  0.072678886   -1.9544671   0.90743613   503345 
  342000   0.99105169   -1.9562132   -1.9562132   -1.0474904  0.062903888   -1.9562132   0.90872281   503333 
  343000    0.9920502   -1.9559251   -1.9559251    -1.046265  0.072087898   -1.9559251   0.90966006   503321 
  344000   0.99146089   -1.9557145   -1.9557145   -1.0465731  0.063154217   -1.9557145   0.90914136   503309 
  345000    0.9897257   -1.9538414   -1.9538414   -1.0462713  0.069318058   -1.9538414   0.90757008   503298 
  346000   0.99195728   -1.9546327   -1.9546327   -1.0449945   0.06385404   -1.9546327   0.90963811   503286 
  347000   0.99166942   -1.9554175   -1.9554175   -1.0460217  0.060403038   -1.9554175   0.90939582   503274 
  348000   0.99317084   -1.9569575   -1.9569575   -1.0461631  0.056969542   -1.9569575   0.91079439   503262 
  349000   0.99265872   -1.9555542   -1.9555542   -1.0452096  0.060864482   -1.9555542   0.91034464   503251 
  350000   0.99121689   -1.9544896   -1.9544896   -1.0454455  0.063874085   -1.9544896   0.90904405   503239 
  351000   0.99031529   -1.9537105   -1.9537105   -1.0454716  0.062787826   -1.9537105   0.90823886   503227 
  352000   0.99013989   -1.9536317   -1.9536317    -1.045532  0.062642611   -1.9536317   0.90809965   503215 
  353000   0.99077416   -1.9541223   -1.9541223   -1.0454211  0.064408959   -1.9541223   0.90870122   503204 
  354000   0.99281179   -1.9558773   -1.9558773   -1.0452855  0.054975303   -1.9558773   0.91059177   503192 
  355000   0.98954248   -1.9539419   -1.9539419    -1.046327  0.066325391   -1.9539419   0.90761486   503180 
  356000   0.99123565   -1.9560081   -1.9560081   -1.0468185  0.065968887   -1.9560081   0.90918953   503168 
  357000   0.99179873    -1.955802    -1.955802   -1.0460743  0.061333669    -1.955802    0.9097277   503156 
  358000    0.9914695    -1.955411    -1.955411   -1.0459654  0.063939109    -1.955411    0.9094456   503145 
  359000   0.99139219    -1.956783    -1.956783   -1.0473866  0.063211754    -1.956783   0.90939637   503133 
  360000   0.98941407   -1.9542864   -1.9542864   -1.0466829  0.068974244   -1.9542864    0.9076035   503121 
  361000   0.99067637   -1.9554706   -1.9554706   -1.0466875  0.057995912   -1.9554706    0.9087831   503109 
  362000   0.99066456   -1.9562178   -1.9562178   -1.0474257  0.064631568   -1.9562178   0.90879214   503098 
  363000   0.98991024   -1.9551287   -1.9551287   -1.0470068  0.055490211   -1.9551287   0.90812182   503086 
  364000   0.98870701   -1.9537117   -1.9537117   -1.0466721  0.066338547   -1.9537117   0.90703964   503074 
  365000   0.99040536   -1.9553924   -1.9553924   -1.0467731  0.061624768   -1.9553924   0.90861937   503062 
  366000   0.99159158   -1.9564543   -1.9564543   -1.0467268   0.06825297   -1.9564543   0.90972753   503051 
  367000   0.99274766   -1.9569684   -1.9569684   -1.0461585  0.062141828   -1.9569684    0.9108099   503039 
  368000   0.98953382   -1.9548069   -1.9548069    -1.046924  0.068844984   -1.9548069   0.90788297   503027 
  369000    0.9900631   -1.9560973   -1.9560973    -1.047707   0.06269214   -1.9560973   0.90839025   503015 
  370000   0.99101568    -1.956195    -1.956195   -1.0469109  0.061193893    -1.956195   0.90928414   503004 
  371000   0.99090695   -1.9565072   -1.9565072   -1.0473011  0.062101672   -1.9565072   0.90920607   502992 
  372000   0.98927603   -1.9554332   -1.9554332    -1.047702  0.075033208   -1.9554332   0.90773127   502980 
  373000   0.98994262   -1.9557102   -1.9557102   -1.0473456  0.064234755   -1.9557102   0.90836459   502968 
  374000    0.9900901   -1.9562154   -1.9562154   -1.0476938  0.074073202   -1.9562154   0.90852159   502956 
  375000   0.99112719   -1.9578316   -1.9578316   -1.0483385  0.069813091   -1.9578316   0.90949312   502945 
  376000   0.99092461   -1.9575447   -1.9575447   -1.0482158  0.067659418   -1.9575447   0.90932893   502933 
  377000   0.99151432   -1.9580567   -1.9580567   -1.0481649  0.065985508   -1.9580567   0.90989179   502921 
  378000   0.99132151   -1.9579482   -1.9579482   -1.0482116  0.055698306   -1.9579482   0.90973656   502909 
  379000   0.99084498    -1.956926    -1.956926   -1.0476069  0.062739286    -1.956926   0.90931914   502898 
  380000   0.99050124   -1.9549985   -1.9549985   -1.0459732  0.065694108   -1.9549985   0.90902537   502886 
  381000   0.99188097   -1.9575436   -1.9575436   -1.0472303   0.06106888   -1.9575436   0.91031333   502874 
  382000   0.98929643   -1.9559555   -1.9559555   -1.0479925  0.064536481   -1.9559555     0.907963   502862 
  383000   0.99102917   -1.9560503   -1.9560503   -1.0464771  0.071351369   -1.9560503   0.90957318   502851 
  384000   0.99257705   -1.9575948   -1.9575948   -1.0465792  0.059999778   -1.9575948   0.91101557   502839 
  385000   0.99200866   -1.9570954   -1.9570954   -1.0465798  0.064417511   -1.9570954   0.91051562   502827 
  386000   0.99045514   -1.9560673   -1.9560673   -1.0469559  0.068311672   -1.9560673   0.90911141   502815 
  387000    0.9898732   -1.9559115   -1.9559115   -1.0473143  0.073990795   -1.9559115   0.90859715   502804 
  388000   0.98899429   -1.9549462   -1.9549462   -1.0471341  0.072138395   -1.9549462   0.90781206   502792 
  389000   0.98957721   -1.9553487   -1.9553487   -1.0469798   0.06476401   -1.9553487   0.90836882   502780 
  390000   0.98854137   -1.9551216   -1.9551216   -1.0476819   0.05818881   -1.9551216   0.90743964   502768 
  391000   0.98952813   -1.9539688   -1.9539688   -1.0456016  0.072982286   -1.9539688   0.90836713   502756 
  392000   0.98764564   -1.9526543   -1.9526543   -1.0459954  0.061584702   -1.9526543   0.90665888   502745 
  393000   0.99168452   -1.9564484   -1.9564484   -1.0460601  0.056587752   -1.9564484    0.9103883   502733 
  394000   0.99051524   -1.9553685   -1.9553685   -1.0460319  0.062554187   -1.9553685   0.90933658   502721 
  395000   0.99043041   -1.9550343   -1.9550343   -1.0457539  0.070855961   -1.9550343    0.9092804   502709 
  396000   0.99037934   -1.9548421   -1.9548421   -1.0455887  0.073611821   -1.9548421   0.90925342   502698 
  397000    0.9909465   -1.9567096   -1.9567096   -1.0469138  0.052804882   -1.9567096   0.90979584   502686 
  398000   0.98900991   -1.9541624   -1.9541624   -1.0461228  0.066508064   -1.9541624   0.90803952   502674 
  399000   0.99098242   -1.9551931   -1.9551931   -1.0453208  0.070056725   -1.9551931   0.90987225   502662 
  400000   0.98771987   -1.9535394   -1.9535394   -1.0466428  0.060195796   -1.9535394   0.90689658   502651 
  401000   0.98775664   -1.9538867   -1.9538867   -1.0469347  0.053211069   -1.9538867     0.906952   502639 
  402000   0.98829486   -1.9534524   -1.9534524   -1.0459846  0.061142775   -1.9534524   0.90746785   502627 
  403000   0.98692596   -1.9524653   -1.9524653   -1.0462328  0.061924529   -1.9524653   0.90623254   502615 
  404000   0.98904111    -1.954924    -1.954924   -1.0467293  0.063843162    -1.954924   0.90819463   502604 
  405000   0.98935423   -1.9548688   -1.9548688    -1.046365  0.069496003   -1.9548688   0.90850385   502592 
  406000   0.98954909     -1.95423     -1.95423   -1.0455255  0.064572438     -1.95423   0.90870448   502580 
  407000   0.99038813   -1.9546246   -1.9546246   -1.0451279  0.066797585   -1.9546246   0.90949668   502568 
  408000   0.98993656   -1.9538152   -1.9538152   -1.0447115  0.073642761   -1.9538152   0.90910371   502556 
  409000   0.98972889   -1.9543448   -1.9543448   -1.0454119  0.061732556   -1.9543448   0.90893289   502545 
  410000   0.98914287   -1.9546541   -1.9546541   -1.0462377  0.059649789   -1.9546541    0.9084164   502533 
  411000   0.98691888   -1.9530356   -1.9530356   -1.0466401    0.0711161   -1.9530356   0.90639556   502521 
  412000   0.98857062   -1.9555607   -1.9555607   -1.0476265   0.06214979   -1.9555607   0.90793421   502509 
  413000   0.98585808   -1.9526575   -1.9526575   -1.0471948  0.068682339   -1.9526575   0.90546275   502498 
  414000   0.98634908   -1.9530088   -1.9530088   -1.0470734  0.057803331   -1.9530088   0.90593534   502486 
  415000   0.98762103   -1.9547078   -1.9547078   -1.0475825  0.062650704   -1.9547078   0.90712526   502474 
  416000   0.98851646   -1.9548036   -1.9548036   -1.0468342  0.064508726   -1.9548036   0.90796939   502462 
  417000   0.98908874   -1.9555047   -1.9555047   -1.0469897  0.059040754   -1.9555047   0.90851493   502451 
  418000    0.9872458   -1.9544614   -1.9544614   -1.0476177   0.06340262   -1.9544614   0.90684378   502439 
  419000   0.98916921   -1.9559435   -1.9559435   -1.0473113  0.058508067   -1.9559435   0.90863225   502427 
  420000    0.9886395   -1.9557573   -1.9557573     -1.04759  0.068340334   -1.9557573   0.90816736   502415 
  421000   0.98806474   -1.9556079   -1.9556079   -1.0479486  0.060453386   -1.9556079   0.90765926   502404 
  422000   0.98994278   -1.9577264   -1.9577264   -1.0483202  0.064656218   -1.9577264   0.90940619   502392 
  423000   0.98901652   -1.9566454   -1.9566454   -1.0480684   0.07767622   -1.9566454   0.90857699   502380 
  424000    0.9889432   -1.9568289   -1.9568289   -1.0482976   0.07068084   -1.9568289   0.90853133   502368 
  425000   0.98815315   -1.9559174   -1.9559174   -1.0480902  0.073357045   -1.9559174    0.9078272   502356 
  426000   0.98767157   -1.9563493   -1.9563493   -1.0489446  0.069578986   -1.9563493   0.90740463   502345 
  427000   0.98786182   -1.9559536   -1.9559536   -1.0483525  0.062120577   -1.9559536   0.90760111   502333 
  428000   0.98979179   -1.9574996   -1.9574996   -1.0481036  0.069146129   -1.9574996     0.909396   502321 
  429000   0.98785753   -1.9559273   -1.9559273   -1.0482867  0.067257921   -1.9559273   0.90764053   502309 
  430000   0.99043885    -1.957097    -1.957097   -1.0470648  0.065516318    -1.957097   0.91003217   502298 
  431000   0.98967744   -1.9574036   -1.9574036   -1.0480493  0.063984047   -1.9574036    0.9093543   502286 
  432000   0.98926493   -1.9571002   -1.9571002   -1.0481032  0.072643156   -1.9571002   0.90899698   502274 
  433000   0.98996135   -1.9579315   -1.9579315   -1.0482729  0.059121359   -1.9579315   0.90965862   502262 
  434000   0.98769665   -1.9563432   -1.9563432   -1.0487456  0.059231412   -1.9563432   0.90759751   502251 
  435000    0.9850454    -1.955729    -1.955729   -1.0505461  0.058742357    -1.955729   0.90518289   502239 
  436000   0.98702017   -1.9563109   -1.9563109   -1.0492917  0.069341151   -1.9563109   0.90701924   502227 
  437000   0.98554097   -1.9548298   -1.9548298   -1.0491482  0.064842477   -1.9548298   0.90568157   502215 
  438000   0.98601741   -1.9555648   -1.9555648   -1.0494255  0.068398236   -1.9555648   0.90613925   502204 
  439000   0.98805989   -1.9560562   -1.9560562   -1.0480183  0.060550151   -1.9560562   0.90803796   502192 
  440000   0.98699174     -1.95524     -1.95524   -1.0481621  0.066290672     -1.95524   0.90707799   502180 
  441000   0.98828284   -1.9557552   -1.9557552   -1.0474689  0.068870593   -1.9557552   0.90828626   502168 
  442000    0.9888813   -1.9568853   -1.9568853   -1.0480273  0.066133142   -1.9568853     0.908858   502156 
  443000   0.98819228    -1.956305    -1.956305   -1.0480604  0.065082234    -1.956305   0.90824463   502145 
  444000   0.98743879   -1.9547238   -1.9547238     -1.04715  0.061301458   -1.9547238   0.90757379   502133 
  445000    0.9874648   -1.9555919   -1.9555919   -1.0479725  0.065766369   -1.9555919   0.90761939   502121 
  446000   0.98843653    -1.955456    -1.955456   -1.0469218  0.065342526    -1.955456   0.90853426   502109 
  447000   0.98545802   -1.9541582   -1.9541582   -1.0483418  0.065186943   -1.9541582   0.90581636   502098 
  448000   0.98863363   -1.9555212   -1.9555212   -1.0467642  0.068648995   -1.9555212   0.90875705   502086 
  449000   0.98972184   -1.9570943   -1.9570943   -1.0473152  0.065949415   -1.9570943   0.90977908   502074 
  450000   0.98714301   -1.9553607   -1.9553607   -1.0479305  0.063374368   -1.9553607   0.90743024   502062 
  451000   0.98817446   -1.9556411   -1.9556411   -1.0472428  0.073336364   -1.9556411    0.9083983   502051 
  452000   0.98534114   -1.9543661   -1.9543661   -1.0485507  0.069409548   -1.9543661   0.90581537   502039 
  453000   0.98873849   -1.9566604   -1.9566604   -1.0477002  0.063027246   -1.9566604   0.90896025   502027 
  454000   0.98888613   -1.9572866   -1.9572866   -1.0481689  0.049138438   -1.9572866   0.90911771   502015 
  455000   0.98540669   -1.9546482   -1.9546482   -1.0487094  0.067623733   -1.9546482   0.90593879   502004 
  456000   0.98610663   -1.9547017   -1.9547017   -1.0480977  0.065634435   -1.9547017   0.90660395   501992 
  457000   0.98822848   -1.9567281   -1.9567281   -1.0481517  0.072114347   -1.9567281   0.90857645   501980 
  458000   0.98684861   -1.9565805   -1.9565805    -1.049251  0.068959713   -1.9565805   0.90732949   501968 
  459000   0.98646634   -1.9561276   -1.9561276   -1.0491279   0.06324729   -1.9561276   0.90699971   501956 
  460000   0.98604379   -1.9546873   -1.9546873   -1.0480563  0.061481232   -1.9546873   0.90663106   501945 
  461000   0.98686967   -1.9554083   -1.9554083   -1.0479962  0.064179965   -1.9554083   0.90741212   501933 
  462000   0.98502627   -1.9551826   -1.9551826   -1.0494438  0.066979655   -1.9551826    0.9057388   501921 
  463000   0.98466291   -1.9552963   -1.9552963   -1.0498699  0.064823125   -1.9552963   0.90542634   501909 
  464000   0.98592313   -1.9564414   -1.9564414   -1.0498364  0.062865144   -1.9564414   0.90660501   501898 
  465000   0.98724437   -1.9572958   -1.9572958   -1.0494541  0.069632927   -1.9572958   0.90784167   501886 
  466000   0.98529026   -1.9554627   -1.9554627   -1.0493963  0.056741732   -1.9554627   0.90606639   501874 
  467000   0.98494413   -1.9552837   -1.9552837    -1.049514   0.07121123   -1.9552837   0.90576974   501862 
  468000   0.98496844   -1.9559992   -1.9559992   -1.0501872  0.061806048   -1.9559992   0.90581195   501851 
  469000   0.98284545   -1.9546923   -1.9546923   -1.0508111  0.058459842   -1.9546923   0.90388119   501839 
  470000   0.98390589    -1.955754    -1.955754   -1.0508759  0.063630574    -1.955754   0.90487807   501827 
  471000   0.98399433   -1.9554543   -1.9554543   -1.0504733  0.053258801   -1.9554543   0.90498104   501815 
  472000   0.98289594   -1.9546314   -1.9546314   -1.0506407  0.068067631   -1.9546314   0.90399067   501804 
  473000   0.98429482   -1.9566628   -1.9566628   -1.0513639   0.06222641   -1.9566628    0.9052989   501792 
  474000   0.98462752   -1.9563495   -1.9563495   -1.0507229  0.064934959   -1.9563495   0.90562656   501780 
  475000   0.98597086   -1.9570131   -1.9570131   -1.0501293  0.061365899   -1.9570131    0.9068838   501768 
  476000   0.98765909    -1.958464    -1.958464   -1.0500056  0.058484757    -1.958464   0.90845834   501756 
  477000   0.98701311   -1.9581513   -1.9581513   -1.0502672  0.061601348   -1.9581513   0.90788407   501745 
  478000   0.98597495   -1.9575784   -1.9575784   -1.0506276  0.067170518   -1.9575784   0.90695083   501733 
  479000   0.98639788   -1.9574564   -1.9574564   -1.0500949  0.077047501   -1.9574564   0.90736156   501721 
  480000   0.98669833   -1.9583236   -1.9583236    -1.050664  0.059791401   -1.9583236   0.90765964   501709 
  481000   0.98553627   -1.9572146   -1.9572146   -1.0506041  0.062906644   -1.9572146   0.90661055   501698 
  482000   0.98411093    -1.956245    -1.956245    -1.050924  0.074438101    -1.956245   0.90532101   501686 
  483000   0.98364845    -1.956688    -1.956688   -1.0517707  0.066075697    -1.956688   0.90491721   501674 
  484000   0.98380451   -1.9575638   -1.9575638   -1.0524814  0.057353098   -1.9575638   0.90508242   501662 
  485000    0.9827815   -1.9574856   -1.9574856   -1.0533245  0.066530356   -1.9574856    0.9041611   501651 
  486000   0.98194502    -1.956427    -1.956427   -1.0530138  0.062089402    -1.956427   0.90341314   501639 
  487000   0.98402052   -1.9575786   -1.9575786   -1.0522343  0.054882312   -1.9575786   0.90534431   501627 
  488000   0.98472188   -1.9571365   -1.9571365   -1.0511253  0.057171217   -1.9571365   0.90601126   501615 
  489000   0.98630072   -1.9582025   -1.9582025   -1.0507187  0.065122729   -1.9582025   0.90748381   501604 
  490000   0.98836786   -1.9594792   -1.9594792   -1.0500717  0.075253021   -1.9594792   0.90940751   501592 
  491000   0.98569357   -1.9574395   -1.9574395   -1.0504709  0.069256126   -1.9574395   0.90696857   501580 
  492000    0.9842986   -1.9559169   -1.9559169   -1.0502102  0.063244294   -1.9559169   0.90570669   501568 
  493000   0.98495404   -1.9577024   -1.9577024   -1.0513709  0.060718356   -1.9577024   0.90633147   501556 
  494000   0.98665136   -1.9583492   -1.9583492    -1.050436  0.061530178   -1.9583492   0.90791322   501545 
  495000   0.98538012   -1.9576778   -1.9576778   -1.0509126  0.073714895   -1.9576778   0.90676513   501533 
  496000   0.98538684   -1.9577503   -1.9577503   -1.0509573  0.052994597   -1.9577503     0.906793   501521 
  497000   0.98560363   -1.9576206   -1.9576206   -1.0506064  0.066901242   -1.9576206    0.9070142   501509 
  498000   0.98591756   -1.9578444   -1.9578444   -1.0505214  0.071439413   -1.9578444     0.907323   501498 
  499000   0.98357174   -1.9555394   -1.9555394   -1.0503535  0.067648251   -1.9555394   0.90518585   501486 
  500000   0.98376704    -1.955229    -1.955229   -1.0498417  0.064215793    -1.955229   0.90538725   501474 
  501000   0.98563455   -1.9557608   -1.9557608   -1.0486332   0.05990994   -1.9557608   0.90712768   501462 
  502000   0.98554272   -1.9570786   -1.9570786   -1.0500155  0.066746233   -1.9570786   0.90706306   501451 
  503000   0.98568077   -1.9561855   -1.9561855   -1.0489737  0.061619729   -1.9561855   0.90721182   501439 
  504000   0.98311211   -1.9551909   -1.9551909   -1.0503216  0.068553982   -1.9551909   0.90486931   501427 
  505000   0.98412357   -1.9565079   -1.9565079   -1.0506859  0.057261402   -1.9565079   0.90582195   501415 
  506000   0.98381613   -1.9550675   -1.9550675   -1.0495087  0.069067346   -1.9550675   0.90555883   501404 
  507000   0.98385832   -1.9556946   -1.9556946   -1.0500753  0.063702194   -1.9556946   0.90561934   501392 
  508000   0.98176891   -1.9548563   -1.9548563   -1.0511386  0.063918143   -1.9548563   0.90371771   501380 
  509000   0.98304703   -1.9554005   -1.9554005   -1.0504846  0.066838451   -1.9554005   0.90491588   501368 
  510000   0.98237739   -1.9554622   -1.9554622   -1.0511411  0.064648568   -1.9554622   0.90432111   501356 
  511000   0.98220537   -1.9560731   -1.9560731   -1.0518905  0.067709311   -1.9560731   0.90418259   501345 
  512000   0.98191743   -1.9554632   -1.9554632    -1.051524  0.059456139   -1.9554632   0.90393916   501333 
  513000   0.98148677   -1.9545747   -1.9545747   -1.0510104  0.061332459   -1.9545747   0.90356433   501321 
  514000   0.98393806    -1.956062    -1.956062   -1.0502193  0.057211074    -1.956062   0.90584269   501309 
  515000   0.98408346   -1.9565823   -1.9565823   -1.0505859  0.057830103   -1.9565823   0.90599643   501298 
  516000   0.98292347   -1.9556708   -1.9556708   -1.0507206  0.055793521   -1.9556708   0.90495014   501286 
  517000   0.98434731   -1.9555097   -1.9555097    -1.049227  0.066566745   -1.9555097   0.90628273   501274 
  518000   0.98399676   -1.9550061   -1.9550061   -1.0490244  0.067924638   -1.9550061   0.90598167   501262 
  519000   0.98529303   -1.9569909   -1.9569909   -1.0497958  0.063753618   -1.9569909   0.90719507   501251 
  520000   0.98447501    -1.956124    -1.956124   -1.0496604  0.065422492    -1.956124    0.9064636   501239 
  521000   0.98422292   -1.9555784   -1.9555784   -1.0493252  0.069625914   -1.9555784   0.90625318   501227 
  522000   0.98458812   -1.9568021   -1.9568021   -1.0501909  0.063423104   -1.9568021   0.90661116   501215 
  523000   0.98351127   -1.9574102   -1.9574102   -1.0517707  0.060724299   -1.9574102   0.90563946   501204 
  524000   0.98128104   -1.9553768   -1.9553768   -1.0517694  0.058990308   -1.9553768   0.90360745   501192 
  525000   0.98294307   -1.9568839   -1.9568839   -1.0517243  0.066961599   -1.9568839   0.90515959   501180 
  526000   0.98391993   -1.9575074   -1.9575074   -1.0514265  0.061853592   -1.9575074   0.90608085   501168 
  527000   0.98322425   -1.9574078   -1.9574078   -1.0519459  0.058889937   -1.9574078   0.90546189   501156 
  528000   0.98136925   -1.9562826   -1.9562826   -1.0525091  0.061782844   -1.9562826   0.90377343   501145 
  529000    0.9827226   -1.9571145   -1.9571145    -1.052073  0.066290944   -1.9571145   0.90504144   501133 
  530000    0.9844298   -1.9593174   -1.9593174    -1.052682  0.065876855   -1.9593174    0.9066354   501121 
  531000   0.98327899   -1.9578493   -1.9578493   -1.0522521  0.068271945   -1.9578493   0.90559723   501109 
  532000   0.98586364   -1.9604009   -1.9604009   -1.0524033  0.058174905   -1.9604009   0.90799761   501098 
  533000   0.98617301   -1.9595725   -1.9595725   -1.0512682  0.067690518   -1.9595725    0.9083043   501086 
  534000   0.98294656   -1.9584585   -1.9584585   -1.0531042  0.072864122   -1.9584585   0.90535429   501074 
  535000   0.98662198   -1.9609036   -1.9609036   -1.0521422  0.061372873   -1.9609036   0.90876135   501062 
  536000   0.98644412   -1.9610187   -1.9610187   -1.0524013  0.067329933   -1.9610187   0.90861747   501051 
  537000   0.98488737   -1.9600789   -1.9600789   -1.0528736  0.061327475   -1.9600789   0.90720527   501039 
  538000   0.98523519   -1.9602542   -1.9602542   -1.0527068  0.069265295   -1.9602542   0.90754739   501027 
  539000   0.98489616   -1.9595216   -1.9595216   -1.0522648  0.067416687   -1.9595216   0.90725682   501015 
  540000   0.98515489   -1.9599545   -1.9599545   -1.0524394  0.067221699   -1.9599545   0.90751508   501004 
  541000   0.98346434   -1.9587407   -1.9587407   -1.0527612  0.066327312   -1.9587407   0.90597946   500992 
  542000   0.98526649   -1.9602016   -1.9602016   -1.0525402   0.05534534   -1.9602016   0.90766136   500980 
  543000   0.98368205   -1.9586458   -1.9586458   -1.0524223  0.072746275   -1.9586458   0.90622343   500968 
  544000   0.98426659    -1.960364    -1.960364   -1.0535804  0.075651308    -1.960364   0.90678366   500956 
  545000   0.98238256   -1.9580521   -1.9580521   -1.0529843  0.073704667   -1.9580521   0.90506782   500945 
  546000    0.9853258   -1.9603195   -1.9603195   -1.0525183   0.06067338   -1.9603195   0.90780117   500933 
  547000   0.98425646   -1.9591449   -1.9591449   -1.0523072  0.069422912   -1.9591449   0.90683768   500921 
  548000   0.98166168   -1.9578628   -1.9578628   -1.0533941  0.066879437   -1.9578628   0.90446868   500909 
  549000   0.98301239   -1.9585729   -1.9585729   -1.0528399  0.071394728   -1.9585729   0.90573306   500898 
  550000   0.97963457   -1.9565723   -1.9565723   -1.0539299  0.070027029   -1.9565723   0.90264241   500886 
  551000   0.98040731   -1.9575865   -1.9575865   -1.0542104  0.064455653   -1.9575865   0.90337606   500874 
  552000   0.98036797   -1.9574584   -1.9574584   -1.0540969  0.055701015   -1.9574584   0.90336146   500862 
  553000   0.98146345   -1.9575274   -1.9575274   -1.0531367  0.056922353   -1.9575274   0.90439075   500851 
  554000    0.9808085    -1.956802    -1.956802   -1.0529931  0.063990384    -1.956802   0.90380889   500839 
  555000   0.97999931   -1.9559521   -1.9559521   -1.0528672  0.063153674   -1.9559521   0.90308486   500827 
  556000   0.98159372   -1.9571115   -1.9571115   -1.0525357  0.057739439   -1.9571115   0.90457581   500815 
  557000    0.9817471   -1.9577105   -1.9577105   -1.0529735  0.074897319   -1.9577105   0.90473702   500804 
  558000   0.98082938   -1.9562905   -1.9562905   -1.0523776  0.067776164   -1.9562905   0.90391295   500792 
  559000   0.98423627   -1.9574011   -1.9574011   -1.0503266  0.063428362   -1.9574011   0.90707441   500780 
  560000   0.98480891   -1.9581677   -1.9581677   -1.0505438  0.061573184   -1.9581677    0.9076239   500768 
  561000   0.98381206   -1.9568797   -1.9568797   -1.0501528   0.06947709   -1.9568797   0.90672691   500756 
  562000   0.98187931    -1.955394    -1.955394   -1.0504285  0.062511826    -1.955394   0.90496548   500745 
  563000    0.9847469   -1.9567641   -1.9567641   -1.0491339  0.063246237   -1.9567641   0.90763019   500733 
  564000   0.98418324   -1.9569627   -1.9569627   -1.0498303  0.067143506   -1.9569627   0.90713241   500721 
  565000   0.98256443   -1.9565246   -1.9565246   -1.0508625  0.069544682   -1.9565246   0.90566204   500709 
  566000   0.98300948    -1.956862    -1.956862   -1.0507699  0.065222994    -1.956862   0.90609217   500698 
  567000   0.98100577   -1.9551872   -1.9551872   -1.0509203   0.07073825   -1.9551872   0.90426691   500686 
  568000     0.982312   -1.9558137   -1.9558137   -1.0503211  0.075507882   -1.9558137   0.90549267   500674 
  569000   0.98364667   -1.9574806   -1.9574806   -1.0507359  0.052679988   -1.9574806   0.90674469   500662 
  570000    0.9825323   -1.9570286   -1.9570286   -1.0512913  0.062699647   -1.9570286   0.90573734   500651 
  571000   0.98278357   -1.9563576   -1.9563576   -1.0503669  0.068721113   -1.9563576   0.90599069   500639 
  572000   0.98281922   -1.9557899   -1.9557899   -1.0497446  0.063825697   -1.9557899   0.90604527   500627 
  573000   0.98355068    -1.956619    -1.956619   -1.0498776  0.067852691    -1.956619   0.90674133   500615 
  574000   0.98187505   -1.9549649   -1.9549649   -1.0497484  0.067725577   -1.9549649   0.90521644   500604 
  575000    0.9826578   -1.9548442   -1.9548442   -1.0488844  0.071652982   -1.9548442    0.9059598   500592 
  576000   0.98256999   -1.9546712   -1.9546712   -1.0487706  0.062296313   -1.9546712   0.90590056   500580 
  577000   0.98261267   -1.9562311   -1.9562311   -1.0502695  0.067193562   -1.9562311   0.90596162   500568 
  578000   0.98089332   -1.9544774   -1.9544774   -1.0500794  0.064877769   -1.9544774   0.90439808   500556 
  579000   0.98113178   -1.9546004   -1.9546004   -1.0499626  0.061160882   -1.9546004   0.90463782   500545 
  580000   0.97981802     -1.95419     -1.95419   -1.0507419  0.071530317     -1.95419   0.90344815   500533 
  581000    0.9782938   -1.9530809   -1.9530809   -1.0510165   0.05964006   -1.9530809   0.90206436   500521 
  582000   0.97882135   -1.9540939   -1.9540939   -1.0515214  0.057842455   -1.9540939   0.90257244   500509 
  583000   0.98013258   -1.9545858   -1.9545858   -1.0507845  0.063143915   -1.9545858   0.90380139   500498 
  584000   0.97838914   -1.9525753   -1.9525753   -1.0503599  0.062177412   -1.9525753   0.90221536   500486 
  585000   0.98061793   -1.9548164   -1.9548164   -1.0505241  0.066068292   -1.9548164    0.9042923   500474 
  586000      0.98198   -1.9550217   -1.9550217   -1.0494516  0.053063543   -1.9550217   0.90557007   500462 
  587000   0.97865049   -1.9527235   -1.9527235    -1.050204  0.060600551   -1.9527235   0.90251948   500451 
  588000   0.97857006   -1.9537378   -1.9537378   -1.0512708  0.060823476   -1.9537378   0.90246694   500439 
  589000   0.97954868   -1.9554415   -1.9554415   -1.0520504  0.058288786   -1.9554415   0.90339112   500427 
  590000   0.98010439   -1.9557528   -1.9557528   -1.0518275   0.06216234   -1.9557528    0.9039253   500415 
  591000    0.9794377   -1.9549533   -1.9549533    -1.051623  0.053175567   -1.9549533   0.90333028   500404 
  592000   0.97929153    -1.954526    -1.954526   -1.0513089  0.069998649    -1.954526   0.90321714   500392 
  593000   0.98163428    -1.956937    -1.956937   -1.0515374  0.059712437    -1.956937   0.90539961   500380 
  594000   0.98210282   -1.9570936   -1.9570936   -1.0512401  0.069672005   -1.9570936   0.90585348   500368 
  595000   0.98324331   -1.9581849   -1.9581849   -1.0512577     0.068954   -1.9581849   0.90692717   500356 
  596000   0.98247376   -1.9571033   -1.9571033    -1.050866  0.063403676   -1.9571033   0.90623728   500345 
  597000   0.98139627   -1.9563832   -1.9563832   -1.0511181  0.065175092   -1.9563832   0.90526511   500333 
  598000   0.98113281   -1.9563498   -1.9563498    -1.051306  0.066143501   -1.9563498    0.9050438   500321 
  599000   0.98322394   -1.9592744   -1.9592744   -1.0522799  0.061565923   -1.9592744    0.9069945   500309 
  600000   0.98405098   -1.9598125   -1.9598125   -1.0520351   0.06090042   -1.9598125   0.90777739   500298 
  601000   0.98323527   -1.9587951   -1.9587951   -1.0517485  0.062549738   -1.9587951   0.90704665   500286 
  602000   0.98273252   -1.9586374   -1.9586374   -1.0520328   0.07530479   -1.9586374    0.9066046   500274 
  603000   0.98179737   -1.9577923   -1.9577923   -1.0520287  0.071191067   -1.9577923   0.90576363   500262 
  604000   0.98244395   -1.9577143   -1.9577143   -1.0513342  0.069339598   -1.9577143   0.90638006   500251 
  605000     0.983208   -1.9583966   -1.9583966   -1.0512899  0.079645739   -1.9583966   0.90710672   500239 
  606000   0.98259058   -1.9587298   -1.9587298    -1.052171  0.063942031   -1.9587298   0.90655883   500227 
  607000   0.98327274   -1.9596833   -1.9596833   -1.0524733  0.067222337   -1.9596833   0.90720997   500215 
  608000   0.98226139   -1.9598347   -1.9598347   -1.0535379  0.064677799   -1.9598347   0.90629678   500204 
  609000    0.9823948   -1.9602416   -1.9602416   -1.0537999  0.067948729   -1.9602416   0.90644162   500192 
  610000   0.98129563   -1.9587119   -1.9587119   -1.0532627  0.066039232   -1.9587119   0.90544916   500180 
  611000   0.97848201   -1.9571379   -1.9571379   -1.0542633  0.065610167   -1.9571379   0.90287467   500168 
  612000    0.9795941   -1.9572992   -1.9572992   -1.0533767  0.058600859   -1.9572992   0.90392251   500156 
  613000   0.97883595   -1.9568394   -1.9568394   -1.0535966  0.067842075   -1.9568394    0.9032428   500145 
  614000   0.97723265   -1.9560242   -1.9560242   -1.0542392  0.053829891   -1.9560242   0.90178495   500133 
  615000   0.97781609   -1.9562834   -1.9562834   -1.0539384  0.066441738   -1.9562834     0.902345   500121 
  616000   0.97798838   -1.9576584   -1.9576584   -1.0551328  0.048761593   -1.9576584   0.90252564   500109 
  617000   0.97659187   -1.9561645   -1.9561645   -1.0549078  0.067634887   -1.9561645   0.90125671   500098 
  618000   0.97684236   -1.9560854   -1.9560854   -1.0545759  0.057546816   -1.9560854   0.90150951   500086 
  619000   0.97874824   -1.9568152   -1.9568152   -1.0535251  0.071056177   -1.9568152   0.90329008   500074 
  620000   0.97969382   -1.9566948   -1.9566948   -1.0525104  0.067901878   -1.9566948   0.90418447   500062 
  621000   0.97797787   -1.9554738   -1.9554738   -1.0528531  0.064770928   -1.9554738   0.90262063   500051 
  622000    0.9797119   -1.9564072   -1.9564072   -1.0521644  0.067877646   -1.9564072   0.90424274   500039 
  623000   0.98016086   -1.9565705   -1.9565705   -1.0518917  0.067353616   -1.9565705   0.90467882   500027 
  624000   0.97934417   -1.9564892   -1.9564892   -1.0525424  0.059817307   -1.9564892   0.90394673   500015 
  625000   0.97917187   -1.9574047   -1.9574047   -1.0535972  0.067833855   -1.9574047   0.90380757   500004 
  626000   0.97820575     -1.95706     -1.95706   -1.0541225  0.064071466     -1.95706   0.90293748   499992 
  627000   0.97809522   -1.9567285   -1.9567285   -1.0538714  0.063510496   -1.9567285   0.90285713   499980 
  628000   0.97856624   -1.9572348   -1.9572348   -1.0539212  0.064738336   -1.9572348    0.9033136   499968 
  629000   0.97883415   -1.9571017   -1.9571017   -1.0535191  0.064167307   -1.9571017   0.90358259   499956 
  630000   0.97706922   -1.9562184   -1.9562184   -1.0542452  0.063481918   -1.9562184   0.90197319   499945 
  631000   0.97675343   -1.9563658   -1.9563658   -1.0546625  0.071485584   -1.9563658   0.90170331   499933 
  632000   0.97766738   -1.9566829   -1.9566829   -1.0541142  0.066089647   -1.9566829    0.9025687   499921 
  633000   0.97758917   -1.9575765   -1.9575765   -1.0550583  0.053210567   -1.9575765   0.90251816   499909 
  634000   0.97690491    -1.956867    -1.956867   -1.0549607  0.065761504    -1.956867    0.9019063   499898 
  635000   0.97740025   -1.9580068   -1.9580068   -1.0556216  0.064237875   -1.9580068   0.90238527   499886 
  636000   0.97895592   -1.9590819   -1.9590819   -1.0552387  0.061065551   -1.9590819   0.90384325   499874 
  637000   0.98036327   -1.9594143   -1.9594143   -1.0542499  0.064916869   -1.9594143   0.90516434   499862 
  638000   0.97956828   -1.9589526   -1.9589526   -1.0545024  0.062354138   -1.9589526   0.90445023   499851 
  639000   0.97911476   -1.9594312   -1.9594312    -1.055378  0.065209522   -1.9594312   0.90405319   499839 
  640000   0.97832792   -1.9591655   -1.9591655   -1.0558171  0.060438649   -1.9591655   0.90334836   499827 
  641000   0.97987432   -1.9604509   -1.9604509    -1.055653  0.066509065   -1.9604509   0.90479797   499815 
  642000   0.98007861   -1.9602657   -1.9602657   -1.0552592  0.061159865   -1.9602657   0.90500652   499804 
  643000   0.97969483    -1.959901    -1.959901   -1.0552271  0.060442473    -1.959901   0.90467386   499792 
  644000   0.97812118   -1.9581125   -1.9581125   -1.0548701  0.058978901   -1.9581125    0.9032424   499780 
  645000   0.97752495   -1.9580941   -1.9580941   -1.0553806  0.061037932   -1.9580941   0.90271349   499768 
  646000   0.97736943   -1.9571477   -1.9571477   -1.0545562  0.064990037   -1.9571477   0.90259155   499756 
  647000   0.97706893   -1.9571629   -1.9571629    -1.054829  0.069034732   -1.9571629   0.90233389   499745 
  648000   0.97745175   -1.9570352   -1.9570352   -1.0543261  0.059186507   -1.9570352   0.90270911   499733 
  649000   0.97801319   -1.9570884   -1.9570884   -1.0538391  0.069299391   -1.9570884   0.90324931   499721 
  650000   0.97673766   -1.9569483   -1.9569483   -1.0548554  0.068973695   -1.9569483   0.90209294   499709 
  651000   0.97888578   -1.9578171   -1.9578171   -1.0537203  0.058445227   -1.9578171    0.9040968   499698 
  652000   0.97898569   -1.9579511   -1.9579511   -1.0537403  0.069079242   -1.9579511   0.90421079   499686 
  653000    0.9795469    -1.958544    -1.958544   -1.0537932  0.064435556    -1.958544   0.90475086   499674 
  654000     0.977719   -1.9585655   -1.9585655   -1.0554813  0.062419863   -1.9585655   0.90308423   499662 
  655000   0.97507876   -1.9569682   -1.9569682   -1.0563029   0.07170424   -1.9569682   0.90066536   499651 
  656000   0.97565358   -1.9573456   -1.9573456   -1.0561277  0.055562696   -1.9573456   0.90121796   499639 
  657000   0.97416476   -1.9564938   -1.9564938   -1.0566295   0.06110711   -1.9564938   0.89986434   499627 
[...]
13304000   0.47963687   -1.3335834   -1.3335834  -0.70263295  0.036349746   -1.3335834   0.63095041   350839 
13305000   0.47921567   -1.3325218   -1.3325218  -0.70210387  0.030097411   -1.3325218   0.63041789   350827 
13306000   0.47972097   -1.3339313   -1.3339313  -0.70282712  0.043317331   -1.3339313   0.63110421   350815 
13307000    0.4789259   -1.3321821   -1.3321821  -0.70210409  0.035170199   -1.3321821     0.630078   350804 
13308000   0.47825294   -1.3317291   -1.3317291  -0.70251498  0.036096202   -1.3317291   0.62921417   350792 
13309000   0.47984307   -1.3339248   -1.3339248  -0.70259697  0.035697456   -1.3339248   0.63132782   350780 
13310000   0.47930081   -1.3341292   -1.3341292  -0.70349328  0.031736851   -1.3341292   0.63063595   350768 
13311000   0.47983116    -1.333836    -1.333836  -0.70248063  0.042009399    -1.333836   0.63135535   350756 
13312000   0.48065486   -1.3348938   -1.3348938   -0.7024348  0.037561317   -1.3348938     0.632459   350745 
13313000   0.47914708   -1.3337473   -1.3337473  -0.70325074  0.026293401   -1.3337473   0.63049658   350733 
13314000   0.47906948    -1.333785    -1.333785  -0.70336894  0.032452228    -1.333785   0.63041604   350721 
13315000   0.47975531   -1.3343689   -1.3343689  -0.70302871  0.044922986   -1.3343689   0.63134014   350709 
13316000     0.480101   -1.3341006   -1.3341006   -0.7022857  0.039182651   -1.3341006   0.63181487   350698 
13317000   0.48035526   -1.3334914   -1.3334914  -0.70132028  0.035258239   -1.3334914   0.63217111   350686 
13318000   0.48065955   -1.3347745   -1.3347745  -0.70218133  0.035604571   -1.3347745   0.63259322   350674 
13319000   0.47811081   -1.3332283   -1.3332283  -0.70396789  0.041933994   -1.3332283   0.62926037   350662 
13320000   0.47756619   -1.3313061   -1.3313061  -0.70274279   0.03693772   -1.3313061   0.62856329   350651 
13321000   0.47725188   -1.3312066   -1.3312066  -0.70303546  0.034648683   -1.3312066   0.62817111   350639 
13322000   0.47803101   -1.3316216   -1.3316216  -0.70240345  0.036866492   -1.3316216   0.62921815   350627 
13323000   0.47944087   -1.3332493   -1.3332493  -0.70215377  0.031933716   -1.3332493   0.63109551   350615 
13324000   0.48015917   -1.3323897   -1.3323897  -0.70032888  0.042212494   -1.3323897   0.63206084   350604 
13325000   0.48089366   -1.3319812   -1.3319812  -0.69893183  0.036664502   -1.3319812   0.63304936   350592 
13326000   0.47899088    -1.329902    -1.329902  -0.69933586  0.039609634    -1.329902   0.63056612   350580 
13327000   0.47863148   -1.3296681   -1.3296681  -0.69955356  0.036768895   -1.3296681   0.63011455   350568 
13328000   0.47896626   -1.3299785   -1.3299785  -0.69940165  0.033847924   -1.3299785   0.63057688   350556 
13329000   0.47834165   -1.3290056   -1.3290056  -0.69923133  0.041826795   -1.3290056   0.62977432   350545 
13330000   0.47866058   -1.3285774   -1.3285774  -0.69836159  0.036311347   -1.3285774   0.63021579   350533 
13331000   0.47893492   -1.3285171   -1.3285171  -0.69791855  0.035845795   -1.3285171   0.63059858   350521 
13332000    0.4793009   -1.3303007   -1.3303007  -0.69919865  0.035060244   -1.3303007   0.63110206   350509 
13333000   0.47827278   -1.3288745   -1.3288745  -0.69910641  0.038794548   -1.3288745   0.62976808   350498 
13334000    0.4768396   -1.3259506   -1.3259506  -0.69804816  0.041921782   -1.3259506   0.62790243   350486 
13335000   0.47776798   -1.3263215   -1.3263215    -0.697175  0.030009299   -1.3263215   0.62914647   350474 
13336000   0.47834915   -1.3260805   -1.3260805  -0.69614712  0.045025628   -1.3260805   0.62993334   350462 
13337000   0.47878147   -1.3272585   -1.3272585  -0.69673608  0.034429281   -1.3272585   0.63052245   350451 
13338000    0.4781962   -1.3272249   -1.3272249  -0.69745165  0.034337849   -1.3272249   0.62977326   350439 
13339000   0.47757242    -1.325876    -1.325876  -0.69690271   0.03518248    -1.325876   0.62897329   350427 
13340000   0.47779593   -1.3254075   -1.3254075  -0.69611829  0.025708965   -1.3254075   0.62928921   350415 
13341000   0.47745224   -1.3262216   -1.3262216  -0.69736527  0.035320648   -1.3262216   0.62885628   350404 
13342000   0.47680567   -1.3251747   -1.3251747  -0.69714846  0.034823562   -1.3251747   0.62802619   350392 
13343000   0.47691704   -1.3256625   -1.3256625  -0.69746805  0.032562741   -1.3256625    0.6281944   350380 
13344000   0.47658493   -1.3257474   -1.3257474  -0.69796895  0.027714328   -1.3257474   0.62777844   350368 
13345000   0.47643224   -1.3260003   -1.3260003  -0.69840153  0.036598763   -1.3260003   0.62759881   350356 
13346000   0.47856708   -1.3273448   -1.3273448  -0.69691397  0.031301341   -1.3273448    0.6304308   350345 
13347000    0.4771493   -1.3255873   -1.3255873  -0.69700265  0.039429942   -1.3255873   0.62858464   350333 
13348000   0.47851252   -1.3268516   -1.3268516  -0.69644945  0.035433775   -1.3268516   0.63040212   350321 
13349000   0.47837505   -1.3265674   -1.3265674  -0.69632482  0.031884991   -1.3265674    0.6302426   350309 
13350000   0.47823723   -1.3264831   -1.3264831  -0.69640234  0.039553897   -1.3264831    0.6300808   350298 
13351000   0.47931191   -1.3271024   -1.3271024  -0.69558404  0.036245704   -1.3271024   0.63151834   350286 
13352000   0.47837931   -1.3264696   -1.3264696  -0.69615844  0.038751196   -1.3264696   0.63031118   350274 
13353000   0.47830748   -1.3282046   -1.3282046  -0.69796649  0.032791219   -1.3282046   0.63023813   350262 
13354000   0.47748601   -1.3265381   -1.3265381   -0.6973626  0.033357201   -1.3265381   0.62917548   350251 
13355000   0.47840472   -1.3284294   -1.3284294  -0.69802177  0.035608729   -1.3284294   0.63040766   350239 
13356000   0.47796634   -1.3279185   -1.3279185  -0.69806693  0.040461203   -1.3279185   0.62985157   350227 
13357000   0.47739261   -1.3257914   -1.3257914  -0.69667436  0.033968069   -1.3257914   0.62911708   350215 
13358000   0.47728213   -1.3252033   -1.3252033  -0.69621209  0.033830342   -1.3252033   0.62899124   350204 
13359000   0.47885803   -1.3272556   -1.3272556  -0.69616591  0.030265738   -1.3272556   0.63108969   350192 
13360000   0.47905324   -1.3280722   -1.3280722  -0.69670363   0.03505164   -1.3280722   0.63136859   350180 
13361000   0.47749853   -1.3271001   -1.3271001  -0.69775898  0.036998857   -1.3271001   0.62934112   350168 
13362000   0.47769995   -1.3265965   -1.3265965  -0.69696829  0.046109792   -1.3265965   0.62962817   350156 
13363000   0.47930785   -1.3288101   -1.3288101   -0.6970428  0.029382219   -1.3288101   0.63176729   350145 
13364000   0.47727989   -1.3273227   -1.3273227  -0.69820688  0.031368748   -1.3273227   0.62911583   350133 
13365000   0.47849254   -1.3277724   -1.3277724  -0.69703656   0.03339728   -1.3277724   0.63073588   350121 
13366000   0.47793444   -1.3285552   -1.3285552  -0.69853337  0.032079603   -1.3285552   0.63002181   350109 
13367000    0.4774416   -1.3276737   -1.3276737   -0.6982818  0.031171625   -1.3276737    0.6293919   350098 
13368000   0.47663884   -1.3273662   -1.3273662  -0.69901102  0.032189655   -1.3273662   0.62835519   350086 
13369000   0.47784055   -1.3277885   -1.3277885  -0.69782749  0.036951868   -1.3277885   0.62996101   350074 
13370000   0.47909952   -1.3280624   -1.3280624  -0.69641996  0.039156548   -1.3280624   0.63164242   350062 
13371000   0.47871572   -1.3265875   -1.3265875  -0.69543127  0.046372087   -1.3265875   0.63115626   350051 
13372000   0.47931501   -1.3288445   -1.3288445  -0.69687644  0.037905599   -1.3288445   0.63196805   350039 
13373000   0.47860047   -1.3268963   -1.3268963  -0.69584877  0.039684814   -1.3268963   0.63104757   350027 
13374000   0.47810282   -1.3277482   -1.3277482  -0.69733514  0.034650496   -1.3277482   0.63041302   350015 
13375000   0.47782386   -1.3270029   -1.3270029  -0.69693792  0.035017679   -1.3270029   0.63006499   350004 
13376000   0.47731668   -1.3253033   -1.3253033  -0.69588553  0.035335818   -1.3253033   0.62941779   349992 
13377000   0.47811075    -1.327647    -1.327647   -0.6971605  0.035193084    -1.327647   0.63048653   349980 
13378000   0.47838275   -1.3277151   -1.3277151  -0.69684829  0.035011621   -1.3277151   0.63086684   349968 
13379000   0.47573946   -1.3263512   -1.3263512  -0.69894863  0.027204862   -1.3263512   0.62740252   349956 
13380000   0.47691643   -1.3274957   -1.3274957  -0.69852126  0.038502037   -1.3274957   0.62897447   349945 
13381000   0.47631494   -1.3262916   -1.3262916  -0.69808886  0.033036907   -1.3262916   0.62820275   349933 
13382000   0.47650541   -1.3258987   -1.3258987  -0.69742323   0.03638735   -1.3258987    0.6284755   349921 
13383000   0.47685784    -1.326067    -1.326067  -0.69710507  0.032176699    -1.326067    0.6289619   349909 
13384000   0.47741995   -1.3260336   -1.3260336  -0.69631052  0.036944484   -1.3260336    0.6297231   349898 
13385000   0.47582836   -1.3243667   -1.3243667  -0.69672136  0.035394606   -1.3243667    0.6276453   349886 
13386000    0.4773516   -1.3266212   -1.3266212  -0.69694508    0.0382894   -1.3266212   0.62967614   349874 
13387000   0.47677304   -1.3266471   -1.3266471  -0.69771259  0.028221938   -1.3266471   0.62893453   349862 
13388000   0.47705655   -1.3270206   -1.3270206  -0.69769233  0.028011852   -1.3270206   0.62932831   349851 
13389000   0.47755935   -1.3269192   -1.3269192  -0.69690599  0.034199449   -1.3269192   0.63001321   349839 
13390000    0.4781918    -1.327948    -1.327948  -0.69707883    0.0297277    -1.327948    0.6308692   349827 
13391000   0.47721544   -1.3261378   -1.3261378  -0.69653512   0.04492961   -1.3261378   0.62960271   349815 
13392000    0.4769104   -1.3254174   -1.3254174  -0.69619734  0.042891893   -1.3254174   0.62922004   349804 
13393000   0.47715712   -1.3261836   -1.3261836  -0.69661643  0.037020857   -1.3261836   0.62956716   349792 
13394000    0.4769612   -1.3248468   -1.3248468  -0.69551654  0.037106266   -1.3248468   0.62933025   349780 
13395000   0.47675253   -1.3248177   -1.3248177  -0.69574117  0.036265823   -1.3248177    0.6290765   349768 
13396000   0.47616152   -1.3249974   -1.3249974  -0.69667921  0.034255646   -1.3249974   0.62831821   349756 
13397000   0.47629664   -1.3240731   -1.3240731  -0.69555686  0.035935249   -1.3240731   0.62851627   349745 
13398000    0.4764304    -1.323844    -1.323844  -0.69512966  0.039164297    -1.323844   0.62871435   349733 
13399000    0.4773709    -1.325004    -1.325004   -0.6950269  0.032004093    -1.325004   0.62997709   349721 
13400000   0.47645786   -1.3233907   -1.3233907  -0.69459698   0.03672543   -1.3233907   0.62879374   349709 
13401000   0.47661408   -1.3225651   -1.3225651  -0.69354536  0.030057642   -1.3225651    0.6290197   349698 
13402000   0.47708658   -1.3227623   -1.3227623  -0.69309739  0.033076973   -1.3227623    0.6296649   349686 
13403000    0.4767366   -1.3228475   -1.3228475  -0.69362291  0.038086704   -1.3228475   0.62922458   349674 
13404000   0.47715715   -1.3228987   -1.3228987  -0.69309746  0.034930504   -1.3228987   0.62980126   349662 
13405000   0.47611535   -1.3211025   -1.3211025  -0.69265655  0.033282071   -1.3211025   0.62844596   349651 
13406000   0.47567246   -1.3206892   -1.3206892  -0.69280632  0.031724498   -1.3206892   0.62788291   349639 
13407000   0.47616979   -1.3210068   -1.3210068  -0.69244589  0.032188867   -1.3210068   0.62856096   349627 
13408000   0.47570703   -1.3196995   -1.3196995  -0.69172782  0.038790255   -1.3196995   0.62797165   349615 
13409000   0.47628875   -1.3200372   -1.3200372  -0.69127782  0.033951165   -1.3200372   0.62875935   349604 
13410000   0.47660746   -1.3198973   -1.3198973  -0.69069566  0.037302251   -1.3198973   0.62920168   349592 
13411000   0.47731349   -1.3204523   -1.3204523  -0.69029687  0.046503603   -1.3204523   0.63015539   349580 
13412000   0.47605656   -1.3190791   -1.3190791  -0.69056155  0.047216818   -1.3190791   0.62851755   349568 
13413000   0.47696038   -1.3201826   -1.3201826  -0.69045014   0.03069042   -1.3201826   0.62973244   349556 
13414000   0.47804995   -1.3221607   -1.3221607  -0.69096983  0.037702511   -1.3221607   0.63119086   349545 
13415000   0.47728415   -1.3217182   -1.3217182  -0.69151678  0.041143874   -1.3217182   0.63020139   349533 
13416000   0.47728234    -1.320823    -1.320823  -0.69060241  0.038856909    -1.320823   0.63022063   349521 
13417000   0.47675758   -1.3211757   -1.3211757  -0.69162636   0.04192437   -1.3211757   0.62954933   349509 
13418000   0.47696298   -1.3225657   -1.3225657  -0.69272533  0.031875757   -1.3225657   0.62984038   349498 
13419000   0.47502175   -1.3203737   -1.3203737  -0.69307523  0.034851309   -1.3203737   0.62729849   349486 
13420000    0.4761955   -1.3205508   -1.3205508  -0.69168073  0.040787881   -1.3205508    0.6288701   349474 
13421000   0.47583515   -1.3210468   -1.3210468  -0.69263101  0.032473753   -1.3210468   0.62841578   349462 
13422000     0.474649   -1.3193942   -1.3193942  -0.69252522   0.03390528   -1.3193942   0.62686903   349451 
13423000   0.47607133   -1.3218415   -1.3218415  -0.69307243  0.030200986   -1.3218415   0.62876909   349439 
13424000   0.47464211    -1.320333    -1.320333     -0.69343  0.038773417    -1.320333   0.62690298   349427 
13425000   0.47523111     -1.32027     -1.32027  -0.69256756  0.043588872     -1.32027   0.62770248   349415 
13426000   0.47418887   -1.3187776   -1.3187776  -0.69243201  0.047148353   -1.3187776   0.62634558   349404 
13427000   0.47579328   -1.3214305   -1.3214305  -0.69294415  0.034708161   -1.3214305   0.62848639   349392 
13428000   0.47637703   -1.3227219   -1.3227219  -0.69344277  0.033232362   -1.3227219   0.62927909   349380 
13429000   0.47577576   -1.3231395   -1.3231395  -0.69463307  0.025903209   -1.3231395   0.62850642   349368 
13430000    0.4748342   -1.3208247   -1.3208247  -0.69354056  0.034167376   -1.3208247   0.62728415   349356 
13431000    0.4750907   -1.3217429   -1.3217429  -0.69410016  0.044448569   -1.3217429   0.62764275   349345 
13432000   0.47637576   -1.3219291   -1.3219291  -0.69256699  0.036250057   -1.3219291   0.62936207   349333 
13433000   0.47411572   -1.3211786   -1.3211786   -0.6947808  0.033548928   -1.3211786   0.62639775   349321 
13434000   0.47510812   -1.3221602   -1.3221602  -0.69442978  0.037151287   -1.3221602   0.62773046   349309 
13435000   0.47455868   -1.3220434   -1.3220434  -0.69501916  0.035254319   -1.3220434   0.62702427   349298 
13436000   0.47494028   -1.3223164   -1.3223164  -0.69476642  0.041806244   -1.3223164   0.62755002   349286 
13437000   0.47471982   -1.3219661   -1.3219661  -0.69468579  0.032596991   -1.3219661   0.62728028   349274 
13438000   0.47377086   -1.3202432   -1.3202432   -0.6941953  0.028451565   -1.3202432   0.62604786   349262 
13439000   0.47517395   -1.3221782   -1.3221782  -0.69425654  0.035222995   -1.3221782    0.6279217   349251 
13440000    0.4748288   -1.3205609   -1.3205609  -0.69307373  0.044009426   -1.3205609   0.62748716   349239 
13441000   0.47430815   -1.3194867   -1.3194867  -0.69266606  0.050869879   -1.3194867   0.62682066   349227 
13442000   0.47516916   -1.3220485   -1.3220485  -0.69406835  0.027003901   -1.3220485    0.6279801   349215 
13443000   0.47424349   -1.3208706   -1.3208706  -0.69409415  0.038238375   -1.3208706   0.62677648   349204 
13444000   0.47529611   -1.3219896   -1.3219896  -0.69380038  0.034235591   -1.3219896   0.62818926   349192 
13445000   0.47539382   -1.3216319   -1.3216319   -0.6932919   0.04213013   -1.3216319   0.62833998   349180 
13446000   0.47477548   -1.3200541   -1.3200541  -0.69250982  0.039335671   -1.3200541   0.62754428   349168 
13447000    0.4744635   -1.3214806   -1.3214806  -0.69432716  0.037775385   -1.3214806   0.62715347   349156 
13448000    0.4739458   -1.3200288   -1.3200288  -0.69353993  0.039192018   -1.3200288   0.62648889   349145 
13449000   0.47454021   -1.3207731   -1.3207731  -0.69347694  0.033506619   -1.3207731   0.62729618   349133 
13450000     0.475162   -1.3209389   -1.3209389  -0.69279914  0.035704698   -1.3209389   0.62813971   349121 
13451000   0.47483358   -1.3198964   -1.3198964  -0.69216929  0.028478468   -1.3198964   0.62772714   349109 
13452000   0.47496348   -1.3194595   -1.3194595  -0.69154082  0.035607726   -1.3194595   0.62791865   349098 
13453000   0.47561454   -1.3201862   -1.3201862  -0.69138518  0.040966482   -1.3201862   0.62880099   349086 
13454000   0.47480853   -1.3196866   -1.3196866  -0.69192966  0.038680435   -1.3196866   0.62775696   349074 
13455000   0.47535963    -1.319538    -1.319538  -0.69103083   0.04178546    -1.319538   0.62850719   349062 
13456000   0.47513246    -1.320167    -1.320167  -0.69194041  0.034166109    -1.320167   0.62822663   349051 
13457000   0.47509843   -1.3199238   -1.3199238  -0.69172061  0.039082219   -1.3199238   0.62820323   349039 
13458000   0.47461016   -1.3196154   -1.3196154  -0.69203626  0.032197527   -1.3196154   0.62757919   349027 
13459000   0.47528611   -1.3200935   -1.3200935  -0.69159885  0.024412013   -1.3200935   0.62849461   349015 
13460000   0.47389667   -1.3181263   -1.3181263  -0.69144927  0.037780311   -1.3181263   0.62667703   349004 
13461000   0.47400157   -1.3174141   -1.3174141   -0.6905768  0.038576544   -1.3174141    0.6268373   348992 
13462000   0.47472416   -1.3187206   -1.3187206  -0.69090616  0.047089212   -1.3187206   0.62781447   348980 
13463000   0.47490125   -1.3191909   -1.3191909  -0.69112059  0.035504048   -1.3191909   0.62807027   348968 
13464000   0.47487558   -1.3192355   -1.3192355  -0.69117762  0.038598284   -1.3192355   0.62805791   348956 
13465000   0.47349126   -1.3179269   -1.3179269  -0.69168009  0.042067306   -1.3179269    0.6262468   348945 
13466000   0.47375684   -1.3184551   -1.3184551  -0.69183555  0.037760424   -1.3184551   0.62661959   348933 
13467000    0.4738167    -1.317621    -1.317621  -0.69090071  0.037990952    -1.317621   0.62672033   348921 
13468000   0.47448395   -1.3179713   -1.3179713  -0.69034685  0.034864697   -1.3179713   0.62762448   348909 
13469000    0.4740557    -1.317233    -1.317233  -0.69015519  0.039427115    -1.317233   0.62707779   348898 
13470000   0.47441789    -1.318027    -1.318027  -0.69044849  0.038069194    -1.318027   0.62757847   348886 
13471000   0.47391726   -1.3166458   -1.3166458  -0.68970804  0.032200216   -1.3166458   0.62693779   348874 
13472000   0.47312616   -1.3142735   -1.3142735  -0.68836074  0.041899268   -1.3142735   0.62591278   348862 
13473000   0.47351631   -1.3158277   -1.3158277  -0.68937907   0.03423093   -1.3158277   0.62644867   348851 
13474000   0.47235661   -1.3150362   -1.3150362  -0.69010031  0.038492778   -1.3150362   0.62493593   348839 
13475000   0.47262223   -1.3164388   -1.3164388  -0.69112992  0.032239288   -1.3164388   0.62530886   348827 
13476000   0.47300758   -1.3165373   -1.3165373  -0.69069705  0.038460042   -1.3165373   0.62584023   348815 
13477000   0.47250051   -1.3161664   -1.3161664  -0.69097734  0.039738808   -1.3161664   0.62518903   348804 
13478000   0.47376608   -1.3164243   -1.3164243  -0.68953915   0.03365925   -1.3164243   0.62688514   348792 
13479000   0.47338433   -1.3169209   -1.3169209  -0.69051935  0.039769373   -1.3169209   0.62640157   348780 
13480000   0.47221676   -1.3152312   -1.3152312  -0.69035311  0.042919287   -1.3152312   0.62487808   348768 
13481000   0.47372879   -1.3180339   -1.3180339  -0.69113342  0.039191735   -1.3180339   0.62690049   348756 
13482000   0.47407625   -1.3171749   -1.3171749   -0.6897948  0.032872378   -1.3171749   0.62738009   348745 
13483000   0.47437683   -1.3181527   -1.3181527  -0.69035323  0.036474408   -1.3181527   0.62779948   348733 
13484000   0.47336234   -1.3150095   -1.3150095  -0.68853107   0.04074846   -1.3150095   0.62647843   348721 
13485000   0.47224487   -1.3149672   -1.3149672  -0.6