LAMMPS (3 Mar 2020)
  using 1 OpenMP thread(s) per MPI task
#Read the equilibrated lj fluid with nanocubes and let it evaporate for 10 mio


units           lj
atom_style      full
#atom_modify     map array first cubes
dimension       3
boundary        p p f
pair_style      lj/cut/opt 4.4


variable        sigma           equal 1.0
variable        epsilon         equal 1.0
read_restart	restart.dat.1000000
Reading restart file ...
  restart file = 3 Mar 2020, LAMMPS = 3 Mar 2020
WARNING: Restart file used different # of processors: 32 vs. 256 (src/read_restart.cpp:752)
  restoring atom style full from restart
  orthogonal box = (0 0 0) to (80 80 160)
  4 by 4 by 16 MPI processor grid
  restoring pair style lj/cut/opt from restart
  515430 atoms
Finding 1-2 1-3 1-4 neighbors ...
  special bond factors lj:   0          0          0         
  special bond factors coul: 0          0          0         
  0 = max # of 1-2 neighbors
  0 = max # of 1-3 neighbors
  0 = max # of 1-4 neighbors
  1 = max # of special neighbors
  special bonds CPU = 54.3832 secs
  read_restart CPU = 55.1325 secs


group		solvent type 1
442278 atoms in group solvent
group		cubes 	type 2 3
73152 atoms in group cubes


neighbor      0.4 bin
neigh_modify  exclude molecule/intra cubes


pair_modify   shift yes
pair_coeff    1 1 1.0 1.0 4.4 #solvent
pair_coeff    2 2 0.6 1.0 2.2 #np
pair_coeff    3 3 0.0 0.0 0.0 #dummy
pair_coeff    2 3 0.0 0.0 0.0 #np dummy
pair_coeff    1 2 0.8 1.0 4.4 #np solvent
pair_coeff    1 3 0.0 0.0 0.0 #dummy solvent

comm_modify     cutoff 6.95

reset_timestep 	0
balance 	1.05 shift z 10 1.05
Balancing ...
Unused restart file global fix info:
  fix style: rigid/nvt/small, fix ID: 1
Neighbor list info ...
  update every 1 steps, delay 10 steps, check yes
  max neighbors/atom: 2000, page size: 100000
  master list distance cutoff = 4.8
  ghost atom cutoff = 6.95
  binsize = 2.4, bins = 34 34 67
  1 neighbor lists, perpetual/occasional/extra = 1 0 0
  (1) pair lj/cut/opt, perpetual
      attributes: half, newton on
      pair build: half/bin/newton
      stencil: half/bin/3d/newton
      bin: standard
  rebalancing time: 0.00714506 seconds
  iteration count = 4
  initial/final max load/proc = 3690 3483
  initial/final imbalance factor = 1.83272 1.72991
  x cuts: 0 0.25 0.5 0.75 1
  y cuts: 0 0.25 0.5 0.75 1
  z cuts: 0 0.0429688 0.0742188 0.117188 0.164062 0.195312 0.246094 0.285156 0.324219 0.359375 0.390625 0.453125 0.496094 0.519531 0.582031 0.632812 1

####################### WALLS ###########################

variable       epsilonWall equal 2*${epsilon}
variable       epsilonWall equal 2*1

variable       cutoffTop   equal   0.7147*${sigma}
variable       cutoffTop   equal   0.7147*1

variable       cutoffLow   equal   3*${sigma}
variable       cutoffLow   equal   3*1

region         lowWall block EDGE EDGE EDGE EDGE EDGE 2





fix            topWall all wall/lj93 zhi EDGE 	       ${epsilonWall} ${sigma} ${cutoffTop} units box
fix            topWall all wall/lj93 zhi EDGE 	       2 ${sigma} ${cutoffTop} units box
fix            topWall all wall/lj93 zhi EDGE 	       2 1 ${cutoffTop} units box
fix            topWall all wall/lj93 zhi EDGE 	       2 1 0.7147 units box

fix            lowWall all wall/lj93 zlo EDGE                ${epsilonWall} ${sigma} ${cutoffLow} units box
fix            lowWall all wall/lj93 zlo EDGE                2 ${sigma} ${cutoffLow} units box
fix            lowWall all wall/lj93 zlo EDGE                2 1 ${cutoffLow} units box
fix            lowWall all wall/lj93 zlo EDGE                2 1 3 units box


######################  FIXES ############################


fix             1 cubes rigid/nvt/small molecule temp 1.0 1.0 0.25
  create bodies CPU = 0.0170595 secs
64 rigid bodies with 73152 atoms
  6.94564 = max distance from body owner to body atom

fix             2 solvent nve


## Thermostat


region          regthermo block EDGE EDGE EDGE EDGE 0 20

group           thermo dynamic solvent region regthermo every 1000
dynamic group thermo defined

fix             3 thermo langevin 1.0 1.0 10 156453

## Evaporation

region		reg_evap	block	EDGE EDGE EDGE EDGE 140 160

fix 		evap 	solvent evaporate 1 25 reg_evap 156745


#### Load balancing

fix             bal all balance 1000 1.05 shift z 10 1.05

############### Diagnostics and computes ###################
compute        com cubes          rigid/local   1 mol x y z
compute        quat cubes         rigid/local   1 mol quatw quati quatj quatk

thermo          1000
thermo_style    custom step temp epair evdwl etotal press pe ke vol

dump            1 all custom 100000 dump.lammpstrj id mol type x y z
dump            2 all image 10000 image.*.png type type

dump_modify     2 pad 8


dump		image cubes image 10000 image_cubes.*.png type type

dump_modify	image pad 8

dump            3 all movie 5000 movie.avi type type
dump           com cubes local 1000 dump.*.xyz c_com[*]
dump           quat cubes      local 1000 dump.*.quat c_quat[*]


restart         1000000 restart.dat
timestep        0.0025
timer           full
New timer settings: style=full  mode=nosync  timeout=off

run            10000000
Setting up Verlet run ...
  Unit style    : lj
  Current step  : 0
  Time step     : 0.0025
Per MPI rank memory allocation (min/avg/max) = 16.11 | 27.63 | 32.37 Mbytes
Step Temp E_pair E_vdwl TotEng Press PotEng KinEng Volume 
       0   0.99486084   -3.9931875   -3.9931875   -2.7123208  0.036252383   -3.9931875    1.2808667      1024000 
    1000   0.98429626   -4.0217116   -4.0217116   -2.7441904    0.0653335   -4.0217116    1.2775212      1024000 
    2000   0.98495356    -4.022366    -4.022366   -2.7435564  0.059540976    -4.022366    1.2788095      1024000 
    3000   0.98617364   -4.0232567   -4.0232567   -2.7424546   0.05373549   -4.0232567    1.2808021      1024000 
    4000   0.98595418   -4.0228018   -4.0228018    -2.741841  0.064014789   -4.0228018    1.2809608      1024000 
    5000   0.98665283   -4.0231335   -4.0231335   -2.7408031  0.077351864   -4.0231335    1.2823304      1024000 
    6000   0.98715983   -4.0238408   -4.0238408   -2.7404392  0.077381359   -4.0238408    1.2834016      1024000 
    7000   0.98743527   -4.0246823   -4.0246823    -2.740437  0.070316445   -4.0246823    1.2842453      1024000 
    8000   0.98712582   -4.0245536   -4.0245536   -2.7402175   0.05920443   -4.0245536    1.2843362      1024000 
    9000   0.98442473    -4.021145    -4.021145   -2.7398409  0.061870818    -4.021145    1.2813041      1024000 
   10000   0.98139255   -4.0171555   -4.0171555   -2.7393469  0.056785182   -4.0171555    1.2778086      1024000 
   11000    0.9772018   -4.0121551   -4.0121551    -2.739286  0.045404072   -4.0121551    1.2728691      1024000 
   12000   0.97470925   -4.0098578   -4.0098578   -2.7397293  0.030398453   -4.0098578    1.2701285      1024000 
   13000   0.97240664   -4.0067306   -4.0067306   -2.7391247  0.020936638   -4.0067306    1.2676059      1024000 
   14000   0.97015989    -4.004433    -4.004433   -2.7392489 0.0035601606    -4.004433    1.2651841      1024000 
   15000   0.96795205   -4.0030062   -4.0030062   -2.7401852  0.013675568   -4.0030062     1.262821      1024000 
   16000   0.96677456   -4.0018891   -4.0018891   -2.7401602 -0.0010753225   -4.0018891    1.2617289      1024000 
   17000    0.9650017   -4.0010357   -4.0010357   -2.7411498 0.00031587864   -4.0010357    1.2598859      1024000 
   18000   0.96516304   -4.0010635   -4.0010635    -2.740538 0.0038260937   -4.0010635    1.2605256      1024000 
   19000   0.96306811   -3.9977594   -3.9977594   -2.7394597 -0.011046414   -3.9977594    1.2582997      1024000 
   20000   0.96297275   -3.9985396   -3.9985396   -2.7398516 -0.0062221775   -3.9985396    1.2586881      1024000 
   21000   0.96418651    -3.999883    -3.999883   -2.7391491 -0.016864435    -3.999883     1.260734      1024000 
   22000   0.96306506   -3.9990451   -3.9990451   -2.7393059 -0.0065677137   -3.9990451    1.2597392      1024000 
   23000   0.96122931   -3.9963193   -3.9963193   -2.7384631 -0.011462335   -3.9963193    1.2578562      1024000 
   24000   0.96123639   -3.9960746   -3.9960746   -2.7377079 -0.010936037   -3.9960746    1.2583667      1024000 
   25000   0.96089921   -3.9959736   -3.9959736    -2.737609 0.0050731116   -3.9959736    1.2583646      1024000 
   26000   0.96061302   -3.9956427   -3.9956427   -2.7372133 -0.0041711648   -3.9956427    1.2584294      1024000 
   27000   0.96061705    -3.997025    -3.997025   -2.7381529 -0.015344125    -3.997025    1.2588721      1024000 
   28000   0.95845626   -3.9954515   -3.9954515   -2.7389744  -0.01306608   -3.9954515    1.2564771      1024000 
   29000   0.95769831   -3.9949622   -3.9949622   -2.7390247 -0.017554018   -3.9949622    1.2559375      1024000 
   30000   0.95776928   -3.9963628   -3.9963628   -2.7398456 -0.014307678   -3.9963628    1.2565173      1024000 
   31000   0.95797411   -3.9968184   -3.9968184   -2.7396745 -0.0082814951   -3.9968184    1.2571439      1024000 
   32000   0.95794303   -3.9991988   -3.9991988   -2.7416904 -0.013082496   -3.9991988    1.2575084      1024000 
   33000   0.95698159   -3.9990707   -3.9990707   -2.7424863 -0.0045085697   -3.9990707    1.2565844      1024000 
   34000   0.95942769   -4.0027996   -4.0027996   -2.7426193 -0.0026416746   -4.0027996    1.2601803      1024000 
   35000   0.95932209    -4.003434    -4.003434   -2.7430207 -0.0023136239    -4.003434    1.2604133      1024000 
   36000   0.95883274    -4.003918    -4.003918   -2.7438033 0.0039274868    -4.003918    1.2601147      1024000 
   37000   0.96013594   -4.0067811   -4.0067811   -2.7445763 -0.0013187912   -4.0067811    1.2622048      1024000 
   38000   0.95845384   -4.0064045   -4.0064045   -2.7460315 0.0036082393   -4.0064045     1.260373      1024000 
   39000   0.96036596   -4.0097931   -4.0097931   -2.7465452 0.0052248277   -4.0097931    1.2632479      1024000 
   40000   0.96118554   -4.0126906   -4.0126906   -2.7480764  0.009615969   -4.0126906    1.2646143      1024000 
   41000   0.96074572    -4.011997    -4.011997   -2.7476305  0.018875612    -4.011997    1.2643665      1024000 
   42000   0.96086529   -4.0142544   -4.0142544   -2.7494145   0.01393885   -4.0142544    1.2648399      1024000 
   43000   0.95855088   -4.0137363   -4.0137363   -2.7515749  0.024598479   -4.0137363    1.2621614      1024000 
   44000   0.95870532   -4.0154699   -4.0154699   -2.7528221 0.0039355727   -4.0154699    1.2626478      1024000 
   45000   0.96014757   -4.0183526   -4.0183526   -2.7535241  0.014336293   -4.0183526    1.2648285      1024000 
   46000   0.95885214   -4.0188833   -4.0188833   -2.7554529  0.012300553   -4.0188833    1.2634304      1024000 
   47000   0.95828938   -4.0210488   -4.0210488   -2.7580564  0.020017823   -4.0210488    1.2629924      1024000 
   48000   0.95673271   -4.0208722   -4.0208722   -2.7596334  0.014874286   -4.0208722    1.2612388      1024000 
   49000   0.95792436   -4.0235846   -4.0235846    -2.760534  0.010116995   -4.0235846    1.2630506      1024000 
   50000   0.95653759   -4.0223328   -4.0223328     -2.76087  0.013552353   -4.0223328    1.2614627      1024000 
   51000   0.95619529   -4.0238827   -4.0238827   -2.7625857  0.013715763   -4.0238827    1.2612971      1024000 
   52000   0.95749604   -4.0264352   -4.0264352   -2.7631562 0.0067090513   -4.0264352     1.263279      1024000 
   53000   0.95628904   -4.0265522   -4.0265522   -2.7645796  0.015973069   -4.0265522    1.2619726      1024000 
   54000   0.95613107   -4.0285137   -4.0285137   -2.7664711  0.014376131   -4.0285137    1.2620427      1024000 
   55000   0.95501714   -4.0281934   -4.0281934   -2.7673703 0.0072777792   -4.0281934    1.2608231      1024000 
   56000   0.95476108    -4.029154    -4.029154   -2.7684507  0.014207688    -4.029154    1.2607033      1024000 
   57000   0.95339659   -4.0293989   -4.0293989   -2.7702142  0.014063245   -4.0293989    1.2591847      1024000 
   58000   0.95310373   -4.0306484   -4.0306484   -2.7715523  0.014299044   -4.0306484    1.2590961      1024000 
   59000   0.95264297   -4.0307488   -4.0307488   -2.7719883  0.020783998   -4.0307488    1.2587606      1024000 
   60000   0.95275524   -4.0334563   -4.0334563   -2.7742966 0.0099048277   -4.0334563    1.2591596      1024000 
   61000   0.95079256   -4.0319399   -4.0319399   -2.7750863    0.0103766   -4.0319399    1.2568536      1024000 
   62000   0.95075734   -4.0322895   -4.0322895   -2.7752321 0.0099057657   -4.0322895    1.2570574      1024000 
   63000    0.9499662   -4.0314674   -4.0314674   -2.7751856  0.015965958   -4.0314674    1.2562818      1024000 
   64000   0.95006992   -4.0330682   -4.0330682   -2.7763963 0.0087094699   -4.0330682    1.2566719      1024000 
   65000   0.95015906   -4.0339738   -4.0339738   -2.7769461  0.016183235   -4.0339738    1.2570278      1024000 
   66000   0.94927874   -4.0341441   -4.0341441   -2.7779929 0.0044818622   -4.0341441    1.2561511      1024000 
   67000   0.94930149   -4.0359047   -4.0359047   -2.7794428 -0.002577654   -4.0359047    1.2564619      1024000 
   68000   0.94771947   -4.0339181   -4.0339181   -2.7793299 0.0078327985   -4.0339181    1.2545881      1024000 
   69000   0.94843045   -4.0346551   -4.0346551   -2.7788702  0.010889563   -4.0346551    1.2557849      1024000 
   70000   0.94787449   -4.0355663   -4.0355663   -2.7802671 0.0068500917   -4.0355663    1.2552992      1024000 
   71000   0.94717521   -4.0352796   -4.0352796    -2.780616  0.014107192   -4.0352796    1.2546636      1024000 
   72000   0.94806977   -4.0368734   -4.0368734   -2.7807992 0.0055877747   -4.0368734    1.2560742      1024000 
   73000   0.94712688   -4.0364655   -4.0364655     -2.78138 0.0070925443   -4.0364655    1.2550856      1024000 
   74000   0.94706235   -4.0362074   -4.0362074   -2.7809517 0.0097507739   -4.0362074    1.2552557      1024000 
   75000   0.94581465   -4.0361646   -4.0361646   -2.7822796 0.0017880319   -4.0361646     1.253885      1024000 
   76000   0.94448483   -4.0358452   -4.0358452   -2.7834905 0.0082918827   -4.0358452    1.2523547      1024000 
   77000   0.94463751   -4.0360554   -4.0360554   -2.7832755 0.0051442428   -4.0360554      1.25278      1024000 
   78000   0.94399318   -4.0362439   -4.0362439   -2.7840632 0.0023069993   -4.0362439    1.2521807      1024000 
   79000   0.94340352   -4.0361014   -4.0361014   -2.7844902 0.0079127824   -4.0361014    1.2516112      1024000 
   80000   0.94385128   -4.0379197   -4.0379197   -2.7854616 0.0056405743   -4.0379197    1.2524581      1024000 
   81000   0.94153955   -4.0367263   -4.0367263   -2.7871059  0.004004449   -4.0367263    1.2496204      1024000 
   82000   0.94095969   -4.0375324   -4.0375324   -2.7884193  0.012701643   -4.0375324    1.2491131      1024000 
   83000    0.9410643   -4.0382173   -4.0382173   -2.7887654 0.0052799393   -4.0382173     1.249452      1024000 
   84000   0.94080451   -4.0391182   -4.0391182   -2.7897837 -0.013049862   -4.0391182    1.2493345      1024000 
   85000   0.93975048   -4.0386328   -4.0386328   -2.7904982 0.0019225909   -4.0386328    1.2481346      1024000 
   86000   0.94058715   -4.0401128   -4.0401128   -2.7906169 0.00065936228   -4.0401128    1.2494959      1024000 
   87000   0.94053114   -4.0398178   -4.0398178   -2.7901887 0.0079695402   -4.0398178    1.2496291      1024000 
   88000   0.94161027   -4.0422118   -4.0422118   -2.7909159 0.0055214393   -4.0422118    1.2512959      1024000 
   89000    0.9417685   -4.0427257   -4.0427257   -2.7910466 -0.0047198655   -4.0427257    1.2516791      1024000 
   90000   0.93915329   -4.0405212   -4.0405212   -2.7921303 0.0078434584   -4.0405212    1.2483908      1024000 
   91000   0.94011478   -4.0422695   -4.0422695   -2.7923753 0.0029009644   -4.0422695    1.2498943      1024000 
   92000   0.93944976   -4.0427337   -4.0427337   -2.7935159 0.0082069962   -4.0427337    1.2492178      1024000 
   93000   0.93895174   -4.0431938   -4.0431938   -2.7944581 0.0040293728   -4.0431938    1.2487358      1024000 
   94000   0.93975089   -4.0445679   -4.0445679   -2.7945539 0.00044896997   -4.0445679     1.250014      1024000 
   95000   0.93865631   -4.0442599   -4.0442599   -2.7954416 0.0070155354   -4.0442599    1.2488184      1024000 
   96000   0.93874576   -4.0457102   -4.0457102   -2.7965199 0.0035147765   -4.0457102    1.2491903      1024000 
   97000   0.93950154    -4.048268    -4.048268   -2.7978638 0.0020437802    -4.048268    1.2504042      1024000 
   98000   0.93741828   -4.0461223   -4.0461223    -2.798258 0.0070865074   -4.0461223    1.2478643      1024000 
   99000   0.93666593   -4.0464086   -4.0464086   -2.7993232 -0.0037752712   -4.0464086    1.2470854      1024000 
  100000   0.93595506   -4.0474614   -4.0474614   -2.8011324 0.0066403561   -4.0474614     1.246329      1024000 
  101000   0.93676038   -4.0493628   -4.0493628   -2.8017337 0.0045757696   -4.0493628    1.2476292      1024000 
  102000   0.93575975   -4.0490413   -4.0490413   -2.8025072   0.00727428   -4.0490413    1.2465341      1024000 
  103000   0.93548084   -4.0502995   -4.0502995   -2.8038942 0.0015457733   -4.0502995    1.2464053      1024000 
  104000   0.93558627   -4.0504474   -4.0504474   -2.8036864 0.0083710558   -4.0504474    1.2467611      1024000 
  105000   0.93439174   -4.0505067   -4.0505067   -2.8051074 0.0098403114   -4.0505067    1.2453993      1024000 
  106000    0.9353376   -4.0524425   -4.0524425   -2.8055571  0.013533005   -4.0524425    1.2468854      1024000 
  107000   0.93528701   -4.0528903   -4.0528903   -2.8058545  0.013895312   -4.0528903    1.2470359      1024000 
  108000   0.93622415   -4.0536564   -4.0536564   -2.8051553  0.011856414   -4.0536564    1.2485011      1024000 
  109000   0.93444196   -4.0522766   -4.0522766   -2.8059617  0.011883905   -4.0522766    1.2463148      1024000 
  110000   0.93545292   -4.0551899   -4.0551899    -2.807311 -0.003388822   -4.0551899    1.2478789      1024000 
  111000   0.93549333   -4.0559385   -4.0559385   -2.8077875  0.011617545   -4.0559385    1.2481511      1024000 
  112000   0.93317527   -4.0540617   -4.0540617   -2.8087831  0.010752633   -4.0540617    1.2452786      1024000 
  113000   0.93287852   -4.0546897   -4.0546897   -2.8096118  0.011122234   -4.0546897    1.2450779      1024000 
  114000   0.93416069   -4.0581847   -4.0581847   -2.8112074 0.0082907075   -4.0581847    1.2469773      1024000 
  115000   0.93319277   -4.0574823   -4.0574823   -2.8116016 0.0099497184   -4.0574823    1.2458807      1024000 
  116000   0.93285832   -4.0569188   -4.0569188   -2.8113192  0.011548077   -4.0569188    1.2455996      1024000 
  117000   0.93286359   -4.0577302   -4.0577302   -2.8119281 0.0060373869   -4.0577302    1.2458021      1024000 
  118000   0.93292649   -4.0595972   -4.0595972   -2.8135204  0.010902866   -4.0595972    1.2460767      1024000 
  119000   0.93192506   -4.0585215   -4.0585215   -2.8135267 0.0087097159   -4.0585215    1.2449947      1024000 
  120000   0.93035965   -4.0574753   -4.0574753   -2.8143967  0.017237806   -4.0574753    1.2430786      1024000 
  121000   0.93104977   -4.0594325   -4.0594325   -2.8152439 0.0050999049   -4.0594325    1.2441886      1024000 
  122000   0.92980593   -4.0589247   -4.0589247   -2.8162256  0.010461311   -4.0589247    1.2426991      1024000 
  123000   0.93084474   -4.0606219   -4.0606219   -2.8163039 0.0051179925   -4.0606219     1.244318      1024000 
  124000   0.93021392   -4.0602211   -4.0602211   -2.8165208 0.0046476673   -4.0602211    1.2437002      1024000 
  125000   0.93017028   -4.0599665   -4.0599665   -2.8161366  0.009498628   -4.0599665    1.2438298      1024000 
  126000   0.92974532   -4.0609085   -4.0609085    -2.817449 0.0065659467   -4.0609085    1.2434595      1024000 
  127000   0.93006064   -4.0619332   -4.0619332   -2.8178714 0.0007711217   -4.0619332    1.2440618      1024000 
  128000   0.92903287    -4.061552    -4.061552   -2.8186897 -0.0083033764    -4.061552    1.2428624      1024000 
  129000    0.9275638   -4.0602165   -4.0602165   -2.8191268 0.0044097736   -4.0602165    1.2410897      1024000 
  130000   0.92638741   -4.0586584   -4.0586584   -2.8189577  0.019449097   -4.0586584    1.2397006      1024000 
  131000   0.92774235   -4.0608271   -4.0608271    -2.819133 0.0054972476   -4.0608271    1.2416941      1024000 
  132000   0.92737268   -4.0617381   -4.0617381    -2.820381 0.0056826531   -4.0617381    1.2413571      1024000 
  133000   0.92626607   -4.0619852   -4.0619852   -2.8219443 -0.00070709525   -4.0619852    1.2400409      1024000 
  134000   0.92559312   -4.0627259   -4.0627259   -2.8233909 -0.0075397277   -4.0627259     1.239335      1024000 
  135000   0.92439487   -4.0620467   -4.0620467   -2.8241413 0.00095340151   -4.0620467    1.2379054      1024000 
  136000   0.92390526   -4.0613929   -4.0613929   -2.8239383 -0.0016418226   -4.0613929    1.2374545      1024000 
  137000   0.92420441   -4.0621139   -4.0621139   -2.8240562 -0.0077834901   -4.0621139    1.2380576      1024000 
  138000   0.92332554   -4.0612345   -4.0612345    -2.824162 0.0010315705   -4.0612345    1.2370726      1024000 
  139000   0.92360575    -4.062177    -4.062177   -2.8245591 -0.0073563566    -4.062177    1.2376179      1024000 
  140000   0.92339636   -4.0624366   -4.0624366   -2.8249193 -0.0052234495   -4.0624366    1.2375172      1024000 
  141000   0.92371042   -4.0628931   -4.0628931   -2.8247724 -0.00038023814   -4.0628931    1.2381207      1024000 
  142000   0.92372192    -4.064179    -4.064179   -2.8258428 0.0020561486    -4.064179    1.2383362      1024000 
  143000   0.92315168   -4.0641916   -4.0641916   -2.8264098 0.0030547871   -4.0641916    1.2377818      1024000 
  144000    0.9229748   -4.0645449   -4.0645449   -2.8268052  0.011700776   -4.0645449    1.2377397      1024000 
  145000   0.92548004   -4.0681761   -4.0681761   -2.8269213 0.0067448493   -4.0681761    1.2412548      1024000 
  146000   0.92467877    -4.067772    -4.067772   -2.8274038  0.016269599    -4.067772    1.2403682      1024000 
  147000   0.92319244   -4.0665061   -4.0665061   -2.8279264 0.0072088765   -4.0665061    1.2385797      1024000 
  148000   0.92470093   -4.0697551   -4.0697551   -2.8289885 0.00092708164   -4.0697551    1.2407666      1024000 
  149000   0.92306081   -4.0683465   -4.0683465   -2.8296078  0.013663656   -4.0683465    1.2387387      1024000 
  150000   0.92311091    -4.069852    -4.069852   -2.8308432 0.0086573541    -4.069852    1.2390089      1024000 
  151000   0.92259851   -4.0706842   -4.0706842   -2.8321426 -0.0032004659   -4.0706842    1.2385416      1024000 
  152000   0.92131302   -4.0693279   -4.0693279   -2.8323244 0.0068588209   -4.0693279    1.2370035      1024000 
  153000    0.9209732   -4.0712436   -4.0712436   -2.8345462 0.0042820997   -4.0712436    1.2366974      1024000 
  154000   0.92081591   -4.0711883   -4.0711883    -2.834552 0.0022153467   -4.0711883    1.2366363      1024000 
  155000   0.91907384   -4.0693337   -4.0693337   -2.8348071  0.012835584   -4.0693337    1.2345266      1024000 
  156000   0.92036893   -4.0719529   -4.0719529   -2.8355165 0.0029494373   -4.0719529    1.2364364      1024000 
  157000   0.92013709   -4.0730131   -4.0730131   -2.8366754 0.0080526143   -4.0730131    1.2363377      1024000 
  158000   0.91965464   -4.0736238   -4.0736238   -2.8377492 0.0062777856   -4.0736238    1.2358746      1024000 
  159000     0.917845   -4.0720959   -4.0720959   -2.8384708  0.007774545   -4.0720959    1.2336251      1024000 
  160000   0.91910095   -4.0745719   -4.0745719   -2.8390686 0.0083245433   -4.0745719    1.2355033      1024000 
  161000   0.91936282    -4.075512    -4.075512   -2.8394839 0.0022050046    -4.075512    1.2360281      1024000 
  162000   0.91895022   -4.0764085   -4.0764085   -2.8407974 0.0058460259   -4.0764085    1.2356111      1024000 
  163000   0.91722683   -4.0757037   -4.0757037   -2.8422474 0.0035617785   -4.0757037    1.2334563      1024000 
  164000   0.91722533   -4.0764047   -4.0764047   -2.8427855 0.0034657108   -4.0764047    1.2336193      1024000 
  165000   0.91648993   -4.0759484   -4.0759484   -2.8431233 0.0061015998   -4.0759484    1.2328251      1024000 
  166000   0.91555501   -4.0760751   -4.0760751   -2.8443404 0.0040395981   -4.0760751    1.2317347      1024000 
  167000   0.91605258    -4.078916    -4.078916   -2.8463244 0.00090787928    -4.078916    1.2325915      1024000 
  168000   0.91596244   -4.0790955   -4.0790955   -2.8464828 0.0041355743   -4.0790955    1.2326127      1024000 
  169000   0.91550869   -4.0785745   -4.0785745   -2.8463875 0.0092533611   -4.0785745     1.232187      1024000 
  170000   0.91599963   -4.0796047   -4.0796047   -2.8465993 0.0026071258   -4.0796047    1.2330053      1024000 
  171000   0.91672195   -4.0815228   -4.0815228   -2.8473574 0.0053050257   -4.0815228    1.2341654      1024000 
  172000   0.91775749   -4.0831779   -4.0831779    -2.847478 0.0043079103   -4.0831779    1.2356999      1024000 
  173000   0.91547937   -4.0808723   -4.0808723   -2.8481172 0.0078930985   -4.0808723    1.2327551      1024000 
  174000   0.91638805   -4.0820198   -4.0820198   -2.8478508  0.011230058   -4.0820198     1.234169      1024000 
  175000   0.91650945   -4.0830694   -4.0830694   -2.8485315 0.0095906444   -4.0830694     1.234538      1024000 
  176000   0.91602842   -4.0825669   -4.0825669   -2.8485491 0.0096342585   -4.0825669    1.2340178      1024000 
  177000   0.91541244   -4.0829704   -4.0829704   -2.8495897   0.01088172   -4.0829704    1.2333808      1024000 
  178000   0.91496761   -4.0825498   -4.0825498   -2.8495907  0.012631131   -4.0825498    1.2329592      1024000 
  179000   0.91421124   -4.0823453   -4.0823453   -2.8502278  0.010240593   -4.0823453    1.2321176      1024000 
  180000   0.91360303   -4.0834844   -4.0834844    -2.852049 0.0088130655   -4.0834844    1.2314354      1024000 
  181000   0.91485452   -4.0853411   -4.0853411    -2.852026   0.01350866   -4.0853411    1.2333152      1024000 
  182000   0.91476234   -4.0844682   -4.0844682   -2.8511219 0.0078477494   -4.0844682    1.2333462      1024000 
  183000    0.9136813   -4.0847649   -4.0847649   -2.8527285 0.0040363171   -4.0847649    1.2320364      1024000 
  184000    0.9131596   -4.0849915   -4.0849915   -2.8534885  0.010248756   -4.0849915    1.2315031      1024000 
  185000   0.91311729   -4.0861664   -4.0861664   -2.8544926  0.010545625   -4.0861664    1.2316738      1024000 
  186000   0.91160171   -4.0853453   -4.0853453   -2.8555708 0.0094959368   -4.0853453    1.2297745      1024000 
  187000   0.91284292   -4.0886348   -4.0886348   -2.8570232 0.0024252994   -4.0886348    1.2316116      1024000 
  188000   0.91013758   -4.0855239   -4.0855239    -2.857425  0.006662823   -4.0855239    1.2280989      1024000 
  189000   0.91051101    -4.087003    -4.087003   -2.8582653 -0.005670917    -4.087003    1.2287377      1024000 
  190000   0.90929358   -4.0847912   -4.0847912   -2.8575342 0.00060797911   -4.0847912     1.227257      1024000 
  191000   0.90871203   -4.0852298   -4.0852298    -2.858613 0.00088873321   -4.0852298    1.2266168      1024000 
  192000   0.90940906   -4.0864285   -4.0864285   -2.8587035 0.0012854733   -4.0864285     1.227725      1024000 
  193000   0.91042247   -4.0877644   -4.0877644   -2.8585112 0.0065362778   -4.0877644    1.2292532      1024000 
  194000   0.90992099   -4.0882896   -4.0882896    -2.859516  0.010987929   -4.0882896    1.2287736      1024000 
  195000   0.90900195   -4.0874425   -4.0874425   -2.8597377 0.0097956441   -4.0874425    1.2277049      1024000 
  196000   0.90955927   -4.0891505   -4.0891505   -2.8605404 6.8394814e-06   -4.0891505    1.2286101      1024000 
  197000   0.90873989   -4.0892143   -4.0892143   -2.8615085 -0.0056997638   -4.0892143    1.2277057      1024000 
  198000   0.90705359   -4.0882409   -4.0882409   -2.8626461 0.0053135845   -4.0882409    1.2255947      1024000 
  199000   0.90751751    -4.089313    -4.089313   -2.8629566 0.0048941564    -4.089313    1.2263564      1024000 
  200000   0.90856523   -4.0913043   -4.0913043   -2.8633695 -0.0063944534   -4.0913043    1.2279348      1024000 
  201000   0.90732927   -4.0892012   -4.0892012    -2.862772 -0.00026896546   -4.0892012    1.2264292      1024000 
  202000   0.90789758   -4.0899426   -4.0899426   -2.8625752 0.0035862027   -4.0899426    1.2273674      1024000 
  203000   0.90759726   -4.0899935   -4.0899935   -2.8628297 0.0075471126   -4.0899935    1.2271639      1024000 
  204000   0.90677874   -4.0911157   -4.0911157   -2.8648937 0.0043475889   -4.0911157     1.226222      1024000 
  205000   0.90745957    -4.092769    -4.092769   -2.8654887 0.0035542248    -4.092769    1.2272803      1024000 
  206000   0.90661928   -4.0927334   -4.0927334   -2.8664371 -0.0042843416   -4.0927334    1.2262963      1024000 
  207000   0.90633738   -4.0920096   -4.0920096   -2.8659646 0.0054388588   -4.0920096    1.2260449      1024000 
  208000    0.9057701   -4.0911389   -4.0911389   -2.8657115  0.003768604   -4.0911389    1.2254274      1024000 
  209000   0.90681762   -4.0925675   -4.0925675   -2.8655477  0.010354762   -4.0925675    1.2270197      1024000 
  210000   0.90760464   -4.0943157   -4.0943157   -2.8660833 -0.0045267271   -4.0943157    1.2282324      1024000 
  211000   0.90635821   -4.0929404   -4.0929404   -2.8662347 -0.0025955733   -4.0929404    1.2267058      1024000 
  212000   0.90498169   -4.0923992   -4.0923992   -2.8674091 0.0072028265   -4.0923992    1.2249901      1024000 
  213000   0.90674391   -4.0956173   -4.0956173   -2.8680715 0.0037192285   -4.0956173    1.2275458      1024000 
  214000   0.90560346   -4.0948595   -4.0948595   -2.8686675 0.0070002395   -4.0948595    1.2261919      1024000 
  215000   0.90466001   -4.0940648   -4.0940648   -2.8689729 0.0007559221   -4.0940648     1.225092      1024000 
  216000   0.90408643   -4.0945616   -4.0945616   -2.8700864 0.0063970514   -4.0945616    1.2244751      1024000 
  217000   0.90375273   -4.0935912   -4.0935912   -2.8694331 -0.00012284844   -4.0935912    1.2241581      1024000 
  218000   0.90413992   -4.0950044   -4.0950044   -2.8701444 -0.00076547533   -4.0950044    1.2248601      1024000 
  219000   0.90610009   -4.0975307   -4.0975307   -2.8698698 -0.0029270408   -4.0975307    1.2276609      1024000 
  220000   0.90420264   -4.0959697   -4.0959697   -2.8707195 0.0082786933   -4.0959697    1.2252502      1024000 
  221000   0.90415493    -4.095823    -4.095823   -2.8704723 0.0024146727    -4.095823    1.2253507      1024000 
  222000   0.90267688   -4.0958265   -4.0958265    -2.872344 -0.0062414261   -4.0958265    1.2234825      1024000 
  223000   0.90277125   -4.0966247   -4.0966247   -2.8728569 0.0075629235   -4.0966247    1.2237679      1024000 
  224000   0.90248743   -4.0965947   -4.0965947   -2.8730716 0.0066073221   -4.0965947    1.2235231      1024000 
  225000   0.90095419   -4.0949624   -4.0949624   -2.8733382   0.01729865   -4.0949624    1.2216241      1024000 
  226000    0.9027502   -4.0978469   -4.0978469   -2.8736499 0.0084803727   -4.0978469     1.224197      1024000 
  227000   0.90273455   -4.0980346   -4.0980346   -2.8736437 -0.0091126209   -4.0980346    1.2243909      1024000 
  228000   0.90251151   -4.0981975   -4.0981975   -2.8739515 0.0030096716   -4.0981975     1.224246      1024000 
  229000   0.90126657    -4.097813    -4.097813   -2.8751133 0.0037509479    -4.097813    1.2226998      1024000 
  230000   0.90045232    -4.097906    -4.097906    -2.876181 0.0064566844    -4.097906     1.221725      1024000 
  231000    0.9009753   -4.0999087   -4.0999087   -2.8773216 -0.0032749242   -4.0999087     1.222587      1024000 
  232000   0.89879338     -4.09838     -4.09838   -2.8786191 -0.00020265738     -4.09838     1.219761      1024000 
  233000   0.90014903    -4.101519    -4.101519   -2.8797508 -0.0083385707    -4.101519    1.2217681      1024000 
  234000   0.89833108   -4.0986793   -4.0986793   -2.8792366 0.0034348589   -4.0986793    1.2194428      1024000 
  235000   0.89877585   -4.1012664   -4.1012664   -2.8810477 0.0019344081   -4.1012664    1.2202188      1024000 
  236000   0.89847451   -4.1008651   -4.1008651   -2.8809132 -0.0070377568   -4.1008651    1.2199519      1024000 
  237000   0.89840594   -4.1017627   -4.1017627   -2.8817441 -0.0006899919   -4.1017627    1.2200186      1024000 
  238000   0.89616302   -4.0988736   -4.0988736   -2.8817514 0.0067654074   -4.0988736    1.2171222      1024000 
  239000   0.89762903   -4.1022335   -4.1022335   -2.8829855 -0.0030007829   -4.1022335     1.219248      1024000 
  240000   0.89688765   -4.1021446   -4.1021446   -2.8837565  0.010815636   -4.1021446    1.2183881      1024000 
  241000    0.8982553   -4.1035573   -4.1035573   -2.8831439 -9.1559664e-06   -4.1035573    1.2204134      1024000 
  242000   0.89843081   -4.1051608   -4.1051608    -2.884334 0.0031654019   -4.1051608    1.2208268      1024000 
  243000   0.89743647   -4.1047868   -4.1047868   -2.8851838 0.00076618034   -4.1047868     1.219603      1024000 
  244000   0.89779939   -4.1059873   -4.1059873   -2.8857761 0.0063472387   -4.1059873    1.2202112      1024000 
  245000   0.89664399   -4.1054517   -4.1054517   -2.8866811 0.0033998504   -4.1054517    1.2187707      1024000 
  246000   0.89726092   -4.1056484   -4.1056484   -2.8859117 0.0050909569   -4.1056484    1.2197366      1024000 
  247000    0.8993241   -4.1075815   -4.1075815   -2.8848774 -0.00038296393   -4.1075815    1.2227041      1024000 
  248000   0.89800063   -4.1065921   -4.1065921   -2.8855422  0.016370707   -4.1065921    1.2210499      1024000 
  249000   0.89701449   -4.1069688   -4.1069688   -2.8871073 0.0019781073   -4.1069688    1.2198614      1024000 
  250000   0.89609511   -4.1057986   -4.1057986     -2.88707 0.0069896849   -4.1057986    1.2187285      1024000 
  251000   0.89738684   -4.1086626   -4.1086626   -2.8880122  0.003590104   -4.1086626    1.2206505      1024000 
  252000   0.89636582    -4.106885    -4.106885   -2.8874759  0.012007448    -4.106885    1.2194091      1024000 
  253000   0.89690524   -4.1089489   -4.1089489   -2.8886483 0.0054746226   -4.1089489    1.2203005      1024000 
  254000   0.89677767   -4.1099917   -4.1099917   -2.8897021  0.014363874   -4.1099917    1.2202896      1024000 
  255000   0.89550388   -4.1094194   -4.1094194   -2.8906807 0.0079682096   -4.1094194    1.2187387      1024000 
  256000   0.89660379   -4.1115662   -4.1115662   -2.8911979   0.01003938   -4.1115662    1.2203683      1024000 
  257000   0.89590512   -4.1112405   -4.1112405   -2.8916856  0.011605782   -4.1112405    1.2195549      1024000 
  258000   0.89553122   -4.1122537   -4.1122537   -2.8930502 -0.0040357742   -4.1122537    1.2192035      1024000 
  259000   0.89391914     -4.11054     -4.11054   -2.8933814 0.0018129749     -4.11054    1.2171586      1024000 
  260000   0.89330317   -4.1102923   -4.1102923   -2.8937927  0.003291886   -4.1102923    1.2164996      1024000 
  261000    0.8931258   -4.1113832   -4.1113832   -2.8949354 -0.0036989327   -4.1113832    1.2164478      1024000 
  262000   0.89304484   -4.1119817   -4.1119817   -2.8954969 -0.00075566423   -4.1119817    1.2164848      1024000 
  263000   0.89228874   -4.1112471   -4.1112471    -2.895665 -0.0018638118   -4.1112471    1.2155821      1024000 
  264000   0.89133343   -4.1103867   -4.1103867   -2.8959713 -0.0011272317   -4.1103867    1.2144153      1024000 
  265000   0.89254952   -4.1126042   -4.1126042   -2.8963697 -0.0061985306   -4.1126042    1.2162345      1024000 
  266000   0.89211903   -4.1123438   -4.1123438   -2.8965311 -0.010587776   -4.1123438    1.2158127      1024000 
  267000   0.89107013   -4.1106358   -4.1106358   -2.8961154 0.0019311136   -4.1106358    1.2145204      1024000 
  268000   0.89261144   -4.1124911   -4.1124911   -2.8957125  0.006523975   -4.1124911    1.2167786      1024000 
  269000   0.89298064   -4.1142254   -4.1142254   -2.8968185 -0.0066301006   -4.1142254    1.2174069      1024000 
  270000   0.89289372    -4.114711    -4.114711   -2.8972725 0.0075723565    -4.114711    1.2174385      1024000 
  271000   0.89316997   -4.1147616   -4.1147616   -2.8967888 0.0050717204   -4.1147616    1.2179728      1024000 
  272000   0.89313966    -4.114542    -4.114542   -2.8965079  0.004290259    -4.114542    1.2180341      1024000 
  273000   0.89328696   -4.1149083   -4.1149083   -2.8965582 0.0076487633   -4.1149083    1.2183502      1024000 
  274000   0.89172875    -4.112954    -4.112954   -2.8965965  0.011032497    -4.112954    1.2163574      1024000 
  275000   0.89014133   -4.1127485   -4.1127485   -2.8984016 0.0028471481   -4.1127485    1.2143469      1024000 
  276000   0.89065171   -4.1139642   -4.1139642   -2.8987836  0.010283338   -4.1139642    1.2151805      1024000 
  277000   0.89046912   -4.1133593   -4.1133593    -2.898258 0.0023814595   -4.1133593    1.2151013      1024000 
  278000   0.89052668   -4.1151196   -4.1151196   -2.8998274 -0.0049283418   -4.1151196    1.2152923      1024000 
  279000   0.89042954   -4.1146212   -4.1146212   -2.8993141 -0.00032175944   -4.1146212    1.2153072      1024000 
  280000   0.89052345   -4.1154289   -4.1154289   -2.8998711  0.001153943   -4.1154289    1.2155579      1024000 
  281000   0.89018801   -4.1150681   -4.1150681   -2.8998031 0.0013174339   -4.1150681     1.215265      1024000 
  282000    0.8897978   -4.1151988   -4.1151988   -2.9002916 -0.0028460728   -4.1151988    1.2149072      1024000 
  283000    0.8897214   -4.1158013   -4.1158013   -2.9008584 -0.00028501259   -4.1158013    1.2149429      1024000 
  284000   0.88983516   -4.1171444   -4.1171444   -2.9018836 0.0041152843   -4.1171444    1.2152608      1024000 
  285000   0.88950122   -4.1186889   -4.1186889   -2.9037041 -0.00047127932   -4.1186889    1.2149847      1024000 
  286000   0.88835209   -4.1166923   -4.1166923   -2.9031498 0.0050871041   -4.1166923    1.2135425      1024000 
  287000   0.88799687   -4.1176158   -4.1176158   -2.9044087 -0.00013532426   -4.1176158    1.2132071      1024000 
  288000   0.88754285   -4.1178612   -4.1178612   -2.9051246 -0.004445574   -4.1178612    1.2127366      1024000 
  289000   0.88698635   -4.1159357   -4.1159357   -2.9038172 -0.00011217877   -4.1159357    1.2121185      1024000 
  290000   0.88812108   -4.1184505   -4.1184505   -2.9046189 0.0080818204   -4.1184505    1.2138316      1024000 
  291000     0.887149   -4.1175385   -4.1175385    -2.904908 -0.003692451   -4.1175385    1.2126304      1024000 
  292000    0.8871217   -4.1163568   -4.1163568   -2.9036488 0.0032766527   -4.1163568     1.212708      1024000 
  293000    0.8873695   -4.1174453   -4.1174453   -2.9042811 -0.0022530843   -4.1174453    1.2131642      1024000 
  294000   0.88760688     -4.11808     -4.11808   -2.9044463 -0.00010866162     -4.11808    1.2136338      1024000 
  295000   0.88817047   -4.1192175   -4.1192175   -2.9046455 0.0026485529   -4.1192175     1.214572      1024000 
  296000   0.88751198   -4.1194668   -4.1194668   -2.9056627  0.011224186   -4.1194668    1.2138041      1024000 
  297000   0.88834186   -4.1209108   -4.1209108   -2.9058716 0.0078953893   -4.1209108    1.2150393      1024000 
  298000   0.88800035   -4.1205498   -4.1205498   -2.9058449 0.0021396932   -4.1205498    1.2147049      1024000 
  299000   0.88613063   -4.1186571   -4.1186571   -2.9063674 0.0062590099   -4.1186571    1.2122897      1024000 
  300000   0.88608145   -4.1194963   -4.1194963   -2.9070914 0.0046111868   -4.1194963    1.2124049      1024000 
  301000   0.88504279   -4.1182456   -4.1182456    -2.907132  0.011739392   -4.1182456    1.2111135      1024000 
  302000   0.88598374   -4.1189602   -4.1189602    -2.906434 -0.0024529309   -4.1189602    1.2125262      1024000 
  303000    0.8864129   -4.1206613   -4.1206613   -2.9073902 -0.0013399115   -4.1206613    1.2132711      1024000 
  304000   0.88602231   -4.1213135   -4.1213135   -2.9084244 0.0069220055   -4.1213135    1.2128891      1024000 
  305000   0.88582751   -4.1213115   -4.1213115   -2.9085214 0.0050023207   -4.1213115    1.2127901      1024000 
  306000   0.88616129   -4.1228711   -4.1228711   -2.9094413 0.0020108726   -4.1228711    1.2134298      1024000 
  307000   0.88492744   -4.1219578   -4.1219578     -2.91009 -0.0063275859   -4.1219578    1.2118678      1024000 
  308000   0.88492176   -4.1222439   -4.1222439   -2.9102463 0.0083356751   -4.1222439    1.2119976      1024000 
  309000   0.88375942   -4.1215432   -4.1215432   -2.9110176 -0.0061301507   -4.1215432    1.2105256      1024000 
  310000   0.88347055   -4.1217203   -4.1217203    -2.911418 -0.0086311056   -4.1217203    1.2103023      1024000 
  311000   0.88311894   -4.1211932   -4.1211932   -2.9112128 0.00094341402   -4.1211932    1.2099804      1024000 
  312000   0.88352114   -4.1212623   -4.1212623   -2.9106108 -0.0044333775   -4.1212623    1.2106515      1024000 
  313000   0.88279468   -4.1222235   -4.1222235    -2.912405 -0.0024220771   -4.1222235    1.2098184      1024000 
  314000   0.88206531    -4.122149    -4.122149   -2.9131978 -0.0052413406    -4.122149    1.2089512      1024000 
  315000   0.88093916    -4.121753    -4.121753   -2.9142156 -0.0026509079    -4.121753    1.2075374      1024000 
  316000   0.88097421   -4.1223067   -4.1223067   -2.9145891 0.0018574771   -4.1223067    1.2077177      1024000 
  317000   0.88373969   -4.1260657   -4.1260657   -2.9144342 -0.012767452   -4.1260657    1.2116315      1024000 
  318000   0.88188395   -4.1233986   -4.1233986   -2.9141291 -0.0042429114   -4.1233986    1.2092696      1024000 
  319000   0.88202996   -4.1239386   -4.1239386   -2.9143538 0.0096118059   -4.1239386    1.2095848      1024000 
  320000   0.88196831   -4.1235338   -4.1235338   -2.9139136 0.00078563326   -4.1235338    1.2096202      1024000 
  321000   0.88130298   -4.1241257   -4.1241257   -2.9152731  0.018240175   -4.1241257    1.2088526      1024000 
  322000   0.88123287   -4.1249693   -4.1249693   -2.9160154 0.0035246979   -4.1249693    1.2089539      1024000 
  323000   0.87962509   -4.1242269   -4.1242269   -2.9173291 0.0082674317   -4.1242269    1.2068979      1024000 
  324000   0.88067529   -4.1263167   -4.1263167    -2.917828 -0.0042448198   -4.1263167    1.2084887      1024000 
  325000   0.87980156   -4.1263732   -4.1263732   -2.9189486 0.0092650636   -4.1263732    1.2074246      1024000 
  326000    0.8793692   -4.1258317   -4.1258317   -2.9188507 0.0093526247   -4.1258317     1.206981      1024000 
  327000     0.878086    -4.126214    -4.126214   -2.9208472 0.0071678811    -4.126214    1.2053668      1024000 
  328000   0.87939963   -4.1293411   -4.1293411   -2.9220361 -0.0093412396   -4.1293411    1.2073049      1024000 
  329000   0.87817256   -4.1272886   -4.1272886   -2.9215485  0.011197039   -4.1272886      1.20574      1024000 
  330000   0.87879876   -4.1286143   -4.1286143   -2.9218722   0.01329878   -4.1286143    1.2067421      1024000 
  331000   0.87923038   -4.1285785   -4.1285785   -2.9210988 0.0096160606   -4.1285785    1.2074797      1024000 
  332000   0.87944161   -4.1291856   -4.1291856   -2.9212808 0.0090189377   -4.1291856    1.2079048      1024000 
  333000    0.8804171   -4.1314391   -4.1314391   -2.9220618 0.0022616048   -4.1314391    1.2093773      1024000 
  334000   0.87948489   -4.1315182   -4.1315182   -2.9232713 0.0057673913   -4.1315182    1.2082469      1024000 
  335000   0.87855222   -4.1303237   -4.1303237   -2.9232232  0.012548546   -4.1303237    1.2071005      1024000 
  336000   0.88032232   -4.1320858   -4.1320858   -2.9223955 0.0032439446   -4.1320858    1.2096903      1024000 
  337000    0.8776956   -4.1298012   -4.1298012   -2.9235905 0.0050856688   -4.1298012    1.2062107      1024000 
  338000     0.878834   -4.1313704   -4.1313704   -2.9234701  0.013259063   -4.1313704    1.2079003      1024000 
  339000    0.8785538   -4.1329647   -4.1329647   -2.9253295 0.0020327642   -4.1329647    1.2076352      1024000 
  340000   0.87872754   -4.1348052   -4.1348052   -2.9268135 0.0030869297   -4.1348052    1.2079917      1024000 
  341000   0.87699922   -4.1321139   -4.1321139   -2.9263633 0.0089552144   -4.1321139    1.2057506      1024000 
  342000   0.87751098   -4.1329836   -4.1329836   -2.9263894 0.0032242787   -4.1329836    1.2065942      1024000 
  343000   0.87661069   -4.1338248   -4.1338248   -2.9283136 0.0027737067   -4.1338248    1.2055111      1024000 
  344000   0.87588246    -4.132855    -4.132855    -2.928223 -0.011185809    -4.132855     1.204632      1024000 
  345000   0.87680646   -4.1339029   -4.1339029   -2.9278451 0.0044308046   -4.1339029    1.2060578      1024000 
  346000   0.87499662   -4.1329813   -4.1329813   -2.9292359 0.0038343751   -4.1329813    1.2037455      1024000 
  347000   0.87482557   -4.1330915   -4.1330915   -2.9294316 0.0089899046   -4.1330915    1.2036599      1024000 
  348000   0.87387492    -4.133107    -4.133107   -2.9306279 0.0062944196    -4.133107     1.202479      1024000 
  349000   0.87472276   -4.1349464   -4.1349464   -2.9311809 0.0053616905   -4.1349464    1.2037655      1024000 
  350000   0.87398852    -4.135421    -4.135421   -2.9325611 -0.0051314214    -4.135421    1.2028598      1024000 
  351000   0.87387389   -4.1347691   -4.1347691   -2.9319498 0.0044500925   -4.1347691    1.2028193      1024000 
  352000   0.87392831   -4.1350936   -4.1350936   -2.9320796 -0.0014665751   -4.1350936     1.203014      1024000 
  353000   0.87466786   -4.1362574   -4.1362574    -2.932098 0.0078224549   -4.1362574    1.2041594      1024000 
  354000   0.87457007   -4.1366627   -4.1366627   -2.9325055 0.0025829036   -4.1366627    1.2041572      1024000 
  355000   0.87373407   -4.1353085   -4.1353085   -2.9321651 0.0019003976   -4.1353085    1.2031434      1024000 
  356000   0.87384973   -4.1349404   -4.1349404   -2.9315078 0.0075872295   -4.1349404    1.2034326      1024000 
  357000   0.87428099   -4.1361848   -4.1361848   -2.9320483 0.0063569869   -4.1361848    1.2041364      1024000 
  358000   0.87513518   -4.1379407   -4.1379407   -2.9324577  0.015552553   -4.1379407     1.205483      1024000 
  359000   0.87369856   -4.1367882   -4.1367882   -2.9331666 0.0082377344   -4.1367882    1.2036215      1024000 
  360000   0.87443011    -4.138883    -4.138883   -2.9341187 -0.0021808657    -4.138883    1.2047644      1024000 
  361000   0.87373243   -4.1385882   -4.1385882    -2.934675 0.0064095748   -4.1385882    1.2039131      1024000 
  362000   0.87272157   -4.1384247   -4.1384247   -2.9357471  0.011970572   -4.1384247    1.2026776      1024000 
  363000   0.87311097   -4.1387116   -4.1387116     -2.93536  0.008038616   -4.1387116    1.2033516      1024000 
  364000     0.871718   -4.1368098   -4.1368098   -2.9352482 0.0051432416   -4.1368098    1.2015616      1024000 
  365000   0.87283032   -4.1382428   -4.1382428    -2.935023  0.007733262   -4.1382428    1.2032197      1024000 
  366000     0.872398   -4.1381328   -4.1381328   -2.9353866 0.0015214552   -4.1381328    1.2027462      1024000 
  367000   0.87105762   -4.1376022   -4.1376022   -2.9365542 -0.0002738686   -4.1376022     1.201048      1024000 
  368000   0.87159999   -4.1399234   -4.1399234   -2.9380227 -0.0023656756   -4.1399234    1.2019007      1024000 
  369000   0.87103316   -4.1403163   -4.1403163   -2.9390475 -0.00080756275   -4.1403163    1.2012688      1024000 
  370000   0.87096182    -4.140798    -4.140798   -2.9394902 -0.00010702091    -4.140798    1.2013078      1024000 
  371000   0.86919935    -4.139463    -4.139463   -2.9404291 -0.0026182481    -4.139463    1.1990338      1024000 
  372000   0.86918846    -4.140159    -4.140159   -2.9410181  -0.00351744    -4.140159    1.1991409      1024000 
  373000   0.86998646   -4.1415246   -4.1415246   -2.9411405 0.0014233323   -4.1415246    1.2003841      1024000 
  374000   0.87119779   -4.1437151   -4.1437151   -2.9415347 -0.0028913177   -4.1437151    1.2021805      1024000 
  375000   0.86910383   -4.1412931   -4.1412931   -2.9418625 -0.0027305208   -4.1412931    1.1994306      1024000 
  376000   0.86845895   -4.1405948   -4.1405948   -2.9419195 0.0063366389   -4.1405948    1.1986753      1024000 
  377000   0.87059314   -4.1438394   -4.1438394    -2.942091 -0.0089040789   -4.1438394    1.2017484      1024000 
  378000   0.86907001   -4.1427117   -4.1427117    -2.942946 0.0086667888   -4.1427117    1.1997657      1024000 
  379000   0.86937469   -4.1434146   -4.1434146   -2.9430984 -0.0017877929   -4.1434146    1.2003162      1024000 
  380000   0.86884896   -4.1431861   -4.1431861    -2.943476 0.0029931637   -4.1431861    1.1997101      1024000 
  381000   0.86976434   -4.1442844   -4.1442844   -2.9431854 0.0039521082   -4.1442844     1.201099      1024000 
  382000   0.87013935   -4.1447015   -4.1447015   -2.9429796 0.0080324706   -4.1447015    1.2017219      1024000 
  383000   0.86897635   -4.1445296   -4.1445296   -2.9442789 0.0036213451   -4.1445296    1.2002506      1024000 
  384000   0.86946437   -4.1455296   -4.1455296   -2.9444949 0.0065184021   -4.1455296    1.2010347      1024000 
  385000   0.86884659   -4.1441445   -4.1441445   -2.9438332 0.0063382988   -4.1441445    1.2003113      1024000 
  386000   0.86967489   -4.1463482   -4.1463482   -2.9447976 -0.00072483671   -4.1463482    1.2015506      1024000 
  387000   0.86840615   -4.1454155   -4.1454155   -2.9454979 0.0050489526   -4.1454155    1.1999176      1024000 
  388000     0.868166   -4.1453063   -4.1453063   -2.9455981 0.0010619897   -4.1453063    1.1997082      1024000 
  389000   0.86694741   -4.1444915   -4.1444915   -2.9463301  0.014474762   -4.1444915    1.1981615      1024000 
  390000   0.86516521   -4.1435282   -4.1435282   -2.9477203 0.0083500251   -4.1435282     1.195808      1024000 
  391000   0.86648376   -4.1455951   -4.1455951   -2.9478025  0.012127983   -4.1455951    1.1977926      1024000 
  392000   0.86722482   -4.1472019   -4.1472019     -2.94826 -0.012013857   -4.1472019    1.1989419      1024000 
  393000   0.86703489   -4.1470275   -4.1470275   -2.9482358 0.0073090247   -4.1470275    1.1987917      1024000 
  394000   0.86706393   -4.1473925   -4.1473925   -2.9484033 -0.001280981   -4.1473925    1.1989892      1024000 
  395000   0.86550974   -4.1460232   -4.1460232   -2.9490385 -0.0032623333   -4.1460232    1.1969847      1024000 
  396000   0.86541814   -4.1465668   -4.1465668   -2.9495815 0.0045553007   -4.1465668    1.1969853      1024000 
  397000   0.86587475   -4.1481661   -4.1481661   -2.9504294 -0.00022323062   -4.1481661    1.1977366      1024000 
  398000   0.86576823   -4.1477399   -4.1477399   -2.9500208 0.0018872328   -4.1477399    1.1977191      1024000 
  399000   0.86583819   -4.1482654   -4.1482654   -2.9503296 0.0071995229   -4.1482654    1.1979358      1024000 
  400000   0.86469406   -4.1468403   -4.1468403   -2.9503154 -0.003725448   -4.1468403    1.1965249      1024000 
  401000   0.86468374   -4.1472605   -4.1472605    -2.950635 -0.0047812296   -4.1472605    1.1966254      1024000 
  402000   0.86385979   -4.1459735   -4.1459735   -2.9503661 -0.006035869   -4.1459735    1.1956074      1024000 
  403000   0.86314409   -4.1454558   -4.1454558   -2.9507044  0.004192104   -4.1454558    1.1947514      1024000 
  404000   0.86373763   -4.1462578   -4.1462578   -2.9505677 0.0050744366   -4.1462578    1.1956901      1024000 
  405000   0.86533782   -4.1489712   -4.1489712   -2.9509409 0.0059232795   -4.1489712    1.1980303      1024000 
  406000    0.8648869   -4.1488091   -4.1488091   -2.9513107 0.0086854036   -4.1488091    1.1974984      1024000 
  407000   0.86566084    -4.149914    -4.149914   -2.9512114 0.0090196876    -4.149914    1.1987026      1024000 
  408000   0.86383846   -4.1493057   -4.1493057   -2.9529918 -0.0016269464   -4.1493057    1.1963139      1024000 
  409000   0.86369603   -4.1481364   -4.1481364   -2.9518625 0.0087148648   -4.1481364    1.1962739      1024000 
  410000   0.86380525   -4.1474313   -4.1474313   -2.9508887 0.0056407317   -4.1474313    1.1965426      1024000 
  411000   0.86370417   -4.1476137   -4.1476137   -2.9510737 0.0088781833   -4.1476137    1.1965399      1024000 
  412000   0.86303138   -4.1471983   -4.1471983   -2.9514731 -0.0040247019   -4.1471983    1.1957252      1024000 
  413000   0.86434176   -4.1492474   -4.1492474   -2.9515767 0.0045029188   -4.1492474    1.1976707      1024000 
  414000   0.86530182   -4.1513991   -4.1513991   -2.9522629 -0.00020094016   -4.1513991    1.1991362      1024000 
  415000   0.86405527   -4.1510125   -4.1510125   -2.9534387 0.0010903151   -4.1510125    1.1975738      1024000 
  416000   0.86267252    -4.149322    -4.149322   -2.9535298 0.0015963838    -4.149322    1.1957922      1024000 
  417000   0.86286281   -4.1495023   -4.1495023   -2.9533488  0.010440877   -4.1495023    1.1961534      1024000 
  418000   0.86285571   -4.1502654   -4.1502654   -2.9539668 -0.00081938966   -4.1502654    1.1962985      1024000 
  419000   0.86223677   -4.1496149   -4.1496149   -2.9540621 -0.0035982995   -4.1496149    1.1955528      1024000 
  420000   0.86078606   -4.1484374   -4.1484374    -2.954774 -0.0030639875   -4.1484374    1.1936635      1024000 
  421000   0.85892708   -4.1465713   -4.1465713   -2.9553562 0.0049940713   -4.1465713    1.1912151      1024000 
  422000   0.86078108    -4.151003    -4.151003   -2.9570944 -0.0025799367    -4.151003    1.1939086      1024000 
  423000   0.86084295   -4.1506296   -4.1506296   -2.9565054 0.0027074334   -4.1506296    1.1941242      1024000 
  424000   0.86004924    -4.150163    -4.150163   -2.9570126 -0.0086899299    -4.150163    1.1931504      1024000 
  425000   0.85945397   -4.1506271   -4.1506271   -2.9581829 0.0028151005   -4.1506271    1.1924442      1024000 
  426000   0.85762403   -4.1488929   -4.1488929   -2.9588558  0.002517907   -4.1488929    1.1900371      1024000 
  427000   0.85973985   -4.1508297   -4.1508297   -2.9577269 -0.0058856678   -4.1508297    1.1931028      1024000 
  428000   0.85959429   -4.1518274   -4.1518274   -2.9588094 0.0045002554   -4.1518274     1.193018      1024000 
  429000   0.85937344   -4.1527766   -4.1527766   -2.9599378 -0.0033770717   -4.1527766    1.1928387      1024000 
  430000   0.85976117   -4.1534424   -4.1534424   -2.9599581  0.004024525   -4.1534424    1.1934843      1024000 
  431000   0.85866711   -4.1529599   -4.1529599   -2.9608896  0.007698587   -4.1529599    1.1920703      1024000 
  432000   0.86052346   -4.1558394   -4.1558394    -2.961052 0.0015273656   -4.1558394    1.1947874      1024000 
  433000   0.85938771   -4.1551455   -4.1551455   -2.9617827 0.0043365766   -4.1551455    1.1933628      1024000 
  434000   0.85890544   -4.1548969   -4.1548969    -2.962064 0.0042121732   -4.1548969    1.1928328      1024000 
  435000   0.85818874   -4.1562434   -4.1562434   -2.9642837   0.01215723   -4.1562434    1.1919597      1024000 
  436000   0.85900091   -4.1587509   -4.1587509   -2.9655283 0.0016086808   -4.1587509    1.1932226      1024000 
  437000   0.85837457   -4.1579575   -4.1579575   -2.9654526 -0.0034562221   -4.1579575    1.1925049      1024000 
  438000   0.85755061   -4.1582216   -4.1582216   -2.9667467 0.0033104839   -4.1582216    1.1914749      1024000 
  439000   0.85713086   -4.1572114   -4.1572114     -2.96621 0.0060593646   -4.1572114    1.1910014      1024000 
  440000   0.85786996   -4.1580561   -4.1580561   -2.9659153 0.0079978025   -4.1580561    1.1921408      1024000 
  441000   0.85784983    -4.158836    -4.158836   -2.9666159 -0.0047500482    -4.158836    1.1922201      1024000 
  442000   0.85675061   -4.1585278   -4.1585278   -2.9676981 0.0032269694   -4.1585278    1.1908296      1024000 
  443000   0.85769292    -4.160179    -4.160179   -2.9679122 -0.00014213494    -4.160179    1.1922667      1024000 
  444000   0.85820864   -4.1612638   -4.1612638   -2.9681577 0.0041748265   -4.1612638    1.1931061      1024000 
  445000   0.85782696   -4.1599895   -4.1599895   -2.9673016  0.019218883   -4.1599895    1.1926879      1024000 
  446000   0.85772779   -4.1601963   -4.1601963   -2.9675463  0.018995506   -4.1601963      1.19265      1024000 
  447000   0.85841642   -4.1617751   -4.1617751     -2.96804 0.0092482077   -4.1617751    1.1937351      1024000 
  448000   0.85847746   -4.1619478   -4.1619478   -2.9680027 0.0092821392   -4.1619478    1.1939451      1024000 
  449000   0.85858592     -4.16317     -4.16317   -2.9689515 0.0070025735     -4.16317    1.1942185      1024000 
  450000   0.85694632    -4.160794    -4.160794   -2.9686786  0.010643931    -4.160794    1.1921154      1024000 
  451000   0.85820318   -4.1637891   -4.1637891   -2.9697801 0.0093009191   -4.1637891     1.194009      1024000 
  452000   0.85823733   -4.1646911   -4.1646911   -2.9705144  0.007294373   -4.1646911    1.1941767      1024000 
  453000   0.85690593    -4.163491    -4.163491   -2.9710568 0.0076088663    -4.163491    1.1924342      1024000 
  454000   0.85625925   -4.1620302   -4.1620302   -2.9703735 0.0097520481   -4.1620302    1.1916567      1024000 
  455000   0.85601164   -4.1628329   -4.1628329   -2.9714059 4.914161e-05   -4.1628329    1.1914271      1024000 
  456000   0.85399418    -4.160757    -4.160757   -2.9720108 0.0096112022    -4.160757    1.1887462      1024000 
  457000   0.85593662   -4.1645728   -4.1645728   -2.9730002 -0.0010727933   -4.1645728    1.1915726      1024000 
  458000   0.85582328    -4.164473    -4.164473   -2.9729582 -0.00074287251    -4.164473    1.1915148      1024000 
  459000   0.85523264   -4.1639515   -4.1639515   -2.9731417 0.0018449547   -4.1639515    1.1908099      1024000 
  460000   0.85479634   -4.1643091   -4.1643091   -2.9740118 0.0032042005   -4.1643091    1.1902973      1024000 
  461000   0.85505472   -4.1641249   -4.1641249   -2.9733729 -0.0021106732   -4.1641249     1.190752      1024000 
  462000   0.85377449   -4.1624061   -4.1624061   -2.9733422 0.00059514605   -4.1624061     1.189064      1024000 
  463000   0.85366297   -4.1628395   -4.1628395   -2.9737411 0.0032618919   -4.1628395    1.1890983      1024000 
  464000   0.85286642   -4.1627899   -4.1627899   -2.9746889 0.00068421967   -4.1627899     1.188101      1024000 
  465000   0.85452114   -4.1646826   -4.1646826    -2.974154 -0.00037226572   -4.1646826    1.1905286      1024000 
  466000   0.85239294   -4.1627983   -4.1627983   -2.9751275 -0.00038103915   -4.1627983    1.1876708      1024000 
  467000   0.85208073    -4.163113    -4.163113   -2.9757376 0.0064741772    -4.163113    1.1873754      1024000 
  468000   0.85145836   -4.1635938   -4.1635938   -2.9769611 0.0080291275   -4.1635938    1.1866327      1024000 
  469000   0.85242016   -4.1640041   -4.1640041   -2.9759187 0.0099992048   -4.1640041    1.1880854      1024000 
  470000   0.85211703   -4.1641828   -4.1641828   -2.9764001 -0.0052306195   -4.1641828    1.1877827      1024000 
  471000    0.8522023   -4.1637913   -4.1637913    -2.975745 -0.0047210733   -4.1637913    1.1880462      1024000 
  472000   0.85280259   -4.1641063   -4.1641063   -2.9750983 0.0033277617   -4.1641063     1.189008      1024000 
  473000   0.85243452   -4.1637768   -4.1637768   -2.9751721 0.0059685811   -4.1637768    1.1886047      1024000 
  474000    0.8517237   -4.1629712   -4.1629712   -2.9752478  0.006972037   -4.1629712    1.1877234      1024000 
  475000   0.85305084   -4.1655346   -4.1655346   -2.9758405 0.0039385885   -4.1655346    1.1896941      1024000 
  476000   0.85176209   -4.1649442   -4.1649442   -2.9769077 0.0021297282   -4.1649442    1.1880365      1024000 
  477000   0.85154346   -4.1653785   -4.1653785    -2.977567  0.012513407   -4.1653785    1.1878115      1024000 
  478000   0.85207093   -4.1675601   -4.1675601   -2.9788679 -0.0050145261   -4.1675601    1.1886922      1024000 
  479000   0.84957598   -4.1641374   -4.1641374   -2.9787888 0.00053941676   -4.1641374    1.1853486      1024000 
  480000   0.85253547   -4.1679391   -4.1679391   -2.9783712 0.0037378704   -4.1679391    1.1895678      1024000 
  481000   0.85277812   -4.1684031   -4.1684031   -2.9784117 0.0030348713   -4.1684031    1.1899915      1024000 
  482000   0.85157513   -4.1672567   -4.1672567   -2.9788264 -0.0055004262   -4.1672567    1.1884302      1024000 
  483000   0.84953548   -4.1648097   -4.1648097   -2.9791013 0.0032258531   -4.1648097    1.1857084      1024000 
  484000   0.84905729   -4.1652461   -4.1652461   -2.9800705 0.0080927139   -4.1652461    1.1851756      1024000 
  485000    0.8513224   -4.1681593   -4.1681593   -2.9797069 0.0048865642   -4.1681593    1.1884524      1024000 
  486000    0.8518778   -4.1684362   -4.1684362   -2.9790709 0.0056822369   -4.1684362    1.1893654      1024000 
  487000   0.85260867   -4.1698164   -4.1698164   -2.9792904 0.0039220294   -4.1698164     1.190526      1024000 
  488000   0.85188393    -4.168962    -4.168962   -2.9793578 0.0080646307    -4.168962    1.1896042      1024000 
  489000   0.85105685   -4.1682282   -4.1682282   -2.9796664    0.0115574   -4.1682282    1.1885618      1024000 
  490000   0.85150095   -4.1699527   -4.1699527    -2.980623  0.012088857   -4.1699527    1.1893297      1024000 
  491000   0.84947212   -4.1669287   -4.1669287   -2.9803204  0.017513627   -4.1669287    1.1866083      1024000 
  492000   0.84971847   -4.1677755   -4.1677755   -2.9807356 0.0087160058   -4.1677755    1.1870399      1024000 
  493000   0.84919347   -4.1677163   -4.1677163   -2.9812849 0.0048137305   -4.1677163    1.1864313      1024000 
  494000   0.84913665   -4.1684157   -4.1684157   -2.9819139 -0.0016919125   -4.1684157    1.1865018      1024000 
  495000   0.84604649   -4.1661513   -4.1661513   -2.9838504 0.0021410118   -4.1661513    1.1823009      1024000 
  496000   0.84619323   -4.1672767   -4.1672767   -2.9846611 0.0055869551   -4.1672767    1.1826156      1024000 
  497000   0.84808383   -4.1704102   -4.1704102     -2.98504 -0.00062379489   -4.1704102    1.1853702      1024000 
  498000   0.84735169   -4.1685067   -4.1685067   -2.9840276 -0.0031592134   -4.1685067    1.1844791      1024000 
  499000    0.8472301   -4.1683168   -4.1683168   -2.9839004 1.5914053e-05   -4.1683168    1.1844164      1024000 
  500000   0.84889001   -4.1697152   -4.1697152   -2.9828507 -0.00056761146   -4.1697152    1.1868644      1024000 
  501000   0.84702547   -4.1676497   -4.1676497   -2.9833048 0.0072608943   -4.1676497    1.1843449      1024000 
  502000   0.84907667   -4.1697213   -4.1697213   -2.9823782 -0.0052502097   -4.1697213     1.187343      1024000 
  503000   0.84915007    -4.170746    -4.170746   -2.9831977  0.006583795    -4.170746    1.1875483      1024000 
  504000   0.84953645   -4.1709731   -4.1709731   -2.9827517 0.0069837563   -4.1709731    1.1882214      1024000 
  505000   0.84773785   -4.1686452   -4.1686452   -2.9828195  0.017157421   -4.1686452    1.1858257      1024000 
  506000   0.84931398    -4.170408    -4.170408   -2.9822598  0.010152888    -4.170408    1.1881481      1024000 
  507000   0.84856363   -4.1695959   -4.1695959   -2.9824149 0.0054121209   -4.1695959     1.187181      1024000 
  508000   0.84910656   -4.1713482   -4.1713482   -2.9832623 -0.0041003601   -4.1713482    1.1880859      1024000 
  509000   0.84783128   -4.1703734   -4.1703734   -2.9839468 0.0064460025   -4.1703734    1.1864265      1024000 
  510000   0.84562148   -4.1680004   -4.1680004   -2.9845065 0.00058061326   -4.1680004    1.1834939      1024000 
  511000   0.84624632   -4.1694164   -4.1694164   -2.9849531 0.0026698946   -4.1694164    1.1844634      1024000 
  512000   0.84689803   -4.1707207   -4.1707207   -2.9852276 -0.0010478368   -4.1707207    1.1854931      1024000 
  513000    0.8467265   -4.1711178   -4.1711178   -2.9857424 0.0054126186   -4.1711178    1.1853755      1024000 
  514000   0.84632006   -4.1707041   -4.1707041   -2.9857977 -0.003296135   -4.1707041    1.1849065      1024000 
  515000   0.84639244   -4.1699795   -4.1699795   -2.9848667 0.0092472531   -4.1699795    1.1851128      1024000 
  516000   0.84505735   -4.1684385   -4.1684385   -2.9850902 0.0073733971   -4.1684385    1.1833483      1024000 
  517000   0.84530642   -4.1698587   -4.1698587   -2.9860467 0.0078909292   -4.1698587     1.183812      1024000 
  518000   0.84507687   -4.1702048   -4.1702048   -2.9865794  0.015343707   -4.1702048    1.1836254      1024000 
  519000   0.84582517   -4.1710932   -4.1710932   -2.9863097  0.003126315   -4.1710932    1.1847835      1024000 
  520000   0.84387802    -4.168463    -4.168463   -2.9862972 0.00033918238    -4.168463    1.1821658      1024000 
  521000   0.84368295   -4.1693014   -4.1693014   -2.9872766 -0.0004101955   -4.1693014    1.1820248      1024000 
  522000   0.84325835   -4.1691421   -4.1691421   -2.9875899 0.0061345017   -4.1691421    1.1815522      1024000 
  523000   0.84329774   -4.1712101   -4.1712101    -2.989463 -0.00067992051   -4.1712101    1.1817471      1024000 
  524000   0.84192303   -4.1700274   -4.1700274   -2.9900722 -0.0060166505   -4.1700274    1.1799552      1024000 
  525000   0.84240017   -4.1709983   -4.1709983   -2.9902571 -0.008218121   -4.1709983    1.1807411      1024000 
  526000   0.84392558   -4.1730421   -4.1730421    -2.990048 -0.0040888766   -4.1730421    1.1829942      1024000 
  527000   0.84245453   -4.1715889   -4.1715889   -2.9905371 0.0035120382   -4.1715889    1.1810518      1024000 
  528000   0.84373117   -4.1744301   -4.1744301   -2.9914611 -0.0011435936   -4.1744301     1.182969      1024000 
  529000   0.84233363   -4.1738414   -4.1738414   -2.9927021 0.00068794221   -4.1738414    1.1811393      1024000 
  530000   0.84293747   -4.1745508   -4.1745508   -2.9924673 0.0029014241   -4.1745508    1.1820835      1024000 
  531000   0.84253677   -4.1744489   -4.1744489   -2.9928075  0.012537592   -4.1744489    1.1816414      1024000 
  532000   0.84365241   -4.1767445   -4.1767445   -2.9934359 0.00019042733   -4.1767445    1.1833086      1024000 
  533000   0.84335934   -4.1766387   -4.1766387   -2.9936411 3.6398117e-05   -4.1766387    1.1829976      1024000 
  534000   0.84294187   -4.1761197   -4.1761197   -2.9936077 0.0020251708   -4.1761197    1.1825119      1024000 
  535000   0.84197847    -4.175119    -4.175119   -2.9938461 0.0027714887    -4.175119    1.1812728      1024000 
  536000   0.84278556   -4.1766334   -4.1766334   -2.9941008 0.0053132466   -4.1766334    1.1825327      1024000 
  537000   0.84351327   -4.1772526   -4.1772526   -2.9935913  0.008432381   -4.1772526    1.1836613      1024000 
  538000   0.84251249   -4.1766302   -4.1766302   -2.9942457 0.0081924833   -4.1766302    1.1823845      1024000 
  539000   0.84309525   -4.1773166   -4.1773166   -2.9939842  0.012284113   -4.1773166    1.1833325      1024000 
  540000   0.84271544   -4.1768254   -4.1768254   -2.9938809 0.0071033573   -4.1768254    1.1829445      1024000 
  541000   0.84235791   -4.1768512   -4.1768512   -2.9943035  0.011067847   -4.1768512    1.1825477      1024000 
  542000    0.8425099   -4.1777787   -4.1777787   -2.9949075  0.010340637   -4.1777787    1.1828712      1024000 
  543000    0.8426477   -4.1787984   -4.1787984   -2.9956136 0.0033982391   -4.1787984    1.1831848      1024000 
  544000   0.84342247   -4.1809503   -4.1809503   -2.9965648 0.0021387496   -4.1809503    1.1843854      1024000 
  545000   0.84194498    -4.179262    -4.179262   -2.9968588  0.014172404    -4.179262    1.1824032      1024000 
  546000   0.84207865   -4.1785885   -4.1785885   -2.9958899 0.0011162552   -4.1785885    1.1826986      1024000 
  547000   0.84011219   -4.1762403   -4.1762403   -2.9961787 0.0030851638   -4.1762403    1.1800616      1024000 
  548000   0.84099549   -4.1790904   -4.1790904    -2.997673 0.0054184134   -4.1790904    1.1814173      1024000 
  549000   0.84145777   -4.1791799   -4.1791799    -2.996988 0.0080909073   -4.1791799    1.1821919      1024000 
  550000   0.84066032   -4.1788865   -4.1788865    -2.997705 -0.00035548813   -4.1788865    1.1811815      1024000 
  551000   0.84053601   -4.1784954   -4.1784954   -2.9973935 -0.0067520033   -4.1784954    1.1811019      1024000 
  552000   0.83995697   -4.1776148   -4.1776148   -2.9972216  0.010471189   -4.1776148    1.1803932      1024000 
  553000   0.83867771   -4.1768854   -4.1768854   -2.9981801 0.0062065437   -4.1768854    1.1787053      1024000 
  554000   0.83729814   -4.1762938   -4.1762938   -2.9994102 -0.0035373774   -4.1762938    1.1768835      1024000 
  555000   0.83796027   -4.1774241   -4.1774241   -2.9995175 -0.0007702466   -4.1774241    1.1779065      1024000 
  556000   0.83823013   -4.1777862   -4.1777862    -2.999388 -0.0020537711   -4.1777862    1.1783982      1024000 
  557000   0.83857086   -4.1780286   -4.1780286   -2.9990415 -0.0021924782   -4.1780286    1.1789871      1024000 
  558000   0.83730362   -4.1766393   -4.1766393   -2.9992967 -0.0076497042   -4.1766393    1.1773426      1024000 
  559000   0.83649973   -4.1766553   -4.1766553    -3.000301   0.00102874   -4.1766553    1.1763543      1024000 
  560000   0.83742396   -4.1787133   -4.1787133    -3.000937 -0.0033305712   -4.1787133    1.1777764      1024000 
  561000   0.83671413   -4.1786295   -4.1786295   -3.0017367 0.0021079467   -4.1786295    1.1768928      1024000 
  562000   0.83796359   -4.1794359   -4.1794359   -3.0006433 0.0027332094   -4.1794359    1.1787926      1024000 
  563000   0.83688618   -4.1776647   -4.1776647   -3.0003128 -0.0010063104   -4.1776647    1.1773519      1024000 
  564000   0.83701191   -4.1779816   -4.1779816    -3.000333 -0.0078112546   -4.1779816    1.1776486      1024000 
  565000   0.83673029    -4.177923    -4.177923   -3.0005459 -0.0053208182    -4.177923    1.1773772      1024000 
  566000   0.83670688   -4.1793682   -4.1793682   -3.0019066 -0.0087891725   -4.1793682    1.1774616      1024000 
  567000   0.83602692   -4.1793404   -4.1793404   -3.0027284 -0.0038252621   -4.1793404     1.176612      1024000 
  568000   0.83590022   -4.1793198   -4.1793198   -3.0027988 5.2165396e-05   -4.1793198     1.176521      1024000 
  569000   0.83696312   -4.1807161   -4.1807161   -3.0025641  0.005426567   -4.1807161     1.178152      1024000 
  570000      0.83661   -4.1801043   -4.1801043   -3.0023244 -0.0036328062   -4.1801043    1.1777798      1024000 
  571000    0.8372425    -4.180948    -4.180948   -3.0021552 0.0036753586    -4.180948    1.1787928      1024000 
  572000   0.83737784   -4.1817434   -4.1817434   -3.0026575 0.0096027595   -4.1817434    1.1790859      1024000 
  573000   0.83821623   -4.1821724   -4.1821724   -3.0018158 0.0072355042   -4.1821724    1.1803566      1024000 
  574000   0.83766546   -4.1830581   -4.1830581    -3.003367 0.0047513506   -4.1830581    1.1796911      1024000 
  575000   0.83664091   -4.1817057   -4.1817057   -3.0033174   0.00663236   -4.1817057    1.1783883      1024000 
  576000   0.83623655   -4.1818542   -4.1818542   -3.0039254 0.0024191978   -4.1818542    1.1779288      1024000 
  577000   0.83704977    -4.183378    -4.183378   -3.0042061 0.0064311027    -4.183378    1.1791719      1024000 
  578000   0.83705286   -4.1829142   -4.1829142   -3.0036453 0.0062515155   -4.1829142    1.1792689      1024000 
  579000   0.83801159   -4.1854625   -4.1854625   -3.0047252 2.4480745e-05   -4.1854625    1.1807374      1024000 
  580000   0.83574375   -4.1842934   -4.1842934   -3.0066038 -0.0016460899   -4.1842934    1.1776896      1024000 
  581000   0.83497481   -4.1834735   -4.1834735   -3.0067701  0.011474154   -4.1834735    1.1767035      1024000 
  582000   0.83608464   -4.1852435   -4.1852435   -3.0068884 -0.0024487786   -4.1852435    1.1783551      1024000 
  583000    0.8364902   -4.1858397   -4.1858397   -3.0068153  0.013918364   -4.1858397    1.1790243      1024000 
  584000   0.83547126   -4.1844131   -4.1844131   -3.0067074 0.0029324163   -4.1844131    1.1777057      1024000 
  585000   0.83440362   -4.1838099   -4.1838099   -3.0075142  0.011378644   -4.1838099    1.1762957      1024000 
  586000   0.83544712   -4.1847719   -4.1847719   -3.0069151 0.0090846413   -4.1847719    1.1778569      1024000 
  587000   0.83440264   -4.1841633   -4.1841633    -3.007644 0.0047458896   -4.1841633    1.1765193      1024000 
  588000   0.83452495   -4.1842283   -4.1842283   -3.0074466 0.0066024155   -4.1842283    1.1767817      1024000 
  589000   0.83517134    -4.185132    -4.185132   -3.0073112   0.01185946    -4.185132    1.1778209      1024000 
  590000   0.83481391   -4.1837408   -4.1837408   -3.0063164 0.0054952983   -4.1837408    1.1774244      1024000 
  591000   0.83467217   -4.1826196   -4.1826196   -3.0053025 0.0042910744   -4.1826196    1.1773171      1024000 
  592000   0.83432641   -4.1819912   -4.1819912   -3.0050543 0.0098154589   -4.1819912    1.1769369      1024000 
  593000   0.83518423   -4.1837981   -4.1837981   -3.0055484 0.0079992993   -4.1837981    1.1782497      1024000 
  594000   0.83474039   -4.1834313   -4.1834313   -3.0057051 0.0021611722   -4.1834313    1.1777262      1024000 
  595000   0.83398293   -4.1834117   -4.1834117   -3.0066266 -3.2230478e-05   -4.1834117    1.1767851      1024000 
  596000   0.83383366    -4.182552    -4.182552   -3.0058649 -0.0055324999    -4.182552    1.1766871      1024000 
  597000   0.83234405   -4.1826201   -4.1826201   -3.0079052 -0.005047665   -4.1826201    1.1747149      1024000 
  598000   0.83082216   -4.1813753   -4.1813753   -3.0087011 0.0044841818   -4.1813753    1.1726742      1024000 
  599000   0.83225541   -4.1831638   -4.1831638   -3.0083292 -0.0069618886   -4.1831638    1.1748346      1024000 
  600000   0.83190792    -4.183826    -4.183826   -3.0093744 -0.0075739375    -4.183826    1.1744515      1024000 
  601000   0.83124743   -4.1828257   -4.1828257   -3.0092018 -0.0020619674   -4.1828257    1.1736239      1024000 
  602000   0.83117693   -4.1827141   -4.1827141   -3.0090848 0.0005799223   -4.1827141    1.1736293      1024000 
  603000   0.83193648   -4.1840838   -4.1840838   -3.0092921 -0.0028061884   -4.1840838    1.1747918      1024000 
  604000   0.83278354   -4.1848164   -4.1848164   -3.0087384 -0.0035355371   -4.1848164     1.176078      1024000 
  605000   0.83191027   -4.1843605   -4.1843605   -3.0094082 -0.0013288367   -4.1843605    1.1749523      1024000 
  606000   0.83152297   -4.1835227   -4.1835227     -3.00897 0.0030597124   -4.1835227    1.1745527      1024000 
  607000   0.83317496   -4.1850696   -4.1850696   -3.0080506 -0.0045460091   -4.1850696     1.177019      1024000 
  608000     0.831242   -4.1822189   -4.1822189   -3.0078456  0.010409215   -4.1822189    1.1743733      1024000 
  609000   0.83280159   -4.1849984   -4.1849984   -3.0082889 0.0044130102   -4.1849984    1.1767095      1024000 
  610000    0.8311355   -4.1835774   -4.1835774   -3.0091094 0.0011659143   -4.1835774    1.1744679      1024000 
  611000   0.83087109   -4.1841557   -4.1841557   -3.0099489 0.0016559227   -4.1841557    1.1742068      1024000 
  612000   0.83094181   -4.1834659   -4.1834659   -3.0090566 0.0098920432   -4.1834659    1.1744093      1024000 
  613000   0.82990021   -4.1845201   -4.1845201   -3.0114455 0.0057774519   -4.1845201    1.1730746      1024000 
  614000    0.8300408   -4.1845399   -4.1845399   -3.0111766 0.0060234407   -4.1845399    1.1733633      1024000 
  615000   0.83075383   -4.1854366   -4.1854366   -3.0109653 0.0066613043   -4.1854366    1.1744713      1024000 
  616000   0.83060381   -4.1847926   -4.1847926   -3.0104109 -0.00092335334   -4.1847926    1.1743818      1024000 
  617000   0.83104181    -4.185001    -4.185001   -3.0099098 -0.0060707654    -4.185001    1.1750912      1024000 
  618000    0.8309405   -4.1847275   -4.1847275   -3.0096819 -0.0010110733   -4.1847275    1.1750456      1024000 
  619000   0.83086432   -4.1851755   -4.1851755     -3.01014 -0.0052421389   -4.1851755    1.1750355      1024000 
  620000   0.83003449   -4.1847116   -4.1847116   -3.0107246 0.0069816269   -4.1847116     1.173987      1024000 
  621000   0.83031327   -4.1860231   -4.1860231    -3.011484 -0.0062106491   -4.1860231    1.1745391      1024000 
  622000   0.83076127   -4.1866179   -4.1866179   -3.0113298 0.0050505999   -4.1866179     1.175288      1024000 
  623000   0.83070342   -4.1867116   -4.1867116   -3.0113651  0.012148811   -4.1867116    1.1753465      1024000 
  624000   0.82984521   -4.1862476   -4.1862476   -3.0120027  0.003129106   -4.1862476    1.1742449      1024000 
  625000   0.83038518   -4.1875265   -4.1875265   -3.0123872 -0.0081319028   -4.1875265    1.1751393      1024000 
  626000   0.82867554   -4.1864321   -4.1864321   -3.0136272  0.017692268   -4.1864321    1.1728049      1024000 
  627000   0.82971227   -4.1872183   -4.1872183    -3.012826 -0.00078939591   -4.1872183    1.1743924      1024000 
  628000   0.82966423   -4.1875363   -4.1875363   -3.0131017  0.003537348   -4.1875363    1.1744346      1024000 
  629000   0.83097841   -4.1886236   -4.1886236   -3.0122484 -0.0042617878   -4.1886236    1.1763752      1024000 
  630000   0.82901649   -4.1871922   -4.1871922   -3.0134842  0.011910348   -4.1871922    1.1737079      1024000 
  631000   0.82761113   -4.1851628   -4.1851628   -3.0133395 0.0068661937   -4.1851628    1.1718233      1024000 
  632000   0.82855222   -4.1875549   -4.1875549   -3.0143116 -0.00046377331   -4.1875549    1.1732434      1024000 
  633000    0.8281502    -4.188361    -4.188361   -3.0155543 0.0015179853    -4.188361    1.1728067      1024000 
  634000   0.82781037   -4.1879685   -4.1879685    -3.015538 0.0055539924   -4.1879685    1.1724306      1024000 
  635000   0.82778958   -4.1876217   -4.1876217   -3.0151154  0.010399156   -4.1876217    1.1725062      1024000 
  636000   0.82845005   -4.1887118   -4.1887118   -3.0151849 0.0068966575   -4.1887118    1.1735269      1024000 
  637000    0.8278352   -4.1874734   -4.1874734   -3.0147123  0.007938383   -4.1874734    1.1727611      1024000 
  638000   0.82802439   -4.1882406   -4.1882406   -3.0151114 0.0017770513   -4.1882406    1.1731293      1024000 
  639000   0.82851465    -4.188425    -4.188425   -3.0145033 -0.002064012    -4.188425    1.1739216      1024000 
  640000   0.82881274   -4.1897651   -4.1897651   -3.0153108 0.0036402164   -4.1897651    1.1744543      1024000 
  641000   0.82737438   -4.1886311   -4.1886311   -3.0161223 -0.00076749573   -4.1886311    1.1725088      1024000 
  642000   0.82599365   -4.1868358   -4.1868358   -3.0161713 -0.0083760455   -4.1868358    1.1706645      1024000 
  643000    0.8261229   -4.1875819   -4.1875819   -3.0166416 -0.0047151443   -4.1875819    1.1709403      1024000 
  644000   0.82734482   -4.1893202   -4.1893202   -3.0165703 0.0021556875   -4.1893202    1.1727499      1024000 
  645000   0.82623783    -4.189532    -4.189532   -3.0182562    0.0113958    -4.189532    1.1712758      1024000 
  646000   0.82576616   -4.1894961   -4.1894961   -3.0187589 -0.002986204   -4.1894961    1.1707372      1024000 
  647000   0.82469675    -4.187907    -4.187907    -3.018556 0.0037120095    -4.187907    1.1693509      1024000 
  648000   0.82671482   -4.1907913   -4.1907913   -3.0185062 -0.00037771864   -4.1907913     1.172285      1024000 
  649000   0.82666982    -4.190525    -4.190525   -3.0181961 -0.0017307347    -4.190525    1.1723289      1024000 
  650000   0.82648219   -4.1905877   -4.1905877   -3.0184297 -0.0051228627   -4.1905877     1.172158      1024000 
  651000   0.82481542   -4.1906872   -4.1906872   -3.0207955 0.0013275812   -4.1906872    1.1698917      1024000 
[...]
 9838000  0.075680434   -1.4702052   -1.4702052   -1.0023221 1.8459808e-05   -1.4702052    0.4678831      1024000 
 9839000  0.075795845   -1.4725753   -1.4725753   -1.0038695 -0.00018360053   -1.4725753   0.46870577      1024000 
 9840000  0.075520874   -1.4711735   -1.4711735   -1.0040723 0.0010483241   -1.4711735   0.46710117      1024000 
 9841000  0.075803082   -1.4725461   -1.4725461   -1.0036033 0.0025807827   -1.4725461    0.4689428      1024000 
 9842000  0.076083546   -1.4726997   -1.4726997   -1.0019385 0.0043227885   -1.4726997   0.47076122      1024000 
 9843000  0.075595891   -1.4665727   -1.4665727  -0.99870229 0.0048564036   -1.4665727    0.4678704      1024000 
 9844000  0.075754196   -1.4677136   -1.4677136  -0.99877159 -0.0030254132   -1.4677136   0.46894201      1024000 
 9845000  0.075615141   -1.4683377   -1.4683377   -1.0001079 0.0058057026   -1.4683377   0.46822973      1024000 
 9846000  0.075399863   -1.4683241   -1.4683241   -1.0013403 -0.0015107571   -1.4683241   0.46698381      1024000 
 9847000   0.07501301    -1.467487    -1.467487   -1.0027907 -0.0011709364    -1.467487   0.46469629      1024000 
 9848000  0.074964463   -1.4675368   -1.4675368   -1.0030459 -0.0042128778   -1.4675368   0.46449094      1024000 
 9849000  0.075629726   -1.4685937   -1.4685937  -0.99987563 -0.0037369989   -1.4685937   0.46871804      1024000 
 9850000  0.075388753   -1.4666418   -1.4666418   -0.9993648 -0.0028289595   -1.4666418   0.46727698      1024000 
 9851000  0.075529204   -1.4664901   -1.4664901  -0.99823321 -0.0070297198   -1.4664901   0.46825686      1024000 
 9852000  0.075763195   -1.4632233   -1.4632233  -0.99342363 -0.0056944009   -1.4632233    0.4697997      1024000 
 9853000  0.076045851   -1.4643411   -1.4643411  -0.99269168 0.0011105362   -1.4643411   0.47164938      1024000 
 9854000  0.075628962   -1.4617496   -1.4617496  -0.99263758 0.00053328509   -1.4617496   0.46911199      1024000 
 9855000  0.075230744    -1.460692    -1.460692  -0.99397589 -0.0015156566    -1.460692   0.46671608      1024000 
 9856000  0.075017631   -1.4588689   -1.4588689  -0.99337918 -0.00086392778   -1.4588689   0.46548971      1024000 
 9857000  0.075220659   -1.4595724   -1.4595724  -0.99273561 0.00090906049   -1.4595724   0.46683682      1024000 
 9858000  0.074677634   -1.4579897   -1.4579897  -0.99442326 0.00068509556   -1.4579897   0.46356639      1024000 
 9859000  0.074923301   -1.4599926   -1.4599926  -0.99481418 -0.0025588488   -1.4599926   0.46517841      1024000 
 9860000  0.074895124   -1.4612183   -1.4612183  -0.99615825 0.0044924444   -1.4612183   0.46506004      1024000 
 9861000  0.074740578    -1.460081    -1.460081  -0.99590682 -0.002946835    -1.460081   0.46417422      1024000 
 9862000  0.074664448    -1.457607    -1.457607  -0.99384047 -0.0024841312    -1.457607   0.46376652      1024000 
 9863000   0.07484291   -1.4564223   -1.4564223  -0.99146457 0.0025392916   -1.4564223    0.4649577      1024000 
 9864000  0.075116062   -1.4589961   -1.4589961  -0.99225849 -0.00092814892   -1.4589961   0.46673766      1024000 
 9865000  0.075369056   -1.4578536   -1.4578536   -0.9894826 -0.0039923247   -1.4578536   0.46837105      1024000 
 9866000  0.074882948   -1.4554764   -1.4554764  -0.99001283 8.7965436e-05   -1.4554764   0.46546353      1024000 
 9867000  0.074805686   -1.4517711   -1.4517711  -0.98668765 0.0060970638   -1.4517711   0.46508347      1024000 
 9868000  0.075096306   -1.4543669   -1.4543669  -0.98741091 -0.001982626   -1.4543669   0.46695594      1024000 
 9869000  0.074835941   -1.4533921   -1.4533921  -0.98798097 0.0034317679   -1.4533921    0.4654111      1024000 
 9870000  0.074521084   -1.4511535   -1.4511535  -0.98759624 -0.0049667495   -1.4511535   0.46355725      1024000 
 9871000  0.074620727   -1.4498771   -1.4498771  -0.98558248 0.0058459471   -1.4498771   0.46429458      1024000 
 9872000  0.074471459   -1.4491353   -1.4491353  -0.98566948 -0.0030649232   -1.4491353   0.46346577      1024000 
 9873000   0.07474601   -1.4491616   -1.4491616  -0.98390431 -0.0068346246   -1.4491616   0.46525732      1024000 
 9874000  0.074524827   -1.4494872   -1.4494872  -0.98551955 -0.0067382247   -1.4494872    0.4639676      1024000 
 9875000   0.07486238   -1.4518236   -1.4518236  -0.98565833 0.0048016491   -1.4518236   0.46616531      1024000 
 9876000  0.074791211   -1.4522085   -1.4522085  -0.98640332 0.0014243346   -1.4522085   0.46580518      1024000 
 9877000  0.074273196   -1.4492759   -1.4492759  -0.98660141 -0.0079913592   -1.4492759   0.46267448      1024000 
 9878000  0.074332045    -1.447832    -1.447832  -0.98465184 -0.0047071871    -1.447832   0.46318021      1024000 
 9879000  0.074485666   -1.4474979   -1.4474979   -0.9832689  0.001477728   -1.4474979     0.464229      1024000 
 9880000  0.073932505   -1.4459198   -1.4459198  -0.98506043 -0.00067681381   -1.4459198   0.46085935      1024000 
 9881000  0.073869025   -1.4471136   -1.4471136  -0.98655908 0.0012995671   -1.4471136   0.46055449      1024000 
 9882000  0.074311312   -1.4461745   -1.4461745  -0.98278411 -0.0099083102   -1.4461745   0.46339041      1024000 
 9883000  0.074011948   -1.4455527   -1.4455527  -0.98395532 0.0051345753   -1.4455527   0.46159737      1024000 
 9884000  0.073767716   -1.4422981   -1.4422981  -0.98212882 -0.0054326677   -1.4422981   0.46016929      1024000 
 9885000  0.073892957   -1.4421281   -1.4421281  -0.98108651 0.00071751913   -1.4421281   0.46104157      1024000 
 9886000  0.074047416    -1.444904    -1.444904  -0.98282053 -0.0025707937    -1.444904   0.46208349      1024000 
 9887000  0.074141725   -1.4442246   -1.4442246  -0.98145251 -0.0036672024   -1.4442246    0.4627721      1024000 
 9888000  0.073933411   -1.4411126   -1.4411126  -0.97955393 0.0024470855   -1.4411126    0.4615587      1024000 
 9889000  0.073823878    -1.443238    -1.443238  -0.98226774 -0.0030837868    -1.443238   0.46097029      1024000 
 9890000  0.073877004   -1.4421685   -1.4421685  -0.98075798 0.0062116176   -1.4421685   0.46141057      1024000 
 9891000  0.073957311   -1.4399845   -1.4399845  -0.97798105 2.0917193e-05   -1.4399845   0.46200345      1024000 
 9892000  0.073325245   -1.4371478   -1.4371478  -0.97897202 0.0031460352   -1.4371478   0.45817576      1024000 
 9893000  0.073239308   -1.4386009   -1.4386009  -0.98086726 0.00063320044   -1.4386009    0.4577336      1024000 
 9894000  0.073359381   -1.4394915   -1.4394915  -0.98094697 0.00023447434   -1.4394915    0.4585445      1024000 
 9895000  0.073057946   -1.4358921   -1.4358921  -0.97911559 0.0028059263   -1.4358921    0.4567765      1024000 
 9896000  0.073365464   -1.4367848   -1.4367848  -0.97802076 0.00040178261   -1.4367848   0.45876401      1024000 
 9897000  0.073853998   -1.4369663   -1.4369663  -0.97505166 -0.0056464823   -1.4369663   0.46191464      1024000 
 9898000  0.073479892   -1.4338611   -1.4338611  -0.97417793 -0.0042007037   -1.4338611   0.45968313      1024000 
 9899000  0.073378933   -1.4321927   -1.4321927  -0.97303731 0.0038042776   -1.4321927   0.45915543      1024000 
 9900000  0.073457152   -1.4326295   -1.4326295  -0.97291093 0.0017760006   -1.4326295   0.45971856      1024000 
 9901000  0.073837539   -1.4321999   -1.4321999  -0.96999619 -0.0030447726   -1.4321999   0.46220376      1024000 
 9902000  0.073339864   -1.4295509   -1.4295509  -0.97038012 -0.0052811822   -1.4295509   0.45917073      1024000 
 9903000  0.073255661   -1.4307143   -1.4307143  -0.97195389 -0.0049985104   -1.4307143   0.45876041      1024000 
 9904000  0.073577928   -1.4343536   -1.4343536  -0.97347929 -0.0034203702   -1.4343536   0.46087428      1024000 
 9905000  0.073389966   -1.4334202   -1.4334202  -0.97365385 0.0050265672   -1.4334202   0.45976637      1024000 
 9906000  0.073052663   -1.4298959   -1.4298959  -0.97216483 0.0030906139   -1.4298959   0.45773105      1024000 
 9907000  0.073133013   -1.4305105   -1.4305105  -0.97219811 0.0032456139   -1.4305105    0.4583124      1024000 
 9908000  0.073319546   -1.4317126   -1.4317126  -0.97211407 -0.00066607739   -1.4317126   0.45959855      1024000 
 9909000     0.072887   -1.4290571   -1.4290571  -0.97207928 0.0010491533   -1.4290571   0.45697781      1024000 
 9910000  0.072986078   -1.4298087   -1.4298087  -0.97212325 -0.001426213   -1.4298087   0.45768548      1024000 
 9911000  0.073085716   -1.4304421   -1.4304421  -0.97207984 0.00020887989   -1.4304421   0.45836228      1024000 
 9912000   0.07280032   -1.4271233   -1.4271233  -0.97044303 0.0028235703   -1.4271233   0.45668029      1024000 
 9913000  0.072369509   -1.4273861   -1.4273861  -0.97333539 -0.0035695466   -1.4273861   0.45405076      1024000 
 9914000  0.072914707   -1.4295074   -1.4295074  -0.97193658 0.0026852401   -1.4295074   0.45757087      1024000 
 9915000  0.072181142   -1.4292081   -1.4292081  -0.97616356 0.0032461451   -1.4292081   0.45304455      1024000 
 9916000  0.072791124   -1.4287487   -1.4287487  -0.97180211 0.0033200501   -1.4287487   0.45694657      1024000 
 9917000  0.072210206   -1.4247074   -1.4247074  -0.97129169 0.0013666905   -1.4247074   0.45341566      1024000 
 9918000  0.071991515   -1.4260543   -1.4260543  -0.97390491 0.0042356884   -1.4260543   0.45214944      1024000 
 9919000   0.07243023   -1.4275489   -1.4275489   -0.9725752 -0.0015387794   -1.4275489   0.45497372      1024000 
 9920000  0.072610585   -1.4269899   -1.4269899  -0.97082285 0.0030103613   -1.4269899   0.45616708      1024000 
 9921000  0.072337552   -1.4253284   -1.4253284  -0.97079052 0.0012014593   -1.4253284   0.45453785      1024000 
 9922000  0.072512151   -1.4230891   -1.4230891  -0.96738509 0.0036012836   -1.4230891   0.45570399      1024000 
 9923000  0.072657026   -1.4240435   -1.4240435  -0.96733824 0.0035852236   -1.4240435   0.45670529      1024000 
 9924000   0.07264734   -1.4240489   -1.4240489  -0.96730494 -0.0046235879   -1.4240489   0.45674391      1024000 
 9925000  0.072267191   -1.4220206   -1.4220206  -0.96759356 -0.003837555   -1.4220206   0.45442705      1024000 
 9926000  0.072451816   -1.4219874   -1.4219874  -0.96632172 0.0036237451   -1.4219874   0.45566572      1024000 
 9927000  0.072070347   -1.4202233   -1.4202233  -0.96682779 -0.0016058831   -1.4202233   0.45339548      1024000 
 9928000  0.072073233   -1.4224007   -1.4224007  -0.96888816 -0.000830198   -1.4224007   0.45351253      1024000 
 9929000   0.07165015   -1.4192362   -1.4192362  -0.96831314 0.00061264534   -1.4192362   0.45092301      1024000 
 9930000  0.071745127   -1.4187365   -1.4187365  -0.96711297 0.00051518243   -1.4187365   0.45162353      1024000 
 9931000  0.071926294    -1.419212    -1.419212  -0.96634921 -0.0047040376    -1.419212   0.45286275      1024000 
 9932000   0.07185165   -1.4167749   -1.4167749  -0.96429197 -0.0051447046   -1.4167749   0.45248293      1024000 
 9933000  0.072073537   -1.4184698   -1.4184698  -0.96450342 0.0048719657   -1.4184698   0.45396642      1024000 
 9934000  0.072130189   -1.4168562   -1.4168562  -0.96244673 -0.0041059847   -1.4168562   0.45440951      1024000 
 9935000  0.071833158   -1.4161288   -1.4161288  -0.96351752 -0.00093636301   -1.4161288   0.45261131      1024000 
 9936000  0.071982134   -1.4172429   -1.4172429  -0.96358521 0.0004548532   -1.4172429   0.45365767      1024000 
 9937000  0.071717878   -1.4119491   -1.4119491   -0.9598925 0.0027468039   -1.4119491   0.45205663      1024000 
 9938000  0.071983011   -1.4160127   -1.4160127  -0.96218999 0.0016365307   -1.4160127   0.45382267      1024000 
 9939000  0.071608404   -1.4165336   -1.4165336  -0.96499112 -0.0011884918   -1.4165336   0.45154243      1024000 
 9940000  0.071734476   -1.4156019   -1.4156019  -0.96318709 -0.0029190113   -1.4156019   0.45241479      1024000 
 9941000  0.071933542   -1.4175485   -1.4175485  -0.96376182 -0.0003274242   -1.4175485    0.4537867      1024000 
 9942000  0.071268486   -1.4132515   -1.4132515  -0.96357046 -0.002548257   -1.4132515   0.44968102      1024000 
 9943000  0.071261837   -1.4134573   -1.4134573  -0.96372843 -0.0021570806   -1.4134573   0.44972886      1024000 
 9944000  0.071205586   -1.4150524   -1.4150524  -0.96562725 -0.0020117799   -1.4150524   0.44942515      1024000 
 9945000  0.071254821    -1.414982    -1.414982  -0.96516912 -0.0045221082    -1.414982   0.44981292      1024000 
 9946000  0.070878055   -1.4122169   -1.4122169  -0.96471008 0.00056562942   -1.4122169   0.44750686      1024000 
 9947000  0.071577906   -1.4136644   -1.4136644   -0.9616442 -0.00079112728   -1.4136644   0.45202017      1024000 
 9948000  0.070984469   -1.4114234   -1.4114234  -0.96308256 -0.00028091513   -1.4114234   0.44834083      1024000 
 9949000  0.070975025    -1.412736    -1.412736  -0.96436516 -0.00076657197    -1.412736    0.4483708      1024000 
 9950000  0.071370967   -1.4135363   -1.4135363  -0.96255264  0.005142304   -1.4135363   0.45098371      1024000 
 9951000  0.071127005   -1.4125628   -1.4125628  -0.96304787 -0.0025550155   -1.4125628   0.44951491      1024000 
 9952000  0.071543001   -1.4116796   -1.4116796  -0.95947968 -0.0048158548   -1.4116796   0.45219994      1024000 
 9953000  0.071470081   -1.4101099   -1.4101099  -0.95828914 0.0022914368   -1.4101099    0.4518208      1024000 
 9954000  0.071316907   -1.4083659   -1.4083659  -0.95741893  0.001329465   -1.4083659   0.45094698      1024000 
 9955000  0.071461106   -1.4098433   -1.4098433  -0.95789407 -0.001588679   -1.4098433    0.4519492      1024000 
 9956000  0.071070385   -1.4093537   -1.4093537  -0.95982418 -0.0032524407   -1.4093537   0.44952954      1024000 
 9957000  0.070927142   -1.4077301   -1.4077301  -0.95902967 0.0014965751   -1.4077301   0.44870048      1024000 
 9958000  0.070768605   -1.4088033   -1.4088033  -0.96105457 0.0014053023   -1.4088033   0.44774877      1024000 
 9959000  0.070644311   -1.4055196   -1.4055196  -0.95849331 0.0013428202   -1.4055196    0.4470263      1024000 
 9960000  0.071104719    -1.408914    -1.408914  -0.95888844 -0.00026865902    -1.408914   0.45002551      1024000 
 9961000  0.070482787    -1.405486    -1.405486  -0.95932437 -0.00081073355    -1.405486   0.44616161      1024000 
 9962000  0.070618951   -1.4062348   -1.4062348  -0.95913878 -0.0011922347   -1.4062348   0.44709604      1024000 
 9963000  0.071049832   -1.4088865   -1.4088865  -0.95899814 -0.0041616011   -1.4088865   0.44988838      1024000 
 9964000  0.070951613    -1.405225    -1.405225   -0.9558771 0.0046655094    -1.405225   0.44934792      1024000 
 9965000  0.071196651   -1.4076753   -1.4076753  -0.95670232 -0.00085842404   -1.4076753   0.45097294      1024000 
 9966000  0.070573417   -1.4008483   -1.4008483  -0.95375897 -0.00091734378   -1.4008483   0.44708928      1024000 
 9967000  0.070877551    -1.399983    -1.399983    -0.950847 -0.0028437704    -1.399983   0.44913605      1024000 
 9968000   0.07095155   -1.4023074   -1.4023074  -0.95264659 -0.0010082441   -1.4023074   0.44966079      1024000 
 9969000  0.070420139   -1.3999967   -1.3999967  -0.95364407 0.0036660371   -1.3999967    0.4463526      1024000 
 9970000  0.070474637   -1.4011288   -1.4011288   -0.9543625 0.0015184559   -1.4011288   0.44676631      1024000 
 9971000  0.070399547   -1.4008571   -1.4008571  -0.95448581 -0.0020182422   -1.4008571   0.44637131      1024000 
 9972000   0.07036428   -1.3990274   -1.3990274  -0.95278594 -8.4058543e-05   -1.3990274    0.4462415      1024000 
 9973000   0.07049521   -1.3978371   -1.3978371   -0.9506712 0.00058102472   -1.3978371   0.44716585      1024000 
 9974000  0.070482266    -1.399982    -1.399982  -0.95284272 0.0015409568    -1.399982   0.44713931      1024000 
 9975000  0.070206532   -1.3981995   -1.3981995  -0.95273706 0.0015202129   -1.3981995   0.44546245      1024000 
 9976000  0.069923913   -1.3979456   -1.3979456  -0.95421277 0.0022886966   -1.3979456   0.44373287      1024000 
 9977000  0.070295562   -1.3995292   -1.3995292  -0.95338239 -0.0010630594   -1.3995292   0.44614679      1024000 
 9978000  0.070057696   -1.3989843   -1.3989843  -0.95426211 -0.00075306355   -1.3989843   0.44472218      1024000 
 9979000  0.070573981   -1.3974559   -1.3974559  -0.94938355 0.0015249057   -1.3974559    0.4480724      1024000 
 9980000  0.070701436   -1.3958533   -1.3958533  -0.94686434 -0.0040266517   -1.3958533   0.44898899      1024000 
 9981000    0.0704195   -1.3968006   -1.3968006   -0.9495164 0.0001102244   -1.3968006   0.44728417      1024000 
 9982000  0.070271412   -1.3949468   -1.3949468  -0.94850919 0.0015406499   -1.3949468   0.44643756      1024000 
 9983000  0.069796655   -1.3917041   -1.3917041  -0.94823174 -0.0027721438   -1.3917041   0.44347236      1024000 
 9984000  0.069984675   -1.3947481   -1.3947481  -0.95000023 -0.0016018557   -1.3947481   0.44474791      1024000 
 9985000  0.070072657   -1.3913796   -1.3913796  -0.94598304 -0.0050552091   -1.3913796    0.4453966      1024000 
 9986000   0.06998137   -1.3900755   -1.3900755  -0.94518243 -0.0028314856   -1.3900755   0.44489306      1024000 
 9987000  0.070388791    -1.393564    -1.393564  -0.94602939 0.0030263209    -1.393564   0.44753461      1024000 
 9988000  0.070220163   -1.3955655   -1.3955655  -0.94904314 -0.0018167534   -1.3955655   0.44652236      1024000 
 9989000  0.069889106   -1.3915955   -1.3915955  -0.94714001 0.00017313611   -1.3915955   0.44445553      1024000 
 9990000  0.069863155   -1.3933852   -1.3933852  -0.94901808 -0.0038110081   -1.3933852   0.44436715      1024000 
 9991000  0.069982826   -1.3922353   -1.3922353  -0.94703868 -8.7809864e-05   -1.3922353    0.4451966      1024000 
 9992000  0.069990331   -1.3934519   -1.3934519  -0.94816061 -0.0043830862   -1.3934519   0.44529129      1024000 
 9993000  0.069634141   -1.3929435   -1.3929435  -0.94982914 -0.0051286819   -1.3929435   0.44311436      1024000 
 9994000  0.069572365   -1.3908665   -1.3908665  -0.94808159 0.0017291527   -1.3908665   0.44278494      1024000 
 9995000  0.069806761   -1.3904224   -1.3904224  -0.94607752 0.00032271437   -1.3904224   0.44434491      1024000 
 9996000  0.069530167   -1.3887645   -1.3887645  -0.94611648  0.002172179   -1.3887645   0.44264798      1024000 
 9997000  0.069717195   -1.3868682   -1.3868682  -0.94296567 -0.00026351247   -1.3868682   0.44390253      1024000 
 9998000  0.070250705   -1.3895113   -1.3895113  -0.94214743 -0.0018065897   -1.3895113   0.44736388      1024000 
 9999000   0.06962156   -1.3874803   -1.3874803  -0.94403775 -0.0022972314   -1.3874803   0.44344252      1024000 
10000000  0.069198487   -1.3837826   -1.3837826  -0.94294596 -0.0014845925   -1.3837826   0.44083669      1024000 
Loop time of 391514 on 256 procs for 10000000 steps with 104167 atoms

Performance: 5517.042 tau/day, 25.542 timesteps/s
99.1% CPU use with 256 MPI tasks x 1 OpenMP threads

MPI task timing breakdown:
Section |  min time  |  avg time  |  max time  |%varavg|  %CPU | %total
-----------------------------------------------------------------------
Pair    | 9192.3     | 21691      | 30850      |2331.0 |  99.9 |  5.54
Bond    | 3.8461     | 4.7525     | 12.27      |  50.4 | 100.0 |  0.00
Neigh   | 41357      | 1.3154e+05 | 2.2806e+05 |8036.6 |  99.6 | 33.60
Comm    | 1.0382e+05 | 2.017e+05  | 2.9094e+05 |6571.8 |  98.7 | 51.52
Output  | 387.3      | 390.73     | 397.12     |  15.3 |  99.7 |  0.10
Modify  | 19580      | 33662      | 65979      |5316.3 |  99.0 |  8.60
Other   |            | 2517       |            |       |       |  0.64

Nlocal:    406.902 ave 761 max 26 min
Histogram: 4 14 18 29 38 61 55 26 10 1
Nghost:    10608.5 ave 15978 max 4126 min
Histogram: 5 10 21 34 39 41 37 34 19 16
Neighs:    20650.9 ave 43867 max 547 min
Histogram: 17 23 23 31 41 51 35 20 9 6

Total # of neighbors = 5286623
Ave neighs/atom = 50.7514
Ave special neighs/atom = 0
Neighbor list builds = 10000000
Dangerous builds = 0
Total wall time: 108:45:50
