LAMMPS (24 Dec 2020)
OMP_NUM_THREADS environment is not set. Defaulting to 1 thread. (src/comm.cpp:94)
  using 1 OpenMP thread(s) per MPI task
#Read the equilibrated lj fluid and add nanocubes

units           lj
atom_style      full
#atom_modify     map array first cubes
dimension       3
boundary        p p f
pair_style      lj/cut/opt 2.5

variable        sigma           equal 1.0
variable        epsilon         equal 1.0
read_restart	restart.dat.10000000
Reading restart file ...
  restart file = 24 Dec 2020, LAMMPS = 24 Dec 2020
WARNING: Restart file used different # of processors: 288 vs. 336 (src/read_restart.cpp:697)
  restoring atom style full from restart
  orthogonal box = (0.0000000 0.0000000 0.0000000) to (80.000000 80.000000 160.00000)
  6 by 4 by 14 MPI processor grid
  restoring pair style lj/cut/opt from restart
  476190 atoms
Finding 1-2 1-3 1-4 neighbors ...
  special bond factors lj:    0        0        0       
  special bond factors coul:  0        0        0       
     0 = max # of 1-2 neighbors
     0 = max # of 1-3 neighbors
     0 = max # of 1-4 neighbors
     1 = max # of special neighbors
  special bonds CPU = 2.845 seconds
  read_restart CPU = 3.413 seconds

group		solvent type 1
366462 atoms in group solvent
group 		hull  type 2
42816 atoms in group hull
group 		dummy type 3
66912 atoms in group dummy

neighbor      0.4 bin
neigh_modify  exclude molecule/intra cubes

pair_modify   shift yes

pair_coeff    1 1 1.0 1.0 #solvent
pair_coeff    2 2 1.0 1.0 1.12 #np
pair_coeff    3 3 0.0 0.0 0.0 #dummy
pair_coeff    2 3 0.0 0.0 0.0 #np dummy
pair_coeff    1 2 ${sol} 1.0  #np solvent
pair_coeff    1 2 0.625 1.0  
pair_coeff    1 3 0.0 0.0 0.0 #dummy solvent


comm_modify   mode multi cutoff/multi 1 2.5 cutoff/multi 2 2.5 cutoff/multi 3 6.95

reset_timestep 	0

balance 	1.05 shift z 10 1.05
Balancing ...
Unused restart file global fix info:
  fix style: STORE, fix ID: msd_COMPUTE_STORE
Unused restart file peratom fix info:
  fix style: STORE, fix ID: bin1_COMPUTE_STORE
  fix style: STORE, fix ID: bin3_COMPUTE_STORE
Neighbor list info ...
  update every 1 steps, delay 10 steps, check yes
  max neighbors/atom: 2000, page size: 100000
  master list distance cutoff = 2.9
  ghost atom cutoff = 6.95
  binsize = 1.45, bins = 56 56 111
  1 neighbor lists, perpetual/occasional/extra = 1 0 0
  (1) pair lj/cut/opt, perpetual
      attributes: half, newton on
      pair build: half/bin/newton
      stencil: half/bin/3d/newton
      bin: standard
 rebalancing time: 0.079 seconds
  iteration count = 3
  initial/final maximal load/proc = 2242.0000 2855.0000
  initial/final imbalance factor  = 1.5819568 2.0144900
  x cuts: 0.0000000 0.16666667 0.33333333 0.50000000 0.66666667 0.83333333 1.0000000
  y cuts: 0.0000000 0.25000000 0.50000000 0.75000000 1.0000000
  z cuts: 0.0000000 0.062500000 0.11607143 0.16964286 0.22321429 0.26785714 0.33928571 0.37500000 0.44642857 0.50892857 0.52678571 0.59821429 0.66964286 0.67857143 1.0000000

####################### WALLS ###########################

variable       epsilonWall equal 2*${epsilon}
variable       epsilonWall equal 2*1
variable       repulsive   equal   0.7147*${sigma}
variable       repulsive   equal   0.7147*1
variable       full	   equal   3*${sigma}
variable       full	   equal   3*1
region         lowWall block EDGE EDGE EDGE EDGE EDGE 2

fix            topWall all wall/lj93 zhi EDGE 	       ${epsilonWall} ${sigma} ${repulsive} units box
fix            topWall all wall/lj93 zhi EDGE 	       2 ${sigma} ${repulsive} units box
fix            topWall all wall/lj93 zhi EDGE 	       2 1 ${repulsive} units box
fix            topWall all wall/lj93 zhi EDGE 	       2 1 0.7147 units box
fix            lowSol solvent wall/lj93 zlo EDGE                ${epsilonWall} ${sigma} ${full} units box
fix            lowSol solvent wall/lj93 zlo EDGE                2 ${sigma} ${full} units box
fix            lowSol solvent wall/lj93 zlo EDGE                2 1 ${full} units box
fix            lowSol solvent wall/lj93 zlo EDGE                2 1 3 units box
fix 	       lowCub cubes wall/lj93 zlo EDGE                ${epsilonWall} ${sigma} ${repulsive} units box
fix 	       lowCub cubes wall/lj93 zlo EDGE                2 ${sigma} ${repulsive} units box
fix 	       lowCub cubes wall/lj93 zlo EDGE                2 1 ${repulsive} units box
fix 	       lowCub cubes wall/lj93 zlo EDGE                2 1 0.7147 units box


###################### COMPUTES ##########################

compute        bin1 solvent chunk/atom bin/1d z lower 1.0 units box
compute        bin3 solvent chunk/atom bin/3d x lower 5.0 y lower 5.0 z lower 5.0 units box

compute 	pe solvent 	   pe/atom
compute 	pe2 all 	   pe/atom

######################  FIXES ############################


fix             peclet solvent ave/chunk 10 10 10000 bin1 density/number norm                  none ave one file density.profile

fix              temp solvent ave/chunk 10 10 10000 bin1 temp norm                  none ave one file temp.profile

fix 		 dens solvent ave/chunk 10 10 500000 bin3 density/number norm 		 none ave one file dens3.profile

fix		 temp2 solvent ave/chunk 10 10 500000 bin3 temp norm none ave one file temp3.profile

fix 		pe solvent ave/chunk 1 1 500000 bin3 c_pe norm none ave one file pe3.profile



################### INTEGRATION

fix             1 cubes rigid/nve/small molecule
  create bodies CPU = 0.038 seconds
  96 rigid bodies with 109728 atoms
  6.9282032 = max distance from body owner to body atom

fix             2 solvent nve



## Thermostat
region          regthermo block EDGE EDGE EDGE EDGE 0 15
group           thermo dynamic solvent region regthermo every 1000
dynamic group thermo defined
fix             3 thermo langevin ${temp} ${temp} 10 156453
fix             3 thermo langevin 1.0 ${temp} 10 156453
fix             3 thermo langevin 1.0 1.0 10 156453

## Evaporation
region		regevap block EDGE EDGE EDGE EDGE 140 EDGE
fix 		4 solvent evaporate ${evap} 1 regevap 156415
fix 		4 solvent evaporate 100 1 regevap 156415


#### Load balancing

fix             bal all balance 1000 1.05 shift z 10 1.05

############### Diagnostics and computes ###################

compute        	com cubes          rigid/local   1 mol x y z
compute        	quat cubes         rigid/local   1 mol quatw quati quatj quatk

compute 	cc2 cubes 	   chunk/atom 	 molecule
compute 	msd cubes 	   msd/chunk 	 cc2

fix 		msd all ave/time  1 1 10000 c_msd[*] file dump.msd ave one mode vector

dump            1 all custom 500000 dump.lammpstrj id mol type x y z vx vy vz c_pe2
dump		sol  solvent custom 500000 dump.soltrj id x y z vx vy vz c_pe
dump		cubetrj cubes custom 500000 cubes.lammpstrj id mol type x y z vx vy vz
dump            com cubes local 500000 dump.*.xyz c_com[*]
dump	        xyz hull xyz 500000 cubes.xyz
#dump            quat cubes      local 100000 dump.*.quat c_quat[*]
dump		order cubes 	local 100000 dump.*.order c_com[*] c_quat[*]
#dump		mol cubes molfile 10000 mol.xyz xyz


dump            2 all image 100000 image.*.png type type zoom 1.5 size 1280 720
dump_modify     2 pad 8
dump		image cubes image 100000 image_cubes.*.png type type zoom 1.5 size 1280 720
dump_modify	image pad 8
dump            3 all movie 5000 movie.avi type type zoom 1.5 size 1280 720
dump		4 cubes movie 5000 movie_cubes.avi type type size 1280 720


thermo          1000
thermo_style    custom step temp epair evdwl etotal press pe ke atoms

restart         1000000 restart.dat
timestep        0.005
timer           full
New timer settings: style=full  mode=nosync  timeout=off

run 		${steps}
run 		30000000
Per MPI rank memory allocation (min/avg/max) = 16.75 | 22.05 | 25.54 Mbytes
Step Temp E_pair E_vdwl TotEng Press PotEng KinEng Atoms 
       0    1.0087764   -2.4325745   -2.4325745     -1.26748  0.017804325   -2.4325745    1.1650945   476190 
    1000    1.0083868   -2.4306514   -2.4306514   -1.2659824   0.06633889   -2.4306514     1.164669   476180 
    2000    1.0081205   -2.4298836   -2.4298836   -1.2654977  0.075012041   -2.4298836    1.1643859   476170 
    3000    1.0083187   -2.4303399   -2.4303399   -1.2657007  0.068907938   -2.4303399    1.1646392   476160 
    4000    1.0084784   -2.4304288   -2.4304288   -1.2655806  0.071593088   -2.4304288    1.1648481   476150 
    5000    1.0077537   -2.4308342   -2.4308342   -1.2667987  0.071330526   -2.4308342    1.1640356   476140 
    6000    1.0071233   -2.4322726   -2.4322726   -1.2689408   0.07093517   -2.4322726    1.1633318   476130 
    7000    1.0092605   -2.4335134   -2.4335134   -1.2676884  0.070113361   -2.4335134     1.165825   476120 
    8000    1.0080288   -2.4317134   -2.4317134   -1.2672867   0.07433536   -2.4317134    1.1644267   476110 
    9000    1.0054328   -2.4299044   -2.4299044    -1.268452  0.070026501   -2.4299044    1.1614523   476100 
   10000    1.0068967   -2.4312649   -2.4312649   -1.2680971  0.075380362   -2.4312649    1.1631677   476090 
   11000    1.0064906   -2.4306721   -2.4306721   -1.2679491  0.064751682   -2.4306721     1.162723   476080 
   12000    1.0053046   -2.4299939   -2.4299939   -1.2686165  0.066559922   -2.4299939    1.1613774   476070 
   13000    1.0063583   -2.4318092   -2.4318092   -1.2691901  0.068296649   -2.4318092    1.1626191   476060 
   14000    1.0064369   -2.4308809   -2.4308809   -1.2681467  0.070450126   -2.4308809    1.1627343   476050 
   15000    1.0087584   -2.4344924   -2.4344924   -1.2690515  0.067824903   -2.4344924    1.1654408   476040 
   16000    1.0051739   -2.4300831   -2.4300831   -1.2687591  0.074004282   -2.4300831    1.1613239   476030 
   17000    1.0060506   -2.4313447   -2.4313447   -1.2689834  0.073355487   -2.4313447    1.1623613   476020 
   18000    1.0071893   -2.4335309   -2.4335309   -1.2698296  0.067376638   -2.4335309    1.1637013   476010 
   19000    1.0085649   -2.4344568   -2.4344568   -1.2691416   0.06320154   -2.4344568    1.1653152   476000 
   20000    1.0068234   -2.4312689   -2.4312689   -1.2679415  0.070761529   -2.4312689    1.1633274   475990 
   21000    1.0073238   -2.4315192   -2.4315192   -1.2675891  0.065436226   -2.4315192      1.16393   475980 
   22000    1.0060927   -2.4300901   -2.4300901    -1.267558  0.072293588   -2.4300901     1.162532   475970 
   23000    1.0064557   -2.4305163   -2.4305163   -1.2675405  0.067826546   -2.4305163    1.1629759   475960 
   24000    1.0058495   -2.4290006   -2.4290006   -1.2667008  0.077964841   -2.4290006    1.1622998   475950 
   25000     1.005907   -2.4305832   -2.4305832   -1.2681925  0.074866077   -2.4305832    1.1623907   475940 
   26000    1.0074218   -2.4323169   -2.4323169   -1.2681513  0.063856489   -2.4323169    1.1641656   475930 
   27000    1.0077611   -2.4326141   -2.4326141   -1.2680319  0.068678903   -2.4326141    1.1645822   475920 
   28000    1.0059018   -2.4317256   -2.4317256   -1.2692676  0.075314616   -2.4317256     1.162458   475910 
   29000    1.0074397   -2.4336001   -2.4336001   -1.2693405    0.0620001   -2.4336001    1.1642597   475900 
   30000    1.0058446   -2.4314592   -2.4314592   -1.2690184  0.066740359   -2.4314592    1.1624408   475890 
   31000    1.0060305   -2.4330677   -2.4330677   -1.2703877  0.068191461   -2.4330677      1.16268   475880 
   32000     1.005267    -2.432571    -2.432571    -1.270749  0.065630277    -2.432571     1.161822   475870 
   33000    1.0038967   -2.4324533   -2.4324533   -1.2721906  0.064001437   -2.4324533    1.1602627   475860 
   34000    1.0043573   -2.4325892   -2.4325892   -1.2717698  0.067959568   -2.4325892    1.1608194   475850 
   35000    1.0041991   -2.4335611   -2.4335611   -1.2729001  0.071547595   -2.4335611    1.1606609   475840 
   36000    1.0064461   -2.4357159   -2.4357159   -1.2724334   0.06691315   -2.4357159    1.1632825   475830 
   37000    1.0055255   -2.4334409   -2.4334409    -1.271198  0.070485666   -2.4334409    1.1622429   475820 
   38000    1.0051145   -2.4334545   -2.4334545   -1.2716622  0.068562365   -2.4334545    1.1617923   475810 
   39000    1.0053476   -2.4345948   -2.4345948   -1.2725087  0.068578754   -2.4345948    1.1620861   475800 
   40000    1.0037948   -2.4328008   -2.4328008   -1.2724852  0.066351116   -2.4328008    1.1603156   475790 
   41000    1.0056523    -2.435702    -2.435702   -1.2732149  0.070599162    -2.435702    1.1624871   475780 
   42000    1.0045883   -2.4337252   -2.4337252   -1.2724435   0.07038827   -2.4337252    1.1612817   475770 
   43000    1.0058064   -2.4354739   -2.4354739   -1.2727597  0.064974619   -2.4354739    1.1627142   475760 
   44000    1.0063112   -2.4365503   -2.4365503   -1.2732281   0.06612877   -2.4365503    1.1633222   475750 
   45000    1.0057236   -2.4370347   -2.4370347   -1.2743673  0.071558001   -2.4370347    1.1626674   475740 
   46000    1.0063397   -2.4365839   -2.4365839   -1.2731799  0.068440771   -2.4365839     1.163404   475730 
   47000    1.0061227   -2.4359341   -2.4359341   -1.2727565  0.074460592   -2.4359341    1.1631776   475720 
   48000    1.0062537   -2.4370456   -2.4370456    -1.273692  0.076372432   -2.4370456    1.1633535   475710 
   49000    1.0062784   -2.4379191   -2.4379191   -1.2745125  0.069015415   -2.4379191    1.1634066   475700 
   50000    1.0042244   -2.4354258   -2.4354258   -1.2743696  0.067759569   -2.4354258    1.1610562   475690 
   51000    1.0046092   -2.4358532   -2.4358532   -1.2743276  0.069937181   -2.4358532    1.1615256   475680 
   52000    1.0058326   -2.4376618   -2.4376618   -1.2746974  0.072362144   -2.4376618    1.1629644   475670 
   53000    1.0047679   -2.4365348   -2.4365348   -1.2747769  0.071274376   -2.4365348    1.1617579   475660 
   54000     1.005996   -2.4378984   -2.4378984    -1.274696  0.069462523   -2.4378984    1.1632023   475650 
   55000    1.0048971   -2.4368439   -2.4368439   -1.2748878  0.075601584   -2.4368439    1.1619561   475640 
   56000    1.0044563   -2.4371291   -2.4371291   -1.2756582  0.069730453   -2.4371291    1.1614709   475630 
   57000    1.0051579   -2.4385892   -2.4385892   -1.2762826  0.066092687   -2.4385892    1.1623066   475620 
   58000    1.0030909   -2.4356313   -2.4356313   -1.2756905  0.074723065   -2.4356313    1.1599408   475610 
   59000    1.0032421   -2.4376757   -2.4376757   -1.2775357  0.067125607   -2.4376757      1.16014   475600 
   60000    1.0036827   -2.4375653   -2.4375653   -1.2768914  0.072868598   -2.4375653    1.1606739   475590 
   61000     1.004372   -2.4385421   -2.4385421   -1.2770466  0.059689603   -2.4385421    1.1614955   475580 
   62000    1.0048433   -2.4378484   -2.4378484   -1.2757835  0.074532428   -2.4378484    1.1620649   475570 
   63000    1.0036461   -2.4354635   -2.4354635   -1.2747588  0.066854491   -2.4354635    1.1607048   475560 
   64000    1.0051593   -2.4373686   -2.4373686   -1.2748894  0.072574702   -2.4373686    1.1624792   475550 
   65000     1.003505   -2.4337081   -2.4337081   -1.2731177  0.067700331   -2.4337081    1.1605904   475540 
   66000    1.0040872   -2.4360972   -2.4360972    -1.274809   0.06472514   -2.4360972    1.1612882   475530 
   67000    1.0062442    -2.437916    -2.437916   -1.2741086  0.066826398    -2.437916    1.1638074   475520 
   68000    1.0074245   -2.4387834   -2.4387834   -1.2735865  0.060165161   -2.4387834    1.1651969   475510 
   69000    1.0041856   -2.4368146   -2.4368146   -1.2753394  0.068591297   -2.4368146    1.1614752   475500 
   70000     1.003834      -2.4363      -2.4363    -1.275207  0.071682681      -2.4363    1.1610931   475490 
   71000    1.0058513   -2.4380025   -2.4380025   -1.2745516  0.068580727   -2.4380025    1.1634509   475480 
   72000    1.0051394   -2.4367795   -2.4367795   -1.2741278  0.069045296   -2.4367795    1.1626518   475470 
   73000    1.0029379   -2.4354445   -2.4354445   -1.2753148  0.063386995   -2.4354445    1.1601297   475460 
   74000    1.0042945   -2.4363137   -2.4363137   -1.2745903  0.064147517   -2.4363137    1.1617234   475450 
   75000    1.0030843   -2.4355301   -2.4355301   -1.2751822  0.069481177   -2.4355301    1.1603479   475440 
   76000    1.0035777   -2.4358144   -2.4358144   -1.2748714  0.071252562   -2.4358144     1.160943   475430 
   77000    1.0045277   -2.4366813   -2.4366813   -1.2746149  0.069657662   -2.4366813    1.1620664   475420 
   78000    1.0028864   -2.4360063   -2.4360063   -1.2758141  0.066632999   -2.4360063    1.1601922   475410 
   79000    1.0034334   -2.4367864   -2.4367864    -1.275937  0.070403805   -2.4367864    1.1608494   475400 
   80000     1.003838   -2.4371298   -2.4371298   -1.2757879  0.061578532   -2.4371298    1.1613419   475390 
   81000    1.0034122   -2.4353615   -2.4353615   -1.2744878  0.069151104   -2.4353615    1.1608737   475380 
   82000    1.0034284   -2.4351901   -2.4351901   -1.2742732  0.070612102   -2.4351901    1.1609169   475370 
   83000    1.0045507   -2.4359347   -2.4359347   -1.2736949  0.067484962   -2.4359347    1.1622398   475360 
   84000    1.0043768   -2.4367988   -2.4367988   -1.2747359  0.068633099   -2.4367988     1.162063   475350 
   85000     1.003337   -2.4363235   -2.4363235   -1.2754392  0.071065373   -2.4363235    1.1608843   475340 
   86000    1.0024508    -2.436153    -2.436153   -1.2762696  0.065062908    -2.436153    1.1598834   475330 
   87000    1.0041703   -2.4382158   -2.4382158   -1.2763184  0.063034635   -2.4382158    1.1618974   475320 
   88000    1.0050603   -2.4387761   -2.4387761   -1.2758245  0.074015612   -2.4387761    1.1629516   475310 
   89000    1.0043756   -2.4381684   -2.4381684   -1.2759846  0.066857479   -2.4381684    1.1621839   475300 
   90000    1.0051011   -2.4383209   -2.4383209    -1.275273  0.069475888   -2.4383209    1.1630479   475290 
   91000    1.0052752   -2.4381378   -2.4381378    -1.274864  0.072623258   -2.4381378    1.1632738   475280 
   92000    1.0047838   -2.4378829   -2.4378829   -1.2751534   0.07246231   -2.4378829    1.1627296   475270 
   93000    1.0033703   -2.4364617   -2.4364617   -1.2753434  0.071624891   -2.4364617    1.1611183   475260 
   94000    1.0042824   -2.4370071   -2.4370071   -1.2748089  0.067189805   -2.4370071    1.1621983   475250 
   95000    1.0049348   -2.4379079   -2.4379079   -1.2749302  0.075567379   -2.4379079    1.1629778   475240 
   96000    1.0041567   -2.4391266   -2.4391266   -1.2770249  0.062913549   -2.4391266    1.1621017   475230 
   97000    1.0050779   -2.4393788   -2.4393788   -1.2761865  0.075739168   -2.4393788    1.1631922   475220 
   98000    1.0058074   -2.4398924   -2.4398924   -1.2758313  0.067434896   -2.4398924     1.164061   475210 
   99000    1.0053877   -2.4399546   -2.4399546   -1.2763547  0.065987066   -2.4399546    1.1635999   475200 
  100000     1.003919   -2.4383133   -2.4383133   -1.2763888  0.075363224   -2.4383133    1.1619245   475190 
  101000    1.0034857   -2.4378889   -2.4378889   -1.2764415  0.070534352   -2.4378889    1.1614474   475180 
  102000    1.0037866   -2.4379594   -2.4379594   -1.2761393  0.066084112   -2.4379594    1.1618201   475170 
  103000    1.0048498   -2.4388722   -2.4388722   -1.2757971   0.06037528   -2.4388722    1.1630751   475160 
  104000    1.0039084   -2.4380336   -2.4380336   -1.2760237    0.0698502   -2.4380336    1.1620099   475150 
  105000    1.0035044   -2.4375095   -2.4375095   -1.2759427  0.068728396   -2.4375095    1.1615668   475140 
  106000    1.0046769   -2.4375013   -2.4375013   -1.2745528  0.073675083   -2.4375013    1.1629484   475130 
  107000    1.0043206   -2.4378128   -2.4378128   -1.2752523  0.070899045   -2.4378128    1.1625605   475120 
  108000    1.0027485   -2.4351338   -2.4351338   -1.2743687  0.070217348   -2.4351338    1.1607651   475110 
  109000    1.0034505   -2.4362087   -2.4362087   -1.2746065  0.072879939   -2.4362087    1.1616022   475100 
  110000    1.0030182   -2.4345133   -2.4345133    -1.273387  0.068747123   -2.4345133    1.1611262   475090 
  111000    1.0027357    -2.433209    -2.433209   -1.2723853  0.069764574    -2.433209    1.1608237   475080 
  112000    1.0020274   -2.4330362   -2.4330362   -1.2730082  0.075351524   -2.4330362     1.160028   475070 
  113000    1.0022181   -2.4342225   -2.4342225   -1.2739493  0.069539231   -2.4342225    1.1602732   475060 
  114000    1.0025487   -2.4339717   -2.4339717   -1.2732913  0.066288733   -2.4339717    1.1606804   475050 
  115000     1.003052   -2.4350529   -2.4350529   -1.2737654  0.063491649   -2.4350529    1.1612875   475040 
  116000    1.0004088   -2.4319689   -2.4319689   -1.2737172  0.078334728   -2.4319689    1.1582517   475030 
  117000    1.0013139    -2.433317    -2.433317    -1.273993  0.067990198    -2.433317     1.159324   475020 
  118000    1.0016115   -2.4334644   -2.4334644   -1.2737713  0.067845964   -2.4334644    1.1596931   475010 
  119000    1.0026236   -2.4338552   -2.4338552   -1.2729659  0.065027333   -2.4338552    1.1608893   475000 
  120000     1.000025   -2.4320914   -2.4320914   -1.2741865  0.068406555   -2.4320914    1.1579049   474990 
  121000    1.0008139   -2.4327493   -2.4327493   -1.2739066  0.064903011   -2.4327493    1.1588427   474980 
  122000    1.0030034   -2.4340989   -2.4340989   -1.2726965  0.065230668   -2.4340989    1.1614024   474970 
  123000    1.0025882   -2.4337311   -2.4337311    -1.272785  0.062112688   -2.4337311    1.1609461   474960 
  124000    1.0025584   -2.4338658   -2.4338658   -1.2729298  0.067874339   -2.4338658     1.160936   474950 
  125000    1.0029668    -2.434723    -2.434723   -1.2732896  0.064609787    -2.434723    1.1614334   474940 
  126000    1.0025282   -2.4341695   -2.4341695   -1.2732195  0.068521224   -2.4341695      1.16095   474930 
  127000    1.0024037   -2.4340491   -2.4340491   -1.2732189  0.070537628   -2.4340491    1.1608302   474920 
  128000    1.0020901   -2.4336317   -2.4336317   -1.2731403  0.070854046   -2.4336317    1.1604914   474910 
  129000    1.0034554   -2.4357248   -2.4357248   -1.2736276  0.070535704   -2.4357248    1.1620971   474900 
  130000    1.0017898   -2.4340661   -2.4340661   -1.2738736  0.063741395   -2.4340661    1.1601925   474890 
  131000     1.002627   -2.4352846   -2.4352846   -1.2740979   0.06738045   -2.4352846    1.1611867   474880 
  132000    1.0025507    -2.435088    -2.435088   -1.2739654  0.071218764    -2.435088    1.1611226   474870 
  133000    1.0031861   -2.4353228   -2.4353228   -1.2734397  0.071875563   -2.4353228    1.1618831   474860 
  134000    1.0047909   -2.4369165   -2.4369165   -1.2731503  0.066074076   -2.4369165    1.1637662   474850 
  135000    1.0043061   -2.4374163   -2.4374163   -1.2741871  0.073348736   -2.4374163    1.1632292   474840 
  136000    1.0034873   -2.4359921   -2.4359921   -1.2736868  0.067224178   -2.4359921    1.1623053   474830 
  137000    1.0038243   -2.4362744   -2.4362744   -1.2735542  0.068671179   -2.4362744    1.1627202   474820 
  138000    1.0031558   -2.4361349   -2.4361349   -1.2741645  0.068253856   -2.4361349    1.1619704   474810 
  139000    1.0033267   -2.4359863   -2.4359863   -1.2737936  0.066159909   -2.4359863    1.1621928   474800 
  140000     1.002716   -2.4353775   -2.4353775   -1.2738676  0.064442846   -2.4353775    1.1615098   474790 
  141000     1.004297   -2.4371242   -2.4371242   -1.2737585  0.064095593   -2.4371242    1.1633657   474780 
  142000    1.0030033   -2.4371319   -2.4371319   -1.2752404  0.074414105   -2.4371319    1.1618916   474770 
  143000    1.0023266    -2.436531    -2.436531   -1.2753989  0.066087338    -2.436531    1.1611321   474760 
  144000    1.0020858   -2.4369424   -2.4369424   -1.2760648  0.076204442   -2.4369424    1.1608777   474750 
  145000    1.0027292   -2.4377871   -2.4377871   -1.2761397  0.068656547   -2.4377871    1.1616474   474740 
  146000    1.0033086   -2.4376574   -2.4376574   -1.2753143  0.069070456   -2.4376574    1.1623432   474730 
  147000    1.0026546   -2.4370056   -2.4370056   -1.2753956  0.070274477   -2.4370056    1.1616099   474720 
  148000    1.0019299   -2.4362229   -2.4362229   -1.2754281  0.070173186   -2.4362229    1.1607948   474710 
  149000    1.0024469   -2.4382519   -2.4382519   -1.2768336  0.064276499   -2.4382519    1.1614183   474700 
  150000    1.0007662   -2.4364478   -2.4364478   -1.2769523  0.072485629   -2.4364478    1.1594955   474690 
  151000    1.0027219   -2.4388816   -2.4388816   -1.2770958  0.058838019   -2.4388816    1.1617859   474680 
  152000     1.000382    -2.436405    -2.436405   -1.2773058   0.07179752    -2.436405    1.1590992   474670 
  153000    1.0029137   -2.4384735   -2.4384735   -1.2764165  0.062951238   -2.4384735     1.162057   474660 
  154000    1.0016821   -2.4359318   -2.4359318   -1.2752774  0.070240522   -2.4359318    1.1606544   474650 
  155000    1.0017229   -2.4364238   -2.4364238   -1.2756976  0.063129419   -2.4364238    1.1607262   474640 
  156000    1.0018305   -2.4368036   -2.4368036   -1.2759283  0.068031548   -2.4368036    1.1608753   474630 
  157000    1.0017438   -2.4373158   -2.4373158   -1.2765165  0.075455482   -2.4373158    1.1607993   474620 
  158000    1.0007247   -2.4368743   -2.4368743   -1.2772315  0.065731784   -2.4368743    1.1596428   474610 
  159000     1.000961   -2.4368615   -2.4368615   -1.2769205  0.071748458   -2.4368615    1.1599411   474600 
  160000    1.0002479   -2.4362085   -2.4362085   -1.2770694  0.066548612   -2.4362085    1.1591391   474590 
  161000    1.0009785   -2.4370482   -2.4370482    -1.277038  0.064715189   -2.4370482    1.1600102   474580 
  162000    1.0016968   -2.4372451   -2.4372451    -1.276378  0.068733373   -2.4372451    1.1608671   474570 
  163000    1.0007233   -2.4364789   -2.4364789   -1.2767156  0.065052918   -2.4364789    1.1597634   474560 
  164000     1.000661   -2.4365327   -2.4365327   -1.2768172    0.0733903   -2.4365327    1.1597156   474550 
  165000    1.0015859   -2.4371556   -2.4371556   -1.2763436  0.065919496   -2.4371556     1.160812   474540 
  166000    1.0006869   -2.4372145   -2.4372145     -1.27742  0.066506961   -2.4372145    1.1597945   474530 
  167000    1.0014681   -2.4373612   -2.4373612   -1.2766369  0.066835731   -2.4373612    1.1607244   474520 
  168000    1.0011342   -2.4364474   -2.4364474   -1.2760855  0.062743962   -2.4364474    1.1603619   474510 
  169000    1.0007553   -2.4365245   -2.4365245   -1.2765774  0.073308618   -2.4365245    1.1599471   474500 
  170000    1.0019179   -2.4376055   -2.4376055   -1.2762863  0.071001503   -2.4376055    1.1613191   474490 
  171000    1.0015697   -2.4369778   -2.4369778   -1.2760377  0.068950006   -2.4369778      1.16094   474480 
  172000    1.0021335   -2.4382074   -2.4382074   -1.2765895  0.071674542   -2.4382074     1.161618   474470 
  173000    0.9995842   -2.4354285   -2.4354285   -1.2767411  0.075545332   -2.4354285    1.1586874   474460 
  174000    1.0018802   -2.4386851   -2.4386851   -1.2773118  0.071757207   -2.4386851    1.1613733   474450 
  175000    1.0003232     -2.43701     -2.43701   -1.2774171  0.064808427     -2.43701    1.1595928   474440 
  176000   0.99848983   -2.4342282   -2.4342282   -1.2767362  0.068165471   -2.4342282     1.157492   474430 
  177000    1.0017426   -2.4383707   -2.4383707   -1.2770835  0.066001182   -2.4383707    1.1612872   474420 
  178000    1.0003964   -2.4365718   -2.4365718   -1.2768207  0.076465972   -2.4365718    1.1597511   474410 
  179000     0.999349   -2.4366981   -2.4366981   -1.2781369  0.072234115   -2.4366981    1.1585613   474400 
  180000    1.0001648    -2.437117    -2.437117   -1.2775855  0.058561233    -2.437117    1.1595315   474390 
  181000   0.99830103   -2.4352834   -2.4352834   -1.2778882  0.067677988   -2.4352834    1.1573951   474380 
  182000    1.0019759   -2.4394348   -2.4394348   -1.2777547  0.065349932   -2.4394348    1.1616801   474370 
  183000    1.0022054   -2.4390957   -2.4390957    -1.277125   0.06122742   -2.4390957    1.1619707   474360 
  184000    1.0016573   -2.4384011   -2.4384011   -1.2770413  0.069652108   -2.4384011    1.1613597   474350 
  185000    0.9999758   -2.4361906   -2.4361906    -1.276756  0.068714872   -2.4361906    1.1594346   474340 
  186000    1.0004787   -2.4379671   -2.4379671    -1.277925  0.069028083   -2.4379671    1.1600421   474330 
  187000   0.99923201   -2.4372764   -2.4372764   -1.2786553  0.073620223   -2.4372764     1.158621   474320 
  188000   0.99887187   -2.4364519   -2.4364519   -1.2782241  0.070224545   -2.4364519    1.1582279   474310 
  189000   0.99818562   -2.4366392   -2.4366392   -1.2791827  0.064581038   -2.4366392    1.1574565   474300 
  190000   0.99755693   -2.4360464   -2.4360464   -1.2792945  0.060715384   -2.4360464    1.1567519   474290 
  191000   0.99790879    -2.436022    -2.436022   -1.2788377  0.063870525    -2.436022    1.1571843   474280 
  192000   0.99934159   -2.4376608   -2.4376608   -1.2787905  0.064265198   -2.4376608    1.1588702   474270 
  193000   0.99686137   -2.4359683   -2.4359683   -1.2799499  0.066912011   -2.4359683    1.1560185   474260 
  194000   0.99873868   -2.4375378   -2.4375378   -1.2793178   0.06186309   -2.4375378    1.1582199   474250 
  195000   0.99828004   -2.4363546   -2.4363546   -1.2786422  0.069863914   -2.4363546    1.1577125   474240 
  196000   0.99874266   -2.4374675   -2.4374675   -1.2791941  0.068522733   -2.4374675    1.1582734   474230 
  197000   0.99815173   -2.4365974   -2.4365974   -1.2789849  0.069674869   -2.4365974    1.1576125   474220 
  198000   0.99894277   -2.4372918   -2.4372918   -1.2787375  0.067580957   -2.4372918    1.1585543   474210 
  199000    1.0006052      -2.4381      -2.4381   -1.2775931  0.070058237      -2.4381    1.1605069   474200 
  200000   0.99903136   -2.4362295   -2.4362295   -1.2775236  0.068242556   -2.4362295    1.1587059   474190 
  201000    1.0000889   -2.4361027   -2.4361027   -1.2761457  0.063566003   -2.4361027     1.159957   474180 
  202000    1.0001933   -2.4366793   -2.4366793   -1.2765768  0.064950192   -2.4366793    1.1601025   474170 
  203000   0.99913554   -2.4356926   -2.4356926   -1.2767925  0.068053556   -2.4356926    1.1589001   474160 
  204000    1.0000542   -2.4367964   -2.4367964   -1.2768064  0.072836473   -2.4367964      1.15999   474150 
  205000     1.001005   -2.4370255   -2.4370255    -1.275908  0.072857137   -2.4370255    1.1611175   474140 
  206000    1.0001998   -2.4372294   -2.4372294   -1.2770214  0.071797761   -2.4372294     1.160208   474130 
  207000   0.99916859   -2.4362377   -2.4362377   -1.2772015  0.068452003   -2.4362377    1.1590362   474120 
  208000   0.99916866   -2.4366374   -2.4366374   -1.2775766  0.063759295   -2.4366374    1.1590607   474110 
  209000    1.0005868   -2.4371054   -2.4371054   -1.2763752  0.069657444   -2.4371054    1.1607303   474100 
  210000   0.99978822   -2.4370863   -2.4370863    -1.277258  0.062361151   -2.4370863    1.1598284   474090 
  211000    1.0000645   -2.4368154   -2.4368154   -1.2766421  0.065475923   -2.4368154    1.1601733   474080 
  212000   0.99880072   -2.4345387   -2.4345387    -1.275807   0.07022124   -2.4345387    1.1587317   474070 
  213000   0.99922274   -2.4350787   -2.4350787    -1.275833  0.066968291   -2.4350787    1.1592457   474060 
  214000   0.99970571   -2.4352057   -2.4352057   -1.2753753  0.069712346   -2.4352057    1.1598305   474050 
  215000   0.99890483   -2.4360708   -2.4360708   -1.2771451  0.069257239   -2.4360708    1.1589258   474040 
  216000   0.99743954   -2.4338458   -2.4338458   -1.2765956  0.064799875   -2.4338458    1.1572502   474030 
  217000   0.99735224    -2.435627    -2.435627   -1.2784537  0.067711725    -2.435627    1.1571733   474020 
  218000    1.0015047   -2.4403514   -2.4403514   -1.2783357  0.063792736   -2.4403514    1.1620157   474010 
  219000    0.9982785   -2.4373416   -2.4373416   -1.2790447    0.0580177   -2.4373416    1.1582969   474000 
  220000   0.99783311   -2.4360523   -2.4360523   -1.2782478  0.071113362   -2.4360523    1.1578045   473990 
  221000   0.99874772    -2.436804    -2.436804   -1.2779138  0.064664154    -2.436804    1.1588902   473980 
  222000   0.99784957   -2.4351818   -2.4351818   -1.2773093  0.063764625   -2.4351818    1.1578725   473970 
  223000   0.99963492   -2.4375915   -2.4375915   -1.2776229  0.068645294   -2.4375915    1.1599686   473960 
  224000   0.99825892   -2.4359443   -2.4359443    -1.277548  0.065606357   -2.4359443    1.1583963   473950 
  225000   0.99785838   -2.4357266   -2.4357266   -1.2777707  0.064025317   -2.4357266     1.157956   473940 
  226000    0.9967569   -2.4349648   -2.4349648   -1.2782626  0.066223454   -2.4349648    1.1567022   473930 
  227000   0.99802059   -2.4370056   -2.4370056   -1.2788125  0.067147113   -2.4370056    1.1581931   473920 
  228000    0.9997514   -2.4379443   -2.4379443   -1.2777181  0.060445075   -2.4379443    1.1602262   473910 
  229000    1.0003464   -2.4386336   -2.4386336   -1.2776925   0.06392756   -2.4386336    1.1609412   473900 
  230000   0.99895792    -2.437125    -2.437125   -1.2777707  0.064400945    -2.437125    1.1593542   473890 
  231000   0.99919272    -2.437833    -2.437833   -1.2781817  0.067820362    -2.437833    1.1596512   473880 
  232000    1.0009439   -2.4396717   -2.4396717   -1.2779636  0.062503974   -2.4396717    1.1617081   473870 
  233000   0.99898803    -2.437597    -2.437597   -1.2781344    0.0679599    -2.437597    1.1594626   473860 
  234000    1.0009174    -2.439531    -2.439531   -1.2778046  0.073176475    -2.439531    1.1617264   473850 
  235000    1.0009806   -2.4390686   -2.4390686   -1.2772443  0.075917098   -2.4390686    1.1618242   473840 
  236000    1.0011307   -2.4393432   -2.4393432   -1.2773202  0.077072281   -2.4393432     1.162023   473830 
  237000    1.0001099   -2.4377115   -2.4377115   -1.2768488  0.068541988   -2.4377115    1.1608627   473820 
  238000   0.99760184   -2.4361461   -2.4361461   -1.2781702  0.077920578   -2.4361461    1.1579759   473810 
  239000    0.9983804   -2.4364655   -2.4364655   -1.2775614  0.067784328   -2.4364655    1.1589041   473800 
  240000   0.99744751   -2.4359923   -2.4359923   -1.2781466  0.071165322   -2.4359923    1.1578456   473790 
  241000   0.99888161   -2.4375086   -2.4375086   -1.2779738  0.070894824   -2.4375086    1.1595348   473780 
  242000   0.99734024   -2.4360599   -2.4360599   -1.2782899  0.070961217   -2.4360599      1.15777   473770 
  243000   0.99913012    -2.438269    -2.438269   -1.2783967   0.06504318    -2.438269    1.1598723   473760 
  244000   0.99885575   -2.4371492   -2.4371492    -1.277571  0.071692327   -2.4371492    1.1595782   473750 
  245000   0.99848314   -2.4367927   -2.4367927   -1.2776225  0.068171721   -2.4367927    1.1591701   473740 
  246000   0.99823431   -2.4364714   -2.4364714   -1.2775656  0.064600969   -2.4364714    1.1589057   473730 
  247000   0.99703131   -2.4353339   -2.4353339   -1.2778003  0.067837785   -2.4353339    1.1575335   473720 
  248000   0.99936642   -2.4374761   -2.4374761   -1.2772071  0.074418389   -2.4374761     1.160269   473710 
  249000   0.99801147   -2.4357564   -2.4357564    -1.277036  0.071225291   -2.4357564    1.1587204   473700 
  250000   0.99786058   -2.4361338   -2.4361338   -1.2775641  0.067715016   -2.4361338    1.1585697   473690 
  251000   0.99845564   -2.4366167   -2.4366167   -1.2773317  0.069868393   -2.4366167     1.159285   473680 
  252000   0.99784077   -2.4356791   -2.4356791   -1.2770836  0.061039597   -2.4356791    1.1585956   473670 
  253000   0.99864242   -2.4357598   -2.4357598   -1.2762089  0.066548355   -2.4357598    1.1595509   473660 
  254000    1.0001893   -2.4368278   -2.4368278   -1.2754563  0.068155523   -2.4368278    1.1613715   473650 
  255000   0.99942956   -2.4362554   -2.4362554   -1.2757416  0.069544356   -2.4362554    1.1605138   473640 
  256000    1.0004273   -2.4369266   -2.4369266   -1.2752297  0.067220468   -2.4369266     1.161697   473630 
  257000   0.99816332   -2.4346886   -2.4346886   -1.2755961  0.067105524   -2.4346886    1.1590924   473620 
  258000    0.9992196   -2.4363556   -2.4363556   -1.2760121   0.07001283   -2.4363556    1.1603435   473610 
  259000   0.99811745   -2.4351955   -2.4351955   -1.2761073  0.072677757   -2.4351955    1.1590881   473600 
  260000   0.99771673   -2.4351013   -2.4351013    -1.276454  0.068840073   -2.4351013    1.1586472   473590 
  261000   0.99792746    -2.435547    -2.435547   -1.2766306  0.062891126    -2.435547    1.1589164   473580 
  262000   0.99759522   -2.4361908   -2.4361908   -1.2776357  0.061534049   -2.4361908    1.1585551   473570 
  263000   0.99845769   -2.4360748   -2.4360748   -1.2764936  0.064668283   -2.4360748    1.1595812   473560 
  264000   0.99764241   -2.4350222   -2.4350222   -1.2763634  0.069834687   -2.4350222    1.1586588   473550 
  265000    0.9979536   -2.4338816   -2.4338816   -1.2748369  0.063924939   -2.4338816    1.1590447   473540 
  266000    1.0006796   -2.4357102   -2.4357102   -1.2734749  0.068869247   -2.4357102    1.1622353   473530 
  267000    1.0008494    -2.436566    -2.436566    -1.274109  0.061670878    -2.436566    1.1624571   473520 
  268000    0.9994807   -2.4354134   -2.4354134   -1.2745216   0.06609005   -2.4354134    1.1608918   473510 
  269000   0.99856749   -2.4358769   -2.4358769   -1.2760213  0.068322359   -2.4358769    1.1598556   473500 
  270000     0.997399   -2.4342823   -2.4342823   -1.2757594  0.068842863   -2.4342823    1.1585229   473490 
  271000   0.99859119   -2.4363402   -2.4363402    -1.276408  0.069083066   -2.4363402    1.1599322   473480 
  272000   0.99862226   -2.4371273   -2.4371273   -1.2771346  0.066397468   -2.4371273    1.1599928   473470 
  273000   0.99721775   -2.4357659   -2.4357659   -1.2773802  0.063754857   -2.4357659    1.1583858   473460 
  274000   0.99569255   -2.4333873   -2.4333873   -1.2767488    0.0676749   -2.4333873    1.1566385   473450 
  275000   0.99809975   -2.4364865   -2.4364865   -1.2770273  0.059798972   -2.4364865    1.1594593   473440 
  276000   0.99576442   -2.4329927   -2.4329927   -1.2762219  0.071999167   -2.4329927    1.1567708   473430 
  277000   0.99485274   -2.4328325   -2.4328325   -1.2770963  0.062859751   -2.4328325    1.1557362   473420 
  278000   0.99862168   -2.4360212   -2.4360212   -1.2758821  0.060155504   -2.4360212    1.1601391   473410 
  279000   0.99893216   -2.4362611   -2.4362611   -1.2757368  0.067689225   -2.4362611    1.1605243   473400 
  280000   0.99799861   -2.4356958   -2.4356958   -1.2762316  0.064893896   -2.4356958    1.1594642   473390 
  281000   0.99820841   -2.4365121   -2.4365121   -1.2767796  0.065169136   -2.4365121    1.1597325   473380 
  282000   0.99757702   -2.4359945   -2.4359945   -1.2769711   0.07384962   -2.4359945    1.1590234   473370 
  283000   0.99913203    -2.436914    -2.436914   -1.2760594   0.06629902    -2.436914    1.1608546   473360 
  284000   0.99819556   -2.4344148   -2.4344148   -1.2746237  0.063358962   -2.4344148    1.1597911   473350 
  285000   0.99864677   -2.4343534   -2.4343534   -1.2740136  0.066644158   -2.4343534    1.1603398   473340 
  286000   0.99789915   -2.4347354   -2.4347354   -1.2752398  0.063060329   -2.4347354    1.1594957   473330 
  287000   0.99721194   -2.4330117   -2.4330117     -1.27429  0.065910129   -2.4330117    1.1587216   473320 
  288000   0.99719702   -2.4338028   -2.4338028   -1.2750741  0.063975061   -2.4338028    1.1587288   473310 
  289000   0.99868359   -2.4361038   -2.4361038   -1.2756231  0.064089199   -2.4361038    1.1604807   473300 
  290000   0.99749178   -2.4357455   -2.4357455   -1.2766253  0.066238607   -2.4357455    1.1591203   473290 
  291000   0.99631727   -2.4355731   -2.4355731   -1.2777932   0.06481322   -2.4355731    1.1577799   473280 
  292000   0.99680932   -2.4357037   -2.4357037   -1.2773275  0.069889792   -2.4357037    1.1583762   473270 
  293000   0.99639587    -2.434656    -2.434656   -1.2767358   0.06705347    -2.434656    1.1579202   473260 
  294000   0.99723697    -2.434923    -2.434923   -1.2760009  0.063448014    -2.434923    1.1589221   473250 
  295000   0.99700106   -2.4333495   -2.4333495    -1.274677  0.064790485   -2.4333495    1.1586724   473240 
  296000   0.99767974   -2.4339714   -2.4339714   -1.2744858  0.068287591   -2.4339714    1.1594857   473230 
  297000   0.99598287    -2.432764    -2.432764   -1.2752259  0.066423325    -2.432764    1.1575381   473220 
  298000   0.99699897   -2.4339133   -2.4339133   -1.2751698  0.061137411   -2.4339133    1.1587435   473210 
  299000   0.99686047   -2.4345055   -2.4345055   -1.2758985   0.06775883   -2.4345055     1.158607   473200 
  300000   0.99546424   -2.4333658   -2.4333658   -1.2763571  0.069169411   -2.4333658    1.1570087   473190 
  301000   0.99700651   -2.4357938   -2.4357938   -1.2769681  0.063091384   -2.4357938    1.1588257   473180 
  302000   0.99751444   -2.4368101   -2.4368101   -1.2773695  0.063057152   -2.4368101    1.1594406   473170 
  303000   0.99666136   -2.4357106   -2.4357106   -1.2772371  0.063843169   -2.4357106    1.1584735   473160 
  304000    0.9977641   -2.4363957   -2.4363957   -1.2766159  0.059831646   -2.4363957    1.1597798   473150 
  305000   0.99667533   -2.4342566   -2.4342566   -1.2757179  0.067698284   -2.4342566    1.1585387   473140 
  306000   0.99877328     -2.43548     -2.43548   -1.2744781  0.075055649     -2.43548    1.1610019   473130 
  307000   0.99929584   -2.4368688   -2.4368688   -1.2752349  0.069878081   -2.4368688    1.1616339   473120 
  308000   0.99828524   -2.4357451   -2.4357451   -1.2752614  0.069345065   -2.4357451    1.1604836   473110 
  309000   0.99788904   -2.4352526   -2.4352526    -1.275205  0.067613861   -2.4352526    1.1600476   473100 
  310000   0.99826504   -2.4364297   -2.4364297   -1.2759205  0.072584236   -2.4364297    1.1605092   473090 
  311000   0.99731483   -2.4355752   -2.4355752   -1.2761461  0.071457865   -2.4355752    1.1594291   473080 
  312000   0.99579447   -2.4351734   -2.4351734   -1.2774873  0.066037744   -2.4351734    1.1576861   473070 
  313000   0.99709059   -2.4364054   -2.4364054    -1.277188  0.069288361   -2.4364054    1.1592174   473060 
  314000   0.99696852   -2.4367076   -2.4367076   -1.2776076  0.063699815   -2.4367076       1.1591   473050 
  315000   0.99760517   -2.4378311   -2.4378311   -1.2779664  0.070922544   -2.4378311    1.1598647   473040 
  316000   0.99570024   -2.4348829   -2.4348829   -1.2772085  0.065190602   -2.4348829    1.1576744   473030 
  317000   0.99466388   -2.4350737   -2.4350737   -1.2785798  0.063348457   -2.4350737    1.1564939   473020 
  318000   0.99580024   -2.4359275   -2.4359275   -1.2780879   0.06545582   -2.4359275    1.1578396   473010 
  319000   0.99596312   -2.4362808   -2.4362808   -1.2782273  0.055151231   -2.4362808    1.1580535   473000 
  320000   0.99413922    -2.433438    -2.433438   -1.2774808  0.069510598    -2.433438    1.1559572   472990 
  321000   0.99577353   -2.4361142   -2.4361142   -1.2782322  0.065242197   -2.4361142     1.157882   472980 
  322000   0.99519535    -2.435485    -2.435485   -1.2782508  0.065084729    -2.435485    1.1572342   472970 
  323000   0.99615745   -2.4362622   -2.4362622   -1.2778848  0.065760058   -2.4362622    1.1583774   472960 
  324000   0.99814355   -2.4396045   -2.4396045   -1.2788931  0.059702294   -2.4396045    1.1607115   472950 
  325000   0.99882514    -2.440429    -2.440429   -1.2789004  0.058451394    -2.440429    1.1615286   472940 
  326000   0.99621196   -2.4361505   -2.4361505   -1.2776362  0.070507527   -2.4361505    1.1585143   472930 
  327000   0.99515039   -2.4360516   -2.4360516   -1.2787473  0.071723292   -2.4360516    1.1573042   472920 
  328000   0.99561617   -2.4362177   -2.4362177   -1.2783473  0.066001717   -2.4362177    1.1578704   472910 
  329000   0.99519064   -2.4351982   -2.4351982   -1.2777982   0.06628009   -2.4351982       1.1574   472900 
  330000    0.9948508   -2.4351033   -2.4351033   -1.2780741  0.063943026   -2.4351033    1.1570292   472890 
  331000   0.99551243   -2.4356616   -2.4356616   -1.2778384   0.06881302   -2.4356616    1.1578232   472880 
  332000   0.99564935   -2.4363503   -2.4363503   -1.2783434  0.069382511   -2.4363503    1.1580069   472870 
  333000   0.99655376    -2.436689    -2.436689   -1.2776057  0.065903123    -2.436689    1.1590833   472860 
  334000   0.99447604   -2.4348596   -2.4348596   -1.2781684  0.067935568   -2.4348596    1.1566912   472850 
  335000   0.99548727   -2.4356076   -2.4356076   -1.2777157  0.072790615   -2.4356076    1.1578919   472840 
  336000    0.9962038   -2.4377201   -2.4377201   -1.2789703  0.061476946   -2.4377201    1.1587498   472830 
  337000   0.99561071   -2.4374359   -2.4374359   -1.2793515  0.067478848   -2.4374359    1.1580844   472820 
  338000   0.99499947   -2.4369135   -2.4369135   -1.2795156  0.069488181   -2.4369135    1.1573979   472810 
  339000   0.99410161   -2.4359539   -2.4359539    -1.279576  0.067395126   -2.4359539     1.156378   472800 
  340000   0.99488369   -2.4365082   -2.4365082    -1.279196  0.066564128   -2.4365082    1.1573122   472790 
  341000   0.99481304   -2.4358812   -2.4358812   -1.2786267  0.067767569   -2.4358812    1.1572545   472780 
  342000   0.99336436   -2.4363327   -2.4363327    -1.280739  0.061611387   -2.4363327    1.1555937   472770 
  343000   0.99319377   -2.4345341   -2.4345341   -1.2791144  0.066767422   -2.4345341    1.1554197   472760 
  344000   0.99374583   -2.4355803   -2.4355803    -1.279494  0.066095341   -2.4355803    1.1560864   472750 
  345000   0.99263847   -2.4351652   -2.4351652   -1.2803427  0.061228054   -2.4351652    1.1548225   472740 
  346000   0.99379707    -2.436548    -2.436548   -1.2803531   0.06640147    -2.436548    1.1561949   472730 
  347000   0.99116837   -2.4347352   -2.4347352   -1.2815742  0.058471074   -2.4347352     1.153161   472720 
  348000   0.99180656   -2.4353227   -2.4353227   -1.2813948  0.068480756   -2.4353227    1.1539279   472710 
  349000   0.99108569   -2.4344786   -2.4344786    -1.281365  0.065679657   -2.4344786    1.1531136   472700 
  350000   0.99375356   -2.4374956   -2.4374956   -1.2812535   0.06462045   -2.4374956    1.1562421   472690 
  351000   0.99243959   -2.4349061   -2.4349061   -1.2801684   0.06091102   -2.4349061    1.1547377   472680 
  352000   0.99324162   -2.4359418   -2.4359418   -1.2802465  0.068541795   -2.4359418    1.1556954   472670 
  353000   0.99413255   -2.4354216   -2.4354216   -1.2786651  0.063909442   -2.4354216    1.1567565   472660 
  354000    0.9923935   -2.4345363   -2.4345363    -1.279779  0.072785141   -2.4345363    1.1547574   472650 
  355000   0.99366281   -2.4361706   -2.4361706   -1.2799117  0.066282761   -2.4361706    1.1562588   472640 
  356000    0.9941028   -2.4362769   -2.4362769   -1.2794816  0.059079209   -2.4362769    1.1567953   472630 
  357000   0.99575138   -2.4381765   -2.4381765   -1.2794383  0.068186896   -2.4381765    1.1587382   472620 
  358000   0.99690744   -2.4383719   -2.4383719   -1.2782639   0.06592085   -2.4383719     1.160108   472610 
  359000    0.9963188   -2.4380409   -2.4380409   -1.2785934  0.069215058   -2.4380409    1.1594476   472600 
  360000   0.99640402   -2.4382724   -2.4382724   -1.2787011  0.064913063   -2.4382724    1.1595713   472590 
  361000   0.99360285    -2.436609    -2.436609   -1.2802731  0.060357866    -2.436609    1.1563359   472580 
  362000   0.99327778    -2.436933    -2.436933    -1.280951  0.063048034    -2.436933     1.155982   472570 
  363000   0.99478503    -2.438322    -2.438322   -1.2805614  0.068159689    -2.438322    1.1577607   472560 
  364000   0.99437958   -2.4380455   -2.4380455   -1.2807323  0.068521795   -2.4380455    1.1573133   472550 
  365000   0.99380473   -2.4373245   -2.4373245   -1.2806558  0.069061266   -2.4373245    1.1566687   472540 
  366000   0.99322248     -2.43685     -2.43685   -1.2808345  0.062554157     -2.43685    1.1560155   472530 
  367000   0.99195748   -2.4377389   -2.4377389   -1.2831713  0.061124599   -2.4377389    1.1545676   472520 
  368000   0.99272221   -2.4373426   -2.4373426   -1.2818605  0.063125501   -2.4373426    1.1554821   472510 
  369000   0.99346958   -2.4375366   -2.4375366   -1.2811601  0.069182672   -2.4375366    1.1563765   472500 
  370000    0.9941651   -2.4377473   -2.4377473   -1.2805367  0.062448065   -2.4377473    1.1572106   472490 
  371000   0.99302603   -2.4366927   -2.4366927   -1.2807835  0.073396807   -2.4366927    1.1559092   472480 
  372000   0.99405664   -2.4375788   -2.4375788   -1.2804455    0.0610922   -2.4375788    1.1571333   472470 
  373000   0.99344611   -2.4363403   -2.4363403   -1.2798932   0.06462218   -2.4363403    1.1564471   472460 
  374000   0.99438556   -2.4359046   -2.4359046   -1.2783394  0.069103336   -2.4359046    1.1575652   472450 
  375000   0.99541397   -2.4373908   -2.4373908   -1.2786039  0.071445992   -2.4373908    1.1587869   472440 
  376000   0.99312038   -2.4354029   -2.4354029   -1.2792616  0.065722942   -2.4354029    1.1561413   472430 
  377000   0.99400138   -2.4344538   -2.4344538   -1.2772624  0.070944507   -2.4344538    1.1571914   472420 
  378000   0.99415819   -2.4354969   -2.4354969   -1.2780984   0.06366042   -2.4354969    1.1573985   472410 
  379000   0.99298077   -2.4348329   -2.4348329   -1.2787806    0.0689197   -2.4348329    1.1560522   472400 
  380000    0.9933592   -2.4364838   -2.4364838   -1.2799666  0.064913683   -2.4364838    1.1565173   472390 
  381000   0.99187343   -2.4344999   -2.4344999    -1.279688  0.065192017   -2.4344999    1.1548119   472380 
  382000   0.99301945   -2.4352898   -2.4352898   -1.2791191  0.072278793   -2.4352898    1.1561707   472370 
  383000   0.99301364   -2.4352555   -2.4352555   -1.2790671  0.062273194   -2.4352555    1.1561884   472360 
  384000   0.99277986   -2.4344806   -2.4344806     -1.27854  0.061280818   -2.4344806    1.1559407   472350 
  385000   0.99231976   -2.4345054   -2.4345054    -1.279076  0.066145284   -2.4345054    1.1554294   472340 
  386000   0.99286399   -2.4342742   -2.4342742   -1.2781866   0.07372053   -2.4342742    1.1560876   472330 
  387000    0.9923125    -2.433239    -2.433239   -1.2777691   0.06144427    -2.433239    1.1554699   472320 
  388000   0.99260808   -2.4345029   -2.4345029   -1.2786644   0.06533774   -2.4345029    1.1558385   472310 
  389000    0.9918583   -2.4340402   -2.4340402   -1.2790503  0.065380755   -2.4340402    1.1549899   472300 
  390000   0.99392202   -2.4365653   -2.4365653   -1.2791478  0.067304834   -2.4365653    1.1574175   472290 
  391000   0.99047754   -2.4339203   -2.4339203   -1.2804894  0.065426789   -2.4339203    1.1534309   472280 
  392000   0.99270263   -2.4355738   -2.4355738   -1.2795273  0.069281294   -2.4355738    1.1560465   472270 
  393000   0.99331501   -2.4367503   -2.4367503   -1.2799661  0.064901506   -2.4367503    1.1567842   472260 
  394000   0.99104731   -2.4344807   -2.4344807    -1.280313  0.065522133   -2.4344807    1.1541677   472250 
  395000   0.99346306   -2.4354087   -2.4354087   -1.2784031  0.069688196   -2.4354087    1.1570056   472240 
  396000   0.99205568   -2.4347942   -2.4347942   -1.2794032   0.06177245   -2.4347942     1.155391   472230 
  397000   0.99263504   -2.4344716   -2.4344716   -1.2783813  0.063867573   -2.4344716    1.1560902   472220 
  398000   0.99264022   -2.4358066   -2.4358066   -1.2796858  0.065922897   -2.4358066    1.1561207   472210 
  399000   0.99098386   -2.4345259   -2.4345259   -1.2803099  0.062400215   -2.4345259     1.154216   472200 
  400000   0.99112132   -2.4334452   -2.4334452   -1.2790446  0.061518809   -2.4334452    1.1544006   472190 
  401000   0.99148873   -2.4348554   -2.4348554   -1.2800025  0.060628476   -2.4348554     1.154853   472180 
  402000   0.99325043   -2.4369226   -2.4369226   -1.2799932  0.062404877   -2.4369226    1.1569294   472170 
  403000   0.99348392   -2.4368835   -2.4368835   -1.2796576  0.064806421   -2.4368835    1.1572259   472160 
  404000   0.99220708    -2.435396    -2.435396   -1.2796329  0.061509607    -2.435396    1.1557631   472150 
  405000   0.99190426   -2.4368894   -2.4368894   -1.2814546  0.062931523   -2.4368894    1.1554348   472140 
  406000   0.99101402   -2.4360866   -2.4360866   -1.2816643  0.064168868   -2.4360866    1.1544223   472130 
  407000   0.99150046   -2.4367665   -2.4367665   -1.2817531  0.060140419   -2.4367665    1.1550134   472120 
  408000    0.9917985   -2.4370913   -2.4370913   -1.2817063   0.06278753   -2.4370913    1.1553851   472110 
  409000   0.99338033   -2.4383483   -2.4383483   -1.2810959  0.068050597   -2.4383483    1.1572523   472100 
  410000   0.99354251   -2.4380213   -2.4380213   -1.2805555  0.066900079   -2.4380213    1.1574658   472090 
  411000   0.99433434   -2.4388982   -2.4388982   -1.2804854   0.06832195   -2.4388982    1.1584128   472080 
  412000   0.99405653   -2.4390692   -2.4390692   -1.2809556    0.0681619   -2.4390692    1.1581137   472070 
  413000   0.99285013   -2.4386138   -2.4386138   -1.2818811  0.065022436   -2.4386138    1.1567327   472060 
  414000   0.99413471   -2.4395783   -2.4395783   -1.2813245  0.060790447   -2.4395783    1.1582538   472050 
  415000   0.99428797   -2.4401567   -2.4401567   -1.2816998  0.060351669   -2.4401567    1.1584569   472040 
  416000   0.99277709   -2.4381876   -2.4381876   -1.2814666  0.067410045   -2.4381876    1.1567211   472030 
  417000   0.99290169    -2.437707    -2.437707   -1.2808162  0.065622449    -2.437707    1.1568908   472020 
  418000   0.99269173    -2.437745    -2.437745   -1.2810744   0.06837655    -2.437745    1.1566706   472010 
  419000   0.99426482   -2.4390892   -2.4390892   -1.2805611  0.070383621   -2.4390892    1.1585281   472000 
  420000   0.99473875   -2.4394191   -2.4394191   -1.2803142  0.064773597   -2.4394191    1.1591049   471990 
  421000   0.99436531   -2.4391405   -2.4391405   -1.2804462   0.06707049   -2.4391405    1.1586943   471980 
  422000   0.99093063   -2.4352632   -2.4352632   -1.2805467  0.071425849   -2.4352632    1.1547165   471970 
  423000   0.99318342   -2.4395321   -2.4395321    -1.282166  0.065535412   -2.4395321    1.1573661   471960 
  424000    0.9921928   -2.4384853   -2.4384853   -1.2822491  0.064967657   -2.4384853    1.1562363   471950 
  425000   0.99250445   -2.4374421   -2.4374421   -1.2808182  0.066278652   -2.4374421    1.1566239   471940 
  426000   0.99212063   -2.4376285   -2.4376285   -1.2814274  0.067629705   -2.4376285    1.1562012   471930 
  427000   0.99181248   -2.4376848   -2.4376848   -1.2818183  0.063436345   -2.4376848    1.1558665   471920 
  428000   0.99208076    -2.438733    -2.438733   -1.2825293  0.063275093    -2.438733    1.1562037   471910 
  429000    0.9925673    -2.438683    -2.438683   -1.2818878  0.066163038    -2.438683    1.1567952   471900 
  430000   0.99060851   -2.4366265   -2.4366265   -1.2820897  0.056130157   -2.4366265    1.1545368   471890 
  431000   0.99056387   -2.4362617   -2.4362617   -1.2817524  0.062893069   -2.4362617    1.1545092   471880 
  432000   0.99112629   -2.4358936   -2.4358936   -1.2807043  0.064517046   -2.4358936    1.1551892   471870 
  433000   0.99165503   -2.4364292   -2.4364292   -1.2805992  0.068430596   -2.4364292      1.15583   471860 
  434000   0.99283401   -2.4372785   -2.4372785   -1.2800498  0.069351932   -2.4372785    1.1572287   471850 
  435000   0.99370059   -2.4371706   -2.4371706   -1.2789073  0.063896212   -2.4371706    1.1582633   471840 
  436000   0.99166019   -2.4349072   -2.4349072   -1.2789978  0.057188634   -2.4349072    1.1559095   471830 
  437000   0.99089616   -2.4330301   -2.4330301   -1.2779867  0.064988416   -2.4330301    1.1550434   471820 
  438000   0.99233768   -2.4335886   -2.4335886   -1.2768404  0.064907075   -2.4335886    1.1567482   471810 
  439000   0.99077194   -2.4333549   -2.4333549   -1.2784073  0.069496538   -2.4333549    1.1549476   471800 
  440000   0.99328081   -2.4362221   -2.4362221   -1.2783254   0.06598781   -2.4362221    1.1578967   471790 
  441000   0.99121689   -2.4327953   -2.4327953     -1.27728  0.069301384   -2.4327953    1.1555152   471780 
  442000   0.99137365   -2.4333095   -2.4333095    -1.277587  0.065913681   -2.4333095    1.1557225   471770 
  443000   0.98990424   -2.4315914   -2.4315914   -1.2775575   0.06223524   -2.4315914    1.1540339   471760 
  444000   0.99039165   -2.4325259   -2.4325259   -1.2778993  0.065146044   -2.4325259    1.1546266   471750 
  445000   0.99025863   -2.4323044   -2.4323044   -1.2778084  0.064632766   -2.4323044     1.154496   471740 
  446000   0.99065522   -2.4326254   -2.4326254   -1.2776425  0.060813953   -2.4326254    1.1549829   471730 
  447000   0.98900539   -2.4313848   -2.4313848    -1.278301  0.061441029   -2.4313848    1.1530838   471720 
  448000   0.98921982   -2.4317033   -2.4317033    -1.278345  0.065989436   -2.4317033    1.1533583   471710 
  449000   0.98923104   -2.4318345   -2.4318345   -1.2784387  0.065418777   -2.4318345    1.1533958   471700 
  450000   0.99031071   -2.4334792   -2.4334792   -1.2788001  0.062252521   -2.4334792    1.1546791   471690 
  451000   0.99049121   -2.4357759   -2.4357759   -1.2808618   0.05729335   -2.4357759     1.154914   471680 
  452000   0.98926219   -2.4339707   -2.4339707   -1.2804653   0.06624465   -2.4339707    1.1535055   471670 
  453000   0.98891976   -2.4335172   -2.4335172   -1.2803866  0.072017357   -2.4335172    1.1531306   471660 
  454000   0.98948131   -2.4333828   -2.4333828    -1.279573  0.060825541   -2.4333828    1.1538099   471650 
  455000   0.99022414   -2.4336371   -2.4336371   -1.2789365  0.066967795   -2.4336371    1.1547006   471640 
  456000   0.99082978   -2.4351568   -2.4351568   -1.2797255  0.060942169   -2.4351568    1.1554313   471630 
  457000   0.99057906   -2.4355778   -2.4355778   -1.2804144   0.06770074   -2.4355778    1.1551634   471620 
  458000   0.98854774   -2.4328208   -2.4328208   -1.2800017  0.068026421   -2.4328208    1.1528191   471610 
  459000   0.99119681   -2.4364447   -2.4364447   -1.2805119  0.065563917   -2.4364447    1.1559328   471600 
  460000   0.99085878    -2.435679    -2.435679   -1.2801159  0.060101218    -2.435679    1.1555631   471590 
  461000   0.99004594   -2.4348194   -2.4348194   -1.2801798  0.063264182   -2.4348194    1.1546397   471580 
  462000   0.99142263   -2.4372229   -2.4372229   -1.2809532  0.063185366   -2.4372229    1.1562697   471570 
  463000   0.99059875   -2.4366731   -2.4366731   -1.2813397   0.06970163   -2.4366731    1.1553334   471560 
  464000   0.99120478    -2.437257    -2.437257   -1.2811923  0.060725388    -2.437257    1.1560647   471550 
  465000   0.98904097   -2.4345232   -2.4345232   -1.2809578  0.064092594   -2.4345232    1.1535655   471540 
  466000   0.99126347   -2.4370489   -2.4370489   -1.2808667  0.062256655   -2.4370489    1.1561822   471530 
  467000   0.99204953   -2.4368353   -2.4368353   -1.2797118  0.063938142   -2.4368353    1.1571236   471520 
  468000   0.99365435   -2.4390407   -2.4390407   -1.2800207  0.067225801   -2.4390407      1.15902   471510 
  469000   0.99227398    -2.438017    -2.438017   -1.2805826  0.067426761    -2.438017    1.1574345   471500 
  470000   0.99224859   -2.4388743   -2.4388743    -1.281445  0.064645592   -2.4388743    1.1574294   471490 
  471000   0.99082395   -2.4374327   -2.4374327   -1.2816406   0.06601001   -2.4374327    1.1557921   471480 
  472000   0.99181949   -2.4387566   -2.4387566   -1.2817787  0.063844539   -2.4387566    1.1569779   471470 
  473000   0.99293718   -2.4394284   -2.4394284   -1.2811221  0.069033726   -2.4394284    1.1583063   471460 
  474000   0.99141527   -2.4376165   -2.4376165   -1.2810611  0.069400294   -2.4376165    1.1565555   471450 
  475000     0.991074   -2.4375484   -2.4375484   -1.2813665  0.060598935   -2.4375484    1.1561819   471440 
  476000   0.99162312   -2.4380413   -2.4380413   -1.2811943  0.065775967   -2.4380413     1.156847   471430 
  477000    0.9903381   -2.4371553   -2.4371553   -1.2817829  0.071836889   -2.4371553    1.1553724   471420 
  478000   0.99066402   -2.4377243   -2.4377243   -1.2819472  0.066087261   -2.4377243    1.1557771   471410 
  479000   0.99110108   -2.4379131   -2.4379131   -1.2816016  0.066295009   -2.4379131    1.1563116   471400 
  480000    0.9901351   -2.4372003   -2.4372003   -1.2819912  0.063134868   -2.4372003    1.1552091   471390 
  481000    0.9887402   -2.4361526   -2.4361526   -1.2825465  0.060126411   -2.4361526    1.1536061   471380 
  482000    0.9878105    -2.433564    -2.433564   -1.2810181   0.06802805    -2.433564    1.1525458   471370 
  483000   0.98908387   -2.4342848   -2.4342848   -1.2802288  0.069543253   -2.4342848     1.154056   471360 
  484000   0.98922253   -2.4340891   -2.4340891   -1.2798468  0.059099572   -2.4340891    1.1542423   471350 
  485000   0.99051732   -2.4353983   -2.4353983   -1.2796207  0.065445231   -2.4353983    1.1557776   471340 
  486000    0.9889277    -2.434281    -2.434281   -1.2803338  0.067766455    -2.434281    1.1539473   471330 
  487000   0.98881351   -2.4342965   -2.4342965    -1.280458  0.064680208   -2.4342965    1.1538385   471320 
  488000   0.98907505   -2.4337505   -2.4337505   -1.2795823  0.060176037   -2.4337505    1.1541682   471310 
  489000   0.99011744   -2.4343978   -2.4343978   -1.2789887  0.071879101   -2.4343978    1.1554091   471300 
  490000   0.98915131   -2.4345315   -2.4345315   -1.2802253  0.057255356   -2.4345315    1.1543062   471290 
  491000   0.99029181   -2.4355557   -2.4355557   -1.2798941  0.067751851   -2.4355557    1.1556616   471280 
  492000   0.98998234   -2.4346831   -2.4346831   -1.2793581   0.06246081   -2.4346831     1.155325   471270 
  493000   0.98974871   -2.4332211   -2.4332211   -1.2781443  0.062879146   -2.4332211    1.1550768   471260 
  494000   0.98924513   -2.4325327   -2.4325327   -1.2780191  0.068646689   -2.4325327    1.1545136   471250 
  495000   0.98867685   -2.4320866   -2.4320866   -1.2782117  0.059507397   -2.4320866    1.1538749   471240 
  496000   0.98830547   -2.4325851   -2.4325851   -1.2791191  0.059952604   -2.4325851    1.1534659   471230 
  497000   0.99135347   -2.4359961   -2.4359961   -1.2789482  0.060876694   -2.4359961    1.1570478   471220 
  498000   0.99138961   -2.4356116   -2.4356116    -1.278497  0.061102589   -2.4356116    1.1571146   471210 
  499000   0.98762132   -2.4321446   -2.4321446   -1.2794038   0.06645198   -2.4321446    1.1527408   471200 
  500000   0.98757759   -2.4331597   -2.4331597   -1.2804454     0.057162   -2.4331597    1.1527143   471190 
  501000   0.98747082   -2.4329557   -2.4329557   -1.2803416  0.059483324   -2.4329557    1.1526141   471180 
  502000   0.98946662    -2.434927    -2.434927   -1.2799588  0.054529651    -2.434927    1.1549682   471170 
  503000   0.98924286   -2.4345276   -2.4345276   -1.2797961  0.062955396   -2.4345276    1.1547315   471160 
  504000   0.99045573   -2.4352171   -2.4352171   -1.2790453  0.058236993   -2.4352171    1.1561718   471150 
  505000   0.98974793   -2.4353228   -2.4353228   -1.2799527  0.067072464   -2.4353228    1.1553701   471140 
  506000   0.99000257   -2.4348621   -2.4348621   -1.2791702   0.06808151   -2.4348621    1.1556919   471130 
  507000    0.9911415   -2.4364797   -2.4364797   -1.2794337  0.069889604   -2.4364797     1.157046   471120 
  508000   0.99132421   -2.4371828   -2.4371828    -1.279899  0.066364183   -2.4371828    1.1572839   471110 
  509000   0.99035664   -2.4359055   -2.4359055   -1.2797267  0.072782264   -2.4359055    1.1561788   471100 
  510000   0.98953119   -2.4353735   -2.4353735   -1.2801338  0.067655343   -2.4353735    1.1552397   471090 
  511000    0.9917685   -2.4376357   -2.4376357   -1.2797594  0.070047173   -2.4376357    1.1578762   471080 
  512000   0.99026799   -2.4361584   -2.4361584   -1.2800094  0.061173243   -2.4361584     1.156149   471070 
  513000    0.9904245   -2.4371141   -2.4371141   -1.2807579  0.065734858   -2.4371141    1.1563562   471060 
  514000    0.9893528   -2.4354947   -2.4354947   -1.2803652  0.068222895   -2.4354947    1.1551295   471050 
  515000   0.98973408    -2.435963    -2.435963   -1.2803638  0.066166217    -2.435963    1.1555992   471040 
  516000   0.98863136   -2.4363457   -2.4363457   -1.2820095  0.068050379   -2.4363457    1.1543362   471030 
  517000   0.98965691   -2.4375119   -2.4375119   -1.2819538  0.066546699   -2.4375119    1.1555582   471020 
  518000   0.98925248   -2.4360761   -2.4360761   -1.2809656  0.061382346   -2.4360761    1.1551105   471010 
  519000   0.98878791   -2.4366324   -2.4366324   -1.2820399   0.06418834   -2.4366324    1.1545925   471000 
  520000   0.98827673   -2.4352746   -2.4352746   -1.2812545  0.071503743   -2.4352746    1.1540201   470990 
  521000   0.99033202   -2.4368111   -2.4368111   -1.2803665  0.069828151   -2.4368111    1.1564447   470980 
  522000   0.98895291   -2.4373213   -2.4373213   -1.2824626  0.069356653   -2.4373213    1.1548587   470970 
  523000   0.98942475   -2.4376441   -2.4376441   -1.2822098  0.062468118   -2.4376441    1.1554343   470960 
  524000   0.98738185   -2.4354816   -2.4354816   -1.2824085  0.057142475   -2.4354816    1.1530731   470950 
  525000    0.9879943   -2.4352383   -2.4352383   -1.2814255  0.061512664   -2.4352383    1.1538128   470940 
  526000   0.98895903   -2.4354254   -2.4354254   -1.2804614  0.058954165   -2.4354254     1.154964   470930 
  527000   0.98927785   -2.4363786   -2.4363786   -1.2810177  0.062142208   -2.4363786    1.1553609   470920 
  528000   0.98913302   -2.4364475   -2.4364475   -1.2812313   0.06385839   -2.4364475    1.1552162   470910 
  529000   0.98833181   -2.4354414   -2.4354414   -1.2811363  0.069824422   -2.4354414     1.154305   470900 
  530000   0.98938474   -2.4362753   -2.4362753   -1.2807159  0.064094678   -2.4362753    1.1555593   470890 
  531000   0.98930204    -2.435664    -2.435664   -1.2801767  0.060877795    -2.435664    1.1554873   470880 
  532000   0.98918354   -2.4363864   -2.4363864    -1.281013  0.065240496   -2.4363864    1.1553734   470870 
  533000   0.98948827   -2.4364494   -2.4364494   -1.2806956  0.065667591   -2.4364494    1.1557539   470860 
  534000   0.98922676   -2.4363132   -2.4363132   -1.2808403    0.0542341   -2.4363132     1.155473   470850 
  535000   0.98742185   -2.4343873   -2.4343873   -1.2809981  0.060932076   -2.4343873    1.1533892   470840 
  536000   0.98647157   -2.4341102   -2.4341102   -1.2818065  0.063499778   -2.4341102    1.1523037   470830 
  537000   0.98847263    -2.435795    -2.435795   -1.2811293  0.061175413    -2.435795    1.1546657   470820 
  538000    0.9869203   -2.4337144   -2.4337144   -1.2808376  0.058178625   -2.4337144    1.1528768   470810 
  539000   0.98937618   -2.4367697   -2.4367697   -1.2809995  0.061047084   -2.4367697    1.1557702   470800 
  540000   0.98836241   -2.4363609   -2.4363609   -1.2817504   0.06363409   -2.4363609    1.1546105   470790 
  541000   0.98872607   -2.4355323   -2.4355323   -1.2804725  0.069478777   -2.4355323    1.1550598   470780 
  542000   0.98916881   -2.4355981   -2.4355981   -1.2799965  0.065952494   -2.4355981    1.1556016   470770 
  543000   0.98865257   -2.4346143   -2.4346143   -1.2795913  0.064392389   -2.4346143     1.155023   470760 
  544000   0.98804527   -2.4340568   -2.4340568   -1.2797187  0.064774247   -2.4340568    1.1543381   470750 
  545000   0.98848451   -2.4343085   -2.4343085   -1.2794327  0.063689187   -2.4343085    1.1548758   470740 
  546000   0.98782047   -2.4338776   -2.4338776   -1.2797532  0.068657008   -2.4338776    1.1541245   470730 
  547000   0.98843739   -2.4352432   -2.4352432   -1.2803735  0.065697381   -2.4352432    1.1548698   470720 
  548000   0.98923832   -2.4360544   -2.4360544   -1.2802242  0.059023523   -2.4360544    1.1558301   470710 
  549000   0.98669039   -2.4329766   -2.4329766    -1.280099  0.058966622   -2.4329766    1.1528776   470700 
  550000   0.98842098   -2.4347163   -2.4347163   -1.2797921  0.064802785   -2.4347163    1.1549242   470690 
  551000   0.98779612   -2.4337424   -2.4337424   -1.2795238  0.068864166   -2.4337424    1.1542186   470680 
  552000   0.98764538   -2.4333672   -2.4333672   -1.2793002  0.060576844   -2.4333672     1.154067   470670 
  553000   0.98909157   -2.4348081   -2.4348081   -1.2790267  0.058982689   -2.4348081    1.1557814   470660 
  554000   0.98905056    -2.434865    -2.434865    -1.279107  0.064212468    -2.434865    1.1557581   470650 
  555000   0.98904734      -2.4346      -2.4346   -1.2788211  0.063268423      -2.4346    1.1557789   470640 
  556000    0.9900576    -2.435206    -2.435206    -1.278222  0.067733557    -2.435206     1.156984   470630 
  557000    0.9915508   -2.4364391   -2.4364391   -1.2776856  0.063357499   -2.4364391    1.1587536   470620 
  558000   0.98982326   -2.4355605   -2.4355605   -1.2788012  0.067426056   -2.4355605    1.1567593   470610 
  559000   0.98945299   -2.4355559   -2.4355559   -1.2792047  0.059104218   -2.4355559    1.1563512   470600 
  560000   0.98839603   -2.4348272   -2.4348272   -1.2796868  0.065358841   -2.4348272    1.1551405   470590 
  561000   0.98928995   -2.4367679   -2.4367679   -1.2805582  0.062099538   -2.4367679    1.1562098   470580 
  562000   0.98607773    -2.433397    -2.433397   -1.2809169  0.061849085    -2.433397      1.15248   470570 
  563000   0.98740538   -2.4357141   -2.4357141   -1.2816578  0.062575262   -2.4357141    1.1540563   470560 
  564000   0.98783772   -2.4352252   -2.4352252   -1.2806391  0.061262363   -2.4352252    1.1545861   470550 
  565000   0.98566696   -2.4340463   -2.4340463   -1.2819729  0.064496282   -2.4340463    1.1520734   470540 
  566000   0.98631045   -2.4345217   -2.4345217   -1.2816717  0.064189468   -2.4345217      1.15285   470530 
  567000   0.98643679   -2.4345211   -2.4345211   -1.2814989  0.063849897   -2.4345211    1.1530222   470520 
  568000   0.98777588   -2.4366064   -2.4366064   -1.2819944  0.055290749   -2.4366064     1.154612   470510 
  569000   0.98640895   -2.4340677   -2.4340677    -1.281029  0.062322096   -2.4340677    1.1530387   470500 
  570000   0.98798825   -2.4358168   -2.4358168   -1.2809074  0.067991657   -2.4358168    1.1549093   470490 
  571000   0.98659975   -2.4340862   -2.4340862   -1.2807755  0.065870155   -2.4340862    1.1533107   470480 
  572000   0.98683428   -2.4359071   -2.4359071   -1.2822977  0.056190228   -2.4359071    1.1536094   470470 
  573000   0.98817473   -2.4380029   -2.4380029   -1.2828019   0.06010374   -2.4380029     1.155201   470460 
  574000   0.98655365    -2.435387    -2.435387   -1.2820566  0.071254959    -2.435387    1.1533304   470450 
  575000   0.98502341   -2.4348287   -2.4348287   -1.2832627  0.067719576   -2.4348287    1.1515659   470440 
  576000   0.98848047   -2.4393016   -2.4393016   -1.2836695  0.065188755   -2.4393016    1.1556321   470430 
  577000   0.98612631   -2.4362912   -2.4362912   -1.2833869  0.063268983   -2.4362912    1.1529043   470420 
  578000   0.98569096   -2.4373186   -2.4373186   -1.2848988  0.069174455   -2.4373186    1.1524199   470410 
  579000   0.98497157   -2.4373899   -2.4373899   -1.2857867  0.066671552   -2.4373899    1.1516033   470400 
  580000   0.98541095   -2.4379574   -2.4379574   -1.2858159   0.06176544   -2.4379574    1.1521415   470390 
  581000   0.98483227    -2.437311    -2.437311   -1.2858216  0.065569265    -2.437311    1.1514894   470380 
  582000   0.98696818   -2.4388016   -2.4388016   -1.2847904     0.066748   -2.4388016    1.1540112   470370 
  583000   0.98702692   -2.4397385   -2.4397385   -1.2856341   0.06424263   -2.4397385    1.1541045   470360 
  584000   0.98644682   -2.4382157   -2.4382157    -1.284765  0.064333873   -2.4382157    1.1534507   470350 
  585000   0.98646353   -2.4382622   -2.4382622   -1.2847675  0.064866471   -2.4382622    1.1534947   470340 
  586000   0.98867298   -2.4405905   -2.4405905   -1.2844876  0.064129068   -2.4405905    1.1561029   470330 
  587000   0.98728858   -2.4381943   -2.4381943   -1.2836857  0.065741359   -2.4381943    1.1545086   470320 
  588000   0.99003276   -2.4413994   -2.4413994   -1.2836572  0.063741251   -2.4413994    1.1577422   470310 
  589000   0.98780695   -2.4388159   -2.4388159    -1.283652  0.071274758   -2.4388159    1.1551639   470300 
  590000   0.98873173   -2.4392213   -2.4392213   -1.2829514  0.061896485   -2.4392213    1.1562699   470290 
  591000   0.98859012   -2.4391454   -2.4391454   -1.2830165  0.061480705   -2.4391454    1.1561289   470280 
  592000   0.98836828   -2.4381744   -2.4381744   -1.2822804  0.068426428   -2.4381744    1.1558941   470270 
  593000   0.98854356   -2.4388506   -2.4388506    -1.282727  0.065269554   -2.4388506    1.1561236   470260 
  594000   0.98746899   -2.4385558   -2.4385558   -1.2836644        0.068   -2.4385558    1.1548914   470250 
  595000   0.98752552   -2.4386426   -2.4386426   -1.2836605   0.07431864   -2.4386426    1.1549821   470240 
  596000   0.98720326   -2.4378805   -2.4378805   -1.2832508  0.070860179   -2.4378805    1.1546298   470230 
  597000   0.98654656   -2.4374532   -2.4374532    -1.283567  0.060750595   -2.4374532    1.1538862   470220 
  598000   0.98727401   -2.4373063   -2.4373063   -1.2825447  0.065740779   -2.4373063    1.1547616   470210 
  599000   0.98567747   -2.4360303   -2.4360303   -1.2831115  0.064395244   -2.4360303    1.1529188   470200 
  600000   0.98590483   -2.4360271   -2.4360271   -1.2828179  0.067708509   -2.4360271    1.1532092   470190 
  601000   0.98454122   -2.4351761   -2.4351761   -1.2835374  0.061844402   -2.4351761    1.1516387   470180 
  602000   0.98557409   -2.4358196   -2.4358196   -1.2829482  0.063831584   -2.4358196    1.1528714   470170 
  603000   0.98555201   -2.4354273   -2.4354273   -1.2825572  0.060256887   -2.4354273    1.1528701   470160 
  604000   0.98562226   -2.4341678   -2.4341678    -1.281191  0.067921633   -2.4341678    1.1529768   470150 
  605000   0.98615598   -2.4351731   -2.4351731   -1.2815474  0.064276109   -2.4351731    1.1536257   470140 
  606000   0.98709675   -2.4357176   -2.4357176   -1.2809668  0.059952679   -2.4357176    1.1547508   470130 
  607000   0.98527581   -2.4338119   -2.4338119   -1.2811668  0.065724518   -2.4338119    1.1526451   470120 
  608000   0.98568629   -2.4344335   -2.4344335   -1.2812837  0.060443205   -2.4344335    1.1531498   470110 
  609000   0.98446583   -2.4337733   -2.4337733   -1.2820268  0.064419435   -2.4337733    1.1517465   470100 
  610000   0.98461351   -2.4342414   -2.4342414   -1.2822976  0.064543979   -2.4342414    1.1519438   470090 
  611000   0.98460089   -2.4341684   -2.4341684   -1.2822149  0.060005628   -2.4341684    1.1519535   470080 
  612000   0.98546852   -2.4337318   -2.4337318   -1.2807386  0.062172216   -2.4337318    1.1529931   470070 
  613000   0.98577275   -2.4342247   -2.4342247   -1.2808511  0.062272512   -2.4342247    1.1533736   470060 
  614000   0.98458088   -2.4334014   -2.4334014   -1.2813978  0.059591878   -2.4334014    1.1520036   470050 
  615000    0.9833046   -2.4325778   -2.4325778    -1.282043  0.061615229   -2.4325778    1.1505348   470040 
  616000   0.98284904   -2.4316833   -2.4316833    -1.281657  0.064446586   -2.4316833    1.1500262   470030 
  617000   0.98257568   -2.4325458   -2.4325458    -1.282815  0.058119799   -2.4325458    1.1497308   470020 
  618000   0.98332914   -2.4331493   -2.4331493   -1.2825123   0.05785905   -2.4331493    1.1506369   470010 
  619000   0.98465357   -2.4341921   -2.4341921   -1.2819809   0.05443164   -2.4341921    1.1522112   470000 
  620000   0.98494139   -2.4341871   -2.4341871   -1.2816146  0.065366717   -2.4341871    1.1525726   469990 
  621000   0.98546584   -2.4348889   -2.4348889   -1.2816781  0.063353918   -2.4348889    1.1532108   469980 
  622000   0.98653225   -2.4363517   -2.4363517   -1.2818684  0.064637832   -2.4363517    1.1544833   469970 
  623000   0.98787389   -2.4367607   -2.4367607   -1.2806828  0.069798423   -2.4367607    1.1560779   469960 
  624000    0.9858804    -2.436027    -2.436027   -1.2822575   0.06048821    -2.436027    1.1537696   469950 
  625000   0.98680991    -2.435772    -2.435772     -1.28089  0.061602554    -2.435772    1.1548819   469940 
  626000   0.98690926   -2.4363454   -2.4363454   -1.2813226  0.069608679   -2.4363454    1.1550228   469930 
  627000   0.98779201   -2.4372304   -2.4372304   -1.2811499  0.070838432   -2.4372304    1.1560805   469920 
  628000     0.986358    -2.436427    -2.436427   -1.2820002  0.066717443    -2.436427    1.1544268   469910 
  629000   0.98494669   -2.4351989   -2.4351989   -1.2823994  0.064719989   -2.4351989    1.1527995   469900 
  630000   0.98473937   -2.4348269   -2.4348269   -1.2822456   0.06714048   -2.4348269    1.1525814   469890 
  631000   0.98381431   -2.4349227   -2.4349227   -1.2833995  0.062419146   -2.4349227    1.1515232   469880 
  632000   0.98478083   -2.4356884   -2.4356884   -1.2830094  0.063142484   -2.4356884     1.152679   469870 
  633000   0.98595155   -2.4370751   -2.4370751   -1.2830012  0.063079042   -2.4370751    1.1540738   469860 
  634000   0.98463643   -2.4365398   -2.4365398   -1.2839808  0.062928818   -2.4365398     1.152559   469850 
  635000    0.9843752   -2.4372558   -2.4372558   -1.2849781  0.064211509   -2.4372558    1.1522778   469840 
  636000   0.98463604   -2.4388829   -2.4388829   -1.2862753  0.062749354   -2.4388829    1.1526076   469830 
  637000    0.9828855   -2.4362384   -2.4362384   -1.2856555  0.064493084   -2.4362384    1.1505829   469820 
  638000    0.9850605    -2.438712    -2.438712   -1.2855584   0.06791429    -2.438712    1.1531536   469810 
  639000   0.98440872   -2.4373695   -2.4373695   -1.2849544  0.063569264   -2.4373695    1.1524151   469800 
  640000   0.98331794   -2.4363348   -2.4363348   -1.2851721  0.068215773   -2.4363348    1.1511627   469790 
  641000   0.98381689    -2.435473    -2.435473   -1.2837017   0.06466937    -2.435473    1.1517713   469780 
  642000   0.98630499   -2.4384903   -2.4384903   -1.2837815  0.071384032   -2.4384903    1.1547087   469770 
  643000   0.98506726   -2.4365623   -2.4365623   -1.2832781  0.067955523   -2.4365623    1.1532842   469760 
  644000   0.98458345   -2.4366392   -2.4366392   -1.2838969  0.071488829   -2.4366392    1.1527423   469750 
  645000   0.98529031   -2.4374357   -2.4374357   -1.2838412  0.063581121   -2.4374357    1.1535945   469740 
  646000    0.9850986   -2.4376819   -2.4376819   -1.2842873  0.061771404   -2.4376819    1.1533946   469730 
  647000   0.98403281   -2.4350448   -2.4350448   -1.2828736   0.06475336   -2.4350448    1.1521712   469720 
  648000   0.98514021   -2.4373965   -2.4373965   -1.2839041  0.063734648   -2.4373965    1.1534924   469710 
  649000   0.98596479   -2.4374545   -2.4374545   -1.2829721  0.067819422   -2.4374545    1.1544825   469700 
  650000   0.98629136   -2.4371623   -2.4371623   -1.2822728  0.069278331   -2.4371623    1.1548895   469690 
  651000   0.98569432   -2.4369723   -2.4369723   -1.2827574  0.063829101   -2.4369723    1.1542149   469680 
  652000   0.98407923   -2.4358483   -2.4358483   -1.2835001  0.067274248   -2.4358483    1.1523483   469670 
  653000   0.98346215   -2.4355172   -2.4355172    -1.283867  0.070849573   -2.4355172    1.1516502   469660 
  654000   0.98425806    -2.435895    -2.435895   -1.2832883  0.063732687    -2.435895    1.1526067   469650 
  655000   0.98416511   -2.4354081   -2.4354081   -1.2828857  0.062739392   -2.4354081    1.1525224   469640 
[...]
29832000   0.18747397  -0.50439605  -0.50439605  0.075279233  0.044711935  -0.50439605   0.57967528   177870 
29833000   0.18761392  -0.50388956  -0.50388956  0.076251048  0.039882707  -0.50388956   0.58014061   177860 
29834000   0.18702856  -0.50288714  -0.50288714  0.075475938  0.047224983  -0.50288714   0.57836307   177850 
29835000   0.18723144  -0.50366944  -0.50366944  0.075353584  0.041639045  -0.50366944   0.57902303   177840 
29836000   0.18766088  -0.50551506  -0.50551506  0.074868677  0.045659806  -0.50551506   0.58038373   177830 
29837000    0.1866131  -0.50427204  -0.50427204  0.072903646  0.045338095  -0.50427204   0.57717569   177820 
29838000    0.1869309  -0.50475909  -0.50475909  0.073432012  0.047035908  -0.50475909   0.57819111   177810 
29839000   0.18660138  -0.50454652  -0.50454652  0.072657832  0.042045514  -0.50454652   0.57720435   177800 
29840000   0.18663129  -0.50460568  -0.50460568  0.072723648  0.048075562  -0.50460568   0.57732933   177790 
29841000   0.18710696  -0.50464263  -0.50464263  0.074190732  0.046104344  -0.50464263   0.57883336   177780 
29842000   0.18685612  -0.50446471  -0.50446471  0.073625165  0.046061919  -0.50446471   0.57808988   177770 
29843000   0.18696233  -0.50576386  -0.50576386  0.072687146  0.039712585  -0.50576386     0.578451   177760 
29844000   0.18665931  -0.50472516  -0.50472516  0.072820812  0.045830296  -0.50472516   0.57754597   177750 
29845000   0.18649124  -0.50452176  -0.50452176  0.072536651  0.038727755  -0.50452176   0.57705841   177740 
29846000   0.18684103  -0.50520058  -0.50520058    0.0729727  0.046258585  -0.50520058   0.57817328   177730 
29847000   0.18636869  -0.50606883  -0.50606883  0.070675262  0.042652361  -0.50606883   0.57674409   177720 
29848000   0.18619029  -0.50587737  -0.50587737  0.070347061  0.044210061  -0.50587737   0.57622443   177710 
29849000   0.18663599  -0.50623334  -0.50623334  0.071402955  0.044070449  -0.50623334   0.57763629   177700 
29850000   0.18587647  -0.50433719  -0.50433719   0.07098076  0.045199008  -0.50433719   0.57531795   177690 
29851000   0.18633966  -0.50450947  -0.50450947  0.072274586  0.042148871  -0.50450947   0.57678405   177680 
29852000   0.18615851  -0.50236748  -0.50236748  0.073888294  0.043105992  -0.50236748   0.57625578   177670 
29853000   0.18628762  -0.50282986  -0.50282986  0.073858047  0.043523763  -0.50282986    0.5766879   177660 
29854000   0.18601885  -0.50204041  -0.50204041  0.073847881  0.041949748  -0.50204041   0.57588829   177650 
29855000   0.18580495  -0.50060868  -0.50060868  0.074649793  0.044189145  -0.50060868   0.57525848   177640 
29856000   0.18560432  -0.50028873  -0.50028873   0.07438092   0.04480867  -0.50028873   0.57466965   177630 
29857000   0.18605805  -0.50000337  -0.50000337  0.076103575  0.041883442  -0.50000337   0.57610695   177620 
29858000   0.18618315  -0.50219841  -0.50219841  0.074328354  0.044964746  -0.50219841   0.57652676   177610 
29859000    0.1858823  -0.50169345  -0.50169345  0.073934108  0.041048446  -0.50169345   0.57562756   177600 
29860000   0.18593651  -0.50237019  -0.50237019  0.073457651  0.041492225  -0.50237019   0.57582784   177590 
29861000   0.18568805  -0.50168215  -0.50168215  0.073408622  0.042972763  -0.50168215   0.57509078   177580 
29862000   0.18584568  -0.50217515  -0.50217515  0.073436232  0.047047578  -0.50217515   0.57561138   177570 
29863000   0.18571758  -0.50215164  -0.50215164  0.073095368  0.042767564  -0.50215164   0.57524701   177560 
29864000   0.18603819  -0.50330409  -0.50330409   0.07296844  0.044441163  -0.50330409   0.57627253   177550 
29865000   0.18580803  -0.50096807  -0.50096807  0.074623949  0.043829502  -0.50096807   0.57559202   177540 
29866000   0.18552773  -0.50107268  -0.50107268  0.073683427  0.041778196  -0.50107268    0.5747561   177530 
29867000   0.18615595  -0.50277838  -0.50277838  0.073956382  0.043675309  -0.50277838   0.57673476   177520 
29868000   0.18620192  -0.50250194  -0.50250194  0.074407745  0.042657244  -0.50250194   0.57690968   177510 
29869000   0.18565482  -0.50228152  -0.50228152    0.0729655  0.045081043  -0.50228152   0.57524702   177500 
29870000   0.18585854  -0.50242554  -0.50242554  0.073485141  0.043543577  -0.50242554   0.57591068   177490 
29871000    0.1861437  -0.50341132  -0.50341132  0.073415475  0.041868049  -0.50341132    0.5768268   177480 
29872000   0.18623251  -0.50334827  -0.50334827  0.073786233  0.041508454  -0.50334827   0.57713451   177470 
29873000   0.18617662  -0.50210881  -0.50210881  0.074885022  0.044319661  -0.50210881   0.57699383   177460 
29874000    0.1861745  -0.50216838  -0.50216838  0.074851396  0.040994206  -0.50216838   0.57701977   177450 
29875000   0.18585746  -0.50120793  -0.50120793  0.074861687  0.046173001  -0.50120793   0.57606962   177440 
29876000   0.18608834    -0.502235    -0.502235  0.074582735  0.040844858    -0.502235   0.57681773   177430 
29877000   0.18578362  -0.50203768  -0.50203768  0.073867994  0.043738442  -0.50203768   0.57590567   177420 
29878000   0.18514234  -0.50025935  -0.50025935  0.073690771  0.044546606  -0.50025935   0.57395012   177410 
29879000   0.18613348  -0.50128891  -0.50128891  0.075766327  0.041398604  -0.50128891   0.57705524   177400 
29880000   0.18635634  -0.50325819  -0.50325819  0.074520513  0.041657395  -0.50325819   0.57777871   177390 
29881000   0.18580399  -0.50090215  -0.50090215  0.075196543   0.04219891  -0.50090215    0.5760987   177380 
29882000   0.18488615  -0.49947295  -0.49947295  0.073812216  0.044613336  -0.49947295   0.57328517   177370 
29883000   0.18512587  -0.49845715  -0.49845715  0.075603703  0.047566459  -0.49845715   0.57406085   177360 
29884000   0.18580555  -0.50074139  -0.50074139  0.075459582  0.041158587  -0.50074139   0.57620098   177350 
29885000   0.18577271  -0.50133043  -0.50133043  0.074801202  0.043516064  -0.50133043   0.57613163   177340 
29886000   0.18576655  -0.50124527  -0.50124527  0.074899739  0.042556908  -0.50124527   0.57614501   177330 
29887000    0.1851864  -0.50065054  -0.50065054  0.073727563  0.038736227  -0.50065054    0.5743781   177320 
29888000   0.18488427  -0.49991071  -0.49991071  0.073562634  0.042416999  -0.49991071   0.57347334   177310 
29889000    0.1851081   -0.4984045   -0.4984045  0.075795495  0.048796784   -0.4984045   0.57419999   177300 
29890000    0.1852181  -0.49974152  -0.49974152  0.074832111  0.043151557  -0.49974152   0.57457363   177290 
29891000   0.18540257  -0.49996447  -0.49996447  0.075213861  0.043068228  -0.49996447   0.57517833   177280 
29892000   0.18554535  -0.50068677  -0.50068677  0.074966959  0.046531537  -0.50068677   0.57565373   177270 
29893000   0.18488349  -0.49905051  -0.49905051  0.074582175  0.043544855  -0.49905051   0.57363269   177260 
29894000   0.18545932  -0.49987113  -0.49987113  0.075580635  0.045240764  -0.49987113   0.57545177   177250 
29895000   0.18508962  -0.50049113  -0.50049113  0.073845902  0.043392814  -0.50049113   0.57433703   177240 
29896000   0.18488685  -0.49879236  -0.49879236  0.074947857  0.046791425  -0.49879236   0.57374022   177230 
29897000   0.18482249  -0.49866407  -0.49866407  0.074908786  0.043773513  -0.49866407   0.57357286   177220 
29898000    0.1854813  -0.50177162  -0.50177162  0.073878242  0.042188636  -0.50177162   0.57564986   177210 
29899000   0.18505755  -0.50102263  -0.50102263   0.07334452  0.042520153  -0.50102263   0.57436715   177200 
29900000   0.18436753  -0.49968128  -0.49968128  0.072576533  0.043419603  -0.49968128   0.57225781   177190 
29901000   0.18444029  -0.50060957  -0.50060957  0.071906386  0.042885429  -0.50060957   0.57251596   177180 
29902000   0.18463099  -0.49988459  -0.49988459  0.073255665  0.044066664  -0.49988459   0.57314025   177170 
29903000    0.1844133   -0.5000832   -0.5000832  0.072413609  0.047951342   -0.5000832    0.5724968   177160 
29904000   0.18421343  -0.49929758  -0.49929758  0.072611039  0.041813987  -0.49929758   0.57190862   177150 
29905000   0.18394874  -0.49759037  -0.49759037  0.073528737  0.044224497  -0.49759037   0.57111911   177140 
29906000    0.1845454  -0.49917186  -0.49917186  0.073832089  0.038614442  -0.49917186   0.57300395   177130 
29907000   0.18522197  -0.50084015  -0.50084015  0.074296978  0.039527452  -0.50084015   0.57513713   177120 
29908000   0.18462609  -0.49936082  -0.49936082  0.073958384   0.04758674  -0.49936082   0.57331921   177110 
29909000   0.18484643  -0.50014519  -0.50014519  0.073890646  0.042973198  -0.50014519   0.57403584   177100 
29910000   0.18442185   -0.4986347   -0.4986347   0.07411495  0.042516051   -0.4986347   0.57274965   177090 
29911000   0.18512264  -0.50020258  -0.50020258  0.074755956  0.041166258  -0.50020258   0.57495854   177080 
29912000   0.18518044  -0.50005386  -0.50005386  0.075116671  0.040809404  -0.50005386   0.57517053   177070 
29913000   0.18489289  -0.50095847  -0.50095847  0.073351375  0.040283039  -0.50095847   0.57430984   177060 
29914000   0.18522247   -0.5032405   -0.5032405  0.072125563  0.048607974   -0.5032405   0.57536606   177050 
29915000   0.18524021  -0.50236126  -0.50236126  0.073092416  0.043766764  -0.50236126   0.57545368   177040 
29916000   0.18452621  -0.49917032  -0.49917032  0.074097664  0.042256621  -0.49917032   0.57326798   177030 
29917000   0.18494329   -0.5004436   -0.5004436  0.074152606  0.048035503   -0.5004436    0.5745962   177020 
29918000   0.18385933  -0.49772106  -0.49772106  0.073539684  0.038928478  -0.49772106   0.57126074   177010 
29919000   0.18408714  -0.49737617  -0.49737617  0.074624689  0.043291702  -0.49737617   0.57200086   177000 
29920000    0.1843106  -0.49707348  -0.49707348  0.075654077  0.038195944  -0.49707348   0.57272756   176990 
29921000   0.18392824  -0.49610524  -0.49610524   0.07546648  0.041756364  -0.49610524   0.57157172   176980 
29922000   0.18446703  -0.49771148  -0.49771148  0.075566944  0.041736011  -0.49771148   0.57327842   176970 
29923000   0.18481225  -0.49741037  -0.49741037  0.076973392  0.045913031  -0.49741037   0.57438376   176960 
29924000   0.18487185  -0.49776147  -0.49776147  0.076839981  0.043838599  -0.49776147   0.57460145   176950 
29925000   0.18494152  -0.49827196  -0.49827196  0.076578535  0.042811893  -0.49827196   0.57485049   176940 
29926000   0.18422248  -0.49546522  -0.49546522  0.077182658  0.045058379  -0.49546522   0.57264787   176930 
29927000   0.18426025  -0.49555248  -0.49555248  0.077245159  0.042351211  -0.49555248   0.57279764   176920 
29928000   0.18508551  -0.49680385  -0.49680385  0.078591765  0.045670821  -0.49680385   0.57539561   176910 
29929000   0.18476641  -0.49663343  -0.49663343  0.077802642  0.041210757  -0.49663343   0.57443607   176900 
29930000   0.18428287  -0.49478897  -0.49478897  0.078176139  0.045991936  -0.49478897   0.57296511   176890 
29931000   0.18441319  -0.49597849  -0.49597849  0.077424242  0.041981091  -0.49597849   0.57340273   176880 
29932000    0.1841005   -0.4959876   -0.4959876  0.076475247  0.049206191   -0.4959876   0.57246284   176870 
29933000   0.18377805  -0.49548223  -0.49548223  0.076010257  0.040961757  -0.49548223   0.57149248   176860 
29934000   0.18394518  -0.49628791  -0.49628791  0.075756622   0.04519344  -0.49628791   0.57204453   176850 
29935000   0.18346775   -0.4941297   -0.4941297  0.076462384  0.042849359   -0.4941297   0.57059208   176840 
29936000   0.18372639  -0.49497274  -0.49497274  0.076456015  0.042927515  -0.49497274   0.57142876   176830 
29937000   0.18331484  -0.49403263  -0.49403263  0.076148379  0.037541877  -0.49403263   0.57018101   176820 
29938000   0.18382895   -0.4940369   -0.4940369   0.07777552    0.0481901   -0.4940369   0.57181242   176810 
29939000   0.18416618  -0.49531211  -0.49531211  0.077581669  0.044280564  -0.49531211   0.57289378   176800 
29940000   0.18406726  -0.49551595  -0.49551595  0.077102522  0.042696943  -0.49551595   0.57261847   176790 
29941000   0.18345409  -0.49437974  -0.49437974  0.076363487  0.040263313  -0.49437974   0.57074322   176780 
29942000   0.18399439  -0.49497679  -0.49497679  0.077479738  0.039241052  -0.49497679   0.57245653   176770 
29943000   0.18315992  -0.49515251  -0.49515251  0.074740007  0.043866959  -0.49515251   0.56989252   176760 
29944000   0.18341705  -0.49556104  -0.49556104    0.0751638  0.042621791  -0.49556104   0.57072484   176750 
29945000   0.18400237  -0.49701049  -0.49701049   0.07556804  0.043023149  -0.49701049   0.57257853   176740 
29946000   0.18288325  -0.49435359  -0.49435359  0.074774682  0.041907936  -0.49435359   0.56912827   176730 
29947000   0.18283302  -0.49406429  -0.49406429  0.074939856  0.042867459  -0.49406429   0.56900414   176720 
29948000   0.18394421  -0.49790289  -0.49790289  0.074591831  0.041748249  -0.49790289   0.57249473   176710 
29949000   0.18319693  -0.49548193  -0.49548193  0.074719294  0.048216089  -0.49548193   0.57020123   176700 
29950000   0.18358835  -0.49655113  -0.49655113  0.074900738    0.0450526  -0.49655113   0.57145186   176690 
29951000   0.18383935  -0.49564249  -0.49564249  0.076623037  0.045015086  -0.49564249   0.57226553   176680 
29952000   0.18320687  -0.49582748  -0.49582748   0.07450152  0.043509971  -0.49582748     0.570329   176670 
29953000   0.18324559  -0.49476436  -0.49476436  0.075717445  0.043904082  -0.49476436   0.57048181   176660 
29954000   0.18414895  -0.49638012  -0.49638012  0.076946483  0.038571542  -0.49638012   0.57332661   176650 
29955000    0.1842897  -0.49813879  -0.49813879  0.075658505  0.042770765  -0.49813879    0.5737973   176640 
29956000   0.18358677  -0.49473212  -0.49473212  0.076908933  0.045067838  -0.49473212   0.57164106   176630 
29957000    0.1841035  -0.49447478  -0.49447478  0.078807692   0.04320993  -0.49447478   0.57328247   176620 
29958000   0.18453627  -0.49662699  -0.49662699  0.078035632  0.044687243  -0.49662699   0.57466262   176610 
29959000   0.18329636  -0.49497957  -0.49497957  0.075854183  0.035699726  -0.49497957   0.57083376   176600 
29960000     0.183505  -0.49512214  -0.49512214  0.076393729  0.042835819  -0.49512214   0.57151587   176590 
29961000   0.18378263  -0.49350305  -0.49350305  0.078909891  0.043913915  -0.49350305   0.57241294   176580 
29962000   0.18292218  -0.49229966  -0.49229966  0.077465588  0.041003734  -0.49229966   0.56976525   176570 
29963000   0.18416132  -0.49682647  -0.49682647  0.076830929   0.04181991  -0.49682647    0.5736574   176560 
29964000   0.18302572  -0.49321333  -0.49321333  0.076939007  0.038374773  -0.49321333   0.57015234   176550 
29965000   0.18264334   -0.4919695   -0.4919695   0.07702389  0.041082847   -0.4919695   0.56899339   176540 
29966000   0.18371386  -0.49372083  -0.49372083  0.078639986  0.038167346  -0.49372083   0.57236082   176530 
29967000   0.18308704  -0.49207896  -0.49207896  0.078361315    0.0484178  -0.49207896   0.57044028   176520 
29968000   0.18340991  -0.49310782  -0.49310782   0.07837078  0.042098256  -0.49310782    0.5714786   176510 
29969000   0.18336367  -0.49492903  -0.49492903  0.076437894  0.042220817  -0.49492903   0.57136692   176500 
29970000   0.18232267  -0.49305437  -0.49305437  0.075100937  0.044776942  -0.49305437   0.56815531   176490 
29971000   0.18245415  -0.49183389  -0.49183389  0.076763352  0.043809257  -0.49183389   0.56859724   176480 
29972000   0.18249063  -0.49340977  -0.49340977  0.075333397  0.046093374  -0.49340977   0.56874317   176470 
29973000   0.18272323  -0.49233689  -0.49233689   0.07716345  0.038413105  -0.49233689   0.56950034   176460 
29974000    0.1825568  -0.49285999  -0.49285999  0.076153889  0.044102643  -0.49285999   0.56901388   176450 
29975000   0.18266147  -0.49206577  -0.49206577  0.077306629  0.041590247  -0.49206577    0.5693724   176440 
29976000   0.18280499  -0.49199228  -0.49199228  0.077859751  0.040608871  -0.49199228   0.56985203   176430 
29977000     0.182837    -0.492441    -0.492441  0.077543149  0.043297386    -0.492441   0.56998415   176420 
29978000   0.18329795   -0.4940093   -0.4940093  0.077444226  0.045259972   -0.4940093   0.57145352   176410 
29979000   0.18321584  -0.49449694  -0.49449694  0.076732983  0.047389938  -0.49449694   0.57122992   176400 
29980000   0.18312883  -0.49483153  -0.49483153  0.076159453  0.042027987  -0.49483153   0.57099099   176390 
29981000   0.18258087  -0.49422654  -0.49422654  0.075088207  0.040851275  -0.49422654   0.56931475   176380 
29982000   0.18260915  -0.49291705  -0.49291705  0.076518157  0.045032184  -0.49291705   0.56943521   176370 
29983000   0.18236746  -0.49122004  -0.49122004  0.077493738  0.044979651  -0.49122004   0.56871378   176360 
29984000   0.18204312  -0.49106176  -0.49106176  0.076672772  0.040567227  -0.49106176   0.56773453   176350 
29985000   0.18291825   -0.4920102   -0.4920102  0.078485934  0.043145425   -0.4920102   0.57049613   176340 
29986000   0.18269503  -0.49134429  -0.49134429  0.078487975  0.037581442  -0.49134429   0.56983227   176330 
29987000   0.18289844  -0.49130131  -0.49130131  0.079197749   0.04184749  -0.49130131   0.57049905   176320 
29988000   0.18231612  -0.48949353  -0.48949353  0.079221378  0.046165457  -0.48949353   0.56871491   176310 
29989000   0.18238723  -0.49066356  -0.49066356  0.078305455  0.044325439  -0.49066356   0.56896902   176300 
29990000   0.18264039  -0.49222325  -0.49222325  0.077567841  0.037884239  -0.49222325    0.5697911   176290 
29991000   0.18252893  -0.49058363  -0.49058363  0.078892034  0.047559119  -0.49058363   0.56947566   176280 
29992000   0.18220547  -0.49051347  -0.49051347  0.077985259  0.042982511  -0.49051347   0.56849873   176270 
29993000   0.18241588  -0.49278325  -0.49278325  0.076404284  0.041828147  -0.49278325   0.56918753   176260 
29994000   0.18281905  -0.49237533  -0.49237533  0.078102577  0.041009839  -0.49237533   0.57047791   176250 
29995000   0.18175431   -0.4899615   -0.4899615  0.077226109  0.040572204   -0.4899615    0.5671876   176240 
29996000   0.18271113  -0.49309056  -0.49309056  0.077115273  0.038018189  -0.49309056   0.57020583   176230 
29997000   0.18202564  -0.49201979  -0.49201979  0.076079013  0.044282789  -0.49201979    0.5680988   176220 
29998000   0.18196503  -0.49178383  -0.49178383  0.076158043  0.041497398  -0.49178383   0.56794187   176210 
29999000   0.18241399    -0.493227    -0.493227  0.076148464  0.038499252    -0.493227   0.56937546   176200 
30000000    0.1821347  -0.49209749  -0.49209749  0.076438465  0.044235531  -0.49209749   0.56853596   176190 
Loop time of 35634.2 on 336 procs for 30000000 steps with 176190 atoms

Performance: 363695.916 tau/day, 841.889 timesteps/s
92.8% CPU use with 336 MPI tasks x 1 OpenMP threads

MPI task timing breakdown:
Section |  min time  |  avg time  |  max time  |%varavg|  %CPU | %total
-----------------------------------------------------------------------
Pair    | 1222.4     | 5171.7     | 8406.7     |2578.8 |  94.2 | 14.51
Bond    | 18.973     | 20.079     | 21.171     |   7.9 | 100.0 |  0.06
Neigh   | 1570.1     | 5209.1     | 6399       |1649.7 |  98.1 | 14.62
Comm    | 9832.9     | 14588      | 17414      |1508.1 |  92.0 | 40.94
Output  | 2481.8     | 2483       | 2486.3     |   2.5 |  88.9 |  6.97
Modify  | 5788.3     | 7664.6     | 15283      |2435.7 |  92.1 | 21.51
Other   |            | 497.8      |            |       |       |  1.40

Nlocal:        524.375 ave         962 max          66 min
Histogram: 15 7 15 31 64 106 67 20 7 4
Nghost:        3944.33 ave        8122 max         468 min
Histogram: 76 7 9 29 34 66 54 21 29 11
Neighs:        2482.27 ave        9183 max         326 min
Histogram: 42 137 74 30 18 18 10 3 1 3

Total # of neighbors = 834044
Ave neighs/atom = 4.7337760
Ave special neighs/atom = 0.0000000
Neighbor list builds = 3000000
Dangerous builds = 2700000

Total wall time: 9:54:00
