LAMMPS (24 Dec 2020)
OMP_NUM_THREADS environment is not set. Defaulting to 1 thread. (src/comm.cpp:94)
  using 1 OpenMP thread(s) per MPI task
# Simple rigid body system
# needed variables:

#variable	startTemp equal 0.5
#variable 	temp 	  equal 0.8

units		lj
atom_style	full
dimension 	3
boundary	p p f
pair_style	lj/smooth/linear 2.0

variable 	sigma		equal 1.0
variable 	epsilon 	equal 1.0

region		box block 0 80 0 80 0 160
create_box 	3 box
Created orthogonal box = (0.0000000 0.0000000 0.0000000) to (80.000000 80.000000 160.00000)
  6 by 4 by 8 MPI processor grid



lattice 	sc 0.66
Lattice spacing in x,y,z = 1.1485556 1.1485556 1.1485556
region		fluid block EDGE EDGE EDGE EDGE 2 100 units box
create_atoms 	1 region fluid
Created 421400 atoms
  create_atoms CPU = 0.148 seconds

lattice 	sc 0.045
Lattice spacing in x,y,z = 2.8114422 2.8114422 2.8114422
region		gas block EDGE EDGE EDGE EDGE 101 158 units box
create_atoms    1 region gas
Created 17661 atoms
  create_atoms CPU = 0.004 seconds

group		solvent type 1
439061 atoms in group solvent

mass		1 1.0
mass		2 1.0
mass		3 1.0



neighbor 	0.4 bin

pair_coeff	1 1 1.0 1.0
pair_coeff	2 2 0.0 0.0
pair_coeff	3 3 0.0 0.0
pair_coeff	2 3 0.0 0.0
pair_coeff	1 2*3 0.0 0.0

pair_modify 	shift yes

delete_atoms	overlap 0.5 solvent solvent
System init for delete_atoms ...
Neighbor list info ...
  update every 1 steps, delay 10 steps, check yes
  max neighbors/atom: 2000, page size: 100000
  master list distance cutoff = 2.4
  ghost atom cutoff = 2.4
  binsize = 1.2, bins = 67 67 134
  2 neighbor lists, perpetual/occasional/extra = 1 1 0
  (1) command delete_atoms, occasional
      attributes: full, newton on
      pair build: full/bin
      stencil: full/bin/3d
      bin: standard
  (2) pair lj/smooth/linear, perpetual
      attributes: half, newton on
      pair build: half/bin/newton
      stencil: half/bin/3d/newton
      bin: standard
WARNING: Ignoring 'compress yes' for molecular system (src/delete_atoms.cpp:125)
Deleted 0 atoms, new total = 439061

velocity 	solvent create ${startTemp} 563435 loop geom
velocity 	solvent create .7 563435 loop geom

balance 	1.05 shift z 10 1.05
Balancing ...
Neighbor list info ...
  update every 1 steps, delay 10 steps, check yes
  max neighbors/atom: 2000, page size: 100000
  master list distance cutoff = 2.4
  ghost atom cutoff = 2.4
  binsize = 1.2, bins = 67 67 134
  1 neighbor lists, perpetual/occasional/extra = 1 0 0
  (1) pair lj/smooth/linear, perpetual
      attributes: half, newton on
      pair build: half/bin/newton
      stencil: half/bin/3d/newton
      bin: standard
 rebalancing time: 0.007 seconds
  iteration count = 5
  initial/final maximal load/proc = 3888.0000 2808.0000
  initial/final imbalance factor  = 1.7002102 1.2279296
  x cuts: 0.0000000 0.16666667 0.33333333 0.50000000 0.66666667 0.83333333 1.0000000
  y cuts: 0.0000000 0.25000000 0.50000000 0.75000000 1.0000000
  z cuts: 0.0000000 0.089843750 0.17578125 0.25390625 0.33593750 0.41406250 0.50390625 0.58203125 1.0000000


####################### WALLS ###########################


variable       epsilonWall equal 2*${epsilon}
variable       epsilonWall equal 2*1

variable       cutoffTop   equal   0.7147*${sigma}
variable       cutoffTop   equal   0.7147*1

variable       cutoffLow   equal   3*${sigma}
variable       cutoffLow   equal   3*1


fix            topWall all wall/lj93 zhi EDGE                ${epsilonWall} ${sigma} ${cutoffTop} units box
fix            topWall all wall/lj93 zhi EDGE                2 ${sigma} ${cutoffTop} units box
fix            topWall all wall/lj93 zhi EDGE                2 1 ${cutoffTop} units box
fix            topWall all wall/lj93 zhi EDGE                2 1 0.7147 units box

fix            lowWall all wall/lj93 zlo EDGE                ${epsilonWall} ${sigma} ${cutoffLow} units box
fix            lowWall all wall/lj93 zlo EDGE                2 ${sigma} ${cutoffLow} units box
fix            lowWall all wall/lj93 zlo EDGE                2 1 ${cutoffLow} units box
fix            lowWall all wall/lj93 zlo EDGE                2 1 3 units box


###################### COMPUTES ##########################

compute        bin1 solvent chunk/atom bin/1d z upper 1.0


######################	FIXES ############################


fix 		peclet solvent ave/chunk 1000 1 1000 bin1 density/number norm 		 none ave one file density.profile

fix 		 temp solvent ave/chunk 1000 1 1000 bin1 temp norm 		 none ave one file temp.profile

fix 		2 solvent nve


## Thermostat


region		regthermo block EDGE EDGE EDGE EDGE 0 20 units box

group 		thermo dynamic solvent region regthermo every 1000
dynamic group thermo defined

fix 		3 thermo langevin ${startTemp} ${temp} 10 156453
fix 		3 thermo langevin .7 ${temp} 10 156453
fix 		3 thermo langevin .7 .7 10 156453



#### Load balancing


fix 		bal all balance 1000 1.05 shift z 10 1.05


############### Diagnostics and computes ###################
#compute 	com cube	  rigid/local	1 mol x y z
#compute 	quat cube	  rigid/local	1 mol quatw quati quatj quatk

thermo 		1000
thermo_style 	custom step temp epair evdwl etotal press pe ke atoms

dump		1 all custom 100000 dump.lammpstrj id mol type x y z
dump 		2 all image 10000 image.*.png type type
dump 		3 all movie 1000 movie.avi type type

#dump 		com cube local 1000 dump.*.xyz c_com[*]
#dump		quat cube      local 1000 dump.*.quat c_quat[*]


restart 	1000000 restart.dat
timestep 	0.005
timer 		full
New timer settings: style=full  mode=nosync  timeout=off

run		5000000
Per MPI rank memory allocation (min/avg/max) = 9.917 | 9.995 | 10.07 Mbytes
Step Temp E_pair E_vdwl TotEng Press PotEng KinEng Atoms 
       0          0.7   0.22342731   0.22342731    1.2734249    4.5320455   0.22342731    1.0499976   439061 
    1000    1.7829284    -1.893772    -1.893772   0.78061457    2.2807596    -1.893772    2.6743866   439061 
    2000    1.6928967   -1.9508244   -1.9508244   0.58851482    1.4133411   -1.9508244    2.5393393   439061 
    3000    1.5419653   -1.8879469   -1.8879469   0.42499577    1.0906049   -1.8879469    2.3129426   439061 
    4000    1.4593734    -1.875922    -1.875922   0.31313316   0.86751197    -1.875922    2.1890551   439061 
    5000    1.4127411   -1.8520837   -1.8520837   0.26702311   0.71152131   -1.8520837    2.1191068   439061 
    6000    1.3834066   -1.8177811   -1.8177811   0.25732414    0.6499918   -1.8177811    2.0751052   439061 
    7000    1.3628091   -1.7787633   -1.7787633   0.26544571   0.66255529   -1.7787633    2.0442091   439061 
    8000     1.348244   -1.7442221   -1.7442221   0.27813932   0.70106238   -1.7442221    2.0223614   439061 
    9000    1.3452464   -1.7253904   -1.7253904   0.29247461   0.73118484   -1.7253904     2.017865   439061 
   10000    1.3461744   -1.7134098   -1.7134098   0.30584726   0.77180386   -1.7134098    2.0192571   439061 
   11000    1.3512696   -1.7073048   -1.7073048   0.31959494   0.80000548   -1.7073048    2.0268998   439061 
   12000    1.3495311   -1.6935933   -1.6935933   0.33069876    0.7874574   -1.6935933    2.0242921   439061 
   13000     1.337499    -1.665928    -1.665928   0.34031586   0.73027595    -1.665928    2.0062439   439061 
   14000    1.3260915   -1.6388874   -1.6388874   0.35024528   0.67743468   -1.6388874    1.9891327   439061 
   15000    1.3196308   -1.6210729   -1.6210729   0.35836884   0.65679594   -1.6210729    1.9794417   439061 
   16000    1.3241731   -1.6215517   -1.6215517    0.3647035   0.67491949   -1.6215517    1.9862552   439061 
   17000    1.3187011   -1.6347705   -1.6347705   0.34327668   0.70205871   -1.6347705    1.9780472   439061 
   18000    1.2959142   -1.6604946   -1.6604946   0.28337225    0.7337907   -1.6604946    1.9438668   439061 
   19000    1.2628301   -1.6838313   -1.6838313   0.21040945   0.76251445   -1.6838313    1.8942408   439061 
   20000    1.2358994   -1.7068479   -1.7068479   0.14699697   0.75002628   -1.7068479    1.8538449   439061 
   21000    1.2156059   -1.7255883   -1.7255883  0.097816371   0.74373697   -1.7255883    1.8234046   439061 
   22000    1.2007626   -1.7387703   -1.7387703  0.062369505   0.74081865   -1.7387703    1.8011398   439061 
   23000    1.1899947   -1.7515147   -1.7515147  0.033473336   0.71967453   -1.7515147     1.784988   439061 
   24000    1.1779113   -1.7547236   -1.7547236  0.012139412     0.697652   -1.7547236     1.766863   439061 
   25000    1.1677588   -1.7540749   -1.7540749 -0.0024407668   0.66647079   -1.7540749    1.7516342   439061 
   26000    1.1568735   -1.7471055   -1.7471055 -0.011799213   0.64002473   -1.7471055    1.7353063   439061 
   27000    1.1468983   -1.7383513   -1.7383513 -0.018007766   0.61194663   -1.7383513    1.7203436   439061 
   28000    1.1361839   -1.7267715   -1.7267715 -0.022499544   0.57754129   -1.7267715    1.7042719   439061 
   29000    1.1254209   -1.7131799   -1.7131799   -0.0250523   0.54737419   -1.7131799    1.6881276   439061 
   30000    1.1171276   -1.7008397   -1.7008397 -0.025152174   0.53160586   -1.7008397    1.6756875   439061 
   31000    1.1117402    -1.692036    -1.692036 -0.024429529   0.52645786    -1.692036    1.6676065   439061 
   32000    1.1093948   -1.6853874   -1.6853874 -0.021298956   0.52362774   -1.6853874    1.6640884   439061 
   33000    1.1073346   -1.6808721   -1.6808721  -0.01987398   0.51700813   -1.6808721    1.6609982   439061 
   34000     1.105766    -1.674276    -1.674276 -0.015630783   0.51408516    -1.674276    1.6586453   439061 
   35000    1.1054395   -1.6689741   -1.6689741 -0.010818646   0.50921509   -1.6689741    1.6581554   439061 
   36000    1.1061496   -1.6656482   -1.6656482 -0.0064274806   0.50846367   -1.6656482    1.6592207   439061 
   37000    1.1056109   -1.6607074   -1.6607074 -0.0022948514   0.50764137   -1.6607074    1.6584126   439061 
   38000    1.1046033   -1.6543434   -1.6543434 0.0025577631   0.50007423   -1.6543434    1.6569012   439061 
   39000    1.1038995   -1.6483183   -1.6483183 0.0075272188   0.48903426   -1.6483183    1.6558455   439061 
   40000    1.1026517    -1.641757    -1.641757  0.012216779   0.48780147    -1.641757    1.6539738   439061 
   41000    1.1061585   -1.6425983   -1.6425983  0.016635709   0.49689337   -1.6425983     1.659234   439061 
   42000    1.1124991   -1.6540629   -1.6540629  0.014682011   0.51962179   -1.6540629    1.6687449   439061 
   43000    1.1083637   -1.6652062   -1.6652062 -0.002664472    0.5474407   -1.6652062    1.6625417   439061 
   44000    1.1009317   -1.6811735   -1.6811735 -0.029779696   0.55908931   -1.6811735    1.6513938   439061 
   45000     1.093689   -1.6945844   -1.6945844 -0.054054652   0.55805714   -1.6945844    1.6405298   439061 
   46000    1.0856164   -1.7018297   -1.7018297 -0.073408728   0.55552487   -1.7018297     1.628421   439061 
   47000    1.0797866   -1.7073939   -1.7073939 -0.087717718   0.54362122   -1.7073939    1.6196762   439061 
   48000    1.0758577   -1.7112682   -1.7112682 -0.097485421   0.53860996   -1.7112682    1.6137828   439061 
   49000    1.0717614   -1.7122984   -1.7122984  -0.10465998   0.53770722   -1.7122984    1.6076384   439061 
   50000    1.0695524   -1.7157301   -1.7157301  -0.11140512   0.52558872   -1.7157301     1.604325   439061 
   51000    1.0640047   -1.7135488   -1.7135488  -0.11754532   0.52219946   -1.7135488    1.5960035   439061 
   52000    1.0606448    -1.712807    -1.712807  -0.12184339   0.50965891    -1.712807    1.5909636   439061 
   53000      1.05593   -1.7096083   -1.7096083  -0.12571692   0.49738779   -1.7096083    1.5838914   439061 
   54000    1.0512336   -1.7030389   -1.7030389  -0.12619198   0.48053116   -1.7030389    1.5768469   439061 
   55000    1.0474313   -1.6980136   -1.6980136   -0.1268703   0.47040642   -1.6980136    1.5711433   439061 
   56000     1.044023     -1.69349     -1.69349  -0.12745909    0.4551576     -1.69349    1.5660309   439061 
   57000    1.0412952   -1.6887935   -1.6887935  -0.12685434    0.4600173   -1.6887935    1.5619392   439061 
   58000    1.0396787   -1.6854379   -1.6854379  -0.12592332    0.4547511   -1.6854379    1.5595146   439061 
   59000    1.0400014   -1.6839081   -1.6839081  -0.12390963   0.44826547   -1.6839081    1.5599985   439061 
   60000    1.0379817   -1.6787508   -1.6787508  -0.12178177    0.4484563   -1.6787508     1.556969   439061 
   61000    1.0368187   -1.6748425   -1.6748425  -0.11961787   0.44767361   -1.6748425    1.5552246   439061 
   62000    1.0369655     -1.67241     -1.67241  -0.11696533   0.44517476     -1.67241    1.5554447   439061 
   63000    1.0365277   -1.6697904   -1.6697904  -0.11500231   0.43666194   -1.6697904    1.5547881   439061 
   64000     1.035565   -1.6658584   -1.6658584  -0.11251438   0.44094687   -1.6658584     1.553344   439061 
   65000    1.0374946    -1.666615    -1.666615  -0.11037664   0.43298727    -1.666615    1.5562384   439061 
   66000    1.0382722   -1.6659401   -1.6659401  -0.10853533   0.43600164   -1.6659401    1.5574048   439061 
   67000    1.0406582    -1.668467    -1.668467  -0.10748326   0.44773633    -1.668467    1.5609838   439061 
   68000    1.0419242    -1.674002    -1.674002  -0.11111926   0.46021998    -1.674002    1.5628827   439061 
   69000    1.0417316    -1.682956    -1.682956  -0.12036221   0.46992147    -1.682956    1.5625938   439061 
   70000    1.0393581   -1.6923096   -1.6923096  -0.13327606   0.47714983   -1.6923096    1.5590336   439061 
   71000    1.0354224   -1.6989158   -1.6989158  -0.14578573   0.47892099   -1.6989158    1.5531301   439061 
   72000    1.0324152   -1.7060903   -1.7060903  -0.15747106    0.4772838   -1.7060903    1.5486193   439061 
   73000    1.0293347   -1.7092627   -1.7092627  -0.16526415   0.48058972   -1.7092627    1.5439985   439061 
   74000    1.0253399   -1.7111594   -1.7111594   -0.1731531    0.4738582   -1.7111594    1.5380063   439061 
   75000    1.0233601   -1.7134894   -1.7134894  -0.17845273   0.47126298   -1.7134894    1.5350367   439061 
   76000    1.0209822   -1.7144287   -1.7144287  -0.18295886   0.46589212   -1.7144287    1.5314699   439061 
   77000    1.0193717   -1.7151361   -1.7151361  -0.18608208   0.45748998   -1.7151361     1.529054   439061 
   78000    1.0168712   -1.7140629   -1.7140629  -0.18875958   0.45302232   -1.7140629    1.5253033   439061 
   79000    1.0145237   -1.7124497   -1.7124497  -0.19066754   0.44985955   -1.7124497    1.5217822   439061 
   80000    1.0112646   -1.7094154   -1.7094154  -0.19252196    0.4439311   -1.7094154    1.5168934   439061 
   81000    1.0096684   -1.7075948   -1.7075948  -0.19309567   0.43788098   -1.7075948    1.5144991   439061 
   82000    1.0069764   -1.7049689   -1.7049689  -0.19450763   0.42766525   -1.7049689    1.5104612   439061 
   83000    1.0044752   -1.7002566   -1.7002566  -0.19354722   0.42591209   -1.7002566    1.5067094   439061 
   84000    1.0035845   -1.6986018   -1.6986018  -0.19322851   0.42542102   -1.6986018    1.5053732   439061 
   85000    1.0027517   -1.6969707   -1.6969707  -0.19284661   0.41937592   -1.6969707    1.5041241   439061 
   86000    1.0014268   -1.6946858   -1.6946858  -0.19254903   0.41884472   -1.6946858    1.5021368   439061 
   87000    1.0027555   -1.6945682   -1.6945682  -0.19043843   0.41712524   -1.6945682    1.5041298   439061 
   88000    1.0026228   -1.6924672   -1.6924672  -0.18853648   0.40750909   -1.6924672    1.5039307   439061 
   89000    1.0015733   -1.6910577   -1.6910577  -0.18870124   0.41267129   -1.6910577    1.5023565   439061 
   90000    1.0022282   -1.6902011   -1.6902011  -0.18686213   0.40855373   -1.6902011    1.5033389   439061 
   91000    1.0028896   -1.6901176   -1.6901176  -0.18578671   0.40574729   -1.6901176    1.5043309   439061 
   92000    1.0029583   -1.6895976   -1.6895976  -0.18516366   0.41098127   -1.6895976     1.504434   439061 
   93000    1.0029901   -1.6896719   -1.6896719  -0.18519022   0.41289537   -1.6896719    1.5044817   439061 
   94000    1.0046031   -1.6933644   -1.6933644  -0.18646319   0.42206643   -1.6933644    1.5069012   439061 
   95000    1.0041234   -1.6953491   -1.6953491  -0.18916742    0.4283934   -1.6953491    1.5061816   439061 
   96000    1.0040918   -1.7011321   -1.7011321  -0.19499784   0.43297916   -1.7011321    1.5061342   439061 
   97000    1.0027604    -1.706329    -1.706329  -0.20219172   0.43680079    -1.706329    1.5041372   439061 
   98000    1.0012637   -1.7115969   -1.7115969   -0.2097047   0.43490115   -1.7115969    1.5018922   439061 
   99000   0.99933027   -1.7153301   -1.7153301  -0.21633812   0.43775429   -1.7153301     1.498992   439061 
  100000   0.99660574   -1.7162052   -1.7162052  -0.22130004   0.43490617   -1.7162052    1.4949052   439061 
  101000   0.99499926   -1.7188756   -1.7188756  -0.22638007   0.43259352   -1.7188756    1.4924955   439061 
  102000   0.99387457   -1.7213058   -1.7213058  -0.23049734   0.43052719   -1.7213058    1.4908085   439061 
  103000    0.9914159   -1.7216113   -1.7216113   -0.2344908   0.42151226   -1.7216113    1.4871205   439061 
  104000   0.98946189   -1.7209802   -1.7209802  -0.23679073   0.42129803   -1.7209802    1.4841895   439061 
  105000   0.98788631   -1.7203698   -1.7203698  -0.23854366   0.41849112   -1.7203698    1.4818261   439061 
  106000   0.98725892   -1.7207094   -1.7207094  -0.23982443   0.41300338   -1.7207094     1.480885   439061 
  107000   0.98425136   -1.7169713   -1.7169713  -0.24059758   0.41284491   -1.7169713    1.4763737   439061 
  108000   0.98303393   -1.7164091   -1.7164091  -0.24186152   0.40875949   -1.7164091    1.4745475   439061 
  109000   0.98152762   -1.7147693   -1.7147693   -0.2424812   0.40301721   -1.7147693    1.4722881   439061 
  110000   0.98124522   -1.7146038   -1.7146038  -0.24273931   0.39846119   -1.7146038    1.4718645   439061 
  111000   0.98045177   -1.7123876   -1.7123876  -0.24171332   0.40013237   -1.7123876    1.4706743   439061 
  112000   0.97974315   -1.7105528   -1.7105528  -0.24094137   0.39689561   -1.7105528    1.4696114   439061 
  113000   0.97850686   -1.7088017   -1.7088017   -0.2410448   0.38835569   -1.7088017    1.4677569   439061 
  114000    0.9782904   -1.7077197   -1.7077197  -0.24028746   0.39205761   -1.7077197    1.4674323   439061 
  115000   0.97746433   -1.7063749   -1.7063749  -0.24018176   0.39118801   -1.7063749    1.4661932   439061 
  116000   0.97866363   -1.7069452   -1.7069452  -0.23895312   0.38470834   -1.7069452    1.4679921   439061 
  117000   0.97734132   -1.7056708   -1.7056708  -0.23966219   0.39005172   -1.7056708    1.4660086   439061 
  118000   0.97812008   -1.7062196   -1.7062196  -0.23904281   0.39106423   -1.7062196    1.4671768   439061 
  119000   0.97862514   -1.7081945   -1.7081945  -0.24026015   0.39177647   -1.7081945    1.4679344   439061 
  120000   0.97814716   -1.7092028   -1.7092028   -0.2419854   0.39592857   -1.7092028    1.4672174   439061 
  121000   0.97720233   -1.7104039   -1.7104039  -0.24460372   0.40212096   -1.7104039    1.4658002   439061 
  122000   0.97742973   -1.7137714   -1.7137714  -0.24763014   0.40253393   -1.7137714    1.4661413   439061 
  123000   0.97763129    -1.716795    -1.716795  -0.25035141   0.40311575    -1.716795    1.4664436   439061 
  124000   0.97718502   -1.7191475   -1.7191475  -0.25337331   0.40028175   -1.7191475    1.4657742   439061 
  125000   0.97672674   -1.7211693   -1.7211693  -0.25608252   0.40781396   -1.7211693    1.4650868   439061 
  126000    0.9768895   -1.7252644   -1.7252644  -0.25993348   0.40265322   -1.7252644    1.4653309   439061 
  127000   0.97293408   -1.7239404   -1.7239404  -0.26454265   0.40447222   -1.7239404    1.4593978   439061 
  128000    0.9725148   -1.7264009   -1.7264009  -0.26763205   0.40294809   -1.7264009    1.4587689   439061 
  129000   0.97122604   -1.7267469   -1.7267469  -0.26991121   0.40304411   -1.7267469    1.4568357   439061 
  130000   0.96897863    -1.726944    -1.726944  -0.27347941   0.40031116    -1.726944    1.4534646   439061 
  131000   0.96804303   -1.7265078   -1.7265078  -0.27444661   0.39663155   -1.7265078    1.4520612   439061 
  132000   0.96729491   -1.7263338   -1.7263338  -0.27539471   0.39603465   -1.7263338    1.4509391   439061 
  133000   0.96566832   -1.7248294   -1.7248294  -0.27633023   0.38842314   -1.7248294    1.4484992   439061 
  134000   0.96629636   -1.7260654   -1.7260654  -0.27662417   0.38987916   -1.7260654    1.4494412   439061 
  135000   0.96533799   -1.7247476   -1.7247476  -0.27674396   0.38310042   -1.7247476    1.4480037   439061 
  136000   0.96273453   -1.7221484   -1.7221484  -0.27804993   0.39018174   -1.7221484    1.4440985   439061 
  137000   0.96236655   -1.7216455   -1.7216455  -0.27809897   0.38310877   -1.7216455    1.4435465   439061 
  138000   0.96123391   -1.7208987   -1.7208987  -0.27905113   0.38057596   -1.7208987    1.4418476   439061 
  139000   0.96081323   -1.7201508   -1.7201508  -0.27893425   0.37841234   -1.7201508    1.4412166   439061 
  140000   0.96007294   -1.7186491   -1.7186491  -0.27854294   0.37784472   -1.7186491    1.4401061   439061 
  141000   0.96013462   -1.7193677   -1.7193677  -0.27916907   0.37681002   -1.7193677    1.4401987   439061 
  142000   0.96117035    -1.721995    -1.721995  -0.28024277   0.37295112    -1.721995    1.4417522   439061 
  143000   0.95880978    -1.718564    -1.718564  -0.28035262   0.37509147    -1.718564    1.4382114   439061 
  144000   0.95989456   -1.7212992   -1.7212992  -0.28146066     0.372707   -1.7212992    1.4398386   439061 
  145000   0.95836247   -1.7206397   -1.7206397  -0.28309925   0.37776612   -1.7206397    1.4375404   439061 
  146000   0.95922844   -1.7223964   -1.7223964  -0.28355705   0.37709063   -1.7223964    1.4388394   439061 
  147000   0.95815938   -1.7224177   -1.7224177   -0.2851819   0.38039464   -1.7224177    1.4372358   439061 
  148000    0.9584126    -1.724235    -1.724235  -0.28661936   0.37631421    -1.724235    1.4376156   439061 
  149000   0.95757594   -1.7250915   -1.7250915  -0.28873083   0.37911451   -1.7250915    1.4363606   439061 
  150000   0.95669101   -1.7264968   -1.7264968  -0.29146355   0.37978307   -1.7264968    1.4350333   439061 
  151000   0.95705635   -1.7300446   -1.7300446  -0.29446337   0.38102775   -1.7300446    1.4355813   439061 
  152000   0.95599433   -1.7313341   -1.7313341  -0.29734587   0.37886737   -1.7313341    1.4339882   439061 
  153000   0.95572324   -1.7325366   -1.7325366  -0.29895502   0.38501895   -1.7325366    1.4335816   439061 
  154000   0.95451313   -1.7331718   -1.7331718  -0.30140541   0.37857641   -1.7331718    1.4317664   439061 
  155000   0.95419257   -1.7347234   -1.7347234  -0.30343777   0.37925226   -1.7347234    1.4312856   439061 
  156000   0.95172742   -1.7325868   -1.7325868  -0.30499889   0.38197259   -1.7325868    1.4275879   439061 
  157000   0.95189675   -1.7345262   -1.7345262  -0.30668432   0.37828554   -1.7345262    1.4278419   439061 
  158000   0.95038217   -1.7335675   -1.7335675  -0.30799745   0.37568787   -1.7335675      1.42557   439061 
  159000    0.9495551   -1.7346115   -1.7346115  -0.31028211   0.37148909   -1.7346115    1.4243294   439061 
  160000   0.95029761   -1.7359576   -1.7359576  -0.31051447   0.37065512   -1.7359576    1.4254432   439061 
  161000   0.94901122    -1.734346    -1.734346  -0.31083237    0.3673984    -1.734346    1.4235136   439061 
  162000   0.94740042   -1.7331537   -1.7331537  -0.31205633   0.36667978   -1.7331537    1.4210974   439061 
  163000   0.94522306   -1.7310861   -1.7310861  -0.31325479    0.3699798   -1.7310861    1.4178314   439061 
  164000      0.94507   -1.7319671   -1.7319671  -0.31436529   0.36028948   -1.7319671    1.4176018   439061 
  165000   0.94534093   -1.7317845   -1.7317845  -0.31377638   0.36557244   -1.7317845    1.4180082   439061 
  166000   0.94484843   -1.7302973   -1.7302973  -0.31302785   0.36620066   -1.7302973    1.4172694   439061 
  167000   0.94401386   -1.7302283   -1.7302283  -0.31421075   0.36303085   -1.7302283    1.4160176   439061 
  168000   0.94373219   -1.7302823   -1.7302823  -0.31468725   0.36346801   -1.7302823    1.4155951   439061 
  169000   0.94327056   -1.7298426   -1.7298426  -0.31493996   0.36237386   -1.7298426    1.4149026   439061 
  170000   0.94388024   -1.7308002   -1.7308002  -0.31498307   0.35964845   -1.7308002    1.4158171   439061 
  171000   0.94430878   -1.7309314   -1.7309314   -0.3144715   0.36291552   -1.7309314    1.4164599   439061 
  172000   0.94330148   -1.7304797   -1.7304797  -0.31553071   0.36566326   -1.7304797     1.414949   439061 
  173000   0.94313606    -1.730758    -1.730758  -0.31605709   0.36410603    -1.730758    1.4147009   439061 
  174000   0.94288415   -1.7322874   -1.7322874  -0.31796439   0.36167986   -1.7322874     1.414323   439061 
  175000   0.94236896   -1.7336437   -1.7336437  -0.32009349   0.36259307   -1.7336437    1.4135502   439061 
  176000   0.94264394   -1.7349669   -1.7349669  -0.32100421   0.36206168   -1.7349669    1.4139627   439061 
  177000   0.94130267   -1.7344361   -1.7344361  -0.32248531   0.36848005   -1.7344361    1.4119508   439061 
  178000   0.94215905   -1.7381406   -1.7381406  -0.32490528   0.36028994   -1.7381406    1.4132354   439061 
  179000   0.93954293   -1.7359506   -1.7359506   -0.3266394   0.36395315   -1.7359506    1.4093112   439061 
  180000   0.94053475    -1.738642    -1.738642  -0.32784306   0.36188554    -1.738642    1.4107989   439061 
  181000   0.94019987   -1.7407727   -1.7407727  -0.33047614     0.358408   -1.7407727    1.4102966   439061 
  182000   0.93830242    -1.739452    -1.739452  -0.33200155   0.36575922    -1.739452    1.4074504   439061 
  183000    0.9375004   -1.7399435   -1.7399435  -0.33369613   0.36552945   -1.7399435    1.4062474   439061 
  184000   0.93716374    -1.741365    -1.741365  -0.33562263   0.35881399    -1.741365    1.4057424   439061 
  185000   0.93682553   -1.7412349   -1.7412349   -0.3359998   0.35690234   -1.7412349    1.4052351   439061 
  186000     0.936143   -1.7410229   -1.7410229  -0.33681156   0.35684874   -1.7410229    1.4042113   439061 
  187000   0.93602941    -1.741524    -1.741524  -0.33748309    0.3549075    -1.741524    1.4040409   439061 
  188000   0.93411069   -1.7408518   -1.7408518  -0.33968892   0.35544092   -1.7408518    1.4011628   439061 
  189000   0.93210319   -1.7390718   -1.7390718  -0.34092022   0.35593889   -1.7390718    1.3981516   439061 
  190000   0.93301358   -1.7407824   -1.7407824  -0.34126522   0.35416085   -1.7407824    1.3995172   439061 
  191000   0.93074973   -1.7385109   -1.7385109  -0.34238949   0.35658748   -1.7385109    1.3961214   439061 
  192000   0.93186599   -1.7420105   -1.7420105  -0.34421471   0.34675834   -1.7420105    1.3977958   439061 
  193000   0.93050677    -1.740253    -1.740253  -0.34449598   0.35371367    -1.740253     1.395757   439061 
  194000   0.93067451   -1.7411089   -1.7411089  -0.34510033   0.34849401   -1.7411089    1.3960086   439061 
  195000   0.92985602   -1.7406251   -1.7406251  -0.34584425    0.3505608   -1.7406251    1.3947809   439061 
  196000   0.92986498   -1.7409441   -1.7409441  -0.34614983   0.34840143   -1.7409441    1.3947943   439061 
  197000   0.92903057   -1.7396267   -1.7396267  -0.34608405    0.3511279   -1.7396267    1.3935427   439061 
  198000   0.93018618    -1.740542    -1.740542  -0.34526587   0.35073842    -1.740542    1.3952761   439061 
  199000   0.92934638   -1.7406607   -1.7406607  -0.34664426   0.35091473   -1.7406607    1.3940164   439061 
  200000   0.92877307   -1.7404144   -1.7404144  -0.34725793    0.3498048   -1.7404144    1.3931564   439061 
  201000   0.92935168   -1.7421304   -1.7421304  -0.34810601   0.34865257   -1.7421304    1.3940244   439061 
  202000   0.92780829   -1.7416652   -1.7416652  -0.34995594   0.35312103   -1.7416652    1.3917093   439061 
  203000    0.9277507    -1.742266    -1.742266  -0.35064315   0.34505249    -1.742266    1.3916229   439061 
  204000   0.92776921   -1.7435434   -1.7435434  -0.35189278   0.35186065   -1.7435434    1.3916506   439061 
  205000   0.92805956   -1.7441565   -1.7441565   -0.3520703   0.35079935   -1.7441565    1.3920862   439061 
  206000   0.92726615   -1.7451242   -1.7451242  -0.35422819    0.3488611   -1.7451242    1.3908961   439061 
  207000   0.92576215   -1.7448681   -1.7448681  -0.35622806   0.34670519   -1.7448681    1.3886401   439061 
  208000   0.92489284   -1.7449893   -1.7449893  -0.35765317   0.34650332   -1.7449893    1.3873361   439061 
  209000   0.92609155   -1.7474142   -1.7474142  -0.35828005   0.34210129   -1.7474142    1.3891342   439061 
  210000    0.9248945    -1.746244    -1.746244   -0.3589054   0.34555852    -1.746244    1.3873386   439061 
  211000    0.9231461   -1.7457917   -1.7457917  -0.36107565   0.34906198   -1.7457917     1.384716   439061 
  212000   0.92291642   -1.7464124   -1.7464124  -0.36204087   0.34543755   -1.7464124    1.3843715   439061 
  213000   0.92295583   -1.7473515   -1.7473515  -0.36292092   0.34602992   -1.7473515    1.3844306   439061 
  214000   0.92196437   -1.7471742   -1.7471742  -0.36423084   0.34344176   -1.7471742    1.3829434   439061 
  215000      0.92145   -1.7459768   -1.7459768  -0.36380491   0.34490284   -1.7459768    1.3821719   439061 
  216000   0.92149701   -1.7467612   -1.7467612   -0.3645188    0.3424345   -1.7467612    1.3822424   439061 
  217000   0.91982639   -1.7450926   -1.7450926  -0.36535617   0.34281022   -1.7450926    1.3797364   439061 
  218000   0.92054712   -1.7467152   -1.7467152  -0.36589768    0.3401816   -1.7467152    1.3808175   439061 
  219000   0.92059825   -1.7471521   -1.7471521  -0.36625791   0.33795366   -1.7471521    1.3808942   439061 
  220000   0.91920845   -1.7448547   -1.7448547  -0.36604518   0.34221733   -1.7448547    1.3788095   439061 
  221000   0.92075712   -1.7476225   -1.7476225  -0.36648995   0.33768819   -1.7476225    1.3811325   439061 
  222000    0.9189726   -1.7459834   -1.7459834   -0.3675276   0.33975062   -1.7459834    1.3784558   439061 
  223000   0.91888079   -1.7467404   -1.7467404  -0.36842235   0.34125885   -1.7467404     1.378318   439061 
  224000    0.9188848   -1.7472912   -1.7472912  -0.36896715   0.34051694   -1.7472912    1.3783241   439061 
  225000     0.918829   -1.7470194   -1.7470194  -0.36877904   0.33724929   -1.7470194    1.3782404   439061 
  226000   0.91726801   -1.7464722   -1.7464722  -0.37057334   0.33649788   -1.7464722    1.3758989   439061 
  227000   0.91694414   -1.7463282   -1.7463282  -0.37091512   0.34066879   -1.7463282    1.3754131   439061 
  228000   0.91640585   -1.7478709   -1.7478709  -0.37326523   0.33532725   -1.7478709    1.3746056   439061 
  229000   0.91713365   -1.7485943   -1.7485943  -0.37289698   0.33716433   -1.7485943    1.3756973   439061 
  230000   0.91648851   -1.7484463   -1.7484463  -0.37371664   0.33869151   -1.7484463    1.3747296   439061 
  231000   0.91615382   -1.7488303   -1.7488303  -0.37460274   0.33453115   -1.7488303    1.3742276   439061 
  232000   0.91593739   -1.7491973   -1.7491973  -0.37529429   0.33336446   -1.7491973     1.373903   439061 
  233000   0.91421606   -1.7485567   -1.7485567  -0.37723578   0.33605916   -1.7485567     1.371321   439061 
  234000   0.91491862   -1.7514527   -1.7514527  -0.37907784    0.3353458   -1.7514527    1.3723748   439061 
  235000   0.91451956   -1.7507782   -1.7507782  -0.37900198   0.33560633   -1.7507782    1.3717762   439061 
  236000    0.9144973    -1.751068    -1.751068  -0.37932514   0.33477473    -1.751068    1.3717428   439061 
  237000   0.91418272   -1.7517185   -1.7517185  -0.38044755   0.33096146   -1.7517185     1.371271   439061 
  238000   0.91379473   -1.7511249   -1.7511249  -0.38043593   0.33356278   -1.7511249     1.370689   439061 
  239000   0.91272981   -1.7512314   -1.7512314  -0.38213983   0.33397911   -1.7512314    1.3690916   439061 
  240000   0.91121539   -1.7504153   -1.7504153  -0.38359537   0.33560315   -1.7504153      1.36682   439061 
  241000   0.91176349    -1.751417    -1.751417  -0.38377493   0.32968924    -1.751417    1.3676421   439061 
  242000   0.91124469   -1.7513423   -1.7513423  -0.38447837   0.33059755   -1.7513423    1.3668639   439061 
  243000   0.91103954   -1.7522688   -1.7522688  -0.38571265   0.33224802   -1.7522688    1.3665562   439061 
  244000   0.91040796   -1.7525326   -1.7525326  -0.38692372   0.32868418   -1.7525326    1.3656088   439061 
  245000   0.91041679   -1.7528519   -1.7528519  -0.38722986   0.33006178   -1.7528519    1.3656221   439061 
  246000   0.90932588   -1.7520527   -1.7520527  -0.38806698   0.32822531   -1.7520527    1.3639857   439061 
  247000   0.91064205   -1.7536042   -1.7536042  -0.38764419   0.32254617   -1.7536042      1.36596   439061 
  248000   0.90958609   -1.7536794   -1.7536794  -0.38930333   0.32849529   -1.7536794     1.364376   439061 
  249000   0.90803601   -1.7515513   -1.7515513  -0.38950041   0.32994819   -1.7515513    1.3620509   439061 
  250000   0.90757831   -1.7525575   -1.7525575  -0.39119311   0.32722612   -1.7525575    1.3613644   439061 
  251000   0.90667774   -1.7533762   -1.7533762  -0.39336271   0.32898455   -1.7533762    1.3600135   439061 
  252000    0.9069536   -1.7544549   -1.7544549   -0.3940276   0.32208985   -1.7544549    1.3604273   439061 
  253000   0.90664796   -1.7536099   -1.7536099   -0.3936411   0.32201064   -1.7536099    1.3599688   439061 
  254000   0.90636682   -1.7537591   -1.7537591  -0.39421194   0.32261292   -1.7537591    1.3595471   439061 
  255000   0.90630423    -1.753779    -1.753779   -0.3943257   0.32621902    -1.753779    1.3594533   439061 
  256000   0.90595466   -1.7543364   -1.7543364  -0.39540751   0.32137393   -1.7543364    1.3589289   439061 
  257000   0.90560651   -1.7540852   -1.7540852  -0.39567857   0.32623888   -1.7540852    1.3584067   439061 
  258000    0.9061576   -1.7551009   -1.7551009  -0.39586759   0.32324184   -1.7551009    1.3592333   439061 
  259000   0.90513102   -1.7550085   -1.7550085  -0.39731507   0.32476992   -1.7550085    1.3576934   439061 
  260000    0.9042928   -1.7549028   -1.7549028  -0.39846665   0.32336754   -1.7549028    1.3564361   439061 
  261000   0.90394845   -1.7553751   -1.7553751  -0.39945555   0.32054822   -1.7553751    1.3559196   439061 
  262000   0.90396617   -1.7556568   -1.7556568  -0.39971061   0.32426154   -1.7556568    1.3559462   439061 
  263000   0.90271574    -1.754802    -1.754802  -0.40073147   0.32539903    -1.754802    1.3540705   439061 
  264000   0.90221236   -1.7555301   -1.7555301  -0.40221465   0.32218582   -1.7555301    1.3533155   439061 
  265000   0.90192562   -1.7552871   -1.7552871  -0.40240171   0.32210399   -1.7552871    1.3528854   439061 
  266000   0.90073181   -1.7556828   -1.7556828  -0.40458818   0.32340607   -1.7556828    1.3510946   439061 
  267000   0.90077104   -1.7562639   -1.7562639  -0.40511042   0.31830141   -1.7562639    1.3511535   439061 
  268000   0.90172539   -1.7577324   -1.7577324  -0.40514738   0.32061631   -1.7577324     1.352585   439061 
  269000   0.90052955   -1.7573309   -1.7573309  -0.40653965   0.31800298   -1.7573309    1.3507913   439061 
  270000   0.90071572   -1.7586282   -1.7586282  -0.40755768   0.31882013   -1.7586282    1.3510705   439061 
  271000   0.89875483   -1.7569524   -1.7569524  -0.40882323   0.32110716   -1.7569524    1.3481292   439061 
  272000   0.89839757   -1.7571152   -1.7571152  -0.40952192   0.31965848   -1.7571152    1.3475933   439061 
  273000   0.89823045   -1.7565599   -1.7565599  -0.40921734   0.31884215   -1.7565599    1.3473426   439061 
  274000   0.89793701   -1.7576573   -1.7576573  -0.41075485   0.31721714   -1.7576573    1.3469024   439061 
  275000   0.89819091   -1.7585262   -1.7585262  -0.41124291   0.31867212   -1.7585262    1.3472833   439061 
  276000    0.8971065   -1.7569536   -1.7569536  -0.41129686   0.31789996   -1.7569536    1.3456567   439061 
  277000   0.89764061   -1.7579862   -1.7579862  -0.41152831    0.3133685   -1.7579862    1.3464579   439061 
  278000    0.8969843   -1.7560038   -1.7560038  -0.41053046   0.31846731   -1.7560038    1.3454734   439061 
  279000   0.89705512   -1.7574181   -1.7574181  -0.41183852   0.31721166   -1.7574181    1.3455796   439061 
  280000   0.89671452   -1.7565098   -1.7565098  -0.41144113   0.31377365   -1.7565098    1.3450687   439061 
  281000   0.89624063   -1.7577689   -1.7577689  -0.41341105   0.32045539   -1.7577689    1.3443579   439061 
  282000   0.89678716   -1.7591842   -1.7591842  -0.41400652   0.31565279   -1.7591842    1.3451777   439061 
  283000    0.8955009   -1.7583412   -1.7583412  -0.41509293   0.31349862   -1.7583412    1.3432483   439061 
  284000   0.89524061   -1.7590607   -1.7590607  -0.41620285   0.31475188   -1.7590607    1.3428579   439061 
  285000   0.89468421   -1.7582319   -1.7582319  -0.41620861   0.31502329   -1.7582319    1.3420233   439061 
  286000   0.89557031    -1.759053    -1.759053  -0.41570059    0.3143764    -1.759053    1.3433524   439061 
  287000   0.89381032   -1.7582316   -1.7582316  -0.41751923   0.31653635   -1.7582316    1.3407124   439061 
  288000   0.89395379   -1.7592621   -1.7592621  -0.41833442   0.31291649   -1.7592621    1.3409276   439061 
  289000   0.89417365   -1.7601822   -1.7601822  -0.41892482   0.31052769   -1.7601822    1.3412574   439061 
  290000   0.89424673   -1.7604596   -1.7604596  -0.41909256    0.3129646   -1.7604596     1.341367   439061 
  291000   0.89342019   -1.7603997   -1.7603997   -0.4202725   0.30868315   -1.7603997    1.3401272   439061 
  292000   0.89167247     -1.75853     -1.75853  -0.42102435   0.31491209     -1.75853    1.3375057   439061 
  293000   0.89241716   -1.7600966   -1.7600966  -0.42147391   0.30923593   -1.7600966    1.3386227   439061 
  294000   0.89279749   -1.7606713   -1.7606713  -0.42147817   0.31167481   -1.7606713    1.3391932   439061 
  295000   0.89174021   -1.7596973   -1.7596973     -0.42209   0.31481153   -1.7596973    1.3376073   439061 
  296000     0.891009   -1.7597049   -1.7597049  -0.42319441   0.31289907   -1.7597049    1.3365105   439061 
  297000   0.89211731   -1.7611617   -1.7611617  -0.42298875   0.31001216   -1.7611617    1.3381729   439061 
  298000   0.89069394   -1.7599773   -1.7599773  -0.42393947   0.31017377   -1.7599773    1.3360379   439061 
  299000   0.89127028    -1.760364    -1.760364  -0.42346159   0.31027471    -1.760364    1.3369024   439061 
  300000   0.89089482   -1.7607333   -1.7607333  -0.42439416   0.30579662   -1.7607333    1.3363392   439061 
  301000   0.88943309   -1.7592849   -1.7592849  -0.42513832   0.30889534   -1.7592849    1.3341466   439061 
  302000   0.88944892   -1.7612566   -1.7612566  -0.42708627   0.30621078   -1.7612566    1.3341703   439061 
  303000   0.88940731   -1.7631593   -1.7631593  -0.42905133   0.30665819   -1.7631593    1.3341079   439061 
  304000   0.88867504   -1.7631645   -1.7631645    -0.430155   0.30332456   -1.7631645    1.3330095   439061 
  305000   0.88796314   -1.7624299   -1.7624299  -0.43048819   0.30553011   -1.7624299    1.3319417   439061 
  306000   0.88816391   -1.7630019   -1.7630019  -0.43075911   0.30500409   -1.7630019    1.3322428   439061 
  307000   0.88812538   -1.7639222   -1.7639222  -0.43173718   0.30492585   -1.7639222     1.332185   439061 
  308000   0.88719541   -1.7630007   -1.7630007  -0.43221064   0.30715874   -1.7630007    1.3307901   439061 
  309000   0.88744199    -1.764041    -1.764041  -0.43288102   0.30580577    -1.764041      1.33116   439061 
  310000   0.88581967   -1.7620127   -1.7620127  -0.43328626   0.30503903   -1.7620127    1.3287265   439061 
  311000   0.88474581   -1.7615417   -1.7615417  -0.43442604   0.30644084   -1.7615417    1.3271157   439061 
  312000   0.88509636   -1.7634161   -1.7634161  -0.43577454   0.30330184   -1.7634161    1.3276415   439061 
  313000   0.88558081   -1.7642782   -1.7642782  -0.43591005   0.30088292   -1.7642782    1.3283682   439061 
  314000   0.88493011   -1.7637291   -1.7637291  -0.43633694   0.30548257   -1.7637291    1.3273921   439061 
  315000   0.88539367   -1.7641714   -1.7641714  -0.43608396   0.30607686   -1.7641714    1.3280875   439061 
  316000   0.88404962    -1.763183    -1.763183  -0.43711159   0.30675567    -1.763183    1.3260714   439061 
  317000   0.88410029   -1.7650159   -1.7650159  -0.43886844   0.29955699   -1.7650159    1.3261474   439061 
  318000    0.8841526   -1.7646518   -1.7646518  -0.43842594   0.30407411   -1.7646518    1.3262259   439061 
  319000   0.88408493   -1.7653828   -1.7653828  -0.43925845    0.3054877   -1.7653828    1.3261244   439061 
  320000   0.88521967   -1.7664791   -1.7664791  -0.43865265   0.30312744   -1.7664791    1.3278265   439061 
  321000   0.88341826   -1.7657422   -1.7657422  -0.44061787   0.29905344   -1.7657422    1.3251244   439061 
  322000   0.88268876   -1.7661372   -1.7661372  -0.44210706   0.30083937   -1.7661372    1.3240301   439061 
  323000    0.8831637   -1.7666247   -1.7666247  -0.44188215   0.29926271   -1.7666247    1.3247425   439061 
  324000   0.88110966   -1.7631166   -1.7631166  -0.44145507    0.3013026   -1.7631166    1.3216615   439061 
  325000   0.88163508    -1.764629    -1.764629  -0.44217939   0.29787943    -1.764629    1.3224496   439061 
  326000   0.88113334   -1.7643993   -1.7643993  -0.44270235   0.30459434   -1.7643993     1.321697   439061 
  327000   0.88163857   -1.7654819   -1.7654819  -0.44302703   0.29723424   -1.7654819    1.3224548   439061 
  328000   0.88003402   -1.7640766   -1.7640766  -0.44402854   0.30138591   -1.7640766     1.320048   439061 
  329000   0.88157685    -1.765816    -1.765816  -0.44345372   0.29855148    -1.765816    1.3223623   439061 
  330000   0.88110158   -1.7663662   -1.7663662  -0.44471689    0.2946363   -1.7663662    1.3216494   439061 
  331000   0.87971897   -1.7640123   -1.7640123  -0.44443688   0.30083353   -1.7640123    1.3195755   439061 
  332000    0.8806649   -1.7665207   -1.7665207  -0.44552637   0.29744115   -1.7665207    1.3209943   439061 
  333000   0.87997341   -1.7662741   -1.7662741  -0.44631704   0.28943281   -1.7662741    1.3199571   439061 
  334000   0.88056698   -1.7666244   -1.7666244  -0.44577691   0.29139514   -1.7666244    1.3208475   439061 
  335000   0.87826887   -1.7637578   -1.7637578  -0.44635751   0.29956389   -1.7637578    1.3174003   439061 
  336000   0.87917691   -1.7657505   -1.7657505  -0.44698814   0.29607949   -1.7657505    1.3187624   439061 
  337000   0.87853672   -1.7657811   -1.7657811  -0.44797906   0.29489696   -1.7657811    1.3178021   439061 
  338000   0.87807997   -1.7656915   -1.7656915  -0.44857456   0.29927689   -1.7656915     1.317117   439061 
  339000   0.87736054   -1.7658047   -1.7658047   -0.4497669   0.29034496   -1.7658047    1.3160378   439061 
  340000   0.87717183   -1.7664202   -1.7664202   -0.4506654   0.29368162   -1.7664202    1.3157548   439061 
  341000   0.87615041      -1.7659      -1.7659   -0.4516774   0.29706604      -1.7659    1.3142226   439061 
  342000   0.87673543   -1.7665609   -1.7665609  -0.45146079    0.2942997   -1.7665609    1.3151001   439061 
  343000   0.87618254   -1.7664012   -1.7664012  -0.45213041   0.29567845   -1.7664012    1.3142708   439061 
  344000   0.87541196   -1.7664337   -1.7664337  -0.45331873   0.29440385   -1.7664337     1.313115   439061 
  345000   0.87629553   -1.7680958   -1.7680958  -0.45365552   0.29220683   -1.7680958    1.3144403   439061 
  346000   0.87580668   -1.7677257   -1.7677257  -0.45401868   0.28994313   -1.7677257     1.313707   439061 
  347000   0.87482258   -1.7666485   -1.7666485   -0.4544176   0.29355127   -1.7666485    1.3122309   439061 
  348000   0.87385531   -1.7664626   -1.7664626  -0.45568259   0.29446723   -1.7664626      1.31078   439061 
  349000   0.87502667    -1.768859    -1.768859  -0.45632203   0.29464027    -1.768859     1.312537   439061 
  350000   0.87402599   -1.7685022   -1.7685022  -0.45746623   0.29475037   -1.7685022     1.311036   439061 
  351000   0.87325084   -1.7682297   -1.7682297  -0.45835641   0.29246937   -1.7682297    1.3098733   439061 
  352000   0.87288287   -1.7694837   -1.7694837  -0.46016234   0.29495546   -1.7694837    1.3093213   439061 
  353000    0.8737856   -1.7706023   -1.7706023  -0.45992688    0.2879695   -1.7706023    1.3106754   439061 
  354000   0.87316817   -1.7697612   -1.7697612  -0.46001191   0.29304483   -1.7697612    1.3097493   439061 
  355000   0.87338642   -1.7698433   -1.7698433  -0.45976663    0.2882841   -1.7698433    1.3100767   439061 
  356000   0.87336599   -1.7706773   -1.7706773  -0.46063134   0.29096255   -1.7706773     1.310046   439061 
  357000   0.87161661    -1.769571    -1.769571  -0.46214908   0.28945451    -1.769571    1.3074219   439061 
  358000   0.87170911   -1.7690676   -1.7690676  -0.46150688   0.28750835   -1.7690676    1.3075607   439061 
  359000   0.87277999   -1.7711158   -1.7711158  -0.46194878   0.29188504   -1.7711158     1.309167   439061 
  360000    0.8704914   -1.7684633   -1.7684633  -0.46272913   0.28810835   -1.7684633    1.3057341   439061 
  361000   0.87042447   -1.7699748   -1.7699748  -0.46434109   0.29135229   -1.7699748    1.3056337   439061 
  362000   0.87038108   -1.7693853   -1.7693853  -0.46381668   0.28608573   -1.7693853    1.3055687   439061 
  363000    0.8712316   -1.7706748   -1.7706748  -0.46383041    0.2865327   -1.7706748    1.3068444   439061 
  364000   0.86985621   -1.7694779   -1.7694779  -0.46469657   0.28650562   -1.7694779    1.3047813   439061 
  365000   0.87044159   -1.7700846   -1.7700846   -0.4644252   0.28756533   -1.7700846    1.3056594   439061 
  366000   0.86936848   -1.7685671   -1.7685671  -0.46451735   0.28838396   -1.7685671    1.3040498   439061 
  367000    0.8692077   -1.7684172   -1.7684172   -0.4646086   0.28581035   -1.7684172    1.3038086   439061 
  368000   0.86894759   -1.7684697   -1.7684697   -0.4650513   0.28471185   -1.7684697    1.3034184   439061 
  369000   0.86937142   -1.7687033   -1.7687033  -0.46464913   0.28556684   -1.7687033    1.3040542   439061 
  370000   0.86884751   -1.7687066   -1.7687066  -0.46543828    0.2873871   -1.7687066    1.3032683   439061 
  371000   0.86937941   -1.7700367   -1.7700367   -0.4659706   0.28448106   -1.7700367    1.3040661   439061 
  372000   0.86796749   -1.7694919   -1.7694919  -0.46754361    0.2857654   -1.7694919    1.3019483   439061 
  373000   0.86855419    -1.771722    -1.771722  -0.46889371   0.28082563    -1.771722    1.3028283   439061 
  374000   0.86778375   -1.7709857   -1.7709857  -0.46931308    0.2820649   -1.7709857    1.3016727   439061 
  375000   0.86799901   -1.7716462   -1.7716462  -0.46965066   0.28472419   -1.7716462    1.3019956   439061 
  376000   0.86737553   -1.7706085   -1.7706085  -0.46954821   0.28889269   -1.7706085    1.3010603   439061 
  377000   0.86820563   -1.7717196   -1.7717196  -0.46941417   0.28306674   -1.7717196    1.3023055   439061 
  378000   0.86704456   -1.7707869   -1.7707869    -0.470223   0.28623449   -1.7707869    1.3005639   439061 
  379000    0.8666048   -1.7704083   -1.7704083  -0.47050403   0.28314537   -1.7704083    1.2999042   439061 
  380000   0.86752857    -1.772318    -1.772318  -0.47102807   0.28631016    -1.772318    1.3012899   439061 
  381000   0.86701426   -1.7710907   -1.7710907  -0.47057228    0.2872436   -1.7710907    1.3005184   439061 
  382000   0.86627941   -1.7711046   -1.7711046   -0.4716884   0.28801391   -1.7711046    1.2994162   439061 
  383000   0.86658841   -1.7729407   -1.7729407  -0.47306108   0.28306468   -1.7729407    1.2998796   439061 
  384000     0.866455   -1.7729396   -1.7729396  -0.47326006   0.28267861   -1.7729396    1.2996795   439061 
  385000   0.86603419   -1.7729335   -1.7729335   -0.4738852   0.28061544   -1.7729335    1.2990483   439061 
  386000   0.86522164   -1.7729779   -1.7729779  -0.47514838   0.28049686   -1.7729779    1.2978295   439061 
  387000   0.86420847   -1.7722208   -1.7722208  -0.47591102   0.27751767   -1.7722208    1.2963097   439061 
  388000   0.86346319   -1.7710538   -1.7710538    -0.475862   0.28183525   -1.7710538    1.2951918   439061 
  389000   0.86396959   -1.7726975   -1.7726975   -0.4767461   0.27990336   -1.7726975    1.2959514   439061 
  390000   0.86396907   -1.7723253   -1.7723253  -0.47637461   0.28126636   -1.7723253    1.2959507   439061 
  391000   0.86384344   -1.7715083   -1.7715083  -0.47574608   0.28263954   -1.7715083    1.2957622   439061 
  392000   0.86467241   -1.7729251   -1.7729251  -0.47591948   0.28243196   -1.7729251    1.2970057   439061 
  393000   0.86379308   -1.7724756   -1.7724756  -0.47678891   0.27707133   -1.7724756    1.2956867   439061 
  394000    0.8629892   -1.7715126   -1.7715126  -0.47703173   0.27981994   -1.7715126    1.2944809   439061 
  395000    0.8634706   -1.7720932   -1.7720932  -0.47689022   0.27602211   -1.7720932    1.2952029   439061 
  396000   0.86357639   -1.7733133   -1.7733133   -0.4779517   0.28005427   -1.7733133    1.2953616   439061 
  397000   0.86231034   -1.7720032   -1.7720032  -0.47854067   0.27777967   -1.7720032    1.2934626   439061 
  398000   0.86251948   -1.7732541   -1.7732541  -0.47947784   0.26907453   -1.7732541    1.2937763   439061 
  399000   0.86208136   -1.7718634   -1.7718634  -0.47874433    0.2767235   -1.7718634    1.2931191   439061 
  400000   0.86148477   -1.7711831   -1.7711831  -0.47895888   0.28018556   -1.7711831    1.2922242   439061 
  401000   0.86137563   -1.7712549   -1.7712549   -0.4791944   0.27669117   -1.7712549    1.2920605   439061 
  402000   0.86238063   -1.7726147   -1.7726147  -0.47904675   0.28138729   -1.7726147     1.293568   439061 
  403000   0.86179327   -1.7725975   -1.7725975  -0.47991052    0.2767286   -1.7725975     1.292687   439061 
  404000   0.86158165   -1.7730569   -1.7730569  -0.48068739   0.27543172   -1.7730569    1.2923695   439061 
  405000   0.86087183   -1.7729547   -1.7729547  -0.48164994   0.27846147   -1.7729547    1.2913048   439061 
  406000    0.8608968   -1.7736185   -1.7736185  -0.48227628   0.27732419   -1.7736185    1.2913423   439061 
  407000   0.85886477   -1.7715947   -1.7715947  -0.48330049   0.27810654   -1.7715947    1.2882942   439061 
  408000   0.86126741   -1.7761404   -1.7761404  -0.48424221   0.27280543   -1.7761404    1.2918982   439061 
  409000   0.85968885    -1.774601    -1.774601  -0.48507064   0.27275497    -1.774601    1.2895303   439061 
  410000   0.85969098   -1.7750624   -1.7750624  -0.48552884   0.27457084   -1.7750624    1.2895335   439061 
  411000   0.85903787   -1.7753619   -1.7753619  -0.48680807   0.26910922   -1.7753619    1.2885539   439061 
  412000   0.85924608   -1.7760474   -1.7760474  -0.48718119    0.2717253   -1.7760474    1.2888662   439061 
  413000    0.8569983   -1.7733568   -1.7733568  -0.48786226   0.27665887   -1.7733568    1.2854945   439061 
  414000   0.85795382   -1.7756764   -1.7756764  -0.48874863   0.27114618   -1.7756764    1.2869278   439061 
  415000   0.85756879   -1.7753359   -1.7753359  -0.48898563   0.27584007   -1.7753359    1.2863502   439061 
  416000   0.85814002   -1.7753526   -1.7753526  -0.48814554   0.27282438   -1.7753526    1.2872071   439061 
  417000   0.85784121   -1.7763195   -1.7763195  -0.48956059   0.27321103   -1.7763195    1.2867589   439061 
  418000    0.8565292   -1.7747427   -1.7747427  -0.48995186   0.27372678   -1.7747427    1.2847909   439061 
  419000   0.85644398   -1.7758002   -1.7758002  -0.49113714   0.26924811   -1.7758002     1.284663   439061 
  420000    0.8568553   -1.7775761   -1.7775761  -0.49229609   0.27206811   -1.7775761      1.28528   439061 
  421000   0.85563121   -1.7753906   -1.7753906  -0.49194672   0.27424772   -1.7753906    1.2834439   439061 
  422000   0.85631033   -1.7775402   -1.7775402  -0.49307767   0.27073887   -1.7775402    1.2844626   439061 
  423000   0.85488836   -1.7754919   -1.7754919  -0.49316223   0.27317119   -1.7754919    1.2823296   439061 
  424000   0.85501704   -1.7762094   -1.7762094  -0.49368674   0.26940229   -1.7762094    1.2825226   439061 
  425000   0.85535677   -1.7762982   -1.7762982  -0.49326593    0.2689594   -1.7762982    1.2830322   439061 
  426000   0.85442455   -1.7766405   -1.7766405  -0.49500658   0.27204787   -1.7766405    1.2816339   439061 
  427000   0.85453804   -1.7762132   -1.7762132  -0.49440906   0.27189162   -1.7762132    1.2818041   439061 
  428000    0.8537504   -1.7758859   -1.7758859  -0.49526322   0.27019552   -1.7758859    1.2806227   439061 
  429000   0.85478872   -1.7764992   -1.7764992  -0.49431902   0.26402669   -1.7764992    1.2821802   439061 
  430000   0.85385902   -1.7761197   -1.7761197  -0.49533406   0.27005998   -1.7761197    1.2807856   439061 
  431000   0.85281485   -1.7756541   -1.7756541  -0.49643477   0.26517999   -1.7756541    1.2792194   439061 
  432000   0.85336204    -1.776502    -1.776502  -0.49646182   0.27286498    -1.776502    1.2800401   439061 
  433000    0.8520808   -1.7751367   -1.7751367  -0.49701838    0.2704287   -1.7751367    1.2781183   439061 
  434000   0.85429234   -1.7781901   -1.7781901  -0.49675446   0.26796304   -1.7781901    1.2814356   439061 
  435000   0.85249203   -1.7770386   -1.7770386  -0.49830349   0.26854583   -1.7770386    1.2787351   439061 
  436000   0.85271621   -1.7766568   -1.7766568  -0.49758536   0.26889949   -1.7766568    1.2790714   439061 
  437000   0.85248458   -1.7779507   -1.7779507  -0.49922673   0.26624003   -1.7779507     1.278724   439061 
  438000   0.85165117   -1.7769407   -1.7769407  -0.49946682   0.27054764   -1.7769407    1.2774738   439061 
  439000    0.8527749    -1.778358    -1.778358  -0.49919851   0.26880274    -1.778358    1.2791594   439061 
  440000    0.8509086   -1.7764455   -1.7764455  -0.50008555   0.27045873   -1.7764455      1.27636   439061 
  441000   0.85118873   -1.7769887   -1.7769887  -0.50020847   0.26691679   -1.7769887    1.2767802   439061 
  442000   0.85164406   -1.7780306   -1.7780306  -0.50056746   0.26515508   -1.7780306    1.2774632   439061 
  443000   0.85139532   -1.7781156   -1.7781156  -0.50102551   0.26851834   -1.7781156    1.2770901   439061 
  444000   0.85092537   -1.7778942   -1.7778942  -0.50150902   0.26821675   -1.7778942    1.2763851   439061 
  445000   0.85138623   -1.7783627   -1.7783627   -0.5012863   0.26687378   -1.7783627    1.2770764   439061 
  446000   0.84970084   -1.7772585   -1.7772585  -0.50271017   0.26688869   -1.7772585    1.2745484   439061 
  447000   0.84932127   -1.7778807   -1.7778807  -0.50390172   0.26398082   -1.7778807     1.273979   439061 
  448000   0.84933003   -1.7765861   -1.7765861  -0.50259391   0.26687846   -1.7765861    1.2739921   439061 
  449000   0.84952601   -1.7775953   -1.7775953  -0.50330916     0.263065   -1.7775953    1.2742861   439061 
  450000   0.85075303   -1.7792911   -1.7792911   -0.5031645    0.2668816   -1.7792911    1.2761266   439061 
  451000   0.84914263   -1.7781361   -1.7781361   -0.5044251   0.26817529   -1.7781361     1.273711   439061 
  452000     0.849389   -1.7779403   -1.7779403  -0.50385972   0.26635793   -1.7779403    1.2740806   439061 
  453000   0.85112087   -1.7809071   -1.7809071  -0.50422867   0.26550268   -1.7809071    1.2766784   439061 
  454000   0.84983397    -1.779973    -1.779973  -0.50522491   0.26634532    -1.779973     1.274748   439061 
  455000    0.8485456   -1.7790025   -1.7790025  -0.50618702    0.2654893   -1.7790025    1.2728155   439061 
  456000   0.84818663   -1.7786254   -1.7786254   -0.5063483   0.26359563   -1.7786254     1.272277   439061 
  457000   0.84770511   -1.7781184   -1.7781184  -0.50656367   0.26448967   -1.7781184    1.2715548   439061 
  458000   0.84734827   -1.7778997   -1.7778997  -0.50688014   0.26182271   -1.7778997    1.2710195   439061 
  459000   0.84773074   -1.7785999   -1.7785999  -0.50700664   0.26388483   -1.7785999    1.2715932   439061 
  460000   0.84741057   -1.7795869   -1.7795869  -0.50847393   0.26037115   -1.7795869     1.271113   439061 
  461000   0.84555767   -1.7768413   -1.7768413  -0.50850772      0.26094   -1.7768413    1.2683336   439061 
  462000   0.84721918   -1.7788808   -1.7788808  -0.50805489   0.26260062   -1.7788808    1.2708259   439061 
  463000   0.84655155   -1.7774786   -1.7774786  -0.50765419   0.26004135   -1.7774786    1.2698244   439061 
  464000   0.84575436   -1.7775671   -1.7775671  -0.50893849   0.26151887   -1.7775671    1.2686286   439061 
  465000   0.84591301   -1.7788607   -1.7788607  -0.50999403   0.26372095   -1.7788607    1.2688666   439061 
  466000   0.84548773   -1.7783231   -1.7783231  -0.51009437   0.25925676   -1.7783231    1.2682287   439061 
  467000    0.8464911    -1.780763    -1.780763  -0.51102927   0.26106053    -1.780763    1.2697338   439061 
  468000   0.84562016   -1.7806104   -1.7806104  -0.51218304   0.25927076   -1.7806104    1.2684274   439061 
  469000   0.84536838   -1.7807067   -1.7807067  -0.51265701    0.2611609   -1.7807067    1.2680497   439061 
  470000   0.84582942   -1.7814971   -1.7814971   -0.5127559   0.26020913   -1.7814971    1.2687412   439061 
  471000   0.84438659   -1.7793749   -1.7793749  -0.51279787    0.2595587   -1.7793749     1.266577   439061 
  472000   0.84493609   -1.7812246   -1.7812246  -0.51382339    0.2592356   -1.7812246    1.2674012   439061 
  473000   0.84305393   -1.7789133   -1.7789133   -0.5143353   0.26031197   -1.7789133     1.264578   439061 
  474000   0.84500749   -1.7807857   -1.7807857  -0.51327731   0.26385135   -1.7807857    1.2675083   439061 
  475000   0.84513352   -1.7812571   -1.7812571  -0.51355968   0.25717797   -1.7812571    1.2676974   439061 
  476000   0.84361624    -1.779543    -1.779543   -0.5141215   0.25649067    -1.779543    1.2654215   439061 
  477000   0.84416398   -1.7807031   -1.7807031  -0.51445997    0.2594288   -1.7807031    1.2662431   439061 
  478000   0.84356163   -1.7799211   -1.7799211  -0.51458156   0.25612571   -1.7799211    1.2653396   439061 
  479000   0.84441782   -1.7819869   -1.7819869  -0.51536306   0.25675022   -1.7819869    1.2666238   439061 
  480000   0.84272122   -1.7793916   -1.7793916  -0.51531259   0.26145029   -1.7793916     1.264079   439061 
  481000   0.84191345   -1.7801378   -1.7801378  -0.51727055   0.25969256   -1.7801378    1.2628673   439061 
  482000   0.84226969   -1.7811319   -1.7811319  -0.51773028   0.25225812   -1.7811319    1.2634017   439061 
  483000   0.84142541    -1.780054    -1.780054  -0.51791881    0.2585463    -1.780054    1.2621352   439061 
  484000   0.84091494   -1.7796902   -1.7796902  -0.51832063   0.25398163   -1.7796902    1.2613695   439061 
  485000   0.84061202   -1.7801423   -1.7801423  -0.51922709   0.25348739   -1.7801423    1.2609152   439061 
  486000   0.84106064   -1.7801312   -1.7801312  -0.51854315   0.25731635   -1.7801312    1.2615881   439061 
  487000   0.84049519    -1.779826    -1.779826  -0.51908607   0.25985271    -1.779826    1.2607399   439061 
  488000   0.83970711   -1.7810199   -1.7810199  -0.52146215   0.25475983   -1.7810199    1.2595578   439061 
  489000    0.8395926   -1.7801018   -1.7801018  -0.52071578   0.25573187   -1.7801018     1.259386   439061 
  490000   0.83944011   -1.7800814   -1.7800814  -0.52092408   0.25446991   -1.7800814    1.2591573   439061 
  491000   0.84048359   -1.7820506   -1.7820506  -0.52132805   0.25603921   -1.7820506    1.2607225   439061 
  492000    0.8392276   -1.7806685   -1.7806685  -0.52182991   0.25481121   -1.7806685    1.2588385   439061 
  493000   0.84047767   -1.7825363   -1.7825363  -0.52182269   0.25308721   -1.7825363    1.2607136   439061 
  494000   0.83959691   -1.7814439   -1.7814439  -0.52205137   0.25133298   -1.7814439    1.2593925   439061 
  495000   0.84050632   -1.7821128   -1.7821128  -0.52135621   0.25628761   -1.7821128    1.2607566   439061 
  496000   0.83972176    -1.780486    -1.780486  -0.52090621   0.25439597    -1.780486    1.2595798   439061 
  497000   0.83984872   -1.7810833   -1.7810833  -0.52131306   0.25478276   -1.7810833    1.2597702   439061 
  498000   0.83946009    -1.780464    -1.780464  -0.52127671   0.25193612    -1.780464    1.2591873   439061 
  499000   0.83877307   -1.7803119   -1.7803119  -0.52215517   0.25444715   -1.7803119    1.2581567   439061 
  500000   0.84027234   -1.7832048   -1.7832048  -0.52279918   0.25238326   -1.7832048    1.2604056   439061 
  501000   0.83861435   -1.7820452   -1.7820452   -0.5241265   0.25218855   -1.7820452    1.2579187   439061 
  502000   0.83809951   -1.7815212   -1.7815212  -0.52437483     0.250879   -1.7815212    1.2571464   439061 
  503000   0.83882957   -1.7828027   -1.7828027  -0.52456118     0.253898   -1.7828027    1.2582415   439061 
  504000   0.83820907   -1.7818868   -1.7818868   -0.5245761     0.253354   -1.7818868    1.2573107   439061 
  505000   0.83867048   -1.7828833   -1.7828833  -0.52488043   0.25179789   -1.7828833    1.2580029   439061 
  506000   0.83835713   -1.7822543   -1.7822543  -0.52472146   0.25272289   -1.7822543    1.2575328   439061 
  507000   0.83887304   -1.7835461   -1.7835461  -0.52523938   0.25273434   -1.7835461    1.2583067   439061 
  508000   0.83801989   -1.7816024   -1.7816024  -0.52457549   0.25511889   -1.7816024     1.257027   439061 
  509000   0.83726387   -1.7816185   -1.7816185  -0.52572557   0.25338928   -1.7816185    1.2558929   439061 
  510000   0.83636452   -1.7804776   -1.7804776  -0.52593366   0.25226652   -1.7804776    1.2545439   439061 
  511000   0.83730435   -1.7820586   -1.7820586  -0.52610491   0.25093305   -1.7820586    1.2559537   439061 
  512000   0.83648282   -1.7815794   -1.7815794  -0.52685801   0.24939239   -1.7815794    1.2547214   439061 
  513000   0.83674529   -1.7819744   -1.7819744  -0.52685931   0.25011265   -1.7819744    1.2551151   439061 
  514000   0.83548895   -1.7809267   -1.7809267  -0.52769608    0.2514643   -1.7809267    1.2532306   439061 
  515000   0.83554492   -1.7806104   -1.7806104   -0.5272959   0.25089115   -1.7806104    1.2533145   439061 
  516000   0.83517221   -1.7800463   -1.7800463   -0.5272908   0.25011405   -1.7800463    1.2527555   439061 
  517000   0.83608681   -1.7822991   -1.7822991   -0.5281717    0.2513513   -1.7822991    1.2541274   439061 
  518000   0.83521521     -1.78162     -1.78162  -0.52880009   0.25049349     -1.78162      1.25282   439061 
  519000   0.83445302   -1.7814144   -1.7814144  -0.52973773   0.24652017   -1.7814144    1.2516767   439061 
  520000   0.83470463   -1.7815271   -1.7815271  -0.52947303   0.24702498   -1.7815271    1.2520541   439061 
  521000    0.8349508   -1.7818798   -1.7818798  -0.52945642    0.2502633   -1.7818798    1.2524233   439061 
  522000   0.83573641   -1.7831578   -1.7831578  -0.52955599   0.25209457   -1.7831578    1.2536018   439061 
  523000   0.83467082    -1.782548    -1.782548  -0.53054465   0.25070129    -1.782548    1.2520034   439061 
  524000   0.83421557   -1.7826669   -1.7826669  -0.53134644   0.24956872   -1.7826669    1.2513205   439061 
  525000   0.83363266   -1.7815385   -1.7815385  -0.53109239   0.24829615   -1.7815385    1.2504461   439061 
  526000   0.83318789   -1.7815542   -1.7815542  -0.53177523   0.24787177   -1.7815542     1.249779   439061 
  527000   0.83361785   -1.7822729   -1.7822729  -0.53184898   0.24740388   -1.7822729    1.2504239   439061 
  528000   0.83289375   -1.7818146   -1.7818146  -0.53247677   0.24654987   -1.7818146    1.2493378   439061 
  529000   0.83286751   -1.7828306   -1.7828306  -0.53353216   0.24569373   -1.7828306    1.2492984   439061 
  530000   0.83274813   -1.7826899   -1.7826899  -0.53357054   0.24839127   -1.7826899    1.2491194   439061 
  531000   0.83270313   -1.7825976   -1.7825976  -0.53354576   0.24704271   -1.7825976    1.2490519   439061 
  532000   0.83242183   -1.7823432   -1.7823432  -0.53371325    0.2466579   -1.7823432    1.2486299   439061 
  533000   0.83211131   -1.7822161   -1.7822161    -0.534052   0.24471222   -1.7822161    1.2481641   439061 
  534000   0.83224563   -1.7825926   -1.7825926  -0.53422702   0.24786636   -1.7825926    1.2483656   439061 
  535000   0.83217228   -1.7832728   -1.7832728  -0.53501718   0.24692325   -1.7832728    1.2482556   439061 
  536000   0.83323567   -1.7854935   -1.7854935  -0.53564283   0.24350526   -1.7854935    1.2498507   439061 
  537000   0.83168244   -1.7834454   -1.7834454  -0.53592462   0.24746341   -1.7834454    1.2475208   439061 
  538000   0.83167423   -1.7831694   -1.7831694  -0.53566088   0.24597222   -1.7831694    1.2475085   439061 
  539000   0.83155107   -1.7835666   -1.7835666  -0.53624282   0.24695603   -1.7835666    1.2473238   439061 
  540000   0.83142361   -1.7847435   -1.7847435  -0.53761089   0.24362311   -1.7847435    1.2471326   439061 
  541000   0.83065003   -1.7836848   -1.7836848  -0.53771258   0.24883044   -1.7836848    1.2459722   439061 
  542000   0.83025098   -1.7839661   -1.7839661  -0.53859242   0.24595204   -1.7839661    1.2453736   439061 
  543000   0.82999849   -1.7832502   -1.7832502  -0.53825528   0.24028276   -1.7832502    1.2449949   439061 
  544000   0.82937181   -1.7834006   -1.7834006  -0.53934573   0.24631219   -1.7834006    1.2440549   439061 
  545000   0.82994233   -1.7841418   -1.7841418  -0.53923117   0.24640493   -1.7841418    1.2449107   439061 
  546000   0.82968744   -1.7831216   -1.7831216  -0.53859328   0.24756541   -1.7831216    1.2445283   439061 
  547000   0.83034017   -1.7835764   -1.7835764  -0.53806896   0.24317715   -1.7835764    1.2455074   439061 
  548000   0.82971232   -1.7836819   -1.7836819  -0.53911622   0.24533862   -1.7836819    1.2445656   439061 
  549000   0.82905014    -1.782628    -1.782628  -0.53905565   0.24420063    -1.782628    1.2435724   439061 
  550000   0.82927717   -1.7845248   -1.7845248  -0.54061184   0.24199439   -1.7845248    1.2439129   439061 
  551000   0.82892888   -1.7838467   -1.7838467  -0.54045617   0.24124199   -1.7838467    1.2433905   439061 
  552000   0.82893126   -1.7832044   -1.7832044  -0.53981033   0.24348459   -1.7832044    1.2433941   439061 
  553000   0.82956697   -1.7833701   -1.7833701  -0.53902246   0.23917342   -1.7833701    1.2443476   439061 
  554000   0.82975648   -1.7837517   -1.7837517  -0.53911979   0.24290979   -1.7837517    1.2446319   439061 
  555000   0.82907087   -1.7829986   -1.7829986  -0.53939515   0.24676542   -1.7829986    1.2436035   439061 
  556000   0.82857536   -1.7824448   -1.7824448  -0.53958459   0.24525429   -1.7824448    1.2428602   439061 
  557000    0.8284579   -1.7833017   -1.7833017  -0.54061766   0.24350902   -1.7833017     1.242684   439061 
  558000    0.8278403   -1.7827435   -1.7827435  -0.54098586   0.23762719   -1.7827435    1.2417576   439061 
  559000   0.82912291   -1.7839308   -1.7839308  -0.54024928   0.24259129   -1.7839308    1.2436815   439061 
  560000   0.82899962    -1.784026    -1.784026  -0.54052944   0.24201605    -1.784026    1.2434966   439061 
  561000   0.82853757    -1.784435    -1.784435  -0.54163149    0.2398369    -1.784435    1.2428035   439061 
  562000   0.82723446   -1.7839371   -1.7839371  -0.54308826   0.23942887   -1.7839371    1.2408489   439061 
  563000   0.82724889   -1.7839619   -1.7839619  -0.54309138   0.23996449   -1.7839619    1.2408705   439061 
  564000   0.82745241   -1.7834892   -1.7834892  -0.54231339   0.23965835   -1.7834892    1.2411758   439061 
  565000   0.82702238   -1.7828421   -1.7828421  -0.54231134   0.23886322   -1.7828421    1.2405307   439061 
  566000   0.82666504   -1.7828134   -1.7828134   -0.5428187   0.24094313   -1.7828134    1.2399947   439061 
  567000   0.82694001   -1.7832634   -1.7832634  -0.54285622   0.24439854   -1.7832634    1.2404072   439061 
  568000   0.82732249   -1.7837514   -1.7837514   -0.5427705   0.24132497   -1.7837514    1.2409809   439061 
  569000   0.82661109   -1.7840022   -1.7840022  -0.54408836   0.24018612   -1.7840022    1.2399138   439061 
  570000   0.82658638   -1.7840899   -1.7840899  -0.54421313   0.23787089   -1.7840899    1.2398767   439061 
  571000   0.82598515   -1.7845367   -1.7845367  -0.54556175   0.23371966   -1.7845367    1.2389749   439061 
  572000   0.82501257    -1.782952    -1.782952  -0.54543594   0.24081691    -1.782952     1.237516   439061 
  573000   0.82687969   -1.7853297   -1.7853297  -0.54501297   0.23680392   -1.7853297    1.2403167   439061 
  574000    0.8261358   -1.7846203   -1.7846203  -0.54541945   0.23892388   -1.7846203    1.2392009   439061 
  575000   0.82587254   -1.7839166   -1.7839166  -0.54511062   0.24307947   -1.7839166     1.238806   439061 
  576000   0.82453349   -1.7834879   -1.7834879  -0.54669051   0.23662736   -1.7834879    1.2367974   439061 
  577000   0.82378776   -1.7826453   -1.7826453  -0.54696652   0.23914816   -1.7826453    1.2356788   439061 
  578000   0.82555695   -1.7842993   -1.7842993  -0.54596675    0.2389668   -1.7842993    1.2383326   439061 
  579000   0.82623159   -1.7852992   -1.7852992  -0.54595467    0.2381549   -1.7852992    1.2393446   439061 
  580000   0.82580576    -1.784366    -1.784366  -0.54566015   0.23677918    -1.784366    1.2387058   439061 
  581000   0.82605784   -1.7849819   -1.7849819  -0.54589794   0.24133293   -1.7849819    1.2390839   439061 
  582000   0.82580642   -1.7849489   -1.7849489  -0.54624207   0.23683257   -1.7849489    1.2387068   439061 
  583000   0.82538902   -1.7844662   -1.7844662  -0.54638548   0.23869578   -1.7844662    1.2380807   439061 
  584000   0.82469443   -1.7835617   -1.7835617  -0.54652291   0.23931838   -1.7835617    1.2370388   439061 
  585000   0.82514821   -1.7844756   -1.7844756  -0.54675612   0.24082849   -1.7844756    1.2377195   439061 
  586000   0.82330543   -1.7826323   -1.7826323  -0.54767694   0.23869624   -1.7826323    1.2349553   439061 
  587000   0.82386245   -1.7839605   -1.7839605  -0.54816965   0.23515861   -1.7839605    1.2357909   439061 
  588000   0.82391445   -1.7833864   -1.7833864   -0.5475175   0.23420552   -1.7833864    1.2358689   439061 
  589000    0.8240254   -1.7836174   -1.7836174  -0.54758216   0.23622162   -1.7836174    1.2360353   439061 
  590000   0.82412443   -1.7835666   -1.7835666  -0.54738279   0.23311469   -1.7835666    1.2361838   439061 
  591000   0.82334101   -1.7825638   -1.7825638   -0.5475551   0.23370639   -1.7825638    1.2350087   439061 
  592000   0.82352408   -1.7838783   -1.7838783  -0.54859498    0.2376708   -1.7838783    1.2352833   439061 
  593000   0.82411536   -1.7843092   -1.7843092  -0.54813897   0.23330846   -1.7843092    1.2361702   439061 
  594000   0.82227424   -1.7816816   -1.7816816  -0.54827308   0.23650456   -1.7816816    1.2334086   439061 
  595000   0.82296311   -1.7828531   -1.7828531  -0.54841126   0.23243535   -1.7828531    1.2344419   439061 
  596000    0.8229425    -1.782731    -1.782731  -0.54832011   0.23858915    -1.782731    1.2344109   439061 
  597000   0.82151859   -1.7809933   -1.7809933  -0.54871824   0.23624365   -1.7809933    1.2322751   439061 
  598000     0.821518   -1.7825479   -1.7825479  -0.55027367    0.2345806   -1.7825479    1.2322742   439061 
  599000   0.82141455   -1.7828341   -1.7828341  -0.55071509   0.23358424   -1.7828341     1.232119   439061 
  600000   0.82105536   -1.7831756   -1.7831756  -0.55159537   0.23453317   -1.7831756    1.2315802   439061 
  601000   0.82140996   -1.7836853   -1.7836853  -0.55157314   0.23052704   -1.7836853    1.2321121   439061 
  602000   0.82206404   -1.7846368   -1.7846368  -0.55154359   0.23370141   -1.7846368    1.2330932   439061 
  603000   0.82105427   -1.7837383   -1.7837383  -0.55215974   0.23339621   -1.7837383    1.2315786   439061 
  604000   0.82189986   -1.7855981   -1.7855981  -0.55275112   0.22897177   -1.7855981     1.232847   439061 
  605000   0.82120939   -1.7843847   -1.7843847  -0.55257342   0.23207969   -1.7843847    1.2318113   439061 
  606000   0.82078701   -1.7848851   -1.7848851  -0.55370744   0.23040989   -1.7848851    1.2311777   439061 
  607000   0.82089796   -1.7854943   -1.7854943  -0.55415013   0.23157275   -1.7854943    1.2313441   439061 
  608000   0.82048775   -1.7846399   -1.7846399   -0.5539111   0.23287438   -1.7846399    1.2307288   439061 
  609000   0.82056539   -1.7852198   -1.7852198  -0.55437456    0.2317845   -1.7852198    1.2308453   439061 
  610000   0.82047827   -1.7866465   -1.7866465  -0.55593187   0.23345598   -1.7866465    1.2307146   439061 
  611000   0.82094034   -1.7872983   -1.7872983   -0.5558906   0.23049758   -1.7872983    1.2314077   439061 
  612000   0.81833753   -1.7839866   -1.7839866  -0.55648311   0.23909953   -1.7839866    1.2275035   439061 
  613000   0.81904331   -1.7855277   -1.7855277   -0.5569655   0.23181149   -1.7855277    1.2285622   439061 
  614000   0.81875309   -1.7855978   -1.7855978  -0.55747094   0.23655066   -1.7855978    1.2281268   439061 
  615000   0.82095549   -1.7878745   -1.7878745  -0.55644404     0.230046   -1.7878745    1.2314304   439061 
  616000   0.81979319   -1.7874958   -1.7874958  -0.55780882    0.2285519   -1.7874958     1.229687   439061 
  617000   0.81867043   -1.7852595   -1.7852595  -0.55725662   0.23098253   -1.7852595    1.2280028   439061 
  618000    0.8197099   -1.7870783   -1.7870783   -0.5575163   0.23096979   -1.7870783     1.229562   439061 
  619000   0.81786506   -1.7853087   -1.7853087  -0.55851387   0.23396135   -1.7853087    1.2267948   439061 
  620000    0.8188001   -1.7873275   -1.7873275  -0.55913017   0.23122976   -1.7873275    1.2281974   439061 
  621000   0.81902442   -1.7873561   -1.7873561  -0.55882229   0.23107097   -1.7873561    1.2285338   439061 
  622000   0.81746905   -1.7849448   -1.7849448  -0.55874404   0.23148054   -1.7849448    1.2262008   439061 
  623000   0.81734707   -1.7854218   -1.7854218  -0.55940399   0.23079842   -1.7854218    1.2260178   439061 
  624000   0.81698726   -1.7843151   -1.7843151  -0.55883704   0.22731752   -1.7843151    1.2254781   439061 
  625000   0.81781636   -1.7849954   -1.7849954  -0.55827368   0.22880985   -1.7849954    1.2267218   439061 
  626000   0.81774569   -1.7859716   -1.7859716   -0.5593559   0.22741121   -1.7859716    1.2266157   439061 
  627000     0.817392   -1.7853514   -1.7853514  -0.55926622   0.22992583   -1.7853514    1.2260852   439061 
  628000   0.81769256   -1.7870963   -1.7870963  -0.56056024   0.23086178   -1.7870963     1.226536   439061 
  629000   0.81660845   -1.7855179   -1.7855179    -0.560608   0.22846545   -1.7855179    1.2249099   439061 
  630000   0.81701304   -1.7867548   -1.7867548  -0.56123798   0.22905842   -1.7867548    1.2255168   439061 
  631000   0.81671328   -1.7864327   -1.7864327  -0.56136554    0.2313295   -1.7864327    1.2250671   439061 
  632000   0.81674216   -1.7861583   -1.7861583  -0.56104787   0.23019854   -1.7861583    1.2251104   439061 
  633000   0.81644215   -1.7858309   -1.7858309  -0.56117047   0.23112181   -1.7858309    1.2246604   439061 
  634000   0.81649754   -1.7863875   -1.7863875  -0.56164398   0.23107241   -1.7863875    1.2247435   439061 
  635000   0.81589306   -1.7860443   -1.7860443  -0.56220745    0.2286784   -1.7860443    1.2238368   439061 
  636000   0.81566902   -1.7860873   -1.7860873  -0.56258658   0.22590546   -1.7860873    1.2235007   439061 
  637000   0.81722082   -1.7882753   -1.7882753  -0.56244684   0.22808453   -1.7882753    1.2258284   439061 
  638000   0.81549848   -1.7863564   -1.7863564  -0.56311147    0.2266892   -1.7863564    1.2232449   439061 
  639000   0.81457399   -1.7851164   -1.7851164  -0.56325822   0.22908361   -1.7851164    1.2218582   439061 
  640000   0.81579367    -1.787379    -1.787379  -0.56369125   0.22605371    -1.787379    1.2236877   439061 
  641000   0.81574323   -1.7871741   -1.7871741  -0.56356208   0.22607734   -1.7871741    1.2236121   439061 
  642000   0.81524682   -1.7876562   -1.7876562  -0.56478879   0.22799323   -1.7876562    1.2228675   439061 
  643000   0.81457574   -1.7860916   -1.7860916  -0.56423081   0.22689193   -1.7860916    1.2218608   439061 
  644000    0.8150754   -1.7870352   -1.7870352  -0.56442483   0.22756869   -1.7870352    1.2226103   439061 
  645000   0.81567763   -1.7882655   -1.7882655  -0.56475182    0.2241606   -1.7882655    1.2235137   439061 
  646000   0.81508578   -1.7876169   -1.7876169    -0.564991   0.22903822   -1.7876169    1.2226259   439061 
  647000   0.81588021   -1.7882716   -1.7882716  -0.56445406   0.22861821   -1.7882716    1.2238175   439061 
  648000   0.81407624   -1.7862762   -1.7862762  -0.56516459   0.22653005   -1.7862762    1.2211116   439061 
  649000   0.81411674   -1.7876625   -1.7876625  -0.56649019   0.22664615   -1.7876625    1.2211723   439061 
  650000    0.8131265   -1.7871283   -1.7871283  -0.56744131   0.22948618   -1.7871283     1.219687   439061 
  651000   0.81238188   -1.7867883   -1.7867883  -0.56821823   0.21719368   -1.7867883      1.21857   439061 
  652000   0.81241297   -1.7871375   -1.7871375  -0.56852088   0.22905201   -1.7871375    1.2186167   439061 
  653000   0.81369538   -1.7889293   -1.7889293  -0.56838903   0.22366983   -1.7889293    1.2205403   439061 
  654000   0.81121977   -1.7861406   -1.7861406  -0.56931374    0.2267138   -1.7861406    1.2168269   439061 
  655000   0.81337311   -1.7891279   -1.7891279  -0.56907101   0.22320055   -1.7891279    1.2200569   439061 
  656000    0.8122234   -1.7878612   -1.7878612  -0.56952888   0.22533798   -1.7878612    1.2183323   439061 
  657000   0.81165129   -1.7876932   -1.7876932    -0.570219   0.22266162   -1.7876932    1.2174742   439061 
  658000   0.81240531   -1.7884196   -1.7884196  -0.56981444   0.22029872   -1.7884196    1.2186052   439061 
  659000   0.81152041   -1.7863476   -1.7863476  -0.56906976   0.22440908   -1.7863476    1.2172778   439061 
  660000   0.81226231   -1.7881782   -1.7881782  -0.56978753    0.2235649   -1.7881782    1.2183907   439061 
  661000   0.81289989   -1.7872155   -1.7872155  -0.56786846    0.2284328   -1.7872155    1.2193471   439061 
  662000   0.81320139   -1.7887451   -1.7887451  -0.56894581   0.21953917   -1.7887451    1.2197993   439061 
  663000   0.81270853   -1.7878058   -1.7878058  -0.56874577   0.21988167   -1.7878058      1.21906   439061 
  664000   0.81274622   -1.7884949   -1.7884949  -0.56937839   0.22170476   -1.7884949    1.2191165   439061 
  665000   0.81070041   -1.7864211   -1.7864211  -0.57037323   0.22190351   -1.7864211    1.2160478   439061 
  666000   0.81170767   -1.7882126   -1.7882126  -0.57065387   0.22009299   -1.7882126    1.2175587   439061 
  667000   0.81260573    -1.788851    -1.788851  -0.56994515   0.22634634    -1.788851    1.2189058   439061 
  668000   0.81214939   -1.7885692   -1.7885692  -0.57034788   0.22227021   -1.7885692    1.2182213   439061 
  669000   0.81039862   -1.7868478   -1.7868478  -0.57125262   0.22241661   -1.7868478    1.2155952   439061 
  670000   0.81126796   -1.7892639   -1.7892639  -0.57236476   0.22187786   -1.7892639    1.2168992   439061 
  671000     0.810485   -1.7891236   -1.7891236  -0.57339887   0.22069411   -1.7891236    1.2157247   439061 
  672000   0.81068973    -1.789255    -1.789255  -0.57322316    0.2234527    -1.789255    1.2160318   439061 
  673000   0.80931871   -1.7870657   -1.7870657   -0.5730904   0.22059757   -1.7870657    1.2139753   439061 
  674000   0.80987832   -1.7893763   -1.7893763  -0.57456154   0.22262068   -1.7893763    1.2148147   439061 
[...]
 4834000   0.71399526   -1.7919661   -1.7919661  -0.72097559   0.11096377   -1.7919661    1.0709905   439061 
 4835000   0.71477263   -1.7936846   -1.7936846  -0.72152808   0.11139886   -1.7936846    1.0721565   439061 
 4836000   0.71368946   -1.7929206   -1.7929206  -0.72238884   0.11072325   -1.7929206    1.0705318   439061 
 4837000   0.71455689   -1.7935374   -1.7935374  -0.72170453   0.11157292   -1.7935374    1.0718329   439061 
 4838000    0.7137984   -1.7922285   -1.7922285  -0.72153339   0.11287046   -1.7922285    1.0706952   439061 
 4839000   0.71526633   -1.7940746   -1.7940746  -0.72117759    0.1112008   -1.7940746    1.0728971   439061 
 4840000   0.71479939   -1.7935964   -1.7935964  -0.72139978   0.11082659   -1.7935964    1.0721966   439061 
 4841000   0.71394774   -1.7923977   -1.7923977  -0.72147849   0.10965304   -1.7923977    1.0709192   439061 
 4842000   0.71337592   -1.7915825   -1.7915825  -0.72152107   0.10966927   -1.7915825    1.0700614   439061 
 4843000   0.71513062   -1.7947578   -1.7947578  -0.72206427   0.10889673   -1.7947578    1.0726935   439061 
 4844000   0.71433958   -1.7935261   -1.7935261  -0.72201921    0.1109002   -1.7935261    1.0715069   439061 
 4845000   0.71347019   -1.7927922   -1.7927922  -0.72258935   0.11006275   -1.7927922    1.0702028   439061 
 4846000   0.71368141   -1.7928901   -1.7928901  -0.72237039   0.11297931   -1.7928901    1.0705197   439061 
 4847000   0.71313561   -1.7916464   -1.7916464  -0.72194547   0.11246979   -1.7916464     1.069701   439061 
 4848000    0.7148413   -1.7948412   -1.7948412  -0.72258172   0.10910539   -1.7948412    1.0722595   439061 
 4849000   0.71458225   -1.7939798   -1.7939798  -0.72210888   0.11011815   -1.7939798    1.0718709   439061 
 4850000   0.71438066   -1.7940714   -1.7940714  -0.72250288   0.11586757   -1.7940714    1.0715686   439061 
 4851000   0.71520186   -1.7946259   -1.7946259  -0.72182556   0.11179327   -1.7946259    1.0728004   439061 
 4852000   0.71383928   -1.7933929   -1.7933929  -0.72263638   0.11144672   -1.7933929    1.0707565   439061 
 4853000    0.7146278    -1.793888    -1.793888  -0.72194876   0.11398868    -1.793888    1.0719393   439061 
 4854000   0.71419543   -1.7933273   -1.7933273  -0.72203662   0.11243385   -1.7933273    1.0712907   439061 
 4855000   0.71446667   -1.7941983   -1.7941983  -0.72250078    0.1112712   -1.7941983    1.0716976   439061 
 4856000   0.71328017    -1.791875    -1.791875  -0.72195715   0.10971344    -1.791875    1.0699178   439061 
 4857000   0.71393696   -1.7923926   -1.7923926  -0.72148958   0.11396049   -1.7923926     1.070903   439061 
 4858000   0.71503186   -1.7944457   -1.7944457  -0.72190035   0.11219166   -1.7944457    1.0725453   439061 
 4859000   0.71465495   -1.7935135   -1.7935135  -0.72153355   0.10854558   -1.7935135      1.07198   439061 
 4860000   0.71446262    -1.793695    -1.793695  -0.72200347   0.10823079    -1.793695    1.0716915   439061 
 4861000   0.71471113   -1.7939468   -1.7939468  -0.72188258   0.10962934   -1.7939468    1.0720642   439061 
 4862000   0.71468111   -1.7939047   -1.7939047  -0.72188545   0.11039297   -1.7939047    1.0720192   439061 
 4863000   0.71550372   -1.7951685   -1.7951685  -0.72191534   0.11329434   -1.7951685    1.0732531   439061 
 4864000   0.71523901   -1.7946265   -1.7946265  -0.72177046   0.11048497   -1.7946265    1.0728561   439061 
 4865000   0.71474388   -1.7942029   -1.7942029  -0.72208951    0.1116791   -1.7942029    1.0721134   439061 
 4866000   0.71441675   -1.7938438   -1.7938438  -0.72222109   0.11464901   -1.7938438    1.0716227   439061 
 4867000   0.71423105   -1.7942243   -1.7942243  -0.72288014   0.11066665   -1.7942243    1.0713441   439061 
 4868000   0.71470185   -1.7950149   -1.7950149  -0.72296456   0.11399095   -1.7950149    1.0720503   439061 
 4869000    0.7138635    -1.794116    -1.794116  -0.72332315   0.11120138    -1.794116    1.0707928   439061 
 4870000   0.71480332    -1.795738    -1.795738  -0.72353548   0.11544765    -1.795738    1.0722025   439061 
 4871000   0.71442771   -1.7946895   -1.7946895  -0.72305042   0.10975829   -1.7946895    1.0716391   439061 
 4872000    0.7148596   -1.7950635   -1.7950635  -0.72277652   0.11113917   -1.7950635     1.072287   439061 
 4873000   0.71381421   -1.7932185   -1.7932185  -0.72249958   0.10841239   -1.7932185    1.0707189   439061 
 4874000   0.71445335   -1.7955673   -1.7955673  -0.72388971   0.11061233   -1.7955673    1.0716776   439061 
 4875000   0.71503239   -1.7967724   -1.7967724  -0.72422628   0.11516659   -1.7967724    1.0725461   439061 
 4876000   0.71304296   -1.7933868   -1.7933868  -0.72382483   0.11360308   -1.7933868     1.069562   439061 
 4877000   0.71442996   -1.7944754   -1.7944754  -0.72283285   0.11255537   -1.7944754    1.0716425   439061 
 4878000   0.71619876   -1.7969383   -1.7969383  -0.72264262   0.11118835   -1.7969383    1.0742957   439061 
 4879000   0.71421715   -1.7947795   -1.7947795  -0.72345622   0.10859535   -1.7947795    1.0713233   439061 
 4880000   0.71279978   -1.7932355   -1.7932355  -0.72403829   0.11425185   -1.7932355    1.0691972   439061 
 4881000   0.71398274   -1.7939779   -1.7939779  -0.72300627   0.10963995   -1.7939779    1.0709717   439061 
 4882000   0.71364738   -1.7951675   -1.7951675  -0.72469883   0.11086672   -1.7951675    1.0704686   439061 
 4883000   0.71270263   -1.7941915   -1.7941915  -0.72514004   0.11000372   -1.7941915    1.0690515   439061 
 4884000   0.71469847   -1.7958648   -1.7958648   -0.7238195   0.11121007   -1.7958648    1.0720453   439061 
 4885000   0.71314724   -1.7928328   -1.7928328  -0.72311434    0.1093295   -1.7928328    1.0697184   439061 
 4886000   0.71430806   -1.7944082   -1.7944082  -0.72294857    0.1099233   -1.7944082    1.0714597   439061 
 4887000   0.71350742   -1.7928888   -1.7928888  -0.72263012   0.11305147   -1.7928888    1.0702587   439061 
 4888000   0.71357354   -1.7932143   -1.7932143  -0.72285643    0.1088297   -1.7932143    1.0703579   439061 
 4889000   0.71395485   -1.7930956   -1.7930956  -0.72216571    0.1118206   -1.7930956    1.0709298   439061 
 4890000   0.71464644   -1.7935463   -1.7935463  -0.72157904   0.11083523   -1.7935463    1.0719672   439061 
 4891000   0.71358407   -1.7926621   -1.7926621  -0.72228848   0.10970145   -1.7926621    1.0703737   439061 
 4892000   0.71349567    -1.793583    -1.793583  -0.72334191   0.11318676    -1.793583    1.0702411   439061 
 4893000   0.71412139   -1.7940528   -1.7940528  -0.72287321   0.10824433   -1.7940528    1.0711796   439061 
 4894000   0.71514226   -1.7947556   -1.7947556  -0.72204461   0.11211963   -1.7947556     1.072711   439061 
 4895000   0.71519913    -1.794804    -1.794804  -0.72200777   0.11252259    -1.794804    1.0727963   439061 
 4896000   0.71426437   -1.7933249   -1.7933249  -0.72193077    0.1105778   -1.7933249    1.0713941   439061 
 4897000   0.71450107   -1.7938258   -1.7938258  -0.72207666   0.11011129   -1.7938258    1.0717492   439061 
 4898000   0.71529101    -1.794124    -1.794124  -0.72118993    0.1139639    -1.794124    1.0729341   439061 
 4899000   0.71391638   -1.7923302   -1.7923302  -0.72145806    0.1078249   -1.7923302    1.0708721   439061 
 4900000   0.71527789   -1.7949347   -1.7949347  -0.72202035   0.11217929   -1.7949347    1.0729144   439061 
 4901000   0.71462779   -1.7929704   -1.7929704  -0.72103119   0.11122705   -1.7929704    1.0719392   439061 
 4902000    0.7148562   -1.7935786   -1.7935786  -0.72129676   0.11280038   -1.7935786    1.0722819   439061 
 4903000   0.71501999   -1.7928707   -1.7928707  -0.72034315   0.11552596   -1.7928707    1.0725275   439061 
 4904000   0.71439183   -1.7929537   -1.7929537   -0.7213684   0.11336473   -1.7929537    1.0715853   439061 
 4905000   0.71446224    -1.793898    -1.793898  -0.72220706   0.10761696    -1.793898    1.0716909   439061 
 4906000   0.71421679   -1.7932304   -1.7932304   -0.7219077   0.11144782   -1.7932304    1.0713227   439061 
 4907000   0.71437127   -1.7927133   -1.7927133  -0.72115885    0.1142685   -1.7927133    1.0715545   439061 
 4908000    0.7137073   -1.7919501   -1.7919501   -0.7213916   0.11180287   -1.7919501    1.0705585   439061 
 4909000   0.71437989   -1.7932113   -1.7932113  -0.72164387   0.11147419   -1.7932113    1.0715674   439061 
 4910000     0.714132   -1.7933048   -1.7933048   -0.7221092   0.10945897   -1.7933048    1.0711956   439061 
 4911000   0.71451393   -1.7940642   -1.7940642  -0.72229575   0.11098001   -1.7940642    1.0717685   439061 
 4912000   0.71412317   -1.7943489   -1.7943489  -0.72316654   0.10991928   -1.7943489    1.0711823   439061 
 4913000   0.71460535   -1.7936823   -1.7936823  -0.72177668   0.11379561   -1.7936823    1.0719056   439061 
 4914000   0.71459258   -1.7940048   -1.7940048  -0.72211839   0.11086278   -1.7940048    1.0718864   439061 
 4915000   0.71407763   -1.7933409   -1.7933409  -0.72222684   0.11084783   -1.7933409     1.071114   439061 
 4916000   0.71442539    -1.792742    -1.792742   -0.7211064   0.11201498    -1.792742    1.0716356   439061 
 4917000   0.71402377   -1.7922984   -1.7922984   -0.7212652   0.11017297   -1.7922984    1.0710332   439061 
 4918000   0.71516352   -1.7930279   -1.7930279  -0.72028505    0.1125988   -1.7930279    1.0727428   439061 
 4919000   0.71400855   -1.7927009   -1.7927009  -0.72169049   0.11358284   -1.7927009    1.0710104   439061 
 4920000   0.71376753   -1.7908745   -1.7908745   -0.7202257   0.11079144   -1.7908745    1.0706488   439061 
 4921000   0.71442867   -1.7926391   -1.7926391  -0.72099852   0.10977718   -1.7926391    1.0716406   439061 
 4922000   0.71467549   -1.7935197   -1.7935197  -0.72150894   0.11233645   -1.7935197    1.0720108   439061 
 4923000   0.71551457   -1.7946256   -1.7946256  -0.72135619   0.11294932   -1.7946256    1.0732694   439061 
 4924000   0.71527639   -1.7937846   -1.7937846  -0.72087243   0.11284554   -1.7937846    1.0729121   439061 
 4925000   0.71475957   -1.7929559   -1.7929559  -0.72081901   0.10814121   -1.7929559    1.0721369   439061 
 4926000   0.71438404   -1.7927504   -1.7927504  -0.72117679   0.11026295   -1.7927504    1.0715736   439061 
 4927000   0.71547951   -1.7930226   -1.7930226  -0.71980577   0.11131671   -1.7930226    1.0732168   439061 
 4928000   0.71480485   -1.7920864   -1.7920864  -0.71988159   0.11108116   -1.7920864    1.0722048   439061 
 4929000   0.71570851   -1.7941437   -1.7941437  -0.72058337   0.11147494   -1.7941437    1.0735603   439061 
 4930000    0.7150343   -1.7928325   -1.7928325  -0.72028347   0.10814926   -1.7928325     1.072549   439061 
 4931000   0.71479246   -1.7919657   -1.7919657  -0.71977945   0.11319354   -1.7919657    1.0721862   439061 
 4932000   0.71511174   -1.7922379   -1.7922379   -0.7195727   0.11113437   -1.7922379    1.0726652   439061 
 4933000   0.71482747   -1.7922656   -1.7922656  -0.72002682   0.10713793   -1.7922656    1.0722388   439061 
 4934000   0.71378212   -1.7906921   -1.7906921  -0.72002135    0.1129727   -1.7906921    1.0706707   439061 
 4935000    0.7151511   -1.7928187   -1.7928187  -0.72009452   0.11158747   -1.7928187    1.0727242   439061 
 4936000     0.715351   -1.7934394   -1.7934394  -0.72041532   0.10920554   -1.7934394    1.0730241   439061 
 4937000   0.71519285   -1.7928896   -1.7928896  -0.72010272   0.11344122   -1.7928896    1.0727868   439061 
 4938000   0.71441991   -1.7922208   -1.7922208   -0.7205934   0.10933829   -1.7922208    1.0716274   439061 
 4939000   0.71382606   -1.7910724   -1.7910724  -0.72033577   0.11245865   -1.7910724    1.0707367   439061 
 4940000   0.71484973    -1.792495    -1.792495  -0.72022284   0.11007102    -1.792495    1.0722722   439061 
 4941000   0.71403752   -1.7920746   -1.7920746   -0.7210208   0.11109611   -1.7920746    1.0710538   439061 
 4942000    0.7141892   -1.7918009   -1.7918009   -0.7205195   0.11552957   -1.7918009    1.0712814   439061 
 4943000    0.7133923   -1.7907114   -1.7907114  -0.72062535   0.11106739   -1.7907114     1.070086   439061 
 4944000   0.71369671   -1.7917788   -1.7917788  -0.72123614   0.11087665   -1.7917788    1.0705426   439061 
 4945000   0.71508537   -1.7933704   -1.7933704  -0.72074484   0.11177919   -1.7933704    1.0726256   439061 
 4946000   0.71334778   -1.7890727   -1.7890727  -0.71905345   0.11233635   -1.7890727    1.0700192   439061 
 4947000    0.7141961   -1.7914776   -1.7914776  -0.72018587   0.11123337   -1.7914776    1.0712917   439061 
 4948000   0.71460734   -1.7922481   -1.7922481  -0.72033951   0.11193451   -1.7922481    1.0719086   439061 
 4949000   0.71413773   -1.7922731   -1.7922731   -0.7210689   0.11298081   -1.7922731    1.0712042   439061 
 4950000   0.71424895     -1.79316     -1.79316  -0.72178905    0.1109476     -1.79316     1.071371   439061 
 4951000   0.71456431   -1.7934282   -1.7934282  -0.72158421   0.10904176   -1.7934282     1.071844   439061 
 4952000   0.71402255   -1.7917614   -1.7917614  -0.72073001   0.11308962   -1.7917614    1.0710314   439061 
 4953000   0.71449244    -1.791926    -1.791926  -0.72018975   0.11516883    -1.791926    1.0717362   439061 
 4954000   0.71540263   -1.7926395   -1.7926395  -0.71953797   0.10978401   -1.7926395    1.0731015   439061 
 4955000   0.71546732   -1.7925227   -1.7925227   -0.7193242   0.10734273   -1.7925227    1.0731985   439061 
 4956000   0.71518422   -1.7932237   -1.7932237  -0.72044977   0.10852091   -1.7932237    1.0727739   439061 
 4957000   0.71552847   -1.7925917   -1.7925917  -0.71930142   0.11245523   -1.7925917    1.0732903   439061 
 4958000   0.71540383   -1.7922132   -1.7922132  -0.71910987    0.1078172   -1.7922132    1.0731033   439061 
 4959000   0.71415927   -1.7913084   -1.7913084  -0.72007195   0.10845031   -1.7913084    1.0712365   439061 
 4960000   0.71435377   -1.7925147   -1.7925147  -0.72098643   0.10891496   -1.7925147    1.0715282   439061 
 4961000   0.71514893   -1.7934202   -1.7934202  -0.72069922   0.11065963   -1.7934202    1.0727209   439061 
 4962000    0.7141162   -1.7929612   -1.7929612  -0.72178934   0.11102129   -1.7929612    1.0711719   439061 
 4963000   0.71360777   -1.7913899   -1.7913899  -0.72098069   0.11101126   -1.7913899    1.0704092   439061 
 4964000    0.7158801   -1.7942208   -1.7942208  -0.72040309   0.10909913   -1.7942208    1.0738177   439061 
 4965000   0.71474469   -1.7932565   -1.7932565  -0.72114193   0.10994736   -1.7932565    1.0721146   439061 
 4966000   0.71424242   -1.7921246   -1.7921246  -0.72076345   0.11035912   -1.7921246    1.0713612   439061 
 4967000    0.7155975   -1.7935876   -1.7935876  -0.72019382   0.11436777   -1.7935876    1.0733938   439061 
 4968000   0.71398463   -1.7918813   -1.7918813  -0.72090679   0.11153703   -1.7918813    1.0709745   439061 
 4969000   0.71385539   -1.7924033   -1.7924033  -0.72162265   0.10958291   -1.7924033    1.0707806   439061 
 4970000   0.71463376   -1.7929265   -1.7929265  -0.72097832   0.11748318   -1.7929265    1.0719482   439061 
 4971000   0.71485233   -1.7939617   -1.7939617  -0.72168567   0.10995079   -1.7939617     1.072276   439061 
 4972000   0.71507065    -1.793679    -1.793679  -0.72107545   0.11368345    -1.793679    1.0726035   439061 
 4973000   0.71440524   -1.7933575   -1.7933575  -0.72175206   0.10649849   -1.7933575    1.0716054   439061 
 4974000   0.71530162    -1.794137    -1.794137  -0.72118706   0.10723691    -1.794137      1.07295   439061 
 4975000   0.71463312   -1.7926655   -1.7926655  -0.72071829   0.11186133   -1.7926655    1.0719472   439061 
 4976000   0.71573253   -1.7934919   -1.7934919   -0.7198956   0.10847679   -1.7934919    1.0735963   439061 
 4977000   0.71581926   -1.7929813   -1.7929813  -0.71925487   0.10916252   -1.7929813    1.0737264   439061 
 4978000   0.71469019   -1.7917952   -1.7917952  -0.71976239   0.11306112   -1.7917952    1.0720328   439061 
 4979000   0.71597057   -1.7935347   -1.7935347  -0.71958133   0.11108361   -1.7935347    1.0739534   439061 
 4980000    0.7154687   -1.7940442   -1.7940442  -0.72084362   0.11007145   -1.7940442    1.0732006   439061 
 4981000   0.71562845   -1.7929764   -1.7929764  -0.71953619   0.11450092   -1.7929764    1.0734402   439061 
 4982000    0.7149174   -1.7917886   -1.7917886  -0.71941499    0.1108653   -1.7917886    1.0723737   439061 
 4983000   0.71526311   -1.7926872   -1.7926872  -0.71979498   0.10922928   -1.7926872    1.0728922   439061 
 4984000   0.71657479   -1.7944939   -1.7944939  -0.71963414   0.11263479   -1.7944939    1.0748597   439061 
 4985000   0.71562591   -1.7931154   -1.7931154  -0.71967898   0.11639745   -1.7931154    1.0734364   439061 
 4986000   0.71587829   -1.7932483   -1.7932483  -0.71943331   0.11393109   -1.7932483     1.073815   439061 
 4987000   0.71482979    -1.792197    -1.792197  -0.71995475   0.11227055    -1.792197    1.0722422   439061 
 4988000   0.71487479   -1.7936091   -1.7936091  -0.72129932      0.11004   -1.7936091    1.0723097   439061 
 4989000   0.71449338   -1.7931931   -1.7931931  -0.72145544   0.11341075   -1.7931931    1.0717376   439061 
 4990000   0.71399704   -1.7930209   -1.7930209  -0.72202776   0.10981652   -1.7930209    1.0709931   439061 
 4991000   0.71301169   -1.7913248   -1.7913248  -0.72180969   0.11068557   -1.7913248    1.0695151   439061 
 4992000   0.71474051   -1.7946068   -1.7946068  -0.72249848   0.11284652   -1.7946068    1.0721083   439061 
 4993000   0.71366928   -1.7928206   -1.7928206  -0.72231909   0.10997765   -1.7928206    1.0705015   439061 
 4994000   0.71403716    -1.793204    -1.793204   -0.7221507   0.11182976    -1.793204    1.0710533   439061 
 4995000    0.7148605   -1.7943977   -1.7943977  -0.72210942   0.11198944   -1.7943977    1.0722883   439061 
 4996000   0.71519077   -1.7947017   -1.7947017  -0.72191795   0.10644273   -1.7947017    1.0727837   439061 
 4997000   0.71459901     -1.79449     -1.79449  -0.72259391    0.1090275     -1.79449    1.0718961   439061 
 4998000   0.71329783   -1.7927608   -1.7927608  -0.72281645   0.10958826   -1.7927608    1.0699443   439061 
 4999000   0.71301599   -1.7917721   -1.7917721  -0.72225053   0.11367079   -1.7917721    1.0695216   439061 
 5000000   0.71360937   -1.7922079   -1.7922079  -0.72179628   0.11020634   -1.7922079    1.0704116   439061 
Loop time of 5408.92 on 192 procs for 5000000 steps with 439061 atoms

Performance: 399340.056 tau/day, 924.398 timesteps/s
88.1% CPU use with 192 MPI tasks x 1 OpenMP threads

MPI task timing breakdown:
Section |  min time  |  avg time  |  max time  |%varavg|  %CPU | %total
-----------------------------------------------------------------------
Pair    | 1540.8     | 2065.6     | 2507.3     | 641.7 |  90.6 | 38.19
Bond    | 3.2122     | 3.3382     | 3.5155     |   3.2 | 100.0 |  0.06
Neigh   | 927.39     | 1051.4     | 1121.6     | 153.5 |  97.1 | 19.44
Comm    | 824        | 1616.7     | 2196.3     | 924.5 |  84.1 | 29.89
Output  | 278.8      | 279.2      | 279.22     |   0.2 |  67.7 |  5.16
Modify  | 135.12     | 215.71     | 629.33     |1085.9 |  86.3 |  3.99
Other   |            | 176.9      |            |       |       |  3.27

Nlocal:        2286.78 ave        2453 max        2082 min
Histogram: 1 3 5 20 44 47 39 23 9 1
Nghost:        2405.02 ave        2738 max        1877 min
Histogram: 12 11 20 4 4 12 33 35 49 12
Neighs:        29503.2 ave       37113 max       19902 min
Histogram: 1 9 12 20 26 37 37 30 16 4

Total # of neighbors = 5664612
Ave neighs/atom = 12.901651
Ave special neighs/atom = 0.0000000
Neighbor list builds = 500000
Dangerous builds = 495000
write_data	data.lj
System init for write_data ...


## Evaporation
#region          regevap block EDGE EDGE EDGE EDGE 140 EDGE units box
#fix             4 solvent evaporate ${evap} 1 regevap 156415

#run 		20000000
Total wall time: 1:30:12
