LAMMPS (29 Oct 2020)
  using 1 OpenMP thread(s) per MPI task
#Read the equilibrated lj fluid and add nanocubes

units           lj
atom_style      full
atom_modify     map array first cubes
dimension       3
boundary        p p f
pair_style      lj/cut/opt 2.5

variable        sigma           equal 1.0
variable        epsilon         equal 1.0
read_restart	restart.dat.10000000
Reading restart file ...
  restart file = 24 Dec 2020, LAMMPS = 29 Oct 2020
WARNING: Restart file used different # of processors: 192 vs. 64 (src/read_restart.cpp:697)
  restoring atom style full from restart
  orthogonal box = (0.0000000 0.0000000 0.0000000) to (80.000000 80.000000 160.00000)
  2 by 4 by 8 MPI processor grid
  restoring pair style lj/cut/opt from restart
  443961 atoms
Finding 1-2 1-3 1-4 neighbors ...
  special bond factors lj:    0.0      0.0      0.0     
  special bond factors coul:  0.0      0.0      0.0     
     0 = max # of 1-2 neighbors
     0 = max # of 1-3 neighbors
     0 = max # of 1-4 neighbors
     1 = max # of special neighbors
  special bonds CPU = 1.359 seconds
  read_restart CPU = 1.819 seconds

group		solvent type 1
443961 atoms in group solvent

read_data	data_150.cubes group cubes add append
Reading data file ...
  orthogonal box = (0.0000000 0.0000000 0.0000000) to (80.000000 80.000000 160.00000)
  2 by 4 by 8 MPI processor grid
  reading atoms ...
  200025 atoms
  reading velocities ...
  200025 velocities
Finding 1-2 1-3 1-4 neighbors ...
  special bond factors lj:    0.0      0.0      0.0     
  special bond factors coul:  0.0      0.0      0.0     
     0 = max # of 1-2 neighbors
     0 = max # of 1-3 neighbors
     0 = max # of 1-4 neighbors
     1 = max # of special neighbors
  special bonds CPU = 0.020 seconds
  read_data CPU = 0.614 seconds

group 		hull  type 2
78050 atoms in group hull
group 		dummy type 3
121975 atoms in group dummy

neighbor      0.4 bin
neigh_modify  exclude molecule/intra cubes


pair_modify   shift yes

pair_coeff    1 1 1.0 1.0 #solvent
pair_coeff    2 2 1.0 1.0 1.12 #np
pair_coeff    3 3 0.0 0.0 0.0 #dummy
pair_coeff    2 3 0.0 0.0 0.0 #np dummy
pair_coeff    1 2 ${sol} 1.0  #np solvent
pair_coeff    1 2 .90 1.0  
pair_coeff    1 3 0.0 0.0 2.5 #dummy solvent

# delete solvent where the cubes are
delete_atoms  overlap 1.0 solvent cubes
System init for delete_atoms ...
Unused restart file peratom fix info:
  fix style: STORE, fix ID: bin1_COMPUTE_STORE
Neighbor list info ...
  update every 1 steps, delay 10 steps, check yes
  max neighbors/atom: 2000, page size: 100000
  master list distance cutoff = 2.9
  ghost atom cutoff = 2.9
  binsize = 1.45, bins = 56 56 111
  2 neighbor lists, perpetual/occasional/extra = 1 1 0
  (1) command delete_atoms, occasional
      attributes: full, newton on
      pair build: full/bin
      stencil: full/bin/3d
      bin: standard
  (2) pair lj/cut/opt, perpetual
      attributes: half, newton on
      pair build: half/bin/newton
      stencil: half/bin/3d/newton
      bin: standard
WARNING: Delete_atoms cutoff > minimum neighbor cutoff (src/delete_atoms.cpp:307)
WARNING: Ignoring 'compress yes' for molecular system (src/delete_atoms.cpp:125)
Deleted 136630 atoms, new total = 507356

pair_coeff    1 1 1.0 1.0 #solvent
pair_coeff    2 2 1.0 1.0 1.12 #np
pair_coeff    3 3 0.0 0.0 0.0 #dummy
pair_coeff    2 3 0.0 0.0 0.0 #np dummy
pair_coeff    1 2 ${sol} 1.0  #np solvent
pair_coeff    1 2 .90 1.0  
pair_coeff    1 3 0.0 0.0 0.0 #dummy solvent


comm_modify   mode multi cutoff/multi 1 2.5 cutoff/multi 2 2.5 cutoff/multi 3 6.95

reset_timestep 	0

balance 	1.05 shift z 10 1.05
Balancing ...
Neighbor list info ...
  update every 1 steps, delay 10 steps, check yes
  max neighbors/atom: 2000, page size: 100000
  master list distance cutoff = 2.9
  ghost atom cutoff = 6.95
  binsize = 1.45, bins = 56 56 111
  1 neighbor lists, perpetual/occasional/extra = 1 0 0
  (1) pair lj/cut/opt, perpetual
      attributes: half, newton on
      pair build: half/bin/newton
      stencil: half/bin/3d/newton
      bin: standard
 rebalancing time: 0.011 seconds
  iteration count = 4
  initial/final maximal load/proc = 10949.000 8784.0000
  initial/final imbalance factor  = 1.3811525 1.1080504
  x cuts: 0.0000000 0.5 1.0000000
  y cuts: 0.0000000 0.25 0.5 0.75 1.0000000
  z cuts: 0.0000000 0.1015625 0.1953125 0.2890625 0.3828125 0.484375 0.578125 0.671875 1.0000000

####################### WALLS ###########################

variable       epsilonWall equal 2*${epsilon}
variable       epsilonWall equal 2*1
variable       repulsive   equal   0.7147*${sigma}
variable       repulsive   equal   0.7147*1
variable       full	   equal   3*${sigma}
variable       full	   equal   3*1
region         lowWall block EDGE EDGE EDGE EDGE EDGE 2

fix            topWall all wall/lj93 zhi EDGE 	       ${epsilonWall} ${sigma} ${repulsive} units box
fix            topWall all wall/lj93 zhi EDGE 	       2 ${sigma} ${repulsive} units box
fix            topWall all wall/lj93 zhi EDGE 	       2 1 ${repulsive} units box
fix            topWall all wall/lj93 zhi EDGE 	       2 1 0.7147 units box
fix            lowSol solvent wall/lj93 zlo EDGE                ${epsilonWall} ${sigma} ${full} units box
fix            lowSol solvent wall/lj93 zlo EDGE                2 ${sigma} ${full} units box
fix            lowSol solvent wall/lj93 zlo EDGE                2 1 ${full} units box
fix            lowSol solvent wall/lj93 zlo EDGE                2 1 3 units box
fix 	       lowCub cubes wall/lj93 zlo EDGE                ${epsilonWall} ${sigma} ${repulsive} units box
fix 	       lowCub cubes wall/lj93 zlo EDGE                2 ${sigma} ${repulsive} units box
fix 	       lowCub cubes wall/lj93 zlo EDGE                2 1 ${repulsive} units box
fix 	       lowCub cubes wall/lj93 zlo EDGE                2 1 0.7147 units box


###################### COMPUTES ##########################

compute        bin1 solvent chunk/atom bin/1d z lower 1.0 units box
compute        bin3 solvent chunk/atom bin/3d x lower 1.0 y lower 1.0 z lower 1.0 units box

compute 	pe solvent 	   pe/atom
compute 	pe2 all 	   pe/atom

######################  FIXES ############################


fix             peclet solvent ave/chunk 10 10 10000 bin1 density/number norm                  none ave one file density.profile

fix              temp solvent ave/chunk 10 10 10000 bin1 temp norm                  none ave one file temp.profile

fix 		 dens solvent ave/chunk 10 10 500000 bin3 density/number norm 		 none ave one file dens3.profile

fix		 temp2 solvent ave/chunk 10 10 500000 bin3 temp norm none ave one file temp3.profile

fix 		pe solvent ave/chunk 1 1 500000 bin3 c_pe norm none ave one file pe3.profile

fix             1 cubes rigid/nve/small molecule
  create bodies CPU = 0.016 seconds
  175 rigid bodies with 200025 atoms
  6.9282032 = max distance from body owner to body atom

fix             2 solvent nve# temp ${temp} ${temp} 10


## Thermostat
region          regthermo block EDGE EDGE EDGE EDGE 0 15
group           thermo dynamic solvent region regthermo every 1000
dynamic group thermo defined
fix             3 thermo langevin ${temp} ${temp} 10 156453
fix             3 thermo langevin 1.0 ${temp} 10 156453
fix             3 thermo langevin 1.0 1.0 10 156453


#### Load balancing

fix             bal all balance 1000 1.05 shift z 10 1.05

############### Diagnostics and computes ###################

compute        	com cubes          rigid/local   1 mol x y z
compute        	quat cubes         rigid/local   1 mol quatw quati quatj quatk

compute 	cc2 cubes 	   chunk/atom 	 molecule
compute 	msd cubes 	   msd/chunk 	 cc2

fix 		msd all ave/time  1 1 10000 c_msd[*] file dump.msd ave one mode vector

dump            1 all custom 500000 dump.lammpstrj id mol type x y z vx vy vz c_pe2
dump		sol  solvent custom 500000 dump.soltrj id x y z vx vy vz c_pe
dump		cubetrj cubes custom 500000 cubes.lammpstrj id mol type x y z vx vy vz
dump            com cubes local 100000 dump.*.xyz c_com[*]
dump	        xyz hull xyz 100000 cubes.xyz
dump            quat cubes      local 100000 dump.*.quat c_quat[*]
dump		order cubes 	local 100000 dump.*.order c_com[*] c_quat[*]
#dump		mol cubes molfile 10000 mol.xyz xyz


dump            2 all image 100000 image.*.png type type zoom 1.5 size 1280 720
dump_modify     2 pad 8
dump		image cubes image 100000 image_cubes.*.png type type zoom 1.5 size 1280 720
dump_modify	image pad 8
dump            3 all movie 5000 movie.avi type type zoom 1.5 size 1280 720
dump		4 cubes movie 5000 movie_cubes.avi type type size 1280 720


thermo          1000
thermo_style    custom step temp epair evdwl etotal press pe ke atoms

restart         1000000 restart.dat
timestep        0.005
timer           full
New timer settings: style=full  mode=nosync  timeout=off

run 		10000000
Per MPI rank memory allocation (min/avg/max) = 91.64 | 101.1 | 102.9 Mbytes
Step Temp E_pair E_vdwl TotEng Press PotEng KinEng Atoms 
       0    1.0154049   -1.9161109   -1.9161109  -0.99244065   -0.1444908   -1.9161109   0.92367027   507356 
    1000    1.0408292   -1.9423105   -1.9423105  -0.99551286  0.071027919   -1.9423105   0.94679768   507356 
    2000    1.0465277   -1.9486058   -1.9486058  -0.99662441  0.066820377   -1.9486058   0.95198137   507356 
    3000    1.0459681   -1.9504793   -1.9504793  -0.99900699  0.060248758   -1.9504793   0.95147232   507356 
    4000    1.0459768   -1.9528613   -1.9528613   -1.0013811  0.062535331   -1.9528613   0.95148021   507356 
    5000    1.0451453   -1.9534261   -1.9534261   -1.0027023  0.070094489   -1.9534261   0.95072386   507356 
    6000    1.0425237   -1.9535248   -1.9535248   -1.0051857  0.070310694   -1.9535248   0.94833907   507356 
    7000    1.0417974   -1.9557217   -1.9557217   -1.0080433  0.060576231   -1.9557217   0.94767843   507356 
    8000    1.0425792   -1.9580929   -1.9580929   -1.0097034  0.059558486   -1.9580929   0.94838955   507356 
    9000    1.0400506    -1.957043    -1.957043   -1.0109536  0.062313485    -1.957043   0.94608944   507356 
   10000    1.0402246   -1.9587855   -1.9587855   -1.0125378  0.067551303   -1.9587855   0.94624769   507356 
   11000     1.038674   -1.9589966   -1.9589966   -1.0141595  0.061832661   -1.9589966   0.94483716   507356 
   12000    1.0400666   -1.9622874   -1.9622874   -1.0161835  0.066994591   -1.9622874   0.94610399   507356 
   13000    1.0398821   -1.9634322   -1.9634322   -1.0174961   0.06732559   -1.9634322   0.94593614   507356 
   14000    1.0382001   -1.9627385   -1.9627385   -1.0183324  0.061975075   -1.9627385   0.94440607   507356 
   15000    1.0399992   -1.9655471   -1.9655471   -1.0195044  0.067603546   -1.9655471   0.94604272   507356 
   16000    1.0406814   -1.9668923   -1.9668923   -1.0202291  0.072742516   -1.9668923   0.94666325   507356 
   17000    1.0420174   -1.9683245   -1.9683245    -1.020446  0.073462069   -1.9683245   0.94787853   507356 
   18000     1.039828    -1.967149    -1.967149    -1.021262  0.072498341    -1.967149   0.94588699   507356 
   19000    1.0420702   -1.9706073   -1.9706073   -1.0226807  0.056962978   -1.9706073   0.94792661   507356 
   20000    1.0415489   -1.9699591   -1.9699591   -1.0225067   0.07167357   -1.9699591   0.94745234   507356 
   21000    1.0404121   -1.9690856   -1.9690856   -1.0226674  0.073567191   -1.9690856   0.94641827   507356 
   22000    1.0407761   -1.9704756   -1.9704756   -1.0237261  0.074923961   -1.9704756   0.94674943   507356 
   23000    1.0429846   -1.9735292   -1.9735292   -1.0247708   0.07621461   -1.9735292   0.94875842   507356 
   24000    1.0427513   -1.9744261   -1.9744261   -1.0258799  0.066559104   -1.9744261   0.94854613   507356 
   25000    1.0415097   -1.9742294   -1.9742294   -1.0268127  0.071488149   -1.9742294   0.94741671   507356 
   26000    1.0432675   -1.9768947   -1.9768947    -1.027879  0.063469174   -1.9768947   0.94901568   507356 
   27000    1.0422192   -1.9764558   -1.9764558   -1.0283936  0.069748459   -1.9764558   0.94806214   507356 
   28000    1.0418624   -1.9770429   -1.9770429   -1.0293054  0.074228554   -1.9770429   0.94773756   507356 
   29000    1.0422941    -1.978332    -1.978332   -1.0302018  0.070307532    -1.978332   0.94813022   507356 
   30000    1.0415069    -1.979331    -1.979331   -1.0319168  0.063368613    -1.979331   0.94741421   507356 
   31000    1.0433395   -1.9817032   -1.9817032    -1.032622  0.084150452   -1.9817032   0.94908123   507356 
   32000     1.042444   -1.9818603   -1.9818603   -1.0335936   0.07445453   -1.9818603   0.94826665   507356 
   33000    1.0428499   -1.9823152   -1.9823152   -1.0336794  0.072650887   -1.9823152   0.94863581   507356 
   34000    1.0418445   -1.9823817   -1.9823817   -1.0346604  0.077571385   -1.9823817   0.94772129   507356 
   35000    1.0403559   -1.9810286   -1.9810286   -1.0346615  0.073761534   -1.9810286   0.94636714   507356 
   36000    1.0399334    -1.981075    -1.981075   -1.0350922  0.081407628    -1.981075    0.9459828   507356 
   37000    1.0408734   -1.9820586   -1.9820586   -1.0352207  0.070366791   -1.9820586   0.94683788   507356 
   38000    1.0394128   -1.9812201   -1.9812201   -1.0357108  0.074873458   -1.9812201   0.94550928   507356 
   39000    1.0404939   -1.9830556   -1.9830556    -1.036563   0.06756624   -1.9830556   0.94649267   507356 
   40000    1.0407239   -1.9832979   -1.9832979    -1.036596  0.072423656   -1.9832979    0.9467019   507356 
   41000    1.0397267   -1.9837073   -1.9837073   -1.0379125  0.062103813   -1.9837073   0.94579477   507356 
   42000    1.0373552    -1.981776    -1.981776   -1.0381385   0.08020246    -1.981776   0.94363751   507356 
   43000    1.0378917   -1.9829487   -1.9829487   -1.0388231  0.078337539   -1.9829487   0.94412558   507356 
   44000    1.0379057   -1.9824354   -1.9824354   -1.0382971  0.067295829   -1.9824354   0.94413827   507356 
   45000    1.0375292   -1.9830815   -1.9830815   -1.0392857  0.076026645   -1.9830815   0.94379582   507356 
   46000    1.0377943   -1.9834357   -1.9834357   -1.0393987  0.079066816   -1.9834357   0.94403696   507356 
   47000     1.037302   -1.9829741   -1.9829741    -1.039385  0.072837764   -1.9829741   0.94358918   507356 
   48000    1.0372889   -1.9832139   -1.9832139   -1.0396366  0.062507822   -1.9832139   0.94357723   507356 
   49000    1.0359442      -1.9827      -1.9827    -1.040346  0.074308105      -1.9827   0.94235399   507356 
   50000    1.0381156   -1.9841545   -1.9841545   -1.0398252  0.075662375   -1.9841545   0.94432928   507356 
   51000    1.0358222   -1.9818009   -1.9818009   -1.0395578  0.064551434   -1.9818009   0.94224307   507356 
   52000    1.0379928   -1.9835497   -1.9835497   -1.0393322  0.082090312   -1.9835497   0.94421755   507356 
   53000    1.0369012   -1.9833902   -1.9833902   -1.0401656  0.069207192   -1.9833902   0.94322457   507356 
   54000    1.0375481   -1.9837754   -1.9837754   -1.0399624  0.067041525   -1.9837754   0.94381298   507356 
   55000    1.0362607   -1.9829337   -1.9829337   -1.0402918  0.075499308   -1.9829337   0.94264192   507356 
   56000    1.0387525   -1.9849335   -1.9849335   -1.0400249  0.071760483   -1.9849335   0.94490861   507356 
   57000    1.0384104   -1.9855653   -1.9855653   -1.0409678     0.076385   -1.9855653   0.94459746   507356 
   58000    1.0377029   -1.9858992   -1.9858992   -1.0419454  0.069046272   -1.9858992   0.94395381   507356 
   59000    1.0370684   -1.9859785   -1.9859785   -1.0426018  0.068889091   -1.9859785   0.94337663   507356 
   60000    1.0386619   -1.9869823   -1.9869823    -1.042156  0.070317075   -1.9869823   0.94482623   507356 
   61000    1.0378392   -1.9863753   -1.9863753   -1.0422975  0.076052135   -1.9863753   0.94407784   507356 
   62000    1.0377041   -1.9865804   -1.9865804   -1.0426254  0.076626297   -1.9865804   0.94395496   507356 
   63000    1.0380361   -1.9862086   -1.9862086   -1.0419517   0.07858244   -1.9862086   0.94425695   507356 
   64000    1.0406547   -1.9892738   -1.9892738   -1.0426348  0.069977389   -1.9892738   0.94663898   507356 
   65000     1.038324   -1.9893693   -1.9893693   -1.0448505  0.071412614   -1.9893693   0.94451884   507356 
   66000    1.0397077   -1.9903278   -1.9903278   -1.0445503  0.067739459   -1.9903278   0.94577748   507356 
   67000    1.0367032   -1.9875022   -1.9875022   -1.0444578  0.072977412   -1.9875022   0.94304442   507356 
   68000    1.0404283   -1.9909397   -1.9909397   -1.0445067  0.072637152   -1.9909397   0.94643298   507356 
   69000    1.0406864   -1.9915815   -1.9915815   -1.0449137  0.073849844   -1.9915815   0.94666778   507356 
   70000    1.0373841   -1.9888341   -1.9888341   -1.0451702  0.082930708   -1.9888341   0.94366387   507356 
   71000     1.039254   -1.9913951   -1.9913951   -1.0460303  0.072158093   -1.9913951   0.94536477   507356 
   72000    1.0386301   -1.9913512   -1.9913512   -1.0465539  0.074662503   -1.9913512   0.94479731   507356 
   73000    1.0376117   -1.9907754   -1.9907754   -1.0469045  0.077545001   -1.9907754   0.94387088   507356 
   74000    1.0367404   -1.9900067   -1.9900067   -1.0469284  0.064435501   -1.9900067   0.94307825   507356 
   75000     1.037807   -1.9916239   -1.9916239   -1.0475754  0.076687709   -1.9916239   0.94404849   507356 
   76000    1.0378785   -1.9920096   -1.9920096    -1.047896  0.073164672   -1.9920096   0.94411353   507356 
   77000    1.0370081   -1.9907778   -1.9907778   -1.0474559   0.08156456   -1.9907778   0.94332182   507356 
   78000     1.036783   -1.9920423   -1.9920423   -1.0489253  0.072571112   -1.9920423   0.94311707   507356 
   79000    1.0383153   -1.9948819   -1.9948819    -1.050371  0.080364586   -1.9948819   0.94451091   507356 
   80000    1.0371784   -1.9941148   -1.9941148   -1.0506381  0.075929111   -1.9941148   0.94347672   507356 
   81000    1.0368997   -1.9948814   -1.9948814   -1.0516583  0.071979772   -1.9948814   0.94322316   507356 
   82000    1.0346244   -1.9933129   -1.9933129   -1.0521595   0.06757066   -1.9933129   0.94115345   507356 
   83000    1.0358392   -1.9936984   -1.9936984   -1.0514399  0.072067233   -1.9936984    0.9422585   507356 
   84000    1.0371359   -1.9942585   -1.9942585   -1.0508205  0.070781995   -1.9942585   0.94343805   507356 
   85000    1.0362779   -1.9929785   -1.9929785    -1.050321  0.077568665   -1.9929785   0.94265759   507356 
   86000     1.035868   -1.9923431   -1.9923431   -1.0500584  0.065645508   -1.9923431   0.94228474   507356 
   87000    1.0362678   -1.9932432   -1.9932432   -1.0505947  0.072589522   -1.9932432   0.94264843   507356 
   88000    1.0367771   -1.9945233   -1.9945233   -1.0514116  0.073968208   -1.9945233   0.94311166   507356 
   89000    1.0344746   -1.9924633   -1.9924633   -1.0514461  0.072336199   -1.9924633    0.9410172   507356 
   90000    1.0347837   -1.9934112   -1.9934112   -1.0521128  0.076855374   -1.9934112    0.9412984   507356 
   91000    1.0356146   -1.9939451   -1.9939451   -1.0518909  0.076293135   -1.9939451   0.94205416   507356 
   92000    1.0379955   -1.9950442   -1.9950442   -1.0508243  0.072384683   -1.9950442   0.94421996   507356 
   93000    1.0356715   -1.9942143   -1.9942143   -1.0521084  0.068913857   -1.9942143   0.94210596   507356 
   94000    1.0358651   -1.9948412   -1.9948412   -1.0525591  0.071487883   -1.9948412   0.94228208   507356 
   95000     1.034918   -1.9937201   -1.9937201   -1.0522995  0.076486466   -1.9937201   0.94142054   507356 
   96000     1.037241   -1.9956293   -1.9956293   -1.0520956   0.08321329   -1.9956293   0.94353365   507356 
   97000    1.0391344   -1.9969082   -1.9969082   -1.0516522  0.076949748   -1.9969082     0.945256   507356 
   98000    1.0350265   -1.9951376   -1.9951376   -1.0536184  0.071976112   -1.9951376   0.94151921   507356 
   99000    1.0346943   -1.9942446   -1.9942446   -1.0530275  0.072878802   -1.9942446   0.94121707   507356 
  100000    1.0349392   -1.9957896   -1.9957896   -1.0543498   0.06850241   -1.9957896   0.94143985   507356 
  101000    1.0346871   -1.9949627   -1.9949627   -1.0537523  0.065104163   -1.9949627   0.94121046   507356 
  102000    1.0359741   -1.9965954   -1.9965954   -1.0542142  0.085901896   -1.9965954   0.94238118   507356 
  103000    1.0358181   -1.9979886   -1.9979886   -1.0557493   0.06684631   -1.9979886   0.94223932   507356 
  104000     1.035699   -1.9974885   -1.9974885   -1.0553575  0.067741208   -1.9974885   0.94213097   507356 
  105000     1.035905   -1.9984831   -1.9984831   -1.0561648  0.079608765   -1.9984831   0.94231832   507356 
  106000    1.0342071   -1.9976331   -1.9976331   -1.0568593  0.083262306   -1.9976331   0.94077383   507356 
  107000     1.035806   -1.9983734   -1.9983734   -1.0561451  0.071356409   -1.9983734   0.94222827   507356 
  108000    1.0369751   -1.9990242   -1.9990242   -1.0557324  0.072123125   -1.9990242   0.94329177   507356 
  109000     1.038166   -2.0003353   -2.0003353   -1.0559602  0.074837616   -2.0003353   0.94437514   507356 
  110000    1.0391856   -2.0017548   -2.0017548   -1.0564523  0.076955929   -2.0017548   0.94530254   507356 
  111000     1.038094   -2.0007236   -2.0007236   -1.0564139  0.072403084   -2.0007236   0.94430963   507356 
  112000    1.0348541   -1.9985264   -1.9985264   -1.0571639  0.071980591   -1.9985264   0.94136243   507356 
  113000    1.0346989   -1.9981662   -1.9981662   -1.0569449  0.073019373   -1.9981662   0.94122127   507356 
  114000    1.0355135   -1.9981451   -1.9981451   -1.0561829  0.082777065   -1.9981451   0.94196219   507356 
  115000    1.0381037   -1.9999245   -1.9999245   -1.0556061  0.076995823   -1.9999245    0.9443184   507356 
  116000    1.0351554   -1.9986713   -1.9986713   -1.0570348  0.067018964   -1.9986713   0.94163646   507356 
  117000     1.036645   -2.0004912   -2.0004912   -1.0574996  0.069144755   -2.0004912   0.94299154   507356 
  118000    1.0361428     -2.00112     -2.00112   -1.0585853  0.070334546     -2.00112    0.9425347   507356 
  119000     1.035095   -2.0011003   -2.0011003   -1.0595188  0.079321872   -2.0011003   0.94158153   507356 
  120000     1.035116   -2.0010645   -2.0010645   -1.0594639  0.069820307   -2.0010645   0.94160062   507356 
  121000     1.035695   -2.0009831   -2.0009831   -1.0588558  0.078684212   -2.0009831   0.94212736   507356 
  122000    1.0351729   -2.0003607   -2.0003607   -1.0587083  0.076756908   -2.0003607    0.9416524   507356 
  123000    1.0331891   -1.9992412   -1.9992412   -1.0593934  0.079987917   -1.9992412   0.93984783   507356 
  124000    1.0332843   -2.0001868   -2.0001868   -1.0602524  0.072601495   -2.0001868    0.9399344   507356 
  125000     1.035337   -2.0024043   -2.0024043   -1.0606025   0.06303429   -2.0024043   0.94180172   507356 
  126000    1.0346738   -2.0003555   -2.0003555   -1.0591572  0.073498301   -2.0003555   0.94119837   507356 
  127000    1.0350344   -2.0017389   -2.0017389   -1.0602125   0.06934492   -2.0017389   0.94152644   507356 
  128000    1.0337354   -2.0016304   -2.0016304   -1.0612857  0.066034396   -2.0016304   0.94034478   507356 
  129000    1.0349157   -2.0026617   -2.0026617   -1.0612433  0.076448389   -2.0026617   0.94141841   507356 
  130000    1.0363065   -2.0045375   -2.0045375   -1.0618539  0.069697841   -2.0045375   0.94268363   507356 
  131000    1.0315153   -2.0006531   -2.0006531   -1.0623279   0.07343603   -2.0006531    0.9383252   507356 
  132000     1.034196   -2.0033498   -2.0033498    -1.062586  0.069545391   -2.0033498    0.9407638   507356 
  133000    1.0333461   -2.0018136   -2.0018136   -1.0618229  0.074535947   -2.0018136   0.93999066   507356 
  134000    1.0337755   -2.0021393   -2.0021393    -1.061758  0.069930798   -2.0021393   0.94038127   507356 
  135000     1.033944   -2.0034283   -2.0034283   -1.0628938  0.069263715   -2.0034283   0.94053456   507356 
  136000    1.0332863   -2.0038333   -2.0038333   -1.0638971  0.070952627   -2.0038333   0.93993626   507356 
  137000    1.0330519   -2.0035145   -2.0035145   -1.0637915  0.083967847   -2.0035145   0.93972301   507356 
  138000    1.0335875   -2.0038652   -2.0038652    -1.063655  0.068833565   -2.0038652   0.94021021   507356 
  139000    1.0341262   -2.0041564   -2.0041564   -1.0634561  0.069241134   -2.0041564    0.9407003   507356 
  140000    1.0346454   -2.0045528   -2.0045528   -1.0633803   0.07903118   -2.0045528   0.94117252   507356 
  141000    1.0341134   -2.0044126   -2.0044126    -1.063724  0.083928097   -2.0044126    0.9406886   507356 
  142000    1.0353236   -2.0048147   -2.0048147   -1.0630253  0.067699483   -2.0048147   0.94178949   507356 
  143000    1.0356163   -2.0053705   -2.0053705   -1.0633148  0.063820946   -2.0053705   0.94205571   507356 
  144000    1.0339516   -2.0036414   -2.0036414      -1.0631  0.077551132   -2.0036414   0.94054141   507356 
  145000    1.0347978   -2.0040024   -2.0040024   -1.0626912  0.079798589   -2.0040024   0.94131119   507356 
  146000    1.0358046   -2.0053206   -2.0053206   -1.0630935  0.069531487   -2.0053206   0.94222705   507356 
  147000    1.0345659   -2.0042711   -2.0042711   -1.0631709  0.076467786   -2.0042711   0.94110022   507356 
  148000    1.0348896   -2.0044309   -2.0044309   -1.0630362  0.077551147   -2.0044309   0.94139473   507356 
  149000    1.0325507   -2.0036984   -2.0036984   -1.0644313  0.070741147   -2.0036984   0.93926712   507356 
  150000    1.0330842   -2.0045609   -2.0045609   -1.0648086  0.068221589   -2.0045609   0.93975236   507356 
  151000    1.0339091   -2.0050173   -2.0050173   -1.0645145  0.073170123   -2.0050173   0.94050281   507356 
  152000    1.0345219   -2.0053434   -2.0053434   -1.0642832  0.059130424   -2.0053434   0.94106019   507356 
  153000    1.0327464   -2.0036648   -2.0036648   -1.0642197  0.079936269   -2.0036648    0.9394451   507356 
  154000    1.0339894   -2.0050666   -2.0050666   -1.0644907  0.067912427   -2.0050666   0.94057582   507356 
  155000    1.0328681   -2.0041515   -2.0041515   -1.0645957  0.077703727   -2.0041515   0.93955579   507356 
  156000    1.0311955   -2.0030951   -2.0030951   -1.0650608  0.069272105   -2.0030951   0.93803431   507356 
  157000    1.0313958   -2.0033997   -2.0033997   -1.0651831  0.067472909   -2.0033997   0.93821655   507356 
  158000    1.0317347   -2.0034756   -2.0034756   -1.0649508  0.067333386   -2.0034756   0.93852478   507356 
  159000    1.0340278   -2.0057448   -2.0057448    -1.065134  0.069538164   -2.0057448   0.94061075   507356 
  160000    1.0342158   -2.0058857   -2.0058857   -1.0651039  0.069779601   -2.0058857   0.94078177   507356 
  161000    1.0318356   -2.0037605   -2.0037605   -1.0651439  0.072747666   -2.0037605    0.9386166   507356 
  162000    1.0326167   -2.0051762   -2.0051762    -1.065849  0.075985898   -2.0051762   0.93932714   507356 
  163000    1.0340568   -2.0062391   -2.0062391   -1.0656019  0.064491799   -2.0062391   0.94063715   507356 
  164000    1.0327517   -2.0048025   -2.0048025   -1.0653526  0.074124621   -2.0048025   0.93944997   507356 
  165000    1.0338364   -2.0066336   -2.0066336    -1.066197  0.080263669   -2.0066336   0.94043665   507356 
  166000    1.0331598   -2.0063094   -2.0063094   -1.0664882  0.076320671   -2.0063094   0.93982116   507356 
  167000     1.033661   -2.0063287   -2.0063287   -1.0660517  0.079872742   -2.0063287   0.94027705   507356 
  168000    1.0343421   -2.0078875   -2.0078875   -1.0669908   0.07644151   -2.0078875   0.94089668   507356 
  169000    1.0349281   -2.0091002   -2.0091002   -1.0676705  0.063854374   -2.0091002   0.94142969   507356 
  170000    1.0325472   -2.0078224   -2.0078224   -1.0685585  0.074353753   -2.0078224   0.93926396   507356 
  171000    1.0322976    -2.006876    -2.006876   -1.0678391  0.073580028    -2.006876   0.93903685   507356 
  172000    1.0325607   -2.0079463   -2.0079463   -1.0686701  0.074868671   -2.0079463    0.9392762   507356 
  173000    1.0317641   -2.0084744   -2.0084744   -1.0699228  0.071199361   -2.0084744   0.93855156   507356 
  174000    1.0329725   -2.0096111   -2.0096111   -1.0699603  0.079542583   -2.0096111   0.93965077   507356 
  175000    1.0339307   -2.0104962   -2.0104962   -1.0699738  0.082557788   -2.0104962    0.9405224   507356 
  176000    1.0312546   -2.0079804   -2.0079804   -1.0698923  0.081823443   -2.0079804   0.93808809   507356 
  177000    1.0345206   -2.0100019   -2.0100019   -1.0689429  0.074505736   -2.0100019   0.94105901   507356 
  178000    1.0354044   -2.0120506   -2.0120506   -1.0701876   0.07689612   -2.0120506   0.94186295   507356 
  179000    1.0353118   -2.0108525   -2.0108525   -1.0690738  0.074886924   -2.0108525   0.94177871   507356 
  180000    1.0364602   -2.0130078   -2.0130078   -1.0701844  0.075538562   -2.0130078   0.94282343   507356 
  181000    1.0340831   -2.0111449   -2.0111449   -1.0704839  0.078316847   -2.0111449   0.94066104   507356 
  182000    1.0332436   -2.0104022   -2.0104022   -1.0705048  0.078166932   -2.0104022    0.9398974   507356 
  183000    1.0325975   -2.0085553   -2.0085553   -1.0692456  0.076011696   -2.0085553   0.93930971   507356 
  184000    1.0332221   -2.0108488   -2.0108488   -1.0709709  0.079323613   -2.0108488   0.93987784   507356 
  185000    1.0312992   -2.0093373   -2.0093373   -1.0712086  0.068922207   -2.0093373   0.93812864   507356 
  186000    1.0306208   -2.0096164   -2.0096164   -1.0721048  0.074787054   -2.0096164   0.93751155   507356 
  187000     1.034206   -2.0126983   -2.0126983   -1.0719254  0.078848304   -2.0126983   0.94077286   507356 
  188000    1.0332326   -2.0122062   -2.0122062   -1.0723188  0.076650014   -2.0122062   0.93988741   507356 
  189000    1.0323026   -2.0122958   -2.0122958   -1.0732543  0.075253162   -2.0122958   0.93904145   507356 
  190000    1.0350635   -2.0129562   -2.0129562   -1.0714033  0.088600713   -2.0129562    0.9415529   507356 
  191000    1.0342325   -2.0141656   -2.0141656   -1.0733686  0.063937353   -2.0141656   0.94079697   507356 
  192000     1.032196   -2.0110909   -2.0110909   -1.0721465   0.08309328   -2.0110909   0.93894444   507356 
  193000    1.0335037   -2.0127919   -2.0127919   -1.0726579  0.062596477   -2.0127919   0.94013399   507356 
  194000      1.03167   -2.0110619   -2.0110619   -1.0725959  0.065173836   -2.0110619   0.93846597   507356 
  195000    1.0327587   -2.0110366   -2.0110366   -1.0715803  0.074802265   -2.0110366   0.93945631   507356 
  196000    1.0327701   -2.0116588   -2.0116588   -1.0721921  0.065744553   -2.0116588   0.93946664   507356 
  197000    1.0295012   -2.0089606   -2.0089606   -1.0724674  0.077022652   -2.0089606   0.93649313   507356 
  198000    1.0311704   -2.0105204   -2.0105204   -1.0725089  0.069178039   -2.0105204   0.93801149   507356 
  199000    1.0318099   -2.0106119   -2.0106119   -1.0720186  0.067806449   -2.0106119   0.93859323   507356 
  200000     1.032991   -2.0114371   -2.0114371   -1.0717695  0.079450946   -2.0114371   0.93966761   507356 
  201000    1.0325828   -2.0110337   -2.0110337   -1.0717374  0.073762607   -2.0110337   0.93929628   507356 
  202000    1.0332848   -2.0116234   -2.0116234   -1.0716885  0.074451839   -2.0116234   0.93993488   507356 
  203000    1.0328685   -2.0114037   -2.0114037   -1.0718475  0.072955043   -2.0114037   0.93955618   507356 
  204000    1.0321843   -2.0116351   -2.0116351   -1.0727012  0.074860145   -2.0116351   0.93893383   507356 
  205000    1.0298774   -2.0087668   -2.0087668   -1.0719315  0.074465898   -2.0087668   0.93683534   507356 
  206000    1.0318483   -2.0103731   -2.0103731    -1.071745   0.08119598   -2.0103731   0.93862812   507356 
  207000     1.033181   -2.0116586   -2.0116586   -1.0718181  0.074258424   -2.0116586   0.93984046   507356 
  208000    1.0327398   -2.0112502   -2.0112502   -1.0718111   0.07867287   -2.0112502   0.93943915   507356 
  209000    1.0335227   -2.0111727   -2.0111727   -1.0710214  0.063646575   -2.0111727   0.94015126   507356 
  210000    1.0328142   -2.0103103   -2.0103103   -1.0708035  0.075090381   -2.0103103    0.9395068   507356 
  211000    1.0337848   -2.0122191   -2.0122191   -1.0718294  0.068325609   -2.0122191   0.94038968   507356 
  212000     1.032622   -2.0119171   -2.0119171   -1.0725852  0.062145699   -2.0119171   0.93933193   507356 
  213000     1.030947   -2.0115472   -2.0115472    -1.073739  0.061238095   -2.0115472   0.93780828   507356 
  214000    1.0315222   -2.0112506   -2.0112506    -1.072919   0.08357493   -2.0112506   0.93833151   507356 
  215000    1.0315481   -2.0101997   -2.0101997   -1.0718447  0.065183223   -2.0101997   0.93835506   507356 
  216000    1.0319849   -2.0115471   -2.0115471   -1.0727947  0.082380686   -2.0115471   0.93875246   507356 
  217000    1.0310879   -2.0114387   -2.0114387   -1.0735023   0.06745298   -2.0114387   0.93793645   507356 
  218000    1.0321889   -2.0130889   -2.0130889   -1.0741509  0.070774003   -2.0130889   0.93893797   507356 
  219000    1.0345818    -2.015777    -2.015777   -1.0746623  0.066766917    -2.015777   0.94111468   507356 
  220000    1.0312405   -2.0135385   -2.0135385   -1.0754633  0.072571841   -2.0135385   0.93807529   507356 
  221000    1.0318467   -2.0136482   -2.0136482   -1.0750215  0.070896788   -2.0136482   0.93862672   507356 
  222000    1.0324728   -2.0143561   -2.0143561   -1.0751599  0.079036606   -2.0143561   0.93919624   507356 
  223000    1.0333593   -2.0159604   -2.0159604   -1.0759577  0.064373178   -2.0159604   0.94000264   507356 
  224000    1.0344463   -2.0166846   -2.0166846   -1.0756931  0.067694958   -2.0166846   0.94099147   507356 
  225000    1.0330225   -2.0156539   -2.0156539   -1.0759576  0.070476475   -2.0156539   0.93969631   507356 
  226000    1.0329731   -2.0147688   -2.0147688   -1.0751175  0.069855544   -2.0147688   0.93965136   507356 
  227000    1.0322434   -2.0152606   -2.0152606    -1.076273  0.075669895   -2.0152606   0.93898754   507356 
  228000    1.0321821   -2.0142402   -2.0142402   -1.0753084  0.075823509   -2.0142402   0.93893182   507356 
  229000    1.0333051   -2.0150111   -2.0150111   -1.0750577   0.08740564   -2.0150111   0.93995336   507356 
  230000     1.036137   -2.0172915   -2.0172915   -1.0747621  0.073645179   -2.0172915   0.94252942   507356 
  231000     1.032737   -2.0162007   -2.0162007   -1.0767641  0.072970845   -2.0162007   0.93943655   507356 
  232000    1.0316791   -2.0149011   -2.0149011   -1.0764269   0.07534649   -2.0149011    0.9384742   507356 
  233000    1.0338798   -2.0170232   -2.0170232   -1.0765471  0.073383877   -2.0170232   0.94047615   507356 
  234000    1.0323906   -2.0158971   -2.0158971   -1.0767756  0.071610337   -2.0158971   0.93912149   507356 
  235000     1.029927   -2.0139726   -2.0139726   -1.0770921  0.071937948   -2.0139726   0.93688047   507356 
  236000    1.0307557   -2.0139752   -2.0139752   -1.0763409  0.067899444   -2.0139752   0.93763425   507356 
  237000    1.0300417   -2.0141474   -2.0141474   -1.0771627  0.067563965   -2.0141474   0.93698477   507356 
  238000    1.0307409   -2.0143538   -2.0143538    -1.076733  0.066677303   -2.0143538    0.9376208   507356 
  239000    1.0304095   -2.0155611   -2.0155611   -1.0782418  0.062308853   -2.0155611   0.93731933   507356 
  240000     1.029818   -2.0140645   -2.0140645   -1.0772833  0.067313401   -2.0140645   0.93678124   507356 
  241000    1.0307755   -2.0146005   -2.0146005   -1.0769482  0.068225794   -2.0146005   0.93765231   507356 
  242000    1.0324918   -2.0160035   -2.0160035     -1.07679  0.071178061   -2.0160035   0.93921349   507356 
  243000    1.0326974   -2.0161771   -2.0161771   -1.0767765    0.0808051   -2.0161771   0.93940059   507356 
  244000    1.0323284   -2.0166836   -2.0166836   -1.0776187  0.076018491   -2.0166836   0.93906489   507356 
  245000    1.0305756   -2.0150147   -2.0150147   -1.0775443  0.079258595   -2.0150147   0.93747041   507356 
  246000    1.0316642   -2.0151696   -2.0151696   -1.0767089  0.074174592   -2.0151696    0.9384607   507356 
  247000    1.0305056   -2.0150154   -2.0150154   -1.0776087  0.087896386   -2.0150154   0.93740672   507356 
  248000    1.0332457   -2.0171295   -2.0171295   -1.0772301  0.087103775   -2.0171295   0.93989935   507356 
  249000    1.0335811   -2.0188098   -2.0188098   -1.0786053  0.084770791   -2.0188098   0.94020443   507356 
  250000    1.0306324   -2.0171273   -2.0171273   -1.0796052  0.081397811   -2.0171273   0.93752214   507356 
  251000    1.0315568   -2.0184707   -2.0184707   -1.0801077  0.081467016   -2.0184707   0.93836303   507356 
  252000    1.0320619   -2.0194037   -2.0194037   -1.0805812  0.079192122   -2.0194037    0.9388225   507356 
  253000    1.0324285   -2.0186638   -2.0186638   -1.0795079  0.075797173   -2.0186638   0.93915596   507356 
  254000    1.0316925   -2.0182612   -2.0182612   -1.0797747  0.078378021   -2.0182612   0.93848647   507356 
  255000    1.0318343   -2.0177955   -2.0177955   -1.0791801  0.082476012   -2.0177955   0.93861538   507356 
  256000    1.0343156   -2.0205127   -2.0205127   -1.0796402  0.073419261   -2.0205127   0.94087251   507356 
  257000    1.0315881   -2.0187357   -2.0187357   -1.0803442  0.068104836   -2.0187357   0.93839146   507356 
  258000    1.0312195   -2.0183005   -2.0183005   -1.0802443  0.072324064   -2.0183005   0.93805619   507356 
  259000    1.0308244   -2.0175865   -2.0175865   -1.0798897  0.066854457   -2.0175865    0.9376968   507356 
  260000    1.0320957   -2.0198975   -2.0198975   -1.0810442   0.07351709   -2.0198975   0.93885325   507356 
  261000    1.0314519   -2.0187854   -2.0187854   -1.0805178  0.070893075   -2.0187854   0.93826755   507356 
  262000    1.0302832   -2.0172039   -2.0172039   -1.0799995  0.070638715   -2.0172039   0.93720441   507356 
  263000    1.0296169   -2.0176539   -2.0176539   -1.0810556  0.075405331   -2.0176539   0.93659836   507356 
  264000    1.0294992   -2.0173301   -2.0173301   -1.0808388  0.066034998   -2.0173301    0.9364913   507356 
  265000    1.0307006   -2.0183095   -2.0183095   -1.0807254   0.07507914   -2.0183095    0.9375841   507356 
  266000    1.0316462    -2.018712    -2.018712   -1.0802676  0.064128825    -2.018712   0.93844435   507356 
  267000    1.0323277    -2.019062    -2.019062   -1.0799977  0.069293188    -2.019062    0.9390642   507356 
  268000    1.0308568   -2.0172814   -2.0172814   -1.0795551  0.079185752   -2.0172814   0.93772626   507356 
  269000    1.0330764    -2.018376    -2.018376   -1.0786307  0.074456102    -2.018376   0.93974528   507356 
  270000    1.0356981   -2.0198616   -2.0198616   -1.0777315  0.072983407   -2.0198616   0.94213013   507356 
  271000     1.034062   -2.0186241   -2.0186241   -1.0779822  0.080818702   -2.0186241   0.94064183   507356 
  272000    1.0339924   -2.0192353   -2.0192353   -1.0786567    0.0723345   -2.0192353   0.94057859   507356 
  273000     1.032057   -2.0184024   -2.0184024   -1.0795844  0.082086404   -2.0184024   0.93881803   507356 
  274000    1.0308419   -2.0172898   -2.0172898   -1.0795771  0.079793862   -2.0172898   0.93771268   507356 
  275000    1.0321758   -2.0189427   -2.0189427   -1.0800167  0.066689519   -2.0189427   0.93892607   507356 
  276000    1.0305762   -2.0182286   -2.0182286   -1.0807576  0.069583357   -2.0182286   0.93747098   507356 
  277000    1.0313348   -2.0196615   -2.0196615   -1.0815004   0.07084164   -2.0196615   0.93816105   507356 
  278000    1.0297081   -2.0173659   -2.0173659   -1.0806846  0.071797735   -2.0173659   0.93668127   507356 
  279000      1.03021    -2.018684    -2.018684   -1.0815461  0.074063655    -2.018684   0.93713782   507356 
  280000    1.0323415   -2.0210563   -2.0210563   -1.0819795   0.06033863   -2.0210563    0.9390768   507356 
  281000    1.0304386   -2.0194099   -2.0194099   -1.0820641  0.071785394   -2.0194099    0.9373458   507356 
  282000    1.0311203   -2.0206125   -2.0206125   -1.0826466  0.063445407   -2.0206125   0.93796591   507356 
  283000    1.0298295   -2.0189943   -2.0189943   -1.0822025  0.073516211   -2.0189943   0.93679175   507356 
  284000     1.031322   -2.0200765   -2.0200765   -1.0819271  0.070718899   -2.0200765   0.93814941   507356 
  285000    1.0333081   -2.0212967   -2.0212967   -1.0813407  0.064956533   -2.0212967   0.93995606   507356 
  286000    1.0309323   -2.0203727   -2.0203727   -1.0825778  0.076062991   -2.0203727   0.93779492   507356 
  287000    1.0321536   -2.0217223   -2.0217223   -1.0828164  0.083049756   -2.0217223   0.93890587   507356 
  288000    1.0297403   -2.0187739   -2.0187739   -1.0820633  0.078480978   -2.0187739   0.93671062   507356 
  289000    1.0322886   -2.0221564   -2.0221564   -1.0831277  0.069456982   -2.0221564   0.93902865   507356 
  290000    1.0332105    -2.022377    -2.022377   -1.0825097   0.07926284    -2.022377   0.93986732   507356 
  291000    1.0321647   -2.0216105   -2.0216105   -1.0826945  0.073074241   -2.0216105   0.93891595   507356 
  292000    1.0320235   -2.0213499   -2.0213499   -1.0825623  0.079715766   -2.0213499   0.93878757   507356 
  293000    1.0331952   -2.0227608   -2.0227608   -1.0829074  0.071097061   -2.0227608   0.93985336   507356 
  294000    1.0333598   -2.0236527   -2.0236527   -1.0836495  0.076241236   -2.0236527   0.94000311   507356 
  295000    1.0330196   -2.0239445   -2.0239445   -1.0842508  0.076712531   -2.0239445   0.93969368   507356 
  296000    1.0328758    -2.023403    -2.023403   -1.0838401  0.076040593    -2.023403   0.93956284   507356 
  297000    1.0327075   -2.0235623   -2.0235623   -1.0841526  0.077643408   -2.0235623   0.93940972   507356 
  298000    1.0331533   -2.0242356   -2.0242356   -1.0844204  0.077805198   -2.0242356   0.93981526   507356 
  299000    1.0337287   -2.0235855   -2.0235855   -1.0832468  0.078526156   -2.0235855   0.94033872   507356 
  300000    1.0299616   -2.0214837   -2.0214837   -1.0845719  0.087027394   -2.0214837   0.93691186   507356 
  301000    1.0313926   -2.0235409   -2.0235409   -1.0853272  0.082152767   -2.0235409   0.93821367   507356 
  302000    1.0304728   -2.0227852   -2.0227852   -1.0854083  0.073138836   -2.0227852   0.93737689   507356 
  303000    1.0326031    -2.024738    -2.024738   -1.0854233  0.069781432    -2.024738   0.93931474   507356 
  304000    1.0327211   -2.0249781   -2.0249781    -1.085556  0.089583224   -2.0249781   0.93942212   507356 
  305000    1.0310969   -2.0232918   -2.0232918   -1.0853472  0.071320364   -2.0232918   0.93794461   507356 
  306000    1.0311264   -2.0226735   -2.0226735   -1.0847021   0.07413344   -2.0226735   0.93797144   507356 
  307000    1.0316995   -2.0235787   -2.0235787   -1.0850859  0.068636601   -2.0235787   0.93849276   507356 
  308000    1.0300551   -2.0216986   -2.0216986   -1.0847016  0.089653646   -2.0216986   0.93699699   507356 
  309000    1.0306056   -2.0233128   -2.0233128    -1.085815  0.078667882   -2.0233128   0.93749774   507356 
  310000    1.0307767    -2.023804    -2.023804   -1.0861507  0.071141264    -2.023804   0.93765338   507356 
  311000    1.0295147   -2.0221774   -2.0221774   -1.0856721  0.076001685   -2.0221774   0.93650534   507356 
  312000    1.0289342   -2.0226579   -2.0226579   -1.0866805  0.068749402   -2.0226579   0.93597735   507356 
  313000    1.0287522    -2.021618    -2.021618   -1.0858062  0.080846286    -2.021618   0.93581176   507356 
  314000    1.0312612   -2.0243076   -2.0243076   -1.0862135  0.066386207   -2.0243076   0.93809408   507356 
  315000    1.0303915   -2.0214895   -2.0214895   -1.0841865  0.083170717   -2.0214895   0.93730299   507356 
  316000    1.0299308    -2.022293    -2.022293   -1.0854091  0.072820192    -2.022293   0.93688387   507356 
  317000    1.0283184   -2.0218674   -2.0218674   -1.0864502  0.082479558   -2.0218674   0.93541719   507356 
  318000    1.0318276   -2.0238701   -2.0238701   -1.0852607  0.069828739   -2.0238701   0.93860936   507356 
  319000    1.0306525   -2.0232171   -2.0232171   -1.0856767  0.079801452   -2.0232171   0.93754043   507356 
  320000    1.0293444   -2.0211717   -2.0211717   -1.0848212  0.076615481   -2.0211717   0.93635047   507356 
  321000    1.0310494   -2.0226068   -2.0226068   -1.0847054  0.060392611   -2.0226068   0.93790142   507356 
  322000    1.0298937   -2.0212441   -2.0212441    -1.084394  0.073304956   -2.0212441   0.93685016   507356 
  323000    1.0293961   -2.0207216   -2.0207216   -1.0843241  0.069303894   -2.0207216   0.93639753   507356 
  324000    1.0317851   -2.0226244   -2.0226244   -1.0840537   0.07711615   -2.0226244   0.93857065   507356 
  325000     1.030291   -2.0217268   -2.0217268   -1.0845152  0.080044474   -2.0217268   0.93721153   507356 
  326000    1.0296063   -2.0215972   -2.0215972   -1.0850085  0.072701008   -2.0215972   0.93658871   507356 
  327000    1.0274532   -2.0208194   -2.0208194   -1.0861892  0.072603865   -2.0208194   0.93463014   507356 
  328000    1.0293113    -2.022674    -2.022674   -1.0863537  0.071723252    -2.022674   0.93632032   507356 
  329000     1.028031    -2.022547    -2.022547   -1.0873912  0.070317712    -2.022547   0.93515572   507356 
  330000    1.0305126   -2.0235251   -2.0235251    -1.086112  0.074182188   -2.0235251   0.93741316   507356 
  331000    1.0313106   -2.0254104   -2.0254104   -1.0872713  0.075982455   -2.0254104   0.93813903   507356 
  332000    1.0307175   -2.0237318   -2.0237318   -1.0861323  0.071158826   -2.0237318   0.93759951   507356 
  333000    1.0307956   -2.0234782   -2.0234782   -1.0858076  0.069332597   -2.0234782   0.93767059   507356 
  334000    1.0310121   -2.0242788   -2.0242788   -1.0864113  0.075743929   -2.0242788   0.93786753   507356 
  335000    1.0314962   -2.0249054   -2.0249054   -1.0865975  0.071398438   -2.0249054    0.9383079   507356 
  336000    1.0316773   -2.0259603   -2.0259603   -1.0874877  0.070916809   -2.0259603   0.93847263   507356 
  337000    1.0305684   -2.0249249   -2.0249249    -1.087461  0.068927643   -2.0249249   0.93746389   507356 
  338000    1.0318915    -2.026773    -2.026773   -1.0881055  0.075275504    -2.026773   0.93866746   507356 
  339000    1.0306799   -2.0256805   -2.0256805   -1.0881152  0.078447095   -2.0256805   0.93756529   507356 
  340000    1.0299625    -2.026393    -2.026393   -1.0894802  0.071983865    -2.026393   0.93691276   507356 
  341000    1.0284214       -2.024       -2.024   -1.0884892  0.078861852       -2.024   0.93551088   507356 
  342000    1.0292526   -2.0256634   -2.0256634   -1.0893964  0.073989896   -2.0256634   0.93626696   507356 
  343000    1.0279334   -2.0250369   -2.0250369     -1.08997  0.083804764   -2.0250369   0.93506691   507356 
  344000    1.0305669    -2.027433    -2.027433   -1.0899705  0.073321748    -2.027433   0.93746249   507356 
  345000    1.0290048   -2.0263667   -2.0263667   -1.0903251  0.070966235   -2.0263667   0.93604157   507356 
  346000    1.0309068   -2.0272089   -2.0272089   -1.0894372  0.081640715   -2.0272089   0.93777175   507356 
  347000    1.0289679   -2.0267984   -2.0267984   -1.0907904  0.075500128   -2.0267984     0.936008   507356 
  348000     1.026697   -2.0251567   -2.0251567   -1.0912144  0.073148425   -2.0251567   0.93394227   507356 
  349000    1.0292991   -2.0276821   -2.0276821   -1.0913728  0.076428573   -2.0276821   0.93630927   507356 
  350000    1.0291467   -2.0274467   -2.0274467   -1.0912761  0.075774095   -2.0274467   0.93617065   507356 
  351000    1.0282577   -2.0267301   -2.0267301   -1.0913682  0.068904724   -2.0267301   0.93536193   507356 
  352000    1.0293423   -2.0278091   -2.0278091   -1.0914606   0.06791001   -2.0278091   0.93634858   507356 
  353000     1.029341   -2.0288016   -2.0288016   -1.0924542  0.070194641   -2.0288016   0.93634739   507356 
  354000    1.0298757   -2.0298775   -2.0298775   -1.0930438  0.069722791   -2.0298775   0.93683373   507356 
  355000    1.0286712   -2.0281073   -2.0281073   -1.0923692     0.082086   -2.0281073   0.93573807   507356 
  356000    1.0292735   -2.0292665   -2.0292665   -1.0929805  0.084712817   -2.0292665   0.93628599   507356 
  357000    1.0301286   -2.0295669   -2.0295669   -1.0925031  0.078188628   -2.0295669   0.93706384   507356 
  358000    1.0298048   -2.0300605   -2.0300605   -1.0932912  0.069886326   -2.0300605   0.93676926   507356 
  359000    1.0282995   -2.0288802   -2.0288802   -1.0934802  0.076295902   -2.0288802   0.93539997   507356 
  360000    1.0280138   -2.0287621   -2.0287621    -1.093622  0.070768901   -2.0287621   0.93514007   507356 
  361000    1.0301299   -2.0300708   -2.0300708   -1.0930057  0.079668945   -2.0300708   0.93706503   507356 
  362000    1.0300649   -2.0300996   -2.0300996   -1.0930937  0.066203147   -2.0300996   0.93700583   507356 
  363000     1.029989   -2.0291684   -2.0291684   -1.0922315  0.076772447   -2.0291684   0.93693686   507356 
  364000    1.0301561   -2.0284814   -2.0284814   -1.0913925  0.062244889   -2.0284814   0.93708888   507356 
  365000    1.0311561    -2.028641    -2.028641   -1.0906425  0.074743166    -2.028641    0.9379985   507356 
  366000    1.0307794   -2.0276664   -2.0276664   -1.0900105  0.077715266   -2.0276664   0.93765583   507356 
  367000    1.0304528   -2.0273394   -2.0273394   -1.0899806  0.074546732   -2.0273394   0.93735872   507356 
  368000    1.0297729   -2.0273674   -2.0273674   -1.0906271  0.083988165   -2.0273674   0.93674028   507356 
  369000    1.0288789   -2.0263316   -2.0263316   -1.0904046  0.065482536   -2.0263316   0.93592699   507356 
  370000    1.0272253   -2.0253232   -2.0253232   -1.0909004   0.06937171   -2.0253232   0.93442278   507356 
  371000    1.0278775   -2.0255047   -2.0255047   -1.0904886   0.07573325   -2.0255047   0.93501608   507356 
  372000    1.0276145    -2.024835    -2.024835   -1.0900582  0.070349738    -2.024835   0.93477685   507356 
  373000    1.0274236   -2.0246666   -2.0246666   -1.0900634   0.06694208   -2.0246666   0.93460324   507356 
  374000    1.0275703   -2.0257756   -2.0257756    -1.091039  0.062864978   -2.0257756   0.93473665   507356 
  375000    1.0265453    -2.024843    -2.024843   -1.0910387  0.073549219    -2.024843   0.93380428   507356 
  376000    1.0264684    -2.024286    -2.024286   -1.0905517  0.072098135    -2.024286    0.9337343   507356 
  377000    1.0293573    -2.026338    -2.026338   -1.0899759  0.077020155    -2.026338   0.93636216   507356 
  378000    1.0292387   -2.0269776   -2.0269776   -1.0907233  0.075132377   -2.0269776   0.93625436   507356 
  379000    1.0291332   -2.0270114   -2.0270114   -1.0908531  0.079333654   -2.0270114   0.93615831   507356 
  380000    1.0288803   -2.0264914   -2.0264914   -1.0905631  0.066135023   -2.0264914   0.93592831   507356 
  381000    1.0305159   -2.0276641   -2.0276641    -1.090248  0.064689241   -2.0276641    0.9374161   507356 
  382000    1.0304548   -2.0272248   -2.0272248   -1.0898642  0.077108589   -2.0272248   0.93736057   507356 
  383000    1.0301207   -2.0274493   -2.0274493   -1.0903927  0.073426942   -2.0274493    0.9370566   507356 
  384000    1.0287831     -2.02788     -2.02788   -1.0920402   0.08423743     -2.02788   0.93583985   507356 
  385000    1.0291618   -2.0279481   -2.0279481   -1.0917637  0.074800369   -2.0279481   0.93618439   507356 
  386000     1.030157   -2.0285298   -2.0285298   -1.0914401  0.063151431   -2.0285298   0.93708968   507356 
  387000    1.0287431    -2.027391    -2.027391   -1.0915875  0.073549265    -2.027391   0.93580352   507356 
  388000    1.0304067   -2.0284004   -2.0284004   -1.0910836  0.070909663   -2.0284004   0.93731676   507356 
  389000    1.0305061   -2.0287172   -2.0287172     -1.09131  0.072078824   -2.0287172    0.9374072   507356 
  390000    1.0312179   -2.0300891   -2.0300891   -1.0920344  0.076977092   -2.0300891    0.9380547   507356 
  391000    1.0301903   -2.0286582   -2.0286582   -1.0915383  0.076293299   -2.0286582   0.93711992   507356 
  392000    1.0277945    -2.026942    -2.026942   -1.0920014  0.069362125    -2.026942   0.93494062   507356 
  393000    1.0305986   -2.0303737   -2.0303737   -1.0928823  0.072612679   -2.0303737   0.93749137   507356 
  394000    1.0304422   -2.0306421   -2.0306421    -1.093293  0.073997915   -2.0306421   0.93734911   507356 
  395000    1.0284225   -2.0285362   -2.0285362   -1.0930243  0.086049359   -2.0285362   0.93551188   507356 
  396000    1.0292208   -2.0293331   -2.0293331    -1.093095  0.071439456   -2.0293331   0.93623808   507356 
  397000    1.0300502   -2.0302978   -2.0302978   -1.0933053  0.074755656   -2.0302978   0.93699249   507356 
  398000    1.0291041   -2.0296257   -2.0296257   -1.0934938  0.088548144   -2.0296257   0.93613189   507356 
  399000    1.0293163   -2.0300504   -2.0300504   -1.0937255  0.079811866   -2.0300504   0.93632493   507356 
  400000    1.0307925   -2.0316339   -2.0316339   -1.0939661  0.079227397   -2.0316339   0.93766778   507356 
  401000    1.0293087   -2.0302286   -2.0302286   -1.0939106   0.07223255   -2.0302286     0.936318   507356 
  402000    1.0286287   -2.0305201   -2.0305201   -1.0948207  0.074942393   -2.0305201   0.93569944   507356 
  403000    1.0289712   -2.0308348   -2.0308348   -1.0948239  0.072408782   -2.0308348   0.93601094   507356 
  404000    1.0297483   -2.0310663   -2.0310663   -1.0943484  0.076345403   -2.0310663   0.93671789   507356 
  405000     1.028462   -2.0302479   -2.0302479   -1.0947001  0.068594484   -2.0302479    0.9355478   507356 
  406000    1.0283731   -2.0301053   -2.0301053   -1.0946384  0.072920845   -2.0301053   0.93546694   507356 
  407000    1.0287973     -2.03025     -2.03025   -1.0943972  0.072101996     -2.03025   0.93585282   507356 
  408000    1.0271268   -2.0292504   -2.0292504   -1.0949171  0.076206736   -2.0292504   0.93433323   507356 
  409000    1.0271099   -2.0294038   -2.0294038    -1.095086  0.081535462   -2.0294038   0.93431782   507356 
  410000    1.0257034   -2.0284768   -2.0284768   -1.0954384  0.076149471   -2.0284768   0.93303843   507356 
  411000    1.0266241    -2.029842    -2.029842   -1.0959661  0.066937396    -2.029842   0.93387591   507356 
  412000    1.0287849   -2.0315208   -2.0315208   -1.0956793  0.083884139   -2.0315208   0.93584149   507356 
  413000     1.028371   -2.0311305   -2.0311305   -1.0956654  0.064491711   -2.0311305   0.93546505   507356 
  414000    1.0281387   -2.0303342   -2.0303342   -1.0950804  0.065719115   -2.0303342   0.93525371   507356 
  415000    1.0258345   -2.0276372   -2.0276372   -1.0944796  0.073520523   -2.0276372   0.93315766   507356 
  416000     1.027334   -2.0291242   -2.0291242   -1.0946025  0.083454393   -2.0291242   0.93452171   507356 
  417000    1.0285621   -2.0304684   -2.0304684   -1.0948296  0.078949868   -2.0304684   0.93563884   507356 
  418000    1.0274569   -2.0302844   -2.0302844   -1.0956509  0.068007936   -2.0302844   0.93463351   507356 
  419000     1.027856   -2.0298686   -2.0298686   -1.0948721  0.077077743   -2.0298686   0.93499653   507356 
  420000    1.0271926   -2.0292661   -2.0292661   -1.0948731  0.079146665   -2.0292661   0.93439302   507356 
  421000    1.0274165   -2.0302203   -2.0302203   -1.0956236  0.067166185   -2.0302203   0.93459673   507356 
  422000    1.0275561   -2.0296447   -2.0296447   -1.0949209   0.06840893   -2.0296447   0.93472376   507356 
  423000    1.0277301   -2.0309966   -2.0309966   -1.0961146  0.075745262   -2.0309966   0.93488201   507356 
  424000    1.0291418   -2.0322378   -2.0322378   -1.0960716  0.065870841   -2.0322378   0.93616614   507356 
  425000    1.0276887   -2.0312598   -2.0312598   -1.0964154  0.073701761   -2.0312598   0.93484433   507356 
  426000    1.0272195   -2.0302865   -2.0302865   -1.0958689  0.069735981   -2.0302865   0.93441758   507356 
  427000    1.0275294    -2.030903    -2.030903   -1.0962036  0.080723761    -2.030903   0.93469945   507356 
  428000    1.0289117   -2.0317036   -2.0317036   -1.0957467   0.07650867   -2.0317036   0.93595682   507356 
  429000    1.0281253   -2.0315571   -2.0315571   -1.0963156  0.069797866   -2.0315571   0.93524154   507356 
  430000    1.0283372   -2.0323676   -2.0323676   -1.0969333  0.073375107   -2.0323676   0.93543427   507356 
  431000      1.03013   -2.0338277   -2.0338277   -1.0967626  0.064495993   -2.0338277    0.9370651   507356 
  432000    1.0285061    -2.033243    -2.033243   -1.0976552  0.076539559    -2.033243   0.93558787   507356 
  433000    1.0275587   -2.0327025   -2.0327025   -1.0979764  0.075237767   -2.0327025   0.93472605   507356 
  434000     1.025796   -2.0304861   -2.0304861   -1.0973634  0.080117398   -2.0304861   0.93312267   507356 
  435000    1.0275694   -2.0320585   -2.0320585   -1.0973228  0.066866729   -2.0320585   0.93473578   507356 
  436000    1.0288337   -2.0336142   -2.0336142   -1.0977283   0.07200871   -2.0336142   0.93588594   507356 
  437000    1.0279345   -2.0336632   -2.0336632   -1.0985952  0.079035522   -2.0336632   0.93506797   507356 
  438000    1.0292023    -2.033022    -2.033022   -1.0968008  0.065920131    -2.033022   0.93622121   507356 
  439000    1.0282078   -2.0332268   -2.0332268   -1.0979102  0.078767008   -2.0332268   0.93531654   507356 
  440000    1.0283437   -2.0331145   -2.0331145   -1.0976743  0.070238348   -2.0331145   0.93544019   507356 
  441000    1.0281802   -2.0342684   -2.0342684    -1.098977  0.072689621   -2.0342684   0.93529141   507356 
  442000    1.0292955     -2.03447     -2.03447    -1.098164  0.084922651     -2.03447     0.936306   507356 
  443000    1.0281128   -2.0336997   -2.0336997   -1.0984696  0.078491114   -2.0336997   0.93523011   507356 
  444000    1.0300634   -2.0358357   -2.0358357   -1.0988312  0.082157659   -2.0358357    0.9370045   507356 
  445000    1.0302814   -2.0357254   -2.0357254   -1.0985226  0.075264185   -2.0357254   0.93720281   507356 
  446000    1.0274902   -2.0338294   -2.0338294   -1.0991656  0.068508927   -2.0338294   0.93466376   507356 
  447000    1.0283446   -2.0348878   -2.0348878   -1.0994468  0.070899506   -2.0348878   0.93544097   507356 
  448000    1.0279923   -2.0352591   -2.0352591   -1.1001385  0.081622201   -2.0352591   0.93512052   507356 
  449000    1.0277931   -2.0346833   -2.0346833   -1.0997441  0.082537658   -2.0346833   0.93493928   507356 
  450000    1.0270805   -2.0357664   -2.0357664   -1.1014753  0.068577994   -2.0357664   0.93429113   507356 
  451000    1.0260625   -2.0352329   -2.0352329   -1.1018678  0.079328999   -2.0352329   0.93336505   507356 
  452000    1.0267471   -2.0352065   -2.0352065   -1.1012187  0.068122389   -2.0352065   0.93398782   507356 
  453000    1.0233137   -2.0327542   -2.0327542   -1.1018896  0.085306909   -2.0327542   0.93086463   507356 
  454000     1.024922     -2.03391     -2.03391   -1.1015824   0.08055314     -2.03391    0.9323276   507356 
  455000    1.0256811   -2.0355341   -2.0355341    -1.102516  0.068514503   -2.0355341   0.93301816   507356 
  456000    1.0281451   -2.0370415   -2.0370415   -1.1017821   0.07670823   -2.0370415   0.93525948   507356 
  457000    1.0277486   -2.0357818   -2.0357818    -1.100883  0.075392979   -2.0357818   0.93489883   507356 
  458000    1.0275442   -2.0357266   -2.0357266   -1.1010137  0.074539705   -2.0357266   0.93471287   507356 
  459000    1.0274535   -2.0348044   -2.0348044    -1.100174   0.06899069   -2.0348044   0.93463036   507356 
  460000    1.0266137   -2.0337149   -2.0337149   -1.0998484  0.069865911   -2.0337149   0.93386651   507356 
  461000     1.029327   -2.0361714   -2.0361714   -1.0998368  0.074445413   -2.0361714   0.93633463   507356 
  462000    1.0271513   -2.0347672   -2.0347672   -1.1004117  0.074679223   -2.0347672   0.93435548   507356 
  463000    1.0270438   -2.0349055   -2.0349055   -1.1006478  0.092989503   -2.0349055   0.93425771   507356 
  464000    1.0267476   -2.0353269   -2.0353269   -1.1013386  0.078880653   -2.0353269   0.93398831   507356 
  465000    1.0276436   -2.0355645   -2.0355645   -1.1007612  0.073800334   -2.0355645   0.93480332   507356 
  466000    1.0269913   -2.0349247   -2.0349247   -1.1007147  0.083739104   -2.0349247   0.93420998   507356 
  467000    1.0281122   -2.0355304   -2.0355304   -1.1003008  0.073993641   -2.0355304   0.93522957   507356 
  468000    1.0295593   -2.0370348   -2.0370348   -1.1004888  0.072782025   -2.0370348   0.93654598   507356 
  469000    1.0283669   -2.0356499   -2.0356499   -1.1001886  0.079262065   -2.0356499    0.9354613   507356 
  470000     1.029275   -2.0361975   -2.0361975   -1.0999102  0.071727966   -2.0361975   0.93628735   507356 
  471000    1.0301354   -2.0360927   -2.0360927   -1.0990227  0.077447455   -2.0360927   0.93707003   507356 
  472000    1.0299896   -2.0367041   -2.0367041   -1.0997667  0.070551955   -2.0367041   0.93693734   507356 
  473000    1.0294112   -2.0365203   -2.0365203   -1.1001091  0.067538817   -2.0365203   0.93641123   507356 
  474000    1.0276416   -2.0350778   -2.0350778   -1.1002763  0.080987452   -2.0350778    0.9348015   507356 
  475000    1.0304665   -2.0380843   -2.0380843   -1.1007131  0.067352515   -2.0380843    0.9373712   507356 
  476000    1.0273484   -2.0354641   -2.0354641   -1.1009294  0.070740991   -2.0354641   0.93453477   507356 
  477000      1.02664   -2.0355427   -2.0355427   -1.1016523  0.079055333   -2.0355427   0.93389038   507356 
  478000    1.0251844   -2.0342313   -2.0342313   -1.1016651   0.06980829   -2.0342313   0.93256625   507356 
  479000    1.0266118   -2.0353237   -2.0353237   -1.1014589  0.065192359   -2.0353237   0.93386477   507356 
  480000    1.0274575   -2.0355902   -2.0355902   -1.1009562  0.065766347   -2.0355902   0.93463403   507356 
  481000    1.0275628    -2.036113    -2.036113   -1.1013831  0.067566812    -2.036113   0.93472982   507356 
  482000    1.0284456   -2.0370914   -2.0370914   -1.1015586   0.07813553   -2.0370914   0.93553284   507356 
  483000    1.0273628   -2.0361405   -2.0361405   -1.1015926  0.083075824   -2.0361405   0.93454789   507356 
  484000    1.0270918   -2.0354255   -2.0354255   -1.1011241  0.074787245   -2.0354255   0.93430136   507356 
  485000    1.0281883   -2.0366815   -2.0366815   -1.1013827  0.078164984   -2.0366815   0.93529881   507356 
  486000    1.0277169   -2.0357995   -2.0357995   -1.1009296  0.071629773   -2.0357995   0.93486996   507356 
  487000    1.0290354    -2.036347    -2.036347   -1.1002776  0.064562301    -2.036347   0.93606941   507356 
  488000    1.0313949   -2.0388148   -2.0388148   -1.1005991  0.081833804   -2.0388148   0.93821573   507356 
  489000    1.0297029   -2.0373268   -2.0373268   -1.1006502   0.08041522   -2.0373268   0.93667658   507356 
  490000    1.0286704   -2.0373657   -2.0373657   -1.1016283   0.07641551   -2.0373657   0.93573734   507356 
  491000    1.0284341   -2.0374869   -2.0374869   -1.1019645   0.06797714   -2.0374869   0.93552242   507356 
  492000    1.0264502   -2.0369052   -2.0369052   -1.1031875  0.074061127   -2.0369052   0.93371775   507356 
  493000    1.0268028   -2.0363472   -2.0363472   -1.1023087  0.077671698   -2.0363472   0.93403848   507356 
  494000    1.0288555   -2.0372805   -2.0372805   -1.1013748  0.076116618   -2.0372805   0.93590576   507356 
  495000    1.0274207    -2.036111    -2.036111   -1.1015104  0.070934048    -2.036111   0.93460057   507356 
  496000    1.0278986   -2.0370971   -2.0370971   -1.1020618  0.082760236   -2.0370971   0.93503528   507356 
  497000    1.0270262   -2.0357482   -2.0357482   -1.1015065  0.075688632   -2.0357482   0.93424167   507356 
  498000    1.0262364   -2.0356921   -2.0356921   -1.1021689   0.08034602   -2.0356921   0.93352322   507356 
  499000    1.0284757   -2.0379551   -2.0379551   -1.1023949   0.08780816   -2.0379551   0.93556022   507356 
  500000    1.0288074   -2.0387315   -2.0387315   -1.1028695  0.081532769   -2.0387315   0.93586201   507356 
  501000     1.028347    -2.037826    -2.037826   -1.1023829  0.084364315    -2.037826   0.93544315   507356 
  502000    1.0281366   -2.0373389   -2.0373389   -1.1020872  0.084379043   -2.0373389   0.93525176   507356 
  503000    1.0284268   -2.0373495   -2.0373495   -1.1018337  0.087081946   -2.0373495   0.93551577   507356 
  504000    1.0283716   -2.0372559   -2.0372559   -1.1017903     0.078894   -2.0372559   0.93546555   507356 
  505000    1.0268826   -2.0377266   -2.0377266   -1.1036155  0.075962379   -2.0377266   0.93411105   507356 
  506000    1.0270894   -2.0372138   -2.0372138   -1.1029146   0.08137124   -2.0372138   0.93429919   507356 
  507000    1.0266722   -2.0370511   -2.0370511   -1.1031315  0.072693749   -2.0370511   0.93391966   507356 
  508000    1.0278002   -2.0386331   -2.0386331   -1.1036874  0.072474646   -2.0386331   0.93494575   507356 
  509000    1.0282804   -2.0389368   -2.0389368   -1.1035541  0.067762407   -2.0389368   0.93538262   507356 
  510000    1.0265863   -2.0378316   -2.0378316   -1.1039901  0.077782675   -2.0378316   0.93384152   507356 
  511000    1.0267534   -2.0377257   -2.0377257   -1.1037321  0.078633708   -2.0377257   0.93399356   507356 
  512000     1.026786   -2.0383599   -2.0383599   -1.1043367  0.075463299   -2.0383599   0.93402318   507356 
  513000    1.0263578   -2.0380222   -2.0380222   -1.1043885  0.075502186   -2.0380222   0.93363368   507356 
  514000    1.0271943   -2.0384974   -2.0384974   -1.1041028  0.073945136   -2.0384974   0.93439465   507356 
  515000    1.0285042   -2.0391792   -2.0391792    -1.103593  0.071185651   -2.0391792   0.93558621   507356 
  516000    1.0281037    -2.039468    -2.039468   -1.1042461  0.083350499    -2.039468   0.93522188   507356 
  517000     1.027301   -2.0387925   -2.0387925   -1.1043009  0.079438024   -2.0387925   0.93449165   507356 
  518000    1.0282781   -2.0392843   -2.0392843   -1.1039038  0.060846011   -2.0392843   0.93538053   507356 
  519000    1.0259136   -2.0372976   -2.0372976    -1.104068  0.074301377   -2.0372976   0.93322959   507356 
  520000    1.0264863   -2.0374545   -2.0374545    -1.103704  0.079660947   -2.0374545   0.93375056   507356 
  521000    1.0274668    -2.038877    -2.038877   -1.1042345    0.0699788    -2.038877   0.93464246   507356 
  522000    1.0260057   -2.0375458   -2.0375458   -1.1042324  0.070269533   -2.0375458   0.93331339   507356 
  523000    1.0287264   -2.0388818   -2.0388818   -1.1030935  0.077326395   -2.0388818   0.93578832   507356 
  524000    1.0262202   -2.0371666   -2.0371666   -1.1036581  0.080175848   -2.0371666   0.93350855   507356 
  525000    1.0274694   -2.0386285   -2.0386285   -1.1039836  0.079075195   -2.0386285   0.93464488   507356 
  526000    1.0270948   -2.0382663   -2.0382663   -1.1039621  0.070137538   -2.0382663   0.93430413   507356 
  527000    1.0271671   -2.0388091   -2.0388091   -1.1044392  0.067901026   -2.0388091   0.93436986   507356 
  528000    1.0281148   -2.0397107   -2.0397107   -1.1044788  0.068196903   -2.0397107   0.93523192   507356 
  529000    1.0252145   -2.0364929   -2.0364929   -1.1038992  0.074156474   -2.0364929   0.93259369   507356 
  530000    1.0266623   -2.0374401   -2.0374401   -1.1035294  0.085433975   -2.0374401   0.93391069   507356 
  531000     1.027999   -2.0390806   -2.0390806   -1.1039539  0.073655831   -2.0390806   0.93512663   507356 
  532000    1.0278213   -2.0387166   -2.0387166   -1.1037517  0.079642083   -2.0387166   0.93496493   507356 
  533000    1.0290364   -2.0409327   -2.0409327   -1.1048624  0.079441756   -2.0409327   0.93607033   507356 
  534000    1.0272578   -2.0393379   -2.0393379   -1.1048855  0.072930457   -2.0393379   0.93445238   507356 
  535000     1.026778   -2.0388098   -2.0388098   -1.1047939  0.068692758   -2.0388098   0.93401588   507356 
  536000    1.0262858   -2.0387398   -2.0387398   -1.1051716  0.070698905   -2.0387398   0.93356822   507356 
  537000    1.0286717   -2.0401051   -2.0401051   -1.1043665  0.068660398   -2.0401051   0.93573857   507356 
  538000    1.0292113   -2.0400735   -2.0400735   -1.1038441  0.080909903   -2.0400735    0.9362294   507356 
  539000    1.0284414   -2.0397993   -2.0397993   -1.1042703  0.069745789   -2.0397993   0.93552903   507356 
  540000    1.0289949   -2.0404248   -2.0404248   -1.1043923   0.06875259   -2.0404248   0.93603255   507356 
  541000    1.0282903   -2.0402818   -2.0402818   -1.1048901  0.082861556   -2.0402818   0.93539164   507356 
  542000    1.0281114   -2.0410557   -2.0410557   -1.1058268  0.069162661   -2.0410557   0.93522889   507356 
  543000     1.027111   -2.0403059   -2.0403059   -1.1059871  0.069665395   -2.0403059   0.93431881   507356 
  544000     1.027194   -2.0399966   -2.0399966   -1.1056023  0.070539925   -2.0399966    0.9343943   507356 
  545000    1.0276223   -2.0398996   -2.0398996   -1.1051156  0.085684914   -2.0398996   0.93478393   507356 
  546000    1.0278728   -2.0404367   -2.0404367   -1.1054249  0.067312923   -2.0404367   0.93501185   507356 
  547000    1.0252846   -2.0377399   -2.0377399   -1.1050825  0.083397829   -2.0377399   0.93265744   507356 
  548000    1.0238603   -2.0373992   -2.0373992   -1.1060373  0.065707249   -2.0373992   0.93136184   507356 
  549000    1.0260734   -2.0398317   -2.0398317   -1.1064567  0.077030114   -2.0398317     0.933375   507356 
  550000    1.0258795   -2.0394413   -2.0394413   -1.1062426   0.08084748   -2.0394413   0.93319862   507356 
  551000     1.025581   -2.0389305   -2.0389305   -1.1060034  0.068709775   -2.0389305   0.93292711   507356 
  552000    1.0273563   -2.0398074   -2.0398074   -1.1052654  0.075287432   -2.0398074   0.93454199   507356 
  553000    1.0275711   -2.0403778   -2.0403778   -1.1056404  0.075342081   -2.0403778   0.93473738   507356 
  554000    1.0278448   -2.0405635   -2.0405635   -1.1055771  0.071272696   -2.0405635   0.93498634   507356 
  555000    1.0269709   -2.0395979   -2.0395979   -1.1054065   0.07805312   -2.0395979   0.93419138   507356 
  556000    1.0281771   -2.0402613   -2.0402613   -1.1049727  0.076249059   -2.0402613    0.9352886   507356 
  557000    1.0268144   -2.0392761   -2.0392761   -1.1052271   0.07929209   -2.0392761     0.934049   507356 
  558000    1.0265991   -2.0398102   -2.0398102    -1.105957  0.077101469   -2.0398102   0.93385319   507356 
  559000    1.0264068    -2.039769    -2.039769   -1.1060907  0.083070244    -2.039769   0.93367822   507356 
  560000    1.0264994   -2.0393284   -2.0393284   -1.1055659  0.076195774   -2.0393284   0.93376247   507356 
  561000    1.0263024   -2.0394938   -2.0394938   -1.1059106   0.07140906   -2.0394938   0.93358325   507356 
  562000     1.026256    -2.038227    -2.038227   -1.1046859  0.077769944    -2.038227    0.9335411   507356 
  563000    1.0262853   -2.0391195   -2.0391195   -1.1055518  0.073108835   -2.0391195   0.93356772   507356 
  564000    1.0267908   -2.0404352   -2.0404352   -1.1064076   0.08727675   -2.0404352   0.93402761   507356 
  565000    1.0276992   -2.0411721   -2.0411721   -1.1063181  0.082549964   -2.0411721   0.93485394   507356 
  566000    1.0253377   -2.0387289   -2.0387289   -1.1060231   0.06165967   -2.0387289   0.93270579   507356 
  567000    1.0279012    -2.041264    -2.041264   -1.1062264  0.069661053    -2.041264   0.93503762   507356 
  568000    1.0263474   -2.0405952   -2.0405952   -1.1069709  0.081267851   -2.0405952   0.93362423   507356 
  569000    1.0246232   -2.0390149   -2.0390149   -1.1069591  0.076231266   -2.0390149   0.93205579   507356 
  570000    1.0254695   -2.0407677   -2.0407677    -1.107942  0.079449627   -2.0407677   0.93282564   507356 
  571000     1.027177   -2.0411327   -2.0411327   -1.1067538  0.079520553   -2.0411327    0.9343789   507356 
  572000    1.0257965     -2.04095     -2.04095    -1.107827  0.083487283     -2.04095   0.93312306   507356 
  573000    1.0251471   -2.0401823   -2.0401823   -1.1076499  0.071498774   -2.0401823   0.93253238   507356 
  574000    1.0245007    -2.039721    -2.039721   -1.1077766  0.076541217    -2.039721    0.9319444   507356 
  575000     1.025343   -2.0408492   -2.0408492   -1.1081386  0.069508468   -2.0408492   0.93271059   507356 
  576000    1.0261716   -2.0410128   -2.0410128   -1.1075485  0.074681351   -2.0410128   0.93346434   507356 
  577000    1.0249363   -2.0400207   -2.0400207   -1.1076801   0.07890124   -2.0400207   0.93234057   507356 
  578000    1.0244237   -2.0396948   -2.0396948   -1.1078205  0.072169379   -2.0396948   0.93187427   507356 
  579000    1.0256616   -2.0416557   -2.0416557   -1.1086552   0.08268967   -2.0416557   0.93300042   507356 
  580000    1.0260944   -2.0422159   -2.0422159   -1.1088219  0.073675154   -2.0422159   0.93339404   507356 
  581000    1.0253571   -2.0411787   -2.0411787   -1.1084553  0.076454703   -2.0411787   0.93272336   507356 
  582000    1.0278239   -2.0439507   -2.0439507   -1.1089833  0.080078796   -2.0439507   0.93496735   507356 
  583000    1.0274239    -2.043205    -2.043205   -1.1086015  0.069666434    -2.043205   0.93460348   507356 
  584000    1.0276949   -2.0429992   -2.0429992   -1.1081492  0.074324219   -2.0429992      0.93485   507356 
  585000     1.026413   -2.0413258   -2.0413258   -1.1076418  0.078802651   -2.0413258   0.93368393   507356 
  586000    1.0258552   -2.0405756   -2.0405756   -1.1073991  0.075652735   -2.0405756   0.93317649   507356 
  587000    1.0263303   -2.0406911   -2.0406911   -1.1070825  0.087556835   -2.0406911   0.93360863   507356 
  588000    1.0266533   -2.0414879   -2.0414879   -1.1075854  0.079893329   -2.0414879   0.93390244   507356 
  589000    1.0251996   -2.0407953   -2.0407953   -1.1082152   0.07697561   -2.0407953   0.93258008   507356 
  590000    1.0263935   -2.0411882   -2.0411882    -1.107522  0.071929043   -2.0411882   0.93366619   507356 
  591000    1.0264623   -2.0420592   -2.0420592   -1.1083305  0.075224157   -2.0420592   0.93372873   507356 
  592000    1.0259781   -2.0417716   -2.0417716   -1.1084833  0.076298549   -2.0417716    0.9332883   507356 
  593000     1.025638   -2.0418118   -2.0418118   -1.1088329  0.074641928   -2.0418118   0.93297891   507356 
  594000    1.0258243   -2.0408112   -2.0408112   -1.1076627  0.073210655   -2.0408112   0.93314842   507356 
  595000    1.0250252    -2.039789    -2.039789   -1.1073675  0.085072301    -2.039789   0.93242149   507356 
  596000    1.0242194    -2.038909    -2.038909   -1.1072205   0.07828994    -2.038909   0.93168844   507356 
  597000    1.0231278   -2.0385411   -2.0385411   -1.1078457  0.072224334   -2.0385411   0.93069546   507356 
  598000    1.0246044   -2.0398969   -2.0398969   -1.1078582  0.066462307   -2.0398969   0.93203868   507356 
  599000    1.0237407   -2.0400562   -2.0400562   -1.1088032   0.06760217   -2.0400562     0.931253   507356 
  600000    1.0256932   -2.0419971   -2.0419971    -1.108968  0.063749903   -2.0419971   0.93302914   507356 
  601000    1.0252355    -2.041496    -2.041496   -1.1088833  0.072095326    -2.041496   0.93261276   507356 
  602000    1.0275937   -2.0429695   -2.0429695   -1.1082116  0.073757595   -2.0429695   0.93475791   507356 
  603000    1.0261724    -2.042231    -2.042231    -1.108766   0.06880855    -2.042231     0.933465   507356 
  604000    1.0258296   -2.0422551   -2.0422551   -1.1091018  0.070649574   -2.0422551   0.93315325   507356 
  605000    1.0272596   -2.0432273   -2.0432273   -1.1087733   0.06934941   -2.0432273   0.93445401   507356 
  606000    1.0269843   -2.0430357   -2.0430357   -1.1088321  0.074053676   -2.0430357   0.93420355   507356 
  607000    1.0259343   -2.0439374   -2.0439374    -1.110689  0.085152164   -2.0439374   0.93324845   507356 
  608000    1.0266615   -2.0440875   -2.0440875   -1.1101775  0.074028028   -2.0440875   0.93390994   507356 
  609000    1.0258037    -2.043077    -2.043077   -1.1099474  0.063792985    -2.043077   0.93312962   507356 
  610000    1.0277365   -2.0443507   -2.0443507   -1.1094629   0.07537473   -2.0443507   0.93488784   507356 
  611000    1.0285229   -2.0445455   -2.0445455   -1.1089423  0.079689318   -2.0445455   0.93560319   507356 
  612000    1.0283333   -2.0440614   -2.0440614   -1.1086307  0.076965724   -2.0440614   0.93543067   507356 
  613000    1.0266133   -2.0441278   -2.0441278   -1.1102618  0.071208872   -2.0441278   0.93386607   507356 
  614000    1.0264695   -2.0437185   -2.0437185   -1.1099833  0.080544019   -2.0437185   0.93373525   507356 
  615000     1.025632   -2.0430254   -2.0430254    -1.110052  0.084242207   -2.0430254   0.93297343   507356 
  616000    1.0243541   -2.0429547   -2.0429547   -1.1111437  0.082498031   -2.0429547   0.93181099   507356 
  617000    1.0255454   -2.0444428   -2.0444428   -1.1115481   0.08258368   -2.0444428   0.93289466   507356 
  618000     1.026633   -2.0449459   -2.0449459   -1.1110618  0.063791673   -2.0449459   0.93388403   507356 
  619000    1.0247334   -2.0441994   -2.0441994   -1.1120434  0.067573168   -2.0441994   0.93215599   507356 
  620000    1.0262719   -2.0454634   -2.0454634   -1.1119078  0.069201138   -2.0454634   0.93355557   507356 
  621000    1.0273687   -2.0456907   -2.0456907   -1.1111375   0.06756071   -2.0456907   0.93455323   507356 
  622000    1.0252569   -2.0436616   -2.0436616   -1.1110294  0.076846308   -2.0436616   0.93263223   507356 
  623000     1.026804   -2.0441166   -2.0441166    -1.110077  0.065922956   -2.0441166   0.93403958   507356 
  624000    1.0258488   -2.0428111   -2.0428111   -1.1096404  0.067707689   -2.0428111    0.9331707   507356 
  625000    1.0251274   -2.0425045   -2.0425045     -1.10999  0.065276303   -2.0425045   0.93251447   507356 
  626000    1.0255414   -2.0413079   -2.0413079   -1.1084169  0.080793882   -2.0413079   0.93289101   507356 
  627000    1.0272586    -2.044267    -2.044267    -1.109814  0.075429299    -2.044267   0.93445306   507356 
  628000    1.0256497   -2.0430907   -2.0430907   -1.1101012  0.084709276   -2.0430907   0.93298954   507356 
  629000    1.0264157   -2.0427679   -2.0427679   -1.1090815  0.071877914   -2.0427679   0.93368639   507356 
  630000    1.0248149   -2.0421045   -2.0421045   -1.1098744  0.082864526   -2.0421045   0.93223016   507356 
  631000    1.0275798   -2.0438908   -2.0438908   -1.1091456  0.071286491   -2.0438908   0.93474526   507356 
  632000    1.0260168   -2.0435774   -2.0435774   -1.1102539  0.069253431   -2.0435774   0.93332349   507356 
  633000    1.0254128   -2.0425758   -2.0425758   -1.1098017  0.072257571   -2.0425758   0.93277403   507356 
  634000    1.0251927    -2.041338    -2.041338   -1.1087642  0.063516689    -2.041338   0.93257381   507356 
  635000    1.0243125   -2.0407159   -2.0407159   -1.1089428  0.069439114   -2.0407159   0.93177317   507356 
  636000    1.0251775   -2.0422849   -2.0422849   -1.1097249  0.068849989   -2.0422849      0.93256   507356 
  637000    1.0244553    -2.041197    -2.041197   -1.1092939  0.067174779    -2.041197   0.93190309   507356 
  638000    1.0218932   -2.0401988   -2.0401988   -1.1106263   0.06874144   -2.0401988   0.92957245   507356 
  639000    1.0223976   -2.0413169   -2.0413169   -1.1112856  0.071616826   -2.0413169   0.93003125   507356 
  640000    1.0252897   -2.0428833   -2.0428833   -1.1102212  0.066622695   -2.0428833   0.93266207   507356 
  641000    1.0237528   -2.0421634   -2.0421634   -1.1108993  0.064316066   -2.0421634   0.93126401   507356 
  642000    1.0229632   -2.0408646   -2.0408646   -1.1103189  0.066899693   -2.0408646   0.93054574   507356 
  643000    1.0240455   -2.0413076   -2.0413076   -1.1097773  0.073881575   -2.0413076   0.93153031   507356 
  644000     1.025459   -2.0424707   -2.0424707   -1.1096546  0.072834241   -2.0424707    0.9328161   507356 
[...]
 9832000    1.0077282   -2.1215642   -2.1215642   -1.2048771  0.070736338   -2.1215642   0.91668711   507356 
 9833000    1.0052758   -2.1197641   -2.1197641   -1.2053077  0.062972536   -2.1197641   0.91445632   507356 
 9834000     1.005838   -2.1193991   -2.1193991   -1.2044314  0.069979711   -2.1193991   0.91496775   507356 
 9835000    1.0077229   -2.1216129   -2.1216129   -1.2049307  0.069090939   -2.1216129   0.91668229   507356 
 9836000     1.007049    -2.122114    -2.122114   -1.2060447  0.067168434    -2.122114    0.9160693   507356 
 9837000    1.0086807   -2.1240432   -2.1240432   -1.2064897  0.066306666   -2.1240432   0.91755355   507356 
 9838000    1.0060899   -2.1219708   -2.1219708   -1.2067739  0.060603513   -2.1219708   0.91519685   507356 
 9839000     1.006994   -2.1228747   -2.1228747   -1.2068554  0.064488022   -2.1228747   0.91601931   507356 
 9840000    1.0062402   -2.1216738   -2.1216738   -1.2063402  0.069764576   -2.1216738   0.91533356   507356 
 9841000    1.0048276   -2.1228059   -2.1228059   -1.2087572  0.065269727   -2.1228059   0.91404862   507356 
 9842000    1.0057505   -2.1227953   -2.1227953   -1.2079072  0.055211846   -2.1227953   0.91488807   507356 
 9843000    1.0071148   -2.1240908   -2.1240908   -1.2079616  0.061177721   -2.1240908   0.91612919   507356 
 9844000    1.0073913   -2.1239518   -2.1239518   -1.2075711  0.061739504   -2.1239518    0.9163807   507356 
 9845000    1.0060924   -2.1230727   -2.1230727   -1.2078736  0.070534403   -2.1230727   0.91519914   507356 
 9846000    1.0069449   -2.1244769   -2.1244769   -1.2085023  0.060642849   -2.1244769   0.91597456   507356 
 9847000    1.0090723   -2.1261416   -2.1261416   -1.2082319  0.058812721   -2.1261416   0.91790979   507356 
 9848000    1.0075242    -2.125834    -2.125834   -1.2093325  0.068891318    -2.125834   0.91650154   507356 
 9849000    1.0079804   -2.1264153   -2.1264153   -1.2094987  0.073365794   -2.1264153   0.91691654   507356 
 9850000    1.0078298   -2.1263907   -2.1263907   -1.2096112  0.066245228   -2.1263907   0.91677956   507356 
 9851000    1.0054187   -2.1254416   -2.1254416   -1.2108554  0.073044151   -2.1254416   0.91458629   507356 
 9852000    1.0065213   -2.1272932   -2.1272932   -1.2117039  0.072206355   -2.1272932   0.91558926   507356 
 9853000    1.0096301   -2.1294632   -2.1294632    -1.211046  0.069539609   -2.1294632   0.91841718   507356 
 9854000    1.0077151   -2.1265531   -2.1265531   -1.2098779  0.068069979   -2.1265531   0.91667522   507356 
 9855000    1.0088427   -2.1273531   -2.1273531   -1.2096522  0.079662729   -2.1273531   0.91770094   507356 
 9856000    1.0075146   -2.1268779   -2.1268779   -1.2103851  0.069443434   -2.1268779   0.91649282   507356 
 9857000    1.0088873    -2.127551    -2.127551   -1.2098094  0.069434683    -2.127551   0.91774153   507356 
 9858000    1.0090055   -2.1280893   -2.1280893   -1.2102402  0.072994471   -2.1280893   0.91784908   507356 
 9859000    1.0057007   -2.1269711   -2.1269711   -1.2121283   0.07549489   -2.1269711   0.91484279   507356 
 9860000    1.0066861    -2.127442    -2.127442   -1.2117028  0.056219762    -2.127442   0.91573915   507356 
 9861000    1.0044467     -2.12463     -2.12463   -1.2109279  0.077766053     -2.12463   0.91370211   507356 
 9862000    1.0078182   -2.1274898   -2.1274898   -1.2107207  0.067327859   -2.1274898   0.91676903   507356 
 9863000    1.0068071   -2.1258964   -2.1258964   -1.2100472  0.071944899   -2.1258964   0.91584922   507356 
 9864000    1.0071836    -2.126174    -2.126174   -1.2099822  0.068279247    -2.126174   0.91619178   507356 
 9865000    1.0066466   -2.1260604   -2.1260604   -1.2103571  0.082135818   -2.1260604   0.91570329   507356 
 9866000    1.0069931   -2.1260909   -2.1260909   -1.2100725  0.059776247   -2.1260909   0.91601845   507356 
 9867000    1.0054908   -2.1251853   -2.1251853   -1.2105335  0.069016719   -2.1251853   0.91465187   507356 
 9868000    1.0039312   -2.1236494   -2.1236494   -1.2104163  0.071558714   -2.1236494   0.91323313   507356 
 9869000    1.0040207   -2.1239181   -2.1239181   -1.2106035  0.078151046   -2.1239181   0.91331461   507356 
 9870000    1.0064588   -2.1259846   -2.1259846   -1.2104522  0.064473147   -2.1259846    0.9155324   507356 
 9871000    1.0080155   -2.1260346   -2.1260346   -1.2090861  0.071252153   -2.1260346   0.91694852   507356 
 9872000    1.0078538   -2.1260132   -2.1260132   -1.2092118  0.063457954   -2.1260132   0.91680141   507356 
 9873000    1.0092507   -2.1271345   -2.1271345   -1.2090624  0.072092652   -2.1271345   0.91807212   507356 
 9874000    1.0074927    -2.125543    -2.125543   -1.2090701   0.07935105    -2.125543   0.91647288   507356 
 9875000     1.006505    -2.124259    -2.124259   -1.2086846  0.070591513    -2.124259   0.91557441   507356 
 9876000    1.0061118   -2.1234283   -2.1234283   -1.2082115  0.070256011   -2.1234283   0.91521672   507356 
 9877000    1.0069062   -2.1241865   -2.1241865   -1.2082471  0.067934725   -2.1241865   0.91593939   507356 
 9878000    1.0072528   -2.1239053   -2.1239053   -1.2076507  0.064391537   -2.1239053   0.91625465   507356 
 9879000    1.0091043   -2.1250998   -2.1250998   -1.2071609  0.064571063   -2.1250998    0.9179389   507356 
 9880000    1.0079798   -2.1243995   -2.1243995   -1.2074835  0.065580375   -2.1243995   0.91691601   507356 
 9881000    1.0079066   -2.1250709   -2.1250709   -1.2082215  0.070171977   -2.1250709   0.91684938   507356 
 9882000      1.00773   -2.1245804   -2.1245804   -1.2078917   0.06919766   -2.1245804   0.91668876   507356 
 9883000    1.0080074   -2.1244838   -2.1244838   -1.2075427  0.063523123   -2.1244838   0.91694114   507356 
 9884000    1.0086009   -2.1257441   -2.1257441   -1.2082631  0.062828165   -2.1257441   0.91748097   507356 
 9885000    1.0074034   -2.1242023   -2.1242023   -1.2078107  0.074333838   -2.1242023   0.91639165   507356 
 9886000    1.0090162   -2.1254657   -2.1254657   -1.2076069  0.061150525   -2.1254657   0.91785882   507356 
 9887000    1.0109728   -2.1272418   -2.1272418   -1.2076032  0.068299521   -2.1272418   0.91963858   507356 
 9888000    1.0083041    -2.125225    -2.125225    -1.208014  0.077390008    -2.125225   0.91721097   507356 
 9889000    1.0085495   -2.1251601   -2.1251601   -1.2077258     0.073832   -2.1251601   0.91743427   507356 
 9890000    1.0079881   -2.1252775   -2.1252775    -1.208354  0.081333521   -2.1252775   0.91692356   507356 
 9891000    1.0086813   -2.1252382   -2.1252382   -1.2076841  0.076331372   -2.1252382    0.9175541   507356 
 9892000    1.0079362   -2.1251179   -2.1251179   -1.2082415  0.063459203   -2.1251179   0.91687636   507356 
 9893000    1.0083886   -2.1246054   -2.1246054   -1.2073175  0.068347069   -2.1246054    0.9172879   507356 
 9894000    1.0080572    -2.124167    -2.124167   -1.2071806  0.062523767    -2.124167   0.91698641   507356 
 9895000    1.0071757   -2.1237507   -2.1237507   -1.2075662  0.074635736   -2.1237507   0.91618454   507356 
 9896000    1.0075194    -2.123345    -2.123345   -1.2068478  0.073322504    -2.123345   0.91649719   507356 
 9897000    1.0094519   -2.1248754   -2.1248754   -1.2066203  0.066254817   -2.1248754   0.91825509   507356 
 9898000    1.0104211   -2.1252528   -2.1252528   -1.2061161  0.064602776   -2.1252528   0.91913671   507356 
 9899000    1.0083786   -2.1235722   -2.1235722   -1.2062934  0.078527458   -2.1235722   0.91727882   507356 
 9900000    1.0095631   -2.1237083   -2.1237083    -1.205352  0.064391607   -2.1237083   0.91835627   507356 
 9901000    1.0099743   -2.1241861   -2.1241861   -1.2054557  0.071693889   -2.1241861   0.91873035   507356 
 9902000    1.0078447   -2.1227911   -2.1227911   -1.2059979  0.076836202   -2.1227911   0.91679316   507356 
 9903000    1.0082631   -2.1229445   -2.1229445   -1.2057708  0.068983111   -2.1229445   0.91717369   507356 
 9904000      1.00931   -2.1232217   -2.1232217   -1.2050956  0.072093794   -2.1232217   0.91812607   507356 
 9905000    1.0113419   -2.1243466   -2.1243466   -1.2043722  0.064190083   -2.1243466   0.91997434   507356 
 9906000    1.0092147   -2.1226407   -2.1226407   -1.2046014  0.067805789   -2.1226407   0.91803935   507356 
 9907000    1.0096073   -2.1233889   -2.1233889   -1.2049925  0.069301341   -2.1233889   0.91839646   507356 
 9908000    1.0099713   -2.1239182   -2.1239182   -1.2051906  0.062058369   -2.1239182   0.91872761   507356 
 9909000    1.0078082   -2.1220939   -2.1220939    -1.205334  0.062750958   -2.1220939    0.9167599   507356 
 9910000    1.0080071   -2.1223201   -2.1223201   -1.2053793  0.068402685   -2.1223201   0.91694083   507356 
 9911000     1.009781   -2.1235632   -2.1235632   -1.2050087  0.070317683   -2.1235632   0.91855451   507356 
 9912000     1.009643   -2.1222812   -2.1222812   -1.2038522  0.080052818   -2.1222812   0.91842896   507356 
 9913000    1.0093178   -2.1224189   -2.1224189   -1.2042858  0.063738656   -2.1224189   0.91813312   507356 
 9914000    1.0085278   -2.1224668   -2.1224668   -1.2050523  0.062065049   -2.1224668   0.91741447   507356 
 9915000    1.0076294   -2.1226951   -2.1226951   -1.2060979  0.074816389   -2.1226951   0.91659725   507356 
 9916000    1.0079161   -2.1236887   -2.1236887   -1.2068306  0.067793821   -2.1236887   0.91685808   507356 
 9917000    1.0079749   -2.1230816   -2.1230816     -1.20617  0.062797067   -2.1230816   0.91691154   507356 
 9918000    1.0065889   -2.1222724   -2.1222724   -1.2066215  0.067178752   -2.1222724   0.91565081   507356 
 9919000    1.0081283   -2.1229544   -2.1229544   -1.2059032  0.075031071   -2.1229544   0.91705112   507356 
 9920000    1.0089213   -2.1247273   -2.1247273   -1.2069549  0.075558128   -2.1247273   0.91777241   507356 
 9921000    1.0106111   -2.1265401   -2.1265401   -1.2072305  0.073480675   -2.1265401   0.91930962   507356 
 9922000    1.0080729   -2.1237447   -2.1237447    -1.206744  0.062847749   -2.1237447   0.91700069   507356 
 9923000    1.0094663   -2.1245851   -2.1245851    -1.206317  0.080551292   -2.1245851    0.9182682   507356 
 9924000    1.0091553   -2.1254057   -2.1254057   -1.2074204  0.062804627   -2.1254057   0.91798533   507356 
 9925000      1.00776   -2.1235053   -2.1235053   -1.2067892  0.063176729   -2.1235053    0.9167161   507356 
 9926000    1.0085798   -2.1246386   -2.1246386   -1.2071768  0.074489703   -2.1246386   0.91746184   507356 
 9927000    1.0077461   -2.1245202   -2.1245202   -1.2078167  0.067842657   -2.1245202   0.91670346   507356 
 9928000    1.0075271   -2.1237368   -2.1237368   -1.2072325  0.076034331   -2.1237368   0.91650425   507356 
 9929000     1.008203   -2.1257712   -2.1257712   -1.2086522  0.070969612   -2.1257712   0.91711902   507356 
 9930000    1.0095359   -2.1267957   -2.1267957   -1.2084641  0.066194517   -2.1267957   0.91833154   507356 
 9931000    1.0096769   -2.1269057   -2.1269057    -1.208446  0.069604897   -2.1269057   0.91845974   507356 
 9932000    1.0099473   -2.1264379   -2.1264379   -1.2077321  0.081025673   -2.1264379   0.91870578   507356 
 9933000    1.0104487   -2.1267869   -2.1267869    -1.207625  0.073456027   -2.1267869   0.91916189   507356 
 9934000    1.0103255    -2.127423    -2.127423   -1.2083732  0.071391976    -2.127423   0.91904979   507356 
 9935000    1.0086622   -2.1258644   -2.1258644   -1.2083276  0.074163385   -2.1258644   0.91753677   507356 
 9936000    1.0093787   -2.1262468   -2.1262468   -1.2080583  0.077088305   -2.1262468   0.91818849   507356 
 9937000    1.0065959   -2.1250142   -2.1250142    -1.209357  0.078920092   -2.1250142   0.91565718   507356 
 9938000      1.00783   -2.1254504   -2.1254504   -1.2086707  0.065590012   -2.1254504   0.91677974   507356 
 9939000    1.0075649   -2.1248429   -2.1248429   -1.2083043  0.059959798   -2.1248429   0.91653863   507356 
 9940000    1.0073166   -2.1242354   -2.1242354   -1.2079227  0.074512316   -2.1242354   0.91631272   507356 
 9941000    1.0084901   -2.1244318   -2.1244318   -1.2070515  0.073552819   -2.1244318   0.91738023   507356 
 9942000    1.0074594   -2.1240751   -2.1240751   -1.2076325  0.062770703   -2.1240751   0.91644262   507356 
 9943000    1.0085417   -2.1235008   -2.1235008   -1.2060737  0.078422763   -2.1235008   0.91742712   507356 
 9944000    1.0097937   -2.1251658   -2.1251658   -1.2065998  0.059962835   -2.1251658   0.91856603   507356 
 9945000     1.008726   -2.1232777   -2.1232777   -1.2056828  0.069843422   -2.1232777   0.91759481   507356 
 9946000    1.0042611   -2.1197759   -2.1197759   -1.2062426  0.072753377   -2.1197759   0.91353329   507356 
 9947000    1.0064782   -2.1218291   -2.1218291   -1.2062791  0.067761917   -2.1218291   0.91555004   507356 
 9948000    1.0057785   -2.1213904   -2.1213904   -1.2064768  0.055740273   -2.1213904   0.91491361   507356 
 9949000    1.0081964   -2.1231621   -2.1231621   -1.2060491  0.075124024   -2.1231621   0.91711301   507356 
 9950000     1.008096     -2.12174     -2.12174   -1.2047183    0.0623509     -2.12174   0.91702174   507356 
 9951000    1.0064933     -2.12013     -2.12013   -1.2045661  0.068961267     -2.12013   0.91556385   507356 
 9952000    1.0066188    -2.120864    -2.120864    -1.205186  0.056298106    -2.120864   0.91567799   507356 
 9953000    1.0064387   -2.1212351   -2.1212351   -1.2057209  0.059532448   -2.1212351   0.91551418   507356 
 9954000    1.0069766   -2.1215506   -2.1215506   -1.2055471   0.07196963   -2.1215506   0.91600346   507356 
 9955000     1.009011   -2.1237604   -2.1237604   -1.2059063  0.074218154   -2.1237604   0.91785409   507356 
 9956000    1.0095483   -2.1238068   -2.1238068    -1.205464   0.06445224   -2.1238068   0.91834283   507356 
 9957000    1.0066839    -2.123388    -2.123388   -1.2076508   0.06216241    -2.123388   0.91573716   507356 
 9958000     1.007698    -2.123273    -2.123273   -1.2066133  0.066595719    -2.123273   0.91665963   507356 
 9959000    1.0069636   -2.1233829   -2.1233829   -1.2073913  0.068763608   -2.1233829   0.91599161   507356 
 9960000    1.0083812    -2.124457    -2.124457   -1.2071759   0.07323907    -2.124457   0.91728111   507356 
 9961000    1.0084776   -2.1233302   -2.1233302   -1.2059613  0.068606974   -2.1233302   0.91736886   507356 
 9962000    1.0087976   -2.1239133   -2.1239133   -1.2062534   0.07504229   -2.1239133   0.91765992   507356 
 9963000    1.0092349   -2.1244431   -2.1244431   -1.2063854  0.070530003   -2.1244431   0.91805772   507356 
 9964000    1.0087907   -2.1252438   -2.1252438   -1.2075902  0.062662526   -2.1252438   0.91765367   507356 
 9965000    1.0080596   -2.1244182   -2.1244182   -1.2074296  0.072538086   -2.1244182   0.91698859   507356 
 9966000    1.0072896   -2.1245864   -2.1245864   -1.2082983  0.063544382   -2.1245864   0.91628814   507356 
 9967000    1.0090897   -2.1244685   -2.1244685   -1.2065429  0.059735541   -2.1244685   0.91792562   507356 
 9968000    1.0103233   -2.1246951   -2.1246951   -1.2056473  0.062408872   -2.1246951   0.91904776   507356 
 9969000    1.0090527   -2.1241008   -2.1241008   -1.2062088  0.076372842   -2.1241008   0.91789199   507356 
 9970000     1.008076   -2.1234904   -2.1234904   -1.2064869  0.071813073   -2.1234904   0.91700353   507356 
 9971000    1.0084744   -2.1235798   -2.1235798   -1.2062139  0.067596418   -2.1235798   0.91736593   507356 
 9972000    1.0093621   -2.1240018   -2.1240018   -1.2058283  0.079906646   -2.1240018   0.91817344   507356 
 9973000    1.0100669   -2.1234802   -2.1234802   -1.2046656  0.062218413   -2.1234802   0.91881456   507356 
 9974000    1.0083182   -2.1212002   -2.1212002   -1.2039763  0.079572082   -2.1212002   0.91722385   507356 
 9975000    1.0080094   -2.1221858   -2.1221858   -1.2052428  0.073266194   -2.1221858   0.91694294   507356 
 9976000    1.0084508   -2.1224435   -2.1224435    -1.205099  0.061111073   -2.1224435    0.9173445   507356 
 9977000      1.00672    -2.120315    -2.120315   -1.2045449  0.053645589    -2.120315   0.91577006   507356 
 9978000    1.0050988   -2.1189843   -2.1189843    -1.204689  0.075621958   -2.1189843   0.91429526   507356 
 9979000    1.0073472   -2.1215785   -2.1215785   -1.2052379  0.071237587   -2.1215785    0.9163406   507356 
 9980000    1.0069278   -2.1210899   -2.1210899   -1.2051308  0.075461368   -2.1210899   0.91595905   507356 
 9981000    1.0087705   -2.1217529   -2.1217529   -1.2041177  0.063609235   -2.1217529   0.91763525   507356 
 9982000    1.0085439   -2.1218145   -2.1218145   -1.2043853  0.073187667   -2.1218145   0.91742918   507356 
 9983000    1.0087855   -2.1205704   -2.1205704   -1.2029215   0.06767248   -2.1205704   0.91764894   507356 
 9984000    1.0087249   -2.1190411   -2.1190411   -1.2014473  0.076692975   -2.1190411    0.9175938   507356 
 9985000    1.0098141    -2.120773    -2.120773   -1.2021884  0.075947885    -2.120773   0.91858462   507356 
 9986000    1.0102563   -2.1208313   -2.1208313   -1.2018445  0.067215934   -2.1208313   0.91898683   507356 
 9987000     1.010293    -2.120992    -2.120992   -1.2019718  0.059081374    -2.120992    0.9190202   507356 
 9988000    1.0096323   -2.1203703   -2.1203703   -1.2019511  0.071281541   -2.1203703    0.9184192   507356 
 9989000    1.0077986   -2.1190186   -2.1190186   -1.2022675  0.070322393   -2.1190186   0.91675115   507356 
 9990000    1.0087517   -2.1203786   -2.1203786   -1.2027605  0.081008647   -2.1203786   0.91761813   507356 
 9991000    1.0085517   -2.1193938   -2.1193938   -1.2019575  0.069095401   -2.1193938   0.91743628   507356 
 9992000     1.008949   -2.1205513   -2.1205513   -1.2027536  0.067768705   -2.1205513   0.91779764   507356 
 9993000    1.0052842   -2.1175395   -2.1175395   -1.2030756  0.078308889   -2.1175395   0.91446395   507356 
 9994000    1.0076665    -2.120382    -2.120382    -1.203751  0.077031605    -2.120382   0.91663097   507356 
 9995000     1.009357   -2.1204997   -2.1204997   -1.2023309  0.071997009   -2.1204997    0.9181688   507356 
 9996000    1.0084477   -2.1194842   -2.1194842   -1.2021426  0.068371464   -2.1194842   0.91734166   507356 
 9997000    1.0101895   -2.1216396   -2.1216396   -1.2027135  0.063079588   -2.1216396   0.91892608   507356 
 9998000    1.0103619   -2.1227102   -2.1227102   -1.2036272  0.066200978   -2.1227102   0.91908295   507356 
 9999000    1.0092078   -2.1217609   -2.1217609   -1.2037278  0.074788966   -2.1217609   0.91803311   507356 
10000000    1.0106626   -2.1218687   -2.1218687   -1.2025123  0.077149757   -2.1218687   0.91935644   507356 
Loop time of 65386.6 on 64 procs for 10000000 steps with 507356 atoms

Performance: 66068.574 tau/day, 152.937 timesteps/s
98.2% CPU use with 64 MPI tasks x 1 OpenMP threads

MPI task timing breakdown:
Section |  min time  |  avg time  |  max time  |%varavg|  %CPU | %total
-----------------------------------------------------------------------
Pair    | 13071      | 19520      | 27185      |2498.3 |  97.8 | 29.85
Bond    | 3.8392     | 4.4        | 5.0983     |  11.8 | 100.0 |  0.01
Neigh   | 8168.9     | 16032      | 19366      |2323.1 |  99.8 | 24.52
Comm    | 11536      | 19640      | 35380      |4409.7 |  97.2 | 30.04
Output  | 413.34     | 414.41     | 418.44     |   7.4 |  98.7 |  0.63
Modify  | 6901.5     | 8964.1     | 11535      |1276.3 |  97.8 | 13.71
Other   |            | 812.1      |            |       |       |  1.24

Nlocal:        7927.44 ave        8866 max        6598 min
Histogram: 1 0 1 7 9 19 12 8 5 2
Nghost:        12775.6 ave       17061 max        7461 min
Histogram: 5 8 3 0 4 9 10 12 9 4
Neighs:       142844.0 ave      217133 max       91127 min
Histogram: 4 4 10 23 9 5 1 0 3 5

Total # of neighbors = 9142021
Ave neighs/atom = 18.018947
Ave special neighs/atom = 0.0000000
Neighbor list builds = 1000000
Dangerous builds = 990000

Total wall time: 18:09:57
