LAMMPS (24 Dec 2020)
OMP_NUM_THREADS environment is not set. Defaulting to 1 thread. (src/comm.cpp:94)
  using 1 OpenMP thread(s) per MPI task
#Read the equilibrated lj fluid and add nanocubes

units           lj
atom_style      full
atom_modify     map array first cubes
dimension       3
boundary        p p f
pair_style      lj/cut/opt 2.5

variable        sigma           equal 1.0
variable        epsilon         equal 1.0
read_restart	restart.dat.10000000
Reading restart file ...
  restart file = 24 Dec 2020, LAMMPS = 24 Dec 2020
WARNING: Restart file used different # of processors: 192 vs. 288 (src/read_restart.cpp:697)
  restoring atom style full from restart
  orthogonal box = (0.0000000 0.0000000 0.0000000) to (80.000000 80.000000 160.00000)
  6 by 4 by 12 MPI processor grid
  restoring pair style lj/cut/opt from restart
  443961 atoms
Finding 1-2 1-3 1-4 neighbors ...
  special bond factors lj:    0        0        0       
  special bond factors coul:  0        0        0       
     0 = max # of 1-2 neighbors
     0 = max # of 1-3 neighbors
     0 = max # of 1-4 neighbors
     1 = max # of special neighbors
  special bonds CPU = 2.296 seconds
  read_restart CPU = 2.731 seconds

group		solvent type 1
443961 atoms in group solvent

read_data	data_96_seed2.cubes group cubes add append
Reading data file ...
  orthogonal box = (0.0000000 0.0000000 0.0000000) to (80.000000 80.000000 160.00000)
  6 by 4 by 12 MPI processor grid
  reading atoms ...
  109728 atoms
  reading velocities ...
  109728 velocities
Finding 1-2 1-3 1-4 neighbors ...
  special bond factors lj:    0        0        0       
  special bond factors coul:  0        0        0       
     0 = max # of 1-2 neighbors
     0 = max # of 1-3 neighbors
     0 = max # of 1-4 neighbors
     1 = max # of special neighbors
  special bonds CPU = 0.059 seconds
  read_data CPU = 0.340 seconds

group 		hull  type 2
42816 atoms in group hull
group 		dummy type 3
66912 atoms in group dummy

neighbor      0.4 bin
neigh_modify  exclude molecule/intra cubes


pair_modify   shift yes

pair_coeff    1 1 1.0 1.0 #solvent
pair_coeff    2 2 1.0 1.0 1.12 #np
pair_coeff    3 3 0.0 0.0 0.0 #dummy
pair_coeff    2 3 0.0 0.0 0.0 #np dummy
pair_coeff    1 2 ${sol} 1.0  #np solvent
pair_coeff    1 2 .55 1.0  
pair_coeff    1 3 0.0 0.0 2.5 #dummy solvent

# delete solvent where the cubes are
delete_atoms  overlap 1.0 solvent cubes
System init for delete_atoms ...
Unused restart file peratom fix info:
  fix style: STORE, fix ID: bin1_COMPUTE_STORE
Neighbor list info ...
  update every 1 steps, delay 10 steps, check yes
  max neighbors/atom: 2000, page size: 100000
  master list distance cutoff = 2.9
  ghost atom cutoff = 2.9
  binsize = 1.45, bins = 56 56 111
  2 neighbor lists, perpetual/occasional/extra = 1 1 0
  (1) command delete_atoms, occasional
      attributes: full, newton on
      pair build: full/bin
      stencil: full/bin/3d
      bin: standard
  (2) pair lj/cut/opt, perpetual
      attributes: half, newton on
      pair build: half/bin/newton
      stencil: half/bin/3d/newton
      bin: standard
WARNING: Delete_atoms cutoff > minimum neighbor cutoff (src/delete_atoms.cpp:307)
WARNING: Ignoring 'compress yes' for molecular system (src/delete_atoms.cpp:125)
Deleted 77829 atoms, new total = 475860

pair_coeff    1 1 1.0 1.0 #solvent
pair_coeff    2 2 1.0 1.0 1.12 #np
pair_coeff    3 3 0.0 0.0 0.0 #dummy
pair_coeff    2 3 0.0 0.0 0.0 #np dummy
pair_coeff    1 2 ${sol} 1.0  #np solvent
pair_coeff    1 2 .55 1.0  
pair_coeff    1 3 0.0 0.0 0.0 #dummy solvent


comm_modify   mode multi cutoff/multi 1 2.5 cutoff/multi 2 2.5 cutoff/multi 3 6.95

reset_timestep 	0

balance 	1.05 shift z 10 1.05
Balancing ...
Neighbor list info ...
  update every 1 steps, delay 10 steps, check yes
  max neighbors/atom: 2000, page size: 100000
  master list distance cutoff = 2.9
  ghost atom cutoff = 6.95
  binsize = 1.45, bins = 56 56 111
  1 neighbor lists, perpetual/occasional/extra = 1 0 0
  (1) pair lj/cut/opt, perpetual
      attributes: half, newton on
      pair build: half/bin/newton
      stencil: half/bin/3d/newton
      bin: standard
 rebalancing time: 0.008 seconds
  iteration count = 4
  initial/final maximal load/proc = 2532.0000 2577.0000
  initial/final imbalance factor  = 1.5324171 1.5596520
  x cuts: 0.0000000 0.16666667 0.33333333 0.50000000 0.66666667 0.83333333 1.0000000
  y cuts: 0.0000000 0.25000000 0.50000000 0.75000000 1.0000000
  z cuts: 0.0000000 0.067708333 0.13020833 0.19270833 0.25520833 0.32291667 0.38541667 0.44791667 0.51041667 0.57812500 0.63020833 0.68229167 1.0000000

####################### WALLS ###########################

variable       epsilonWall equal 2*${epsilon}
variable       epsilonWall equal 2*1
variable       repulsive   equal   0.7147*${sigma}
variable       repulsive   equal   0.7147*1
variable       full	   equal   3*${sigma}
variable       full	   equal   3*1
region         lowWall block EDGE EDGE EDGE EDGE EDGE 2

fix            topWall all wall/lj93 zhi EDGE 	       ${epsilonWall} ${sigma} ${repulsive} units box
fix            topWall all wall/lj93 zhi EDGE 	       2 ${sigma} ${repulsive} units box
fix            topWall all wall/lj93 zhi EDGE 	       2 1 ${repulsive} units box
fix            topWall all wall/lj93 zhi EDGE 	       2 1 0.7147 units box
fix            lowSol solvent wall/lj93 zlo EDGE                ${epsilonWall} ${sigma} ${full} units box
fix            lowSol solvent wall/lj93 zlo EDGE                2 ${sigma} ${full} units box
fix            lowSol solvent wall/lj93 zlo EDGE                2 1 ${full} units box
fix            lowSol solvent wall/lj93 zlo EDGE                2 1 3 units box
fix 	       lowCub cubes wall/lj93 zlo EDGE                ${epsilonWall} ${sigma} ${repulsive} units box
fix 	       lowCub cubes wall/lj93 zlo EDGE                2 ${sigma} ${repulsive} units box
fix 	       lowCub cubes wall/lj93 zlo EDGE                2 1 ${repulsive} units box
fix 	       lowCub cubes wall/lj93 zlo EDGE                2 1 0.7147 units box


###################### COMPUTES ##########################

compute        bin1 solvent chunk/atom bin/1d z lower 1.0 units box
compute        bin3 solvent chunk/atom bin/3d x lower 1.0 y lower 1.0 z lower 1.0 units box

compute 	pe solvent 	   pe/atom
compute 	pe2 all 	   pe/atom

######################  FIXES ############################


fix             peclet solvent ave/chunk 10 10 10000 bin1 density/number norm                  none ave one file density.profile

fix              temp solvent ave/chunk 10 10 10000 bin1 temp norm                  none ave one file temp.profile

fix 		 dens solvent ave/chunk 10 10 10000 bin3 density/number norm 		 none ave one file dens3.profile

fix		 temp2 solvent ave/chunk 10 10 1000 bin3 temp norm none ave one file temp3.profile

fix 		pe solvent ave/chunk 1 1 10000 bin3 c_pe norm none ave one file pe3.profile

fix             1 cubes rigid/nve/small molecule
  create bodies CPU = 0.026 seconds
  96 rigid bodies with 109728 atoms
  6.9282032 = max distance from body owner to body atom

fix             2 solvent nve# temp ${temp} ${temp} 10


## Thermostat
region          regthermo block EDGE EDGE EDGE EDGE 0 15
group           thermo dynamic solvent region regthermo every 1000
dynamic group thermo defined
fix             3 thermo langevin ${temp} ${temp} 10 156453
fix             3 thermo langevin 1.0 ${temp} 10 156453
fix             3 thermo langevin 1.0 1.0 10 156453


#### Load balancing

fix             bal all balance 1000 1.05 shift z 10 1.05

############### Diagnostics and computes ###################

compute        	com cubes          rigid/local   1 mol x y z
compute        	quat cubes         rigid/local   1 mol quatw quati quatj quatk

compute 	cc2 cubes 	   chunk/atom 	 molecule
compute 	msd cubes 	   msd/chunk 	 cc2

fix 		msd all ave/time  1 1 10000 c_msd[*] file dump.msd ave one mode vector

dump            1 all custom 500000 dump.lammpstrj id mol type x y z vx vy vz c_pe2
dump		sol  solvent custom 500000 dump.soltrj id x y z vx vy vz c_pe
dump		cubetrj cubes custom 500000 cubes.lammpstrj id mol type x y z vx vy vz
dump            com cubes local 100000 dump.*.xyz c_com[*]
dump	        xyz hull xyz 100000 cubes.xyz
dump            quat cubes      local 100000 dump.*.quat c_quat[*]
dump		order cubes 	local 100000 dump.*.order c_com[*] c_quat[*]
#dump		mol cubes molfile 10000 mol.xyz xyz


dump            2 all image 100000 image.*.png type type zoom 1.5 size 1280 720
dump_modify     2 pad 8
dump		image cubes image 100000 image_cubes.*.png type type zoom 1.5 size 1280 720
dump_modify	image pad 8
dump            3 all movie 5000 movie.avi type type zoom 1.5 size 1280 720
dump		4 cubes movie 5000 movie_cubes.avi type type size 1280 720


thermo          1000
thermo_style    custom step temp epair evdwl etotal press pe ke atoms

restart         1000000 restart.dat
timestep        0.005
timer           full
New timer settings: style=full  mode=nosync  timeout=off

run 		10000000
Per MPI rank memory allocation (min/avg/max) = 78.73 | 84.71 | 88.21 Mbytes
Step Temp E_pair E_vdwl TotEng Press PotEng KinEng Atoms 
       0    1.0098975   -2.4151088   -2.4151088   -1.2489611  -0.02830908   -2.4151088    1.1661477   475860 
    1000    1.0071023   -2.4121787   -2.4121787   -1.2492587  0.073846384   -2.4121787    1.1629199   475860 
    2000    1.0065396   -2.4122884   -2.4122884   -1.2500181  0.069116252   -2.4122884    1.1622703   475860 
    3000    1.0054501   -2.4114176   -2.4114176   -1.2504054  0.074265348   -2.4114176    1.1610122   475860 
    4000    1.0056187    -2.411402    -2.411402   -1.2501952  0.073435592    -2.411402    1.1612068   475860 
    5000    1.0046718   -2.4107341   -2.4107341   -1.2506207  0.068662687   -2.4107341    1.1601135   475860 
    6000    1.0048476   -2.4110363   -2.4110363   -1.2507199   0.06435868   -2.4110363    1.1603164   475860 
    7000    1.0046769   -2.4101747   -2.4101747   -1.2500553  0.067534749   -2.4101747    1.1601193   475860 
    8000    1.0038183   -2.4092585   -2.4092585   -1.2501306  0.068425071   -2.4092585    1.1591279   475860 
    9000    1.0041253   -2.4091403   -2.4091403   -1.2496578  0.068154795   -2.4091403    1.1594824   475860 
   10000    1.0015128    -2.407203    -2.407203   -1.2507372   0.06933604    -2.407203    1.1564657   475860 
   11000    1.0022818   -2.4078303   -2.4078303   -1.2504766  0.066094435   -2.4078303    1.1573536   475860 
   12000    1.0017059   -2.4079338   -2.4079338   -1.2512451  0.065861341   -2.4079338    1.1566887   475860 
   13000    1.0020338   -2.4077863   -2.4077863   -1.2507191  0.062745569   -2.4077863    1.1570672   475860 
   14000    1.0018617   -2.4071766   -2.4071766    -1.250308  0.066729172   -2.4071766    1.1568686   475860 
   15000    1.0022732   -2.4063839   -2.4063839   -1.2490402  0.069695583   -2.4063839    1.1573437   475860 
   16000    1.0014689   -2.4058726   -2.4058726   -1.2494577   0.06639262   -2.4058726     1.156415   475860 
   17000    1.0023951   -2.4064233   -2.4064233   -1.2489387  0.060171652   -2.4064233    1.1574845   475860 
   18000    1.0007719   -2.4048937   -2.4048937   -1.2492835  0.062854059   -2.4048937    1.1556102   475860 
   19000    1.0028845   -2.4064935   -2.4064935   -1.2484438  0.063031046   -2.4064935    1.1580496   475860 
   20000    1.0005863   -2.4030212   -2.4030212   -1.2476254   0.06678717   -2.4030212    1.1553958   475860 
   21000    1.0032171   -2.4048337   -2.4048337      -1.2464  0.062978817   -2.4048337    1.1584337   475860 
   22000    1.0035067   -2.4041377   -2.4041377   -1.2453697  0.069131002   -2.4041377     1.158768   475860 
   23000     1.002741   -2.4042336   -2.4042336   -1.2463497  0.064639771   -2.4042336    1.1578839   475860 
   24000    1.0007743   -2.4020005   -2.4020005   -1.2463876  0.067580863   -2.4020005    1.1556129   475860 
   25000    1.0023731   -2.4034273   -2.4034273   -1.2459682  0.065722583   -2.4034273    1.1574591   475860 
   26000    1.0013463   -2.4037789   -2.4037789   -1.2475054  0.058296511   -2.4037789    1.1562735   475860 
   27000    1.0013821   -2.4040639   -2.4040639   -1.2477491  0.064292783   -2.4040639    1.1563148   475860 
   28000    1.0019455   -2.4036303   -2.4036303   -1.2466649  0.068265494   -2.4036303    1.1569654   475860 
   29000    1.0014171   -2.4029761   -2.4029761   -1.2466209  0.065419262   -2.4029761    1.1563552   475860 
   30000    1.0021709   -2.4050455   -2.4050455   -1.2478199  0.064397989   -2.4050455    1.1572256   475860 
   31000    1.0017988   -2.4047882   -2.4047882   -1.2479923  0.061301529   -2.4047882    1.1567959   475860 
   32000    1.0014999    -2.403508    -2.403508   -1.2470572  0.062112535    -2.403508    1.1564508   475860 
   33000     1.002401   -2.4055167   -2.4055167   -1.2480254  0.068053223   -2.4055167    1.1574913   475860 
   34000    1.0031036   -2.4052622   -2.4052622   -1.2469596   0.06840263   -2.4052622    1.1583026   475860 
   35000    1.0025565   -2.4038792   -2.4038792   -1.2462084  0.070808629   -2.4038792    1.1576708   475860 
   36000    1.0056363    -2.408449    -2.408449   -1.2472218  0.065043241    -2.408449    1.1612271   475860 
   37000    1.0026326   -2.4051112   -2.4051112   -1.2473524  0.074974578   -2.4051112    1.1577587   475860 
   38000    1.0038947   -2.4065028   -2.4065028   -1.2472866  0.075124364   -2.4065028    1.1592162   475860 
   39000    1.0044227   -2.4071362   -2.4071362   -1.2473104  0.067588032   -2.4071362    1.1598258   475860 
   40000    1.0042543   -2.4068733   -2.4068733   -1.2472419  0.064354943   -2.4068733    1.1596313   475860 
   41000     1.003721   -2.4059958   -2.4059958   -1.2469803  0.067506398   -2.4059958    1.1590155   475860 
   42000    1.0029938   -2.4056533   -2.4056533   -1.2474775  0.066848086   -2.4056533    1.1581758   475860 
   43000    1.0044827   -2.4074513   -2.4074513   -1.2475563  0.071445516   -2.4074513     1.159895   475860 
   44000    1.0037972   -2.4072971   -2.4072971   -1.2481936  0.068057349   -2.4072971    1.1591035   475860 
   45000    1.0032861   -2.4065146   -2.4065146   -1.2480013  0.066747537   -2.4065146    1.1585133   475860 
   46000    1.0027608   -2.4065992   -2.4065992   -1.2486925  0.068137489   -2.4065992    1.1579068   475860 
   47000    1.0021778   -2.4063999   -2.4063999   -1.2491663  0.068511401   -2.4063999    1.1572336   475860 
   48000     1.002646   -2.4068451   -2.4068451   -1.2490708  0.067766408   -2.4068451    1.1577743   475860 
   49000    1.0020037   -2.4069009   -2.4069009   -1.2498683  0.067446359   -2.4069009    1.1570326   475860 
   50000    1.0015917   -2.4057249   -2.4057249   -1.2491682  0.071283664   -2.4057249    1.1565567   475860 
   51000     1.002558    -2.406309    -2.406309   -1.2486364  0.059865877    -2.406309    1.1576725   475860 
   52000    1.0030567   -2.4070754   -2.4070754   -1.2488269  0.062286775   -2.4070754    1.1582485   475860 
   53000    1.0024569   -2.4056183   -2.4056183   -1.2480625  0.064377071   -2.4056183    1.1575559   475860 
   54000    1.0032259   -2.4062426   -2.4062426   -1.2477988  0.067938969   -2.4062426    1.1584438   475860 
   55000    1.0027651   -2.4066153   -2.4066153   -1.2487036  0.072095822   -2.4066153    1.1579117   475860 
   56000    1.0027642   -2.4055601   -2.4055601   -1.2476493  0.066168665   -2.4055601    1.1579108   475860 
   57000    1.0033103   -2.4061082   -2.4061082   -1.2475669  0.071453966   -2.4061082    1.1585413   475860 
   58000    1.0030152   -2.4048272   -2.4048272   -1.2466267  0.071398598   -2.4048272    1.1582005   475860 
   59000    1.0022935   -2.4049346   -2.4049346   -1.2475674  0.070811976   -2.4049346    1.1573672   475860 
   60000    1.0033224   -2.4058158   -2.4058158   -1.2472606  0.074645962   -2.4058158    1.1585552   475860 
   61000    1.0024979   -2.4063899   -2.4063899   -1.2487867  0.069315814   -2.4063899    1.1576032   475860 
   62000    1.0021982   -2.4050207   -2.4050207   -1.2477636  0.065788183   -2.4050207    1.1572571   475860 
   63000    1.0027037   -2.4059047   -2.4059047   -1.2480638   0.06575868   -2.4059047    1.1578408   475860 
   64000    1.0015141   -2.4049482   -2.4049482   -1.2484811  0.064193418   -2.4049482    1.1564672   475860 
   65000    1.0024958   -2.4051344   -2.4051344   -1.2475337  0.067934234   -2.4051344    1.1576007   475860 
   66000    1.0012247   -2.4037297   -2.4037297   -1.2475967  0.064399204   -2.4037297     1.156133   475860 
   67000    1.0013395   -2.4052293   -2.4052293   -1.2489638  0.068366831   -2.4052293    1.1562655   475860 
   68000    1.0001314   -2.4039927   -2.4039927   -1.2491222  0.067096498   -2.4039927    1.1548705   475860 
   69000    1.0018262   -2.4068579   -2.4068579   -1.2500303  0.063948987   -2.4068579    1.1568276   475860 
   70000   0.99953947   -2.4036825   -2.4036825   -1.2494955  0.063249976   -2.4036825     1.154187   475860 
   71000    1.0014274   -2.4040539   -2.4040539   -1.2476868  0.067082463   -2.4040539    1.1563671   475860 
   72000    1.0037247   -2.4060267   -2.4060267   -1.2470069  0.064902853   -2.4060267    1.1590198   475860 
   73000    1.0018879   -2.4033176   -2.4033176   -1.2464188  0.070640427   -2.4033176    1.1568988   475860 
   74000    1.0026009   -2.4039724   -2.4039724   -1.2462503  0.070116187   -2.4039724    1.1577221   475860 
   75000    1.0020931   -2.4028441   -2.4028441   -1.2457084  0.068347415   -2.4028441    1.1571357   475860 
   76000    1.0036844   -2.4055939   -2.4055939   -1.2466207   0.06060032   -2.4055939    1.1589732   475860 
   77000    1.0036154   -2.4054479   -2.4054479   -1.2465544  0.063658991   -2.4054479    1.1588936   475860 
   78000    1.0021536   -2.4026525   -2.4026525   -1.2454469  0.065129184   -2.4026525    1.1572056   475860 
   79000    1.0035634   -2.4041934   -2.4041934   -1.2453598  0.072195124   -2.4041934    1.1588336   475860 
   80000    1.0048381   -2.4066075   -2.4066075   -1.2463021  0.072487449   -2.4066075    1.1603054   475860 
   81000    1.0052234   -2.4069683   -2.4069683    -1.246218   0.06936262   -2.4069683    1.1607504   475860 
   82000    1.0056632   -2.4064712   -2.4064712    -1.245213  0.068199993   -2.4064712    1.1612582   475860 
   83000    1.0033464   -2.4045713   -2.4045713   -1.2459883   0.06918698   -2.4045713     1.158583   475860 
   84000    1.0044283   -2.4062727   -2.4062727   -1.2464405  0.072516161   -2.4062727    1.1598322   475860 
   85000    1.0036481   -2.4050248   -2.4050248   -1.2460934  0.065931082   -2.4050248    1.1589314   475860 
   86000     1.002645   -2.4031534   -2.4031534   -1.2453803  0.072286077   -2.4031534    1.1577731   475860 
   87000    1.0025589   -2.4038689   -2.4038689   -1.2461953  0.078629779   -2.4038689    1.1576737   475860 
   88000     1.004168   -2.4065491   -2.4065491   -1.2470174  0.067272386   -2.4065491    1.1595317   475860 
   89000    1.0036558   -2.4060365   -2.4060365   -1.2470962  0.060790918   -2.4060365    1.1589402   475860 
   90000    1.0051239   -2.4081782   -2.4081782   -1.2475427  0.067430905   -2.4081782    1.1606355   475860 
   91000     1.004171   -2.4065388   -2.4065388   -1.2470036  0.066427829   -2.4065388    1.1595352   475860 
   92000    1.0028418   -2.4058263   -2.4058263    -1.247826   0.06860378   -2.4058263    1.1580003   475860 
   93000    1.0038458   -2.4064219   -2.4064219   -1.2472622  0.066417325   -2.4064219    1.1591597   475860 
   94000    1.0030681   -2.4046149   -2.4046149   -1.2463534  0.068116717   -2.4046149    1.1582616   475860 
   95000    1.0046715   -2.4076537   -2.4076537   -1.2475406  0.065235177   -2.4076537     1.160113   475860 
   96000    1.0028729   -2.4063631   -2.4063631   -1.2483268  0.067522758   -2.4063631    1.1580363   475860 
   97000     1.003303   -2.4062628   -2.4062628     -1.24773  0.072484341   -2.4062628    1.1585328   475860 
   98000     1.004052   -2.4055998   -2.4055998   -1.2462021   0.07330552   -2.4055998    1.1593977   475860 
   99000    1.0036563   -2.4061132   -2.4061132   -1.2471724  0.063772932   -2.4061132    1.1589408   475860 
  100000    1.0019483    -2.404148    -2.404148   -1.2471794  0.071569115    -2.404148    1.1569686   475860 
  101000    1.0016348    -2.404723    -2.404723   -1.2481164  0.062121145    -2.404723    1.1566066   475860 
  102000    1.0013447   -2.4048195   -2.4048195    -1.248548  0.061511617   -2.4048195    1.1562716   475860 
  103000    1.0027809   -2.4052131   -2.4052131   -1.2472831  0.062902984   -2.4052131      1.15793   475860 
  104000    1.0022982   -2.4052116   -2.4052116    -1.247839  0.071421971   -2.4052116    1.1573726   475860 
  105000    1.0028461   -2.4056482   -2.4056482   -1.2476429  0.072047874   -2.4056482    1.1580053   475860 
  106000    1.0036866   -2.4042986   -2.4042986   -1.2453228  0.066836887   -2.4042986    1.1589758   475860 
  107000    1.0029882     -2.40499     -2.40499   -1.2468207  0.062622933     -2.40499    1.1581694   475860 
  108000    1.0033982   -2.4058246   -2.4058246   -1.2471818  0.068609402   -2.4058246    1.1586428   475860 
  109000    1.0023055   -2.4048492   -2.4048492   -1.2474681  0.061191839   -2.4048492    1.1573811   475860 
  110000    1.0022904   -2.4042312   -2.4042312   -1.2468676   0.06749693   -2.4042312    1.1573636   475860 
  111000    1.0015701    -2.403851    -2.403851   -1.2473191  0.067864219    -2.403851    1.1565319   475860 
  112000    1.0046439   -2.4060785   -2.4060785   -1.2459974  0.069950172   -2.4060785    1.1600812   475860 
  113000    1.0040218    -2.406519    -2.406519   -1.2471561  0.058372277    -2.406519    1.1593629   475860 
  114000    1.0024325   -2.4043444   -2.4043444   -1.2468167  0.070775117   -2.4043444    1.1575277   475860 
  115000    1.0042162   -2.4058262   -2.4058262   -1.2462388  0.068536948   -2.4058262    1.1595874   475860 
  116000    1.0049367   -2.4065057   -2.4065057   -1.2460864  0.072041527   -2.4065057    1.1604193   475860 
  117000    1.0034923   -2.4054247   -2.4054247   -1.2466733  0.069975732   -2.4054247    1.1587514   475860 
  118000    1.0034874   -2.4053203   -2.4053203   -1.2465745  0.068283259   -2.4053203    1.1587458   475860 
  119000    1.0037917   -2.4059534   -2.4059534   -1.2468563  0.067745758   -2.4059534    1.1590971   475860 
  120000    1.0039073   -2.4046184   -2.4046184   -1.2453877  0.063391791   -2.4046184    1.1592307   475860 
  121000    1.0036175   -2.4038381   -2.4038381    -1.244942  0.071253123   -2.4038381     1.158896   475860 
  122000    1.0040984   -2.4049381   -2.4049381   -1.2454868  0.066660012   -2.4049381    1.1594513   475860 
  123000     1.003552   -2.4031993   -2.4031993   -1.2443788  0.073164239   -2.4031993    1.1588204   475860 
  124000    1.0046392   -2.4043042   -2.4043042   -1.2442285  0.072546466   -2.4043042    1.1600757   475860 
  125000    1.0057247   -2.4053641   -2.4053641   -1.2440348  0.071456056   -2.4053641    1.1613293   475860 
  126000    1.0051209   -2.4051948   -2.4051948   -1.2445628  0.061941437   -2.4051948     1.160632   475860 
  127000    1.0039339    -2.404412    -2.404412   -1.2451507  0.068749749    -2.404412    1.1592613   475860 
  128000    1.0039465   -2.4053395   -2.4053395   -1.2460635  0.068646392   -2.4053395     1.159276   475860 
  129000    1.0026066    -2.403336    -2.403336   -1.2456074  0.064821976    -2.403336    1.1577287   475860 
  130000    1.0016522   -2.4021991   -2.4021991   -1.2455724  0.065773149   -2.4021991    1.1566266   475860 
  131000    1.0018871   -2.4038809   -2.4038809    -1.246983  0.058615602   -2.4038809    1.1568979   475860 
  132000    1.0012752   -2.4026786   -2.4026786   -1.2464873  0.061947109   -2.4026786    1.1561913   475860 
  133000    1.0012949   -2.4021512   -2.4021512    -1.245937  0.067076297   -2.4021512    1.1562141   475860 
  134000    1.0008138    -2.402019    -2.402019   -1.2463604  0.069031213    -2.402019    1.1556586   475860 
  135000    1.0016836   -2.4024412   -2.4024412   -1.2457783  0.063112937   -2.4024412    1.1566629   475860 
  136000     1.002863   -2.4034646   -2.4034646   -1.2454398  0.062462952   -2.4034646    1.1580248   475860 
  137000    1.0046666   -2.4056187   -2.4056187   -1.2455113   0.06578376   -2.4056187    1.1601075   475860 
  138000    1.0032655     -2.40319     -2.40319   -1.2447004  0.062961139     -2.40319    1.1584896   475860 
  139000    1.0023123   -2.4023864   -2.4023864   -1.2449975  0.063633164   -2.4023864    1.1573888   475860 
  140000    1.0017777   -2.4004605   -2.4004605   -1.2436889   0.07279256   -2.4004605    1.1567716   475860 
  141000    1.0024158   -2.4009494   -2.4009494    -1.243441  0.065825121   -2.4009494    1.1575084   475860 
  142000    1.0036111   -2.4021051   -2.4021051   -1.2432164  0.063852931   -2.4021051    1.1588887   475860 
  143000    1.0029354    -2.401379    -2.401379   -1.2432706  0.066016304    -2.401379    1.1581084   475860 
  144000    1.0021961   -2.4006549   -2.4006549   -1.2434002  0.067552261   -2.4006549    1.1572547   475860 
  145000    1.0033458   -2.4010122   -2.4010122   -1.2424299   0.07312319   -2.4010122    1.1585823   475860 
  146000    1.0040215   -2.4036347   -2.4036347   -1.2442721   0.06791849   -2.4036347    1.1593625   475860 
  147000    1.0025127   -2.4014951   -2.4014951   -1.2438748  0.061161815   -2.4014951    1.1576203   475860 
  148000    1.0037624   -2.4036618   -2.4036618   -1.2445985  0.064726174   -2.4036618    1.1590633   475860 
  149000    1.0037891    -2.403399    -2.403399   -1.2443048  0.069055137    -2.403399    1.1590941   475860 
  150000    1.0023435    -2.401012    -2.401012    -1.243587  0.064385279    -2.401012     1.157425   475860 
  151000    1.0013873   -2.4011494   -2.4011494   -1.2448286  0.065216296   -2.4011494    1.1563208   475860 
  152000    1.0021126   -2.4022546   -2.4022546   -1.2450963  0.067672332   -2.4022546    1.1571583   475860 
  153000    1.0015673    -2.402986    -2.402986   -1.2464573  0.064790982    -2.402986    1.1565287   475860 
  154000    1.0039218   -2.4053651   -2.4053651   -1.2461178  0.066435922   -2.4053651    1.1592474   475860 
  155000    1.0018077   -2.4037198   -2.4037198   -1.2469136  0.067157212   -2.4037198    1.1568062   475860 
  156000    1.0021799   -2.4035032   -2.4035032   -1.2462672  0.073044489   -2.4035032     1.157236   475860 
  157000    1.0032803   -2.4045806   -2.4045806    -1.246074  0.067787455   -2.4045806    1.1585066   475860 
  158000    1.0029101   -2.4046542   -2.4046542    -1.246575  0.070045896   -2.4046542    1.1580792   475860 
  159000    1.0035382   -2.4045164   -2.4045164   -1.2457119  0.070893369   -2.4045164    1.1588045   475860 
  160000     1.002791   -2.4040494   -2.4040494   -1.2461077  0.072518728   -2.4040494    1.1579417   475860 
  161000     1.002807   -2.4039488   -2.4039488   -1.2459887   0.06704953   -2.4039488    1.1579601   475860 
  162000     1.002671   -2.4040824   -2.4040824   -1.2462793  0.070547315   -2.4040824    1.1578031   475860 
  163000    1.0045619    -2.405544    -2.405544   -1.2455574  0.065810359    -2.405544    1.1599866   475860 
  164000    1.0060729    -2.406387    -2.406387   -1.2446556  0.066346697    -2.406387    1.1617314   475860 
  165000    1.0056727   -2.4053103   -2.4053103   -1.2440411  0.067078662   -2.4053103    1.1612692   475860 
  166000    1.0050213   -2.4044979   -2.4044979   -1.2439809  0.074054222   -2.4044979     1.160517   475860 
  167000    1.0054909   -2.4055949   -2.4055949   -1.2445356  0.069056526   -2.4055949    1.1610593   475860 
  168000    1.0053927   -2.4049879   -2.4049879   -1.2440421  0.068808032   -2.4049879    1.1609459   475860 
  169000    1.0042513   -2.4046408   -2.4046408   -1.2450129  0.068309915   -2.4046408    1.1596279   475860 
  170000    1.0043849   -2.4062539   -2.4062539   -1.2464717  0.067553815   -2.4062539    1.1597822   475860 
  171000    1.0030301   -2.4058589   -2.4058589   -1.2476411  0.062823915   -2.4058589    1.1582178   475860 
  172000    1.0037683    -2.405797    -2.405797   -1.2467269  0.062081652    -2.405797    1.1590701   475860 
  173000    1.0033863   -2.4050405   -2.4050405   -1.2464114  0.069261516   -2.4050405     1.158629   475860 
  174000    1.0015608   -2.4036876   -2.4036876   -1.2471665  0.055900612   -2.4036876    1.1565211   475860 
  175000    1.0042975   -2.4063606   -2.4063606   -1.2466794  0.069517541   -2.4063606    1.1596812   475860 
  176000    1.0011973   -2.4034961   -2.4034961   -1.2473947  0.069682724   -2.4034961    1.1561013   475860 
  177000    1.0032588   -2.4041374   -2.4041374   -1.2456555  0.066168348   -2.4041374    1.1584819   475860 
  178000     1.003932   -2.4047481   -2.4047481   -1.2454889  0.068156101   -2.4047481    1.1592592   475860 
  179000    1.0053265   -2.4049771   -2.4049771   -1.2441077  0.066342256   -2.4049771    1.1608694   475860 
  180000    1.0028896   -2.4025321   -2.4025321   -1.2444766  0.074588314   -2.4025321    1.1580555   475860 
  181000    1.0050883   -2.4059971   -2.4059971   -1.2454028  0.067829798   -2.4059971    1.1605943   475860 
  182000    1.0024022   -2.4038326   -2.4038326   -1.2463398  0.066878785   -2.4038326    1.1574927   475860 
  183000    1.0038009   -2.4036762   -2.4036762   -1.2445684  0.069725577   -2.4036762    1.1591078   475860 
  184000    1.0027412   -2.4030297   -2.4030297   -1.2451455  0.066093627   -2.4030297    1.1578842   475860 
  185000    1.0039295   -2.4047183   -2.4047183    -1.245462  0.064939611   -2.4047183    1.1592563   475860 
  186000    1.0020507   -2.4026961   -2.4026961   -1.2456093  0.068913174   -2.4026961    1.1570868   475860 
  187000    1.0025669   -2.4027901   -2.4027901   -1.2451072  0.069862361   -2.4027901    1.1576829   475860 
  188000    1.0019689   -2.4024922   -2.4024922   -1.2454999  0.068344674   -2.4024922    1.1569923   475860 
  189000    1.0023836   -2.4024199   -2.4024199   -1.2449486  0.070690736   -2.4024199    1.1574712   475860 
  190000    1.0027172   -2.4026818   -2.4026818   -1.2448253  0.064591654   -2.4026818    1.1578565   475860 
  191000    1.0029009   -2.4035327   -2.4035327   -1.2454641  0.060233524   -2.4035327    1.1580686   475860 
  192000    1.0021954   -2.4033713   -2.4033713   -1.2461175  0.068544249   -2.4033713    1.1572539   475860 
  193000    1.0015328   -2.4019406   -2.4019406   -1.2454519  0.068128293   -2.4019406    1.1564887   475860 
  194000    1.0027133   -2.4022404   -2.4022404   -1.2443885  0.065359084   -2.4022404     1.157852   475860 
  195000    1.0022596   -2.4031602   -2.4031602   -1.2458321   0.06567333   -2.4031602     1.157328   475860 
  196000    1.0030374   -2.4020403   -2.4020403   -1.2438141  0.066165283   -2.4020403    1.1582261   475860 
  197000    1.0025882   -2.4023239   -2.4023239   -1.2446165  0.070013276   -2.4023239    1.1577074   475860 
  198000     1.003961   -2.4034977   -2.4034977    -1.244205  0.063703871   -2.4034977    1.1592927   475860 
  199000    1.0015692   -2.4010186   -2.4010186   -1.2444878  0.065163081   -2.4010186    1.1565308   475860 
  200000    1.0036269   -2.4037821   -2.4037821   -1.2448753  0.062124029   -2.4037821    1.1589069   475860 
  201000    1.0016319    -2.401419    -2.401419   -1.2448158  0.067368898    -2.401419    1.1566032   475860 
  202000     1.002702   -2.4023113   -2.4023113   -1.2444724  0.065143313   -2.4023113    1.1578389   475860 
  203000    1.0027853   -2.4024266   -2.4024266   -1.2444916  0.068219066   -2.4024266     1.157935   475860 
  204000    1.0017629   -2.4010027   -2.4010027   -1.2442483  0.061735017   -2.4010027    1.1567544   475860 
  205000    1.0029857   -2.4012328   -2.4012328   -1.2430663  0.068874462   -2.4012328    1.1581665   475860 
  206000     1.001612   -2.4001101   -2.4001101   -1.2435298  0.063876458   -2.4001101    1.1565802   475860 
  207000    1.0022313   -2.3998191   -2.3998191   -1.2425237  0.071563979   -2.3998191    1.1572953   475860 
  208000    1.0013215   -2.4001314   -2.4001314   -1.2438866  0.065080917   -2.4001314    1.1562448   475860 
  209000    1.0003158   -2.3992345   -2.3992345    -1.244151  0.066249981   -2.3992345    1.1550835   475860 
  210000    1.0040899    -2.402379    -2.402379   -1.2429375  0.061642081    -2.402379    1.1594415   475860 
  211000    1.0025273   -2.4009843   -2.4009843   -1.2433472  0.068510453   -2.4009843    1.1576371   475860 
  212000    1.0029235    -2.401629    -2.401629   -1.2435344  0.067430673    -2.401629    1.1580946   475860 
  213000    1.0011567    -2.399381    -2.399381   -1.2433265  0.071339904    -2.399381    1.1560545   475860 
  214000    1.0021151   -2.4009942   -2.4009942   -1.2438331   0.06156665   -2.4009942    1.1571611   475860 
  215000    1.0032079   -2.4027855   -2.4027855   -1.2443625  0.069391525   -2.4027855     1.158423   475860 
  216000    1.0004392    -2.400116    -2.400116     -1.24489  0.057964618    -2.400116     1.155226   475860 
  217000    1.0007537   -2.4003959   -2.4003959   -1.2448068  0.066593535   -2.4003959    1.1555891   475860 
  218000    1.0029728   -2.4033684   -2.4033684   -1.2452168  0.065314963   -2.4033684    1.1581516   475860 
  219000    1.0021916   -2.4025388   -2.4025388   -1.2452894  0.067696598   -2.4025388    1.1572495   475860 
  220000    1.0013716   -2.4032524   -2.4032524   -1.2469498  0.069845273   -2.4032524    1.1563026   475860 
  221000    1.0021546   -2.4033208   -2.4033208   -1.2461141  0.063277415   -2.4033208    1.1572067   475860 
  222000    1.0015231   -2.4027298   -2.4027298   -1.2462523  0.058515683   -2.4027298    1.1564776   475860 
  223000    1.0019805   -2.4032028   -2.4032028   -1.2461971  0.068155085   -2.4032028    1.1570057   475860 
  224000    1.0018048   -2.4033806   -2.4033806   -1.2465777  0.066555961   -2.4033806    1.1568029   475860 
  225000    1.0017507   -2.4034658   -2.4034658   -1.2467254  0.068652551   -2.4034658    1.1567403   475860 
  226000    1.0037366   -2.4048904   -2.4048904   -1.2458569  0.065245912   -2.4048904    1.1590335   475860 
  227000    1.0028639   -2.4032552   -2.4032552   -1.2452294  0.063195682   -2.4032552    1.1580258   475860 
  228000    1.0038033   -2.4038446   -2.4038446    -1.244734  0.065455296   -2.4038446    1.1591106   475860 
  229000      1.00395   -2.4031463   -2.4031463   -1.2438664  0.069039543   -2.4031463    1.1592799   475860 
  230000     1.004033   -2.4041138   -2.4041138   -1.2447381  0.070184973   -2.4041138    1.1593758   475860 
  231000    1.0029067    -2.402223    -2.402223   -1.2441478  0.068972342    -2.402223    1.1580752   475860 
  232000    1.0041323   -2.4043266   -2.4043266   -1.2448361  0.065727851   -2.4043266    1.1594905   475860 
  233000    1.0024053   -2.4023188   -2.4023188   -1.2448225  0.064980321   -2.4023188    1.1574963   475860 
  234000    1.0031227   -2.4033624   -2.4033624   -1.2450377  0.072041609   -2.4033624    1.1583247   475860 
  235000    1.0027537   -2.4035711   -2.4035711   -1.2456725  0.071269469   -2.4035711    1.1578986   475860 
  236000    1.0033351   -2.4026235   -2.4026235   -1.2440535  0.069038249   -2.4026235    1.1585699   475860 
  237000    1.0035714   -2.4024511   -2.4024511   -1.2436083  0.070607447   -2.4024511    1.1588428   475860 
  238000    1.0043944   -2.4040777   -2.4040777   -1.2442846  0.070272325   -2.4040777    1.1597931   475860 
  239000    1.0032737   -2.4018395   -2.4018395   -1.2433404  0.066806856   -2.4018395    1.1584991   475860 
  240000    1.0044348     -2.40459     -2.40459   -1.2447503   0.07266372     -2.40459    1.1598397   475860 
  241000    1.0038562   -2.4037717   -2.4037717   -1.2446001  0.066416481   -2.4037717    1.1591716   475860 
  242000    1.0032625    -2.403322    -2.403322   -1.2448359  0.065866588    -2.403322    1.1584861   475860 
  243000    1.0024858   -2.4025276   -2.4025276   -1.2449385  0.067952062   -2.4025276    1.1575892   475860 
  244000    1.0028941   -2.4029158   -2.4029158   -1.2448551  0.063852677   -2.4029158    1.1580607   475860 
  245000    1.0025949   -2.4026759   -2.4026759   -1.2449607  0.066169269   -2.4026759    1.1577152   475860 
  246000    1.0030737   -2.4018129   -2.4018129   -1.2435449  0.065917466   -2.4018129     1.158268   475860 
  247000    1.0026585   -2.4023896   -2.4023896   -1.2446009  0.072111184   -2.4023896    1.1577887   475860 
  248000    1.0029961   -2.4033162   -2.4033162   -1.2451377  0.069547504   -2.4033162    1.1581785   475860 
  249000    1.0029257   -2.4035224   -2.4035224   -1.2454252  0.060380972   -2.4035224    1.1580972   475860 
  250000    1.0022652    -2.402092    -2.402092   -1.2447575  0.073864599    -2.402092    1.1573345   475860 
  251000    1.0025668   -2.4029756   -2.4029756   -1.2452928  0.065100959   -2.4029756    1.1576828   475860 
  252000    1.0039207   -2.4044012   -2.4044012    -1.245155  0.067488472   -2.4044012    1.1592462   475860 
  253000    1.0019312   -2.4014353   -2.4014353   -1.2444864  0.066435607   -2.4014353    1.1569489   475860 
  254000    1.0012427   -2.4010265   -2.4010265   -1.2448727  0.065874877   -2.4010265    1.1561538   475860 
  255000    1.0024249   -2.4038024   -2.4038024   -1.2462835   0.06515898   -2.4038024    1.1575189   475860 
  256000    1.0027136   -2.4035099   -2.4035099   -1.2456577  0.069150653   -2.4035099    1.1578522   475860 
  257000    1.0030572   -2.4029321   -2.4029321    -1.244683  0.065216634   -2.4029321    1.1582491   475860 
  258000    1.0016187   -2.4021672   -2.4021672   -1.2455792   0.06720437   -2.4021672    1.1565879   475860 
  259000    1.0010931   -2.4017217   -2.4017217   -1.2457407  0.064506616   -2.4017217     1.155981   475860 
  260000    1.0027792   -2.4028589   -2.4028589   -1.2449309  0.066680427   -2.4028589     1.157928   475860 
  261000    1.0039009   -2.4036173   -2.4036173   -1.2443941  0.058730555   -2.4036173    1.1592232   475860 
  262000    1.0037196   -2.4033665   -2.4033665   -1.2443526  0.064475488   -2.4033665     1.159014   475860 
  263000    1.0027557    -2.402247    -2.402247   -1.2443461   0.07381994    -2.402247    1.1579009   475860 
  264000    1.0042071   -2.4033183   -2.4033183   -1.2437414  0.067586895   -2.4033183    1.1595768   475860 
  265000    1.0047581   -2.4048529   -2.4048529   -1.2446398  0.064588986   -2.4048529    1.1602131   475860 
  266000    1.0033199   -2.4029292   -2.4029292   -1.2443768  0.067755093   -2.4029292    1.1585524   475860 
  267000    1.0041613   -2.4036321   -2.4036321   -1.2441081  0.064773367   -2.4036321     1.159524   475860 
  268000    1.0047634   -2.4048732   -2.4048732    -1.244654  0.068381266   -2.4048732    1.1602192   475860 
  269000    1.0041343   -2.4040472   -2.4040472   -1.2445544  0.064232677   -2.4040472    1.1594927   475860 
  270000    1.0031965   -2.4025748   -2.4025748   -1.2441649  0.073304615   -2.4025748    1.1584099   475860 
  271000    1.0050722    -2.404178    -2.404178   -1.2436022  0.069951748    -2.404178    1.1605758   475860 
  272000     1.002573   -2.4013806   -2.4013806   -1.2436907   0.06553476   -2.4013806      1.15769   475860 
  273000    1.0023749   -2.4020113   -2.4020113   -1.2445501  0.069814324   -2.4020113    1.1574612   475860 
  274000      1.00302   -2.4031548   -2.4031548   -1.2449487  0.062710651   -2.4031548    1.1582061   475860 
  275000    1.0019049   -2.4020312   -2.4020312   -1.2451127  0.070492617   -2.4020312    1.1569184   475860 
  276000    1.0024595   -2.4028475   -2.4028475   -1.2452887  0.068592154   -2.4028475    1.1575589   475860 
  277000    1.0015807    -2.401498    -2.401498   -1.2449539   0.06805152    -2.401498    1.1565441   475860 
  278000    1.0015241   -2.4029938   -2.4029938    -1.246515    0.0679446   -2.4029938    1.1564788   475860 
  279000    1.0017742   -2.4026201   -2.4026201   -1.2458525   0.06361467   -2.4026201    1.1567675   475860 
  280000    1.0037345   -2.4047043   -2.4047043   -1.2456732   0.06288375   -2.4047043    1.1590311   475860 
  281000    1.0022915   -2.4030138   -2.4030138   -1.2456489  0.063360176   -2.4030138    1.1573649   475860 
  282000    1.0035137   -2.4040771   -2.4040771    -1.245301  0.062612485   -2.4040771    1.1587761   475860 
  283000    1.0038394   -2.4041643   -2.4041643   -1.2450121  0.062924232   -2.4041643    1.1591522   475860 
  284000    1.0004575   -2.4013287   -2.4013287   -1.2460816  0.069034438   -2.4013287    1.1552471   475860 
  285000    1.0003821    -2.400588    -2.400588   -1.2454279  0.060744978    -2.400588      1.15516   475860 
  286000    1.0024348   -2.4034134   -2.4034134    -1.245883  0.063654227   -2.4034134    1.1575304   475860 
  287000    1.0033112   -2.4022695   -2.4022695   -1.2437272  0.068196498   -2.4022695    1.1585423   475860 
  288000     1.002896   -2.4021977   -2.4021977   -1.2441348  0.063856732   -2.4021977    1.1580629   475860 
  289000    1.0025701   -2.4024553   -2.4024553   -1.2447687  0.068925776   -2.4024553    1.1576866   475860 
  290000    1.0045103   -2.4040353   -2.4040353   -1.2441084  0.064897215   -2.4040353    1.1599269   475860 
  291000    1.0027603   -2.4020002   -2.4020002   -1.2440939  0.066332934   -2.4020002    1.1579062   475860 
  292000    1.0023015   -2.4015408   -2.4015408   -1.2441644  0.072901075   -2.4015408    1.1573764   475860 
  293000    1.0038223   -2.4038246   -2.4038246   -1.2446921  0.069881144   -2.4038246    1.1591325   475860 
  294000    1.0052785   -2.4042929   -2.4042929   -1.2434789  0.062443537   -2.4042929     1.160814   475860 
  295000    1.0045542   -2.4047653   -2.4047653   -1.2447877  0.066759843   -2.4047653    1.1599776   475860 
  296000    1.0043977   -2.4045546   -2.4045546   -1.2447576  0.063383943   -2.4045546     1.159797   475860 
  297000    1.0062731   -2.4062076   -2.4062076   -1.2442451   0.07078212   -2.4062076    1.1619624   475860 
  298000    1.0060197   -2.4062908   -2.4062908   -1.2446209  0.063245355   -2.4062908    1.1616699   475860 
  299000     1.004293   -2.4039761   -2.4039761   -1.2443001  0.063054796   -2.4039761     1.159676   475860 
  300000     1.002477   -2.4025794   -2.4025794   -1.2450004  0.069429252   -2.4025794     1.157579   475860 
  301000    1.0031793    -2.404315    -2.404315    -1.245925  0.063910682    -2.404315      1.15839   475860 
  302000    1.0046165   -2.4051306   -2.4051306   -1.2450811  0.065952805   -2.4051306    1.1600496   475860 
  303000    1.0039708   -2.4046794   -2.4046794   -1.2453754  0.060328718   -2.4046794     1.159304   475860 
  304000    1.0037622   -2.4037786   -2.4037786   -1.2447155   0.06587753   -2.4037786    1.1590631   475860 
  305000    1.0038297   -2.4040347   -2.4040347   -1.2448936  0.066329475   -2.4040347     1.159141   475860 
  306000    1.0043665   -2.4033966   -2.4033966   -1.2436357  0.069676027   -2.4033966    1.1597609   475860 
  307000    1.0025278   -2.4014363   -2.4014363   -1.2437985  0.072483792   -2.4014363    1.1576378   475860 
  308000    1.0025765    -2.401029    -2.401029   -1.2433351  0.069103115    -2.401029     1.157694   475860 
  309000    1.0044644   -2.4035803   -2.4035803   -1.2437063  0.058725222   -2.4035803     1.159874   475860 
  310000    1.0052043   -2.4036502   -2.4036502   -1.2429219  0.068975135   -2.4036502    1.1607283   475860 
  311000    1.0030172   -2.4017306   -2.4017306   -1.2435277  0.065086823   -2.4017306    1.1582029   475860 
  312000    1.0061286   -2.4047446   -2.4047446   -1.2429489  0.070651913   -2.4047446    1.1617957   475860 
  313000    1.0038578   -2.4026635   -2.4026635   -1.2434899  0.070097282   -2.4026635    1.1591735   475860 
  314000    1.0045472   -2.4032012   -2.4032012   -1.2432316  0.070265243   -2.4032012    1.1599696   475860 
  315000    1.0041214   -2.4026403   -2.4026403   -1.2431624  0.067599232   -2.4026403    1.1594779   475860 
  316000    1.0060453   -2.4052266   -2.4052266   -1.2435271  0.059853653   -2.4052266    1.1616995   475860 
  317000     1.002907   -2.4016824   -2.4016824   -1.2436068  0.077147188   -2.4016824    1.1580756   475860 
  318000    1.0035193   -2.4020419   -2.4020419   -1.2432593  0.063211488   -2.4020419    1.1587826   475860 
  319000    1.0023213   -2.4013864   -2.4013864   -1.2439871  0.068137299   -2.4013864    1.1573993   475860 
  320000    1.0032214   -2.4023294   -2.4023294   -1.2438908  0.059879926   -2.4023294    1.1584386   475860 
  321000    1.0024499   -2.4012625   -2.4012625   -1.2437148  0.064847699   -2.4012625    1.1575478   475860 
  322000    1.0017407   -2.4012621   -2.4012621   -1.2445333  0.066982819   -2.4012621    1.1567289   475860 
  323000    1.0031385   -2.4019033   -2.4019033   -1.2435604  0.066330872   -2.4019033    1.1583429   475860 
  324000     1.003214   -2.4011585   -2.4011585   -1.2427283  0.057784964   -2.4011585    1.1584301   475860 
  325000    1.0017397   -2.3997621   -2.3997621   -1.2430344   0.06800432   -2.3997621    1.1567277   475860 
  326000     1.000367   -2.3981131   -2.3981131   -1.2429704  0.067504877   -2.3981131    1.1551426   475860 
  327000    1.0030185   -2.4024061   -2.4024061   -1.2442018  0.068766669   -2.4024061    1.1582043   475860 
  328000     1.002346    -2.400505    -2.400505   -1.2430772  0.071414819    -2.400505    1.1574278   475860 
  329000    1.0047716   -2.4046791   -2.4046791   -1.2444504  0.063497125   -2.4046791    1.1602287   475860 
  330000    1.0053709   -2.4029578   -2.4029578   -1.2420371  0.065406985   -2.4029578    1.1609208   475860 
  331000    1.0044838   -2.4025928   -2.4025928   -1.2426964  0.072234478   -2.4025928    1.1598964   475860 
  332000    1.0032332   -2.4017273   -2.4017273    -1.243275  0.075343562   -2.4017273    1.1584522   475860 
  333000    1.0031796   -2.4025225   -2.4025225   -1.2441321  0.065236249   -2.4025225    1.1583904   475860 
  334000    1.0053889   -2.4046684   -2.4046684   -1.2437269  0.068937211   -2.4046684    1.1609415   475860 
  335000    1.0052127   -2.4038704   -2.4038704   -1.2431324   0.07362795   -2.4038704     1.160738   475860 
  336000    1.0046149   -2.4025805   -2.4025805   -1.2425328  0.071585392   -2.4025805    1.1600477   475860 
  337000     1.004861   -2.4028013   -2.4028013   -1.2424694  0.070047848   -2.4028013    1.1603319   475860 
  338000     1.003184   -2.4011814   -2.4011814   -1.2427859  0.070615331   -2.4011814    1.1583955   475860 
  339000    1.0052404   -2.4042237   -2.4042237   -1.2434537  0.069539221   -2.4042237      1.16077   475860 
  340000     1.002747    -2.401794    -2.401794   -1.2439031  0.071378572    -2.401794    1.1578909   475860 
  341000     1.002514   -2.4021819   -2.4021819   -1.2445602  0.068797291   -2.4021819    1.1576217   475860 
  342000    1.0045269   -2.4041728   -2.4041728   -1.2442266  0.073615989   -2.4041728    1.1599462   475860 
  343000    1.0033885   -2.4021668   -2.4021668   -1.2435352  0.073854436   -2.4021668    1.1586316   475860 
  344000    1.0017399   -2.4013802   -2.4013802   -1.2446523  0.070831473   -2.4013802    1.1567279   475860 
  345000    1.0016456     -2.40233     -2.40233    -1.245711  0.068036776     -2.40233     1.156619   475860 
  346000     1.003417    -2.404428    -2.404428   -1.2457635  0.067005745    -2.404428    1.1586645   475860 
  347000    1.0018532   -2.4018353   -2.4018353   -1.2449766  0.071468393   -2.4018353    1.1568588   475860 
  348000    1.0026745   -2.4017765   -2.4017765   -1.2439694  0.064425198   -2.4017765    1.1578071   475860 
  349000    1.0018198   -2.4015296   -2.4015296   -1.2447094  0.066099829   -2.4015296    1.1568202   475860 
  350000    1.0025911   -2.4022044   -2.4022044   -1.2444936  0.065416636   -2.4022044    1.1577108   475860 
  351000    1.0038041   -2.4035798   -2.4035798   -1.2444684  0.064502581   -2.4035798    1.1591115   475860 
  352000    1.0022299   -2.4021288   -2.4021288   -1.2448351  0.072193356   -2.4021288    1.1572937   475860 
  353000    1.0045957   -2.4043566   -2.4043566    -1.244331  0.067367923   -2.4043566    1.1600256   475860 
  354000    1.0032907    -2.402303    -2.402303   -1.2437844  0.064040948    -2.402303    1.1585187   475860 
  355000    1.0049106   -2.4024195   -2.4024195   -1.2420303  0.065938685   -2.4024195    1.1603892   475860 
  356000    1.0061927   -2.4021605   -2.4021605   -1.2402908  0.069251022   -2.4021605    1.1618697   475860 
  357000    1.0072566   -2.4032865   -2.4032865   -1.2401883  0.072909259   -2.4032865    1.1630981   475860 
  358000    1.0065512   -2.4029341   -2.4029341   -1.2406506  0.074762759   -2.4029341    1.1622836   475860 
  359000    1.0062126   -2.4034252   -2.4034252   -1.2415327  0.068002737   -2.4034252    1.1618926   475860 
  360000    1.0046908   -2.4019971   -2.4019971   -1.2418617  0.067543717   -2.4019971    1.1601354   475860 
  361000    1.0047618   -2.4025616   -2.4025616   -1.2423443  0.071786574   -2.4025616    1.1602173   475860 
  362000    1.0036645   -2.4008904   -2.4008904   -1.2419401  0.067549222   -2.4008904    1.1589503   475860 
  363000    1.0042262    -2.400827    -2.400827   -1.2412281  0.075930079    -2.400827    1.1595989   475860 
  364000    1.0048261   -2.4027197   -2.4027197   -1.2424281  0.064122071   -2.4027197    1.1602916   475860 
  365000    1.0036483   -2.4021047   -2.4021047   -1.2431731  0.064059429   -2.4021047    1.1589315   475860 
  366000    1.0029258   -2.4015186   -2.4015186   -1.2434213  0.062316323   -2.4015186    1.1580973   475860 
  367000    1.0032437   -2.4026597   -2.4026597   -1.2441953  0.063118908   -2.4026597    1.1584644   475860 
  368000    1.0033882   -2.4022941   -2.4022941   -1.2436628  0.062530837   -2.4022941    1.1586313   475860 
  369000    1.0047695   -2.4035456   -2.4035456   -1.2433194  0.063408964   -2.4035456    1.1602262   475860 
  370000    1.0021815   -2.4002412   -2.4002412   -1.2430034  0.068375996   -2.4002412    1.1572378   475860 
  371000    1.0027007   -2.4015637   -2.4015637   -1.2437263  0.072066786   -2.4015637    1.1578374   475860 
  372000    1.0039868   -2.4014784   -2.4014784   -1.2421559  0.063244209   -2.4014784    1.1593225   475860 
  373000    1.0044976     -2.40226     -2.40226   -1.2423477  0.067509958     -2.40226    1.1599122   475860 
  374000    1.0033933   -2.3996593   -2.3996593   -1.2410221  0.067067041   -2.3996593    1.1586372   475860 
  375000    1.0061003    -2.403113    -2.403113     -1.24135  0.064352945    -2.403113     1.161763   475860 
  376000    1.0037623   -2.4003834   -2.4003834   -1.2413202  0.066255489   -2.4003834    1.1590632   475860 
  377000    1.0030791   -2.3996573   -2.3996573    -1.241383   0.07105164   -2.3996573    1.1582743   475860 
  378000    1.0061298   -2.4022304   -2.4022304   -1.2404333  0.069523976   -2.4022304    1.1617971   475860 
  379000    1.0050004   -2.4012523   -2.4012523   -1.2407594  0.065837056   -2.4012523    1.1604929   475860 
  380000    1.0040723   -2.4016507   -2.4016507   -1.2422295  0.063036738   -2.4016507    1.1594212   475860 
  381000    1.0032329   -2.4010742   -2.4010742   -1.2426223    0.0643062   -2.4010742    1.1584519   475860 
  382000    1.0042863   -2.4022555   -2.4022555   -1.2425872  0.066770356   -2.4022555    1.1596683   475860 
  383000    1.0048112    -2.402373    -2.402373   -1.2420986   0.06476529    -2.402373    1.1602744   475860 
  384000    1.0038413   -2.4021667   -2.4021667   -1.2430123  0.063963565   -2.4021667    1.1591545   475860 
  385000    1.0040793   -2.4014845   -2.4014845   -1.2420552  0.071697259   -2.4014845    1.1594293   475860 
  386000    1.0051813   -2.4033187   -2.4033187   -1.2426169  0.066014206   -2.4033187    1.1607017   475860 
  387000    1.0046584   -2.4020004   -2.4020004   -1.2419024  0.075564612   -2.4020004     1.160098   475860 
  388000    1.0051946   -2.4015243   -2.4015243   -1.2408071  0.067287144   -2.4015243    1.1607172   475860 
  389000    1.0036548   -2.4011153   -2.4011153   -1.2421761  0.067469079   -2.4011153    1.1589391   475860 
  390000    1.0042266   -2.4014648   -2.4014648   -1.2418655  0.066587971   -2.4014648    1.1595993   475860 
  391000    1.0035485   -2.4016613   -2.4016613   -1.2428449   0.06572873   -2.4016613    1.1588163   475860 
  392000    1.0063598   -2.4040731   -2.4040731   -1.2420105  0.063582027   -2.4040731    1.1620627   475860 
  393000    1.0053433   -2.4036148   -2.4036148    -1.242726  0.063713608   -2.4036148    1.1608888   475860 
  394000    1.0032365   -2.4014058   -2.4014058   -1.2429497  0.066065772   -2.4014058    1.1584561   475860 
  395000    1.0039546    -2.402228    -2.402228   -1.2429427  0.068834935    -2.402228    1.1592853   475860 
  396000    1.0045052   -2.4037609   -2.4037609   -1.2438399  0.065822627   -2.4037609     1.159921   475860 
  397000    1.0045785   -2.4033206   -2.4033206   -1.2433149   0.06464413   -2.4033206    1.1600057   475860 
  398000    1.0049914   -2.4044345   -2.4044345   -1.2439519  0.062349473   -2.4044345    1.1604825   475860 
  399000    1.0046403   -2.4030384   -2.4030384   -1.2429614  0.068854253   -2.4030384     1.160077   475860 
  400000    1.0046014   -2.4031211   -2.4031211   -1.2430889  0.066721738   -2.4031211    1.1600322   475860 
  401000    1.0053802   -2.4044597   -2.4044597   -1.2435282  0.072550452   -2.4044597    1.1609315   475860 
  402000    1.0053348   -2.4042802   -2.4042802   -1.2434013  0.067057927   -2.4042802     1.160879   475860 
  403000    1.0069215   -2.4034234   -2.4034234   -1.2407121  0.067419283   -2.4034234    1.1627113   475860 
  404000    1.0060822   -2.4034402   -2.4034402   -1.2416981  0.068534307   -2.4034402    1.1617421   475860 
  405000     1.006671   -2.4046373   -2.4046373   -1.2422153  0.063672533   -2.4046373     1.162422   475860 
  406000    1.0054057   -2.4032113   -2.4032113   -1.2422504  0.069893912   -2.4032113    1.1609608   475860 
  407000    1.0070123   -2.4051544   -2.4051544   -1.2423384  0.073281024   -2.4051544     1.162816   475860 
  408000    1.0062665   -2.4032726   -2.4032726   -1.2413178  0.073182375   -2.4032726    1.1619548   475860 
  409000    1.0052528   -2.4025833   -2.4025833    -1.241799  0.068634934   -2.4025833    1.1607843   475860 
  410000    1.0042493   -2.4009842   -2.4009842   -1.2413586   0.06343701   -2.4009842    1.1596256   475860 
  411000    1.0029327   -2.3995682   -2.3995682   -1.2414629  0.066468461   -2.3995682    1.1581053   475860 
  412000    1.0022319    -2.399532    -2.399532    -1.242236  0.069029173    -2.399532     1.157296   475860 
  413000    1.0035448   -2.4008105   -2.4008105   -1.2419984  0.066488218   -2.4008105    1.1588121   475860 
  414000    1.0046393   -2.4025696   -2.4025696   -1.2424937  0.070671818   -2.4025696    1.1600759   475860 
  415000    1.0054115   -2.4033164   -2.4033164   -1.2423489  0.059228832   -2.4033164    1.1609676   475860 
  416000    1.0014073   -2.4000038   -2.4000038     -1.24366  0.068020238   -2.4000038    1.1563439   475860 
  417000    1.0046048    -2.403265    -2.403265   -1.2432289  0.067208501    -2.403265    1.1600361   475860 
  418000     1.003662    -2.402172    -2.402172   -1.2432246  0.070615933    -2.402172    1.1589474   475860 
  419000    1.0057004   -2.4036635   -2.4036635   -1.2423623  0.061705551   -2.4036635    1.1613012   475860 
  420000    1.0049908   -2.4025468   -2.4025468   -1.2420649  0.068786125   -2.4025468    1.1604818   475860 
  421000    1.0050931    -2.402096    -2.402096    -1.241496    0.0717256    -2.402096    1.1605999   475860 
  422000    1.0045262    -2.400783    -2.400783   -1.2408376  0.070662459    -2.400783    1.1599454   475860 
  423000      1.00315   -2.4001811   -2.4001811   -1.2418249  0.065054299   -2.4001811    1.1583562   475860 
  424000    1.0048088   -2.4017936   -2.4017936    -1.241522  0.061252106   -2.4017936    1.1602717   475860 
  425000     1.003509   -2.3994808   -2.3994808   -1.2407101  0.068983723   -2.3994808    1.1587707   475860 
  426000    1.0043014   -2.3997654   -2.3997654   -1.2400797  0.069702761   -2.3997654    1.1596857   475860 
  427000    1.0026061   -2.3984008   -2.3984008   -1.2406727  0.066819474   -2.3984008    1.1577281   475860 
  428000     1.003563   -2.4007478   -2.4007478   -1.2419148  0.069370761   -2.4007478    1.1588331   475860 
  429000    1.0025846   -2.3998917   -2.3998917   -1.2421885   0.06844958   -2.3998917    1.1577033   475860 
  430000    1.0043122   -2.4006013   -2.4006013   -1.2409031  0.067743939   -2.4006013    1.1596982   475860 
  431000    1.0055518   -2.4026005   -2.4026005   -1.2414709  0.066165188   -2.4026005    1.1611296   475860 
  432000     1.003746   -2.4018497   -2.4018497   -1.2428053  0.062759682   -2.4018497    1.1590444   475860 
  433000    1.0038092   -2.4012258   -2.4012258   -1.2421084  0.060228299   -2.4012258    1.1591174   475860 
  434000    1.0043273   -2.4010649   -2.4010649   -1.2413492  0.066003728   -2.4010649    1.1597157   475860 
  435000    1.0028228   -2.4001813   -2.4001813   -1.2422029  0.061194925   -2.4001813    1.1579784   475860 
  436000    1.0033059     -2.40008     -2.40008   -1.2415439  0.065968344     -2.40008    1.1585362   475860 
  437000    1.0049135   -2.4032039   -2.4032039   -1.2428113  0.066661385   -2.4032039    1.1603926   475860 
  438000    1.0025818   -2.4012743   -2.4012743   -1.2435741  0.065995663   -2.4012743    1.1577001   475860 
  439000    1.0030725    -2.401252    -2.401252   -1.2429853  0.065900603    -2.401252    1.1582667   475860 
  440000     1.003042   -2.4010546   -2.4010546   -1.2428231  0.069820311   -2.4010546    1.1582315   475860 
  441000    1.0051233   -2.4028005   -2.4028005   -1.2421656  0.067321523   -2.4028005    1.1606348   475860 
  442000    1.0043139    -2.401701    -2.401701   -1.2420008  0.073167566    -2.401701    1.1597002   475860 
  443000    1.0035452   -2.4007057   -2.4007057   -1.2418932  0.068385935   -2.4007057    1.1588125   475860 
  444000    1.0039568   -2.4024192   -2.4024192   -1.2431314  0.063673077   -2.4024192    1.1592878   475860 
  445000    1.0036484   -2.4015723   -2.4015723   -1.2426406  0.068741495   -2.4015723    1.1589317   475860 
  446000    1.0058793   -2.4043847   -2.4043847   -1.2428769  0.065521711   -2.4043847    1.1615078   475860 
  447000     1.005021   -2.4036965   -2.4036965   -1.2431798  0.073388952   -2.4036965    1.1605166   475860 
  448000    1.0033247   -2.4029306   -2.4029306   -1.2443727  0.064786543   -2.4029306    1.1585579   475860 
  449000    1.0037476   -2.4031677   -2.4031677   -1.2441214  0.069109338   -2.4031677    1.1590463   475860 
  450000    1.0035786   -2.4027522   -2.4027522   -1.2439011  0.068853423   -2.4027522    1.1588511   475860 
  451000    1.0039283   -2.4025513   -2.4025513   -1.2432964  0.064499197   -2.4025513    1.1592549   475860 
  452000      1.00393    -2.403286    -2.403286   -1.2440292  0.068462551    -2.403286    1.1592569   475860 
  453000    1.0027029   -2.4013716   -2.4013716   -1.2435316  0.068904248   -2.4013716    1.1578399   475860 
  454000    1.0030468   -2.4018796   -2.4018796   -1.2436426    0.0701599   -2.4018796     1.158237   475860 
  455000    1.0048387   -2.4032758   -2.4032758   -1.2429696  0.064931555   -2.4032758    1.1603062   475860 
  456000    1.0038307   -2.4018161   -2.4018161    -1.242674  0.069658412   -2.4018161    1.1591422   475860 
  457000    1.0034638   -2.4017692   -2.4017692   -1.2430506  0.068946375   -2.4017692    1.1587186   475860 
  458000    1.0050349   -2.4029115   -2.4029115   -1.2423788  0.064876395   -2.4029115    1.1605327   475860 
  459000    1.0042432   -2.4013126   -2.4013126   -1.2416941  0.067197359   -2.4013126    1.1596185   475860 
  460000    1.0047686   -2.4021646   -2.4021646   -1.2419394  0.069675101   -2.4021646    1.1602252   475860 
  461000    1.0044084   -2.4017436   -2.4017436   -1.2419343  0.069749879   -2.4017436    1.1598093   475860 
  462000    1.0048896    -2.401211    -2.401211   -1.2408461  0.068600007    -2.401211    1.1603649   475860 
  463000    1.0053566   -2.4028589   -2.4028589   -1.2419548  0.068074935   -2.4028589    1.1609042   475860 
  464000    1.0055957   -2.4016085   -2.4016085   -1.2404283  0.063561131   -2.4016085    1.1611802   475860 
  465000    1.0035936   -2.3996819   -2.3996819   -1.2408135  0.071580162   -2.3996819    1.1588684   475860 
  466000      1.00302   -2.3999155   -2.3999155   -1.2417094  0.066647838   -2.3999155    1.1582061   475860 
  467000      1.00479   -2.4013041   -2.4013041   -1.2410541  0.066654138   -2.4013041    1.1602499   475860 
  468000    1.0029559   -2.3993792   -2.3993792   -1.2412472   0.06950611   -2.3993792     1.158132   475860 
  469000    1.0050177   -2.4026048   -2.4026048   -1.2420919  0.069964455   -2.4026048    1.1605128   475860 
  470000    1.0042345   -2.4015001   -2.4015001   -1.2418916  0.070972258   -2.4015001    1.1596084   475860 
  471000    1.0018743   -2.4006132   -2.4006132   -1.2437301  0.063202739   -2.4006132    1.1568831   475860 
  472000     1.002779   -2.4016275   -2.4016275   -1.2436997  0.072237548   -2.4016275    1.1579278   475860 
  473000    1.0016511   -2.4006667   -2.4006667   -1.2440413  0.064622859   -2.4006667    1.1566254   475860 
  474000    1.0034624   -2.4022591   -2.4022591   -1.2435422  0.064899702   -2.4022591    1.1587169   475860 
  475000    1.0031849   -2.4008984   -2.4008984   -1.2425019   0.07191947   -2.4008984    1.1583965   475860 
  476000    1.0026926   -2.4003961   -2.4003961   -1.2425681  0.065676102   -2.4003961     1.157828   475860 
  477000    1.0036054   -2.3998371   -2.3998371    -1.240955  0.068265011   -2.3998371    1.1588821   475860 
  478000    1.0056288   -2.4030745   -2.4030745   -1.2418561   0.06857922   -2.4030745    1.1612185   475860 
  479000    1.0055056   -2.4032743   -2.4032743   -1.2421981  0.060209105   -2.4032743    1.1610762   475860 
  480000    1.0022582   -2.3996876   -2.3996876   -1.2423612  0.070981055   -2.3996876    1.1573264   475860 
  481000    1.0036042   -2.4007266   -2.4007266    -1.241846  0.071605073   -2.4007266    1.1588806   475860 
  482000    1.0039015   -2.4015562   -2.4015562   -1.2423323  0.064578642   -2.4015562    1.1592239   475860 
  483000    1.0039051   -2.4009533   -2.4009533   -1.2417252  0.067502495   -2.4009533    1.1592281   475860 
  484000    1.0056287   -2.4027613   -2.4027613   -1.2415429  0.064110473   -2.4027613    1.1612184   475860 
  485000    1.0052242   -2.4016852   -2.4016852   -1.2409339  0.069551685   -2.4016852    1.1607513   475860 
  486000    1.0064083   -2.4024329   -2.4024329   -1.2403143  0.071008611   -2.4024329    1.1621186   475860 
  487000    1.0064433   -2.4018122   -2.4018122   -1.2396532  0.062257742   -2.4018122     1.162159   475860 
  488000    1.0059911   -2.3994137   -2.3994137   -1.2377769  0.071527099   -2.3994137    1.1616368   475860 
  489000    1.0072357   -2.4029293   -2.4029293   -1.2398553  0.062570387   -2.4029293     1.163074   475860 
  490000    1.0060348   -2.4009758   -2.4009758   -1.2392885  0.071393066   -2.4009758    1.1616873   475860 
  491000    1.0053939   -2.3996102   -2.3996102    -1.238663  0.066760728   -2.3996102    1.1609472   475860 
  492000    1.0084898   -2.4032356   -2.4032356   -1.2387134  0.070896713   -2.4032356    1.1645222   475860 
  493000    1.0064747    -2.402344    -2.402344   -1.2401487   0.07151548    -2.402344    1.1621953   475860 
  494000    1.0059018   -2.4023316   -2.4023316   -1.2407979   0.07025171   -2.4023316    1.1615337   475860 
  495000    1.0067214   -2.4033359   -2.4033359   -1.2408558  0.066111364   -2.4033359    1.1624801   475860 
  496000    1.0058597   -2.4034007   -2.4034007   -1.2419156  0.064650459   -2.4034007    1.1614851   475860 
  497000     1.005877   -2.4029513   -2.4029513   -1.2414461  0.064443381   -2.4029513    1.1615052   475860 
  498000    1.0047956   -2.4022028   -2.4022028   -1.2419464  0.073266315   -2.4022028    1.1602564   475860 
  499000    1.0030437   -2.4001658   -2.4001658   -1.2419324  0.065663048   -2.4001658    1.1582334   475860 
  500000     1.003274   -2.3998681   -2.3998681   -1.2413688  0.067227998   -2.3998681    1.1584993   475860 
  501000     1.004105   -2.4011321   -2.4011321   -1.2416732  0.071151878   -2.4011321     1.159459   475860 
  502000    1.0028507   -2.4005587   -2.4005587   -1.2425482  0.067994586   -2.4005587    1.1580106   475860 
  503000    1.0038429   -2.4012308   -2.4012308   -1.2420745  0.067913301   -2.4012308    1.1591563   475860 
  504000    1.0039864   -2.4018217   -2.4018217   -1.2424996  0.064598065   -2.4018217     1.159322   475860 
  505000    1.0040043   -2.4017548   -2.4017548   -1.2424121  0.067576646   -2.4017548    1.1593427   475860 
  506000    1.0034644   -2.4010926   -2.4010926   -1.2423733  0.068639634   -2.4010926    1.1587193   475860 
  507000    1.0036134   -2.4014675   -2.4014675   -1.2425763  0.067599857   -2.4014675    1.1588913   475860 
  508000    1.0015633   -2.3998225   -2.3998225   -1.2432985  0.069107444   -2.3998225     1.156524   475860 
  509000    1.0020372   -2.4006616   -2.4006616   -1.2435904  0.068675315   -2.4006616    1.1570712   475860 
  510000    1.0022757   -2.3999489   -2.3999489   -1.2426023  0.068457747   -2.3999489    1.1573466   475860 
  511000    1.0017443   -2.3992954   -2.3992954   -1.2425623  0.067771723   -2.3992954     1.156733   475860 
  512000    1.0017387   -2.3991534   -2.3991534   -1.2424269  0.063082657   -2.3991534    1.1567265   475860 
  513000    1.0041555   -2.4019558   -2.4019558   -1.2424386  0.065506426   -2.4019558    1.1595172   475860 
  514000    1.0023715   -2.4001209   -2.4001209   -1.2426637   0.07066855   -2.4001209    1.1574572   475860 
  515000    1.0041986   -2.4026872   -2.4026872   -1.2431202  0.071319293   -2.4026872     1.159567   475860 
  516000    1.0039934   -2.4016231   -2.4016231   -1.2422931  0.063606259   -2.4016231      1.15933   475860 
  517000    1.0050463   -2.4016904   -2.4016904   -1.2411445  0.074931489   -2.4016904    1.1605459   475860 
  518000    1.0043709   -2.4011283   -2.4011283   -1.2413623  0.064597519   -2.4011283    1.1597659   475860 
  519000      1.00499   -2.4012609   -2.4012609   -1.2407801  0.063806564   -2.4012609    1.1604808   475860 
  520000    1.0050205   -2.4017192   -2.4017192   -1.2412032  0.067919303   -2.4017192    1.1605161   475860 
  521000    1.0067595   -2.4035424   -2.4035424   -1.2410184  0.069357281   -2.4035424    1.1625241   475860 
  522000    1.0047872    -2.402812    -2.402812   -1.2425653  0.075484016    -2.402812    1.1602467   475860 
  523000    1.0048963   -2.4042667   -2.4042667    -1.243894  0.069368679   -2.4042667    1.1603727   475860 
  524000    1.0062689   -2.4049501   -2.4049501   -1.2429925  0.063207278   -2.4049501    1.1619576   475860 
  525000    1.0048504   -2.4039036   -2.4039036    -1.243584  0.070003801   -2.4039036    1.1603196   475860 
  526000    1.0051623   -2.4044999   -2.4044999     -1.24382   0.06727839   -2.4044999    1.1606799   475860 
  527000     1.006727   -2.4048375   -2.4048375   -1.2423508  0.076771757   -2.4048375    1.1624866   475860 
  528000    1.0054399   -2.4036243   -2.4036243   -1.2426239  0.072858382   -2.4036243    1.1610004   475860 
  529000    1.0065952   -2.4042344   -2.4042344      -1.2419  0.068113426   -2.4042344    1.1623344   475860 
  530000    1.0063048   -2.4042419   -2.4042419   -1.2422429  0.068718171   -2.4042419    1.1619991   475860 
  531000    1.0049188   -2.4026131   -2.4026131   -1.2422145  0.070892384   -2.4026131    1.1603987   475860 
  532000    1.0050776   -2.4025288   -2.4025288   -1.2419468  0.064315458   -2.4025288     1.160582   475860 
  533000    1.0059316   -2.4041242   -2.4041242   -1.2425561  0.070875259   -2.4041242    1.1615682   475860 
  534000    1.0051837    -2.402434    -2.402434   -1.2417295  0.067113562    -2.402434    1.1607045   475860 
  535000    1.0026482   -2.3990519   -2.3990519   -1.2412751  0.074407607   -2.3990519    1.1577768   475860 
  536000    1.0043727   -2.4021098   -2.4021098   -1.2423417  0.068113885   -2.4021098    1.1597681   475860 
  537000    1.0053335   -2.4037191   -2.4037191   -1.2428416  0.074043679   -2.4037191    1.1608775   475860 
  538000    1.0016557   -2.3999318   -2.3999318    -1.243301   0.06847032   -2.3999318    1.1566307   475860 
  539000    1.0042128   -2.4035987   -2.4035987   -1.2440153  0.065096971   -2.4035987    1.1595834   475860 
  540000    1.0012512   -2.4004975   -2.4004975   -1.2443339  0.070967588   -2.4004975    1.1561636   475860 
  541000    1.0041718   -2.4029924   -2.4029924   -1.2434564  0.065547357   -2.4029924    1.1595361   475860 
  542000    1.0021775   -2.3998767   -2.3998767   -1.2426434  0.065646532   -2.3998767    1.1572332   475860 
  543000    1.0030747   -2.4019902   -2.4019902    -1.243721  0.064816197   -2.4019902    1.1582692   475860 
  544000    1.0032072   -2.4011673   -2.4011673   -1.2427451  0.064102429   -2.4011673    1.1584222   475860 
  545000    1.0025238   -2.3999374   -2.3999374   -1.2423043  0.062206811   -2.3999374    1.1576331   475860 
  546000    1.0017524   -2.3986287   -2.3986287   -1.2418864  0.064843788   -2.3986287    1.1567423   475860 
  547000    1.0034565   -2.4008882   -2.4008882   -1.2421781  0.064428472   -2.4008882    1.1587102   475860 
  548000    1.0029217   -2.4003179   -2.4003179   -1.2422254  0.058434246   -2.4003179    1.1580926   475860 
  549000      1.00484   -2.4012622   -2.4012622   -1.2409545  0.066839657   -2.4012622    1.1603077   475860 
  550000    1.0041548   -2.4007804   -2.4007804   -1.2412639   0.06967345   -2.4007804    1.1595165   475860 
  551000    1.0036433    -2.400101    -2.400101   -1.2411752  0.068354958    -2.400101    1.1589258   475860 
  552000    1.0018351   -2.3980083   -2.3980083   -1.2411705  0.071983095   -2.3980083    1.1568379   475860 
  553000    1.0021117   -2.3986163   -2.3986163   -1.2414591  0.074135103   -2.3986163    1.1571572   475860 
  554000    1.0040989   -2.4005477   -2.4005477   -1.2410959  0.072473444   -2.4005477    1.1594519   475860 
  555000     1.004018   -2.4002427   -2.4002427   -1.2408842  0.068358251   -2.4002427    1.1593585   475860 
  556000    1.0044497   -2.4009233   -2.4009233   -1.2410663  0.070712453   -2.4009233     1.159857   475860 
  557000    1.0056568    -2.401524    -2.401524   -1.2402732   0.07025076    -2.401524    1.1612508   475860 
  558000     1.004148   -2.3997806   -2.3997806    -1.240272  0.074590992   -2.3997806    1.1595086   475860 
  559000    1.0050649   -2.4003009   -2.4003009   -1.2397335  0.063058677   -2.4003009    1.1605673   475860 
  560000    1.0037362   -2.3993662   -2.3993662   -1.2403331  0.065025246   -2.3993662    1.1590331   475860 
  561000    1.0047085   -2.4012458   -2.4012458   -1.2410899  0.062953043   -2.4012458    1.1601558   475860 
  562000    1.0039683   -2.3999757   -2.3999757   -1.2406746  0.062914569   -2.3999757    1.1593011   475860 
  563000    1.0046978   -2.4018003   -2.4018003   -1.2416569  0.068662126   -2.4018003    1.1601434   475860 
  564000    1.0042859   -2.4022368   -2.4022368   -1.2425689  0.071141516   -2.4022368    1.1596679   475860 
  565000    1.0065315   -2.4048235   -2.4048235   -1.2425627  0.070627192   -2.4048235    1.1622608   475860 
  566000    1.0024056   -2.4009342   -2.4009342   -1.2434375  0.069283334   -2.4009342    1.1574967   475860 
  567000    1.0035553   -2.4025778   -2.4025778   -1.2437536  0.066259331   -2.4025778    1.1588242   475860 
  568000    1.0046366   -2.4035493   -2.4035493   -1.2434766  0.066644581   -2.4035493    1.1600728   475860 
  569000    1.0043861   -2.4034261   -2.4034261   -1.2436426  0.069751898   -2.4034261    1.1597835   475860 
  570000    1.0036605   -2.4029097   -2.4029097    -1.243964  0.066882277   -2.4029097    1.1589457   475860 
  571000    1.0020566   -2.4024281   -2.4024281   -1.2453346  0.072974685   -2.4024281    1.1570936   475860 
  572000    1.0042754   -2.4040874   -2.4040874   -1.2444317  0.067996582   -2.4040874    1.1596557   475860 
  573000    1.0037566   -2.4035393   -2.4035393   -1.2444827  0.067383822   -2.4035393    1.1590566   475860 
  574000    1.0043111   -2.4034805   -2.4034805   -1.2437835  0.070622409   -2.4034805    1.1596969   475860 
  575000    1.0067264   -2.4051529   -2.4051529   -1.2426669  0.072583845   -2.4051529    1.1624859   475860 
  576000    1.0042744   -2.4037163   -2.4037163   -1.2440617  0.073168758   -2.4037163    1.1596545   475860 
  577000    1.0031272   -2.4030241   -2.4030241   -1.2446942  0.067330402   -2.4030241    1.1583299   475860 
  578000    1.0045362   -2.4031977   -2.4031977   -1.2432408  0.062595828   -2.4031977    1.1599569   475860 
  579000    1.0033093   -2.4032654   -2.4032654   -1.2447252  0.062663523   -2.4032654    1.1585402   475860 
  580000    1.0034984   -2.4025457   -2.4025457   -1.2437872  0.067614085   -2.4025457    1.1587585   475860 
  581000    1.0044792   -2.4037686   -2.4037686   -1.2438775  0.065699219   -2.4037686    1.1598911   475860 
  582000    1.0046153   -2.4041865   -2.4041865   -1.2441384  0.067556677   -2.4041865    1.1600482   475860 
  583000    1.0027105    -2.402087    -2.402087   -1.2442384  0.067264597    -2.402087    1.1578486   475860 
  584000    1.0015218   -2.4000103   -2.4000103   -1.2435342   0.07222389   -2.4000103    1.1564761   475860 
  585000    1.0029132   -2.4011321   -2.4011321   -1.2430494  0.061250438   -2.4011321    1.1580827   475860 
  586000     1.004353   -2.4020553   -2.4020553     -1.24231  0.071603259   -2.4020553    1.1597453   475860 
  587000    1.0023715   -2.3998767   -2.3998767   -1.2424194  0.065078631   -2.3998767    1.1574573   475860 
  588000    1.0041045   -2.4024141   -2.4024141   -1.2429558  0.068696086   -2.4024141    1.1594583   475860 
  589000    1.0044007    -2.401496    -2.401496   -1.2416956  0.065472949    -2.401496    1.1598004   475860 
  590000    1.0063586   -2.4029632   -2.4029632    -1.240902  0.064013188   -2.4029632    1.1620612   475860 
  591000    1.0062396   -2.4027111   -2.4027111   -1.2407873   0.06545807   -2.4027111    1.1619238   475860 
  592000     1.005848   -2.4029374   -2.4029374   -1.2414658  0.066867933   -2.4029374    1.1614716   475860 
  593000    1.0057515   -2.4011279   -2.4011279   -1.2397678  0.067720734   -2.4011279    1.1613602   475860 
  594000    1.0053048   -2.4014711   -2.4014711   -1.2406267  0.062632437   -2.4014711    1.1608443   475860 
  595000    1.0051694   -2.4034759   -2.4034759   -1.2427879   0.06887934   -2.4034759     1.160688   475860 
  596000    1.0039626   -2.4012799   -2.4012799   -1.2419854  0.070000435   -2.4012799    1.1592945   475860 
  597000    1.0028604   -2.4009506   -2.4009506   -1.2429288  0.070286658   -2.4009506    1.1580218   475860 
  598000    1.0033295   -2.4017648   -2.4017648   -1.2432013  0.066504956   -2.4017648    1.1585635   475860 
  599000    1.0024305   -2.4015473   -2.4015473    -1.244022  0.064006943   -2.4015473    1.1575254   475860 
  600000    1.0017418   -2.4014728   -2.4014728   -1.2447426  0.065338356   -2.4014728    1.1567301   475860 
  601000    1.0021125   -2.4019913   -2.4019913   -1.2448331  0.070417302   -2.4019913    1.1571582   475860 
  602000    1.0036957    -2.402704    -2.402704   -1.2437177   0.06361434    -2.402704    1.1589863   475860 
  603000    1.0035223    -2.402454    -2.402454   -1.2436679  0.063157726    -2.402454    1.1587861   475860 
  604000    1.0018196   -2.3999475   -2.3999475   -1.2431275  0.068379605   -2.3999475      1.15682   475860 
  605000    1.0034884    -2.402572    -2.402572    -1.243825   0.06680933    -2.402572     1.158747   475860 
  606000    1.0041338   -2.4027027   -2.4027027   -1.2432104    0.0703882   -2.4027027    1.1594923   475860 
  607000    1.0036961   -2.4024792   -2.4024792   -1.2434923  0.068313344   -2.4024792    1.1589868   475860 
  608000    1.0047583   -2.4035747   -2.4035747   -1.2433613  0.070313985   -2.4035747    1.1602134   475860 
  609000    1.0061588   -2.4030174   -2.4030174   -1.2411869  0.067591456   -2.4030174    1.1618305   475860 
  610000    1.0055336   -2.4021565   -2.4021565   -1.2410479  0.066230231   -2.4021565    1.1611086   475860 
  611000    1.0066348   -2.4045078   -2.4045078   -1.2421276  0.064602406   -2.4045078    1.1623802   475860 
  612000    1.0054951   -2.4033576   -2.4033576   -1.2422935  0.057239563   -2.4033576    1.1610641   475860 
  613000    1.0044138   -2.4010067   -2.4010067   -1.2411912   0.06398591   -2.4010067    1.1598155   475860 
  614000     1.004892   -2.4028983   -2.4028983   -1.2425305  0.063752586   -2.4028983    1.1603678   475860 
  615000    1.0045936   -2.4021355   -2.4021355   -1.2421124  0.068236128   -2.4021355    1.1600231   475860 
  616000    1.0044215   -2.4025279   -2.4025279   -1.2427035   0.07223697   -2.4025279    1.1598244   475860 
  617000     1.004514   -2.4014082   -2.4014082    -1.241477  0.070884806   -2.4014082    1.1599312   475860 
  618000    1.0050379   -2.4036576   -2.4036576   -1.2431215  0.072256145   -2.4036576    1.1605362   475860 
  619000    1.0041947   -2.4035467   -2.4035467   -1.2439841  0.072030545   -2.4035467    1.1595625   475860 
  620000    1.0047628   -2.4046635   -2.4046635    -1.244445  0.071170826   -2.4046635    1.1602185   475860 
  621000    1.0034249   -2.4020588   -2.4020588   -1.2433851  0.069870537   -2.4020588    1.1586736   475860 
  622000    1.0039428   -2.4025975   -2.4025975   -1.2433258  0.066676229   -2.4025975    1.1592717   475860 
  623000    1.0071182   -2.4050593   -2.4050593   -1.2421209  0.070909404   -2.4050593    1.1629383   475860 
  624000    1.0070473   -2.4050765   -2.4050765     -1.24222  0.073165732   -2.4050765    1.1628565   475860 
  625000    1.0053948   -2.4027681   -2.4027681   -1.2418198  0.068918564   -2.4027681    1.1609483   475860 
  626000    1.0054337   -2.4029706   -2.4029706   -1.2419774   0.07501643   -2.4029706    1.1609932   475860 
  627000    1.0042668   -2.4017769   -2.4017769   -1.2421311  0.071507256   -2.4017769    1.1596458   475860 
  628000    1.0041831    -2.401924    -2.401924   -1.2423749  0.059911312    -2.401924    1.1595492   475860 
  629000    1.0035455   -2.4016834   -2.4016834   -1.2428706  0.065373344   -2.4016834    1.1588128   475860 
  630000    1.0041344   -2.4027373   -2.4027373   -1.2432444  0.064741715   -2.4027373    1.1594929   475860 
  631000    1.0014099   -2.4000104   -2.4000104   -1.2436636  0.069832713   -2.4000104    1.1563469   475860 
  632000    1.0023811   -2.4015587   -2.4015587   -1.2440903  0.064373952   -2.4015587    1.1574683   475860 
  633000    1.0032742   -2.4025748   -2.4025748   -1.2440752  0.066335958   -2.4025748    1.1584996   475860 
  634000     1.002706   -2.4011801   -2.4011801   -1.2433366   0.06822931   -2.4011801    1.1578435   475860 
  635000    1.0044871   -2.4028564   -2.4028564   -1.2429562  0.065211675   -2.4028564    1.1599001   475860 
  636000    1.0030521   -2.4000408   -2.4000408   -1.2417977  0.066307996   -2.4000408    1.1582431   475860 
  637000    1.0038605   -2.4018806   -2.4018806   -1.2427041  0.064455084   -2.4018806    1.1591766   475860 
  638000    1.0032008   -2.4009351   -2.4009351   -1.2425202  0.063374813   -2.4009351    1.1584149   475860 
  639000    1.0040817   -2.4005797   -2.4005797   -1.2411476   0.07146755   -2.4005797    1.1594321   475860 
  640000    1.0041106   -2.4007164   -2.4007164   -1.2412509  0.066935948   -2.4007164    1.1594654   475860 
  641000    1.0047101   -2.4013773   -2.4013773   -1.2412196  0.070494357   -2.4013773    1.1601576   475860 
  642000    1.0049007   -2.4003312   -2.4003312   -1.2399534  0.069123455   -2.4003312    1.1603778   475860 
[...]
 9832000    1.0079473   -2.4089724   -2.4089724   -1.2450767   0.07381007   -2.4089724    1.1638957   475860 
 9833000    1.0055379   -2.4046148   -2.4046148   -1.2435013  0.070508046   -2.4046148    1.1611135   475860 
 9834000    1.0069087   -2.4067735   -2.4067735   -1.2440771  0.068095144   -2.4067735    1.1626964   475860 
 9835000    1.0068431   -2.4069362   -2.4069362   -1.2443154  0.067997857   -2.4069362    1.1626207   475860 
 9836000    1.0076605   -2.4083004   -2.4083004   -1.2447359  0.067087073   -2.4083004    1.1635645   475860 
 9837000    1.0074169   -2.4080374   -2.4080374   -1.2447542  0.065904021   -2.4080374    1.1632832   475860 
 9838000    1.0069586   -2.4076787   -2.4076787   -1.2449246  0.065869488   -2.4076787     1.162754   475860 
 9839000     1.007501    -2.406424    -2.406424   -1.2430436   0.06724485    -2.406424    1.1633804   475860 
 9840000    1.0072579   -2.4084701   -2.4084701   -1.2453704  0.058231567   -2.4084701    1.1630997   475860 
 9841000    1.0065723   -2.4070854   -2.4070854   -1.2447775  0.068328308   -2.4070854     1.162308   475860 
 9842000     1.006467   -2.4080091   -2.4080091   -1.2458227  0.069528382   -2.4080091    1.1621864   475860 
 9843000    1.0065231   -2.4077304   -2.4077304   -1.2454792  0.067403479   -2.4077304    1.1622512   475860 
 9844000    1.0070235   -2.4086286   -2.4086286   -1.2457997  0.065109599   -2.4086286     1.162829   475860 
 9845000    1.0057404   -2.4063347   -2.4063347   -1.2449874  0.067672029   -2.4063347    1.1613473   475860 
 9846000    1.0064568   -2.4078764   -2.4078764   -1.2457018  0.069587808   -2.4078764    1.1621746   475860 
 9847000    1.0052857   -2.4065863   -2.4065863   -1.2457639   0.06124987   -2.4065863    1.1608224   475860 
 9848000    1.0070931   -2.4085997   -2.4085997   -1.2456903  0.072065365   -2.4085997    1.1629093   475860 
 9849000    1.0056002   -2.4066116   -2.4066116   -1.2454261  0.073900003   -2.4066116    1.1611855   475860 
 9850000    1.0064197   -2.4077098   -2.4077098    -1.245578  0.069402156   -2.4077098    1.1621317   475860 
 9851000    1.0062828   -2.4084788   -2.4084788   -1.2465051  0.069059309   -2.4084788    1.1619737   475860 
 9852000    1.0066278   -2.4082152   -2.4082152   -1.2458432   0.07071567   -2.4082152     1.162372   475860 
 9853000    1.0071968   -2.4089417   -2.4089417   -1.2459126  0.062520785   -2.4089417    1.1630291   475860 
 9854000    1.0066636   -2.4091803   -2.4091803   -1.2467669  0.066817593   -2.4091803    1.1624134   475860 
 9855000    1.0054169   -2.4086406   -2.4086406   -1.2476667  0.066974137   -2.4086406    1.1609739   475860 
 9856000    1.0060728   -2.4075181   -2.4075181   -1.2457869  0.065802217   -2.4075181    1.1617312   475860 
 9857000    1.0056148   -2.4084029   -2.4084029   -1.2472005  0.063357834   -2.4084029    1.1612024   475860 
 9858000    1.0046681   -2.4073192   -2.4073192     -1.24721   0.06915067   -2.4073192    1.1601092   475860 
 9859000    1.0052495   -2.4088475   -2.4088475    -1.248067   0.06392962   -2.4088475    1.1607805   475860 
 9860000     1.004139   -2.4073927   -2.4073927   -1.2478945  0.068487523   -2.4073927    1.1594982   475860 
 9861000    1.0052649   -2.4085298   -2.4085298   -1.2477315  0.060637407   -2.4085298    1.1607983   475860 
 9862000    1.0045346   -2.4090472   -2.4090472   -1.2490921  0.066177721   -2.4090472    1.1599551   475860 
 9863000    1.0032181    -2.407359    -2.407359   -1.2489242  0.071732109    -2.407359    1.1584348   475860 
 9864000    1.0046661    -2.408775    -2.408775   -1.2486682  0.069363136    -2.408775    1.1601068   475860 
 9865000    1.0027854   -2.4076736   -2.4076736   -1.2497384  0.068629976   -2.4076736    1.1579352   475860 
 9866000    1.0064507   -2.4115448   -2.4115448   -1.2493773  0.061977145   -2.4115448    1.1621676   475860 
 9867000    1.0074727   -2.4127124   -2.4127124   -1.2493648  0.073271866   -2.4127124    1.1633477   475860 
 9868000    1.0069085   -2.4113134   -2.4113134   -1.2486172  0.067804869   -2.4113134    1.1626963   475860 
 9869000     1.006656   -2.4104909   -2.4104909   -1.2480863  0.064565001   -2.4104909    1.1624046   475860 
 9870000    1.0054052   -2.4082334   -2.4082334    -1.247273   0.06828418   -2.4082334    1.1609604   475860 
 9871000    1.0064566   -2.4092802   -2.4092802   -1.2471059  0.064004172   -2.4092802    1.1621743   475860 
 9872000    1.0068525   -2.4091179   -2.4091179   -1.2464863  0.062611348   -2.4091179    1.1626316   475860 
 9873000    1.0075342   -2.4093737   -2.4093737    -1.245955   0.07093327   -2.4093737    1.1634188   475860 
 9874000    1.0052483   -2.4090475   -2.4090475   -1.2482684  0.072027144   -2.4090475    1.1607792   475860 
 9875000    1.0058819   -2.4102474   -2.4102474   -1.2487366  0.066209331   -2.4102474    1.1615108   475860 
 9876000     1.005466   -2.4090429   -2.4090429   -1.2480124  0.071704045   -2.4090429    1.1610305   475860 
 9877000    1.0073627   -2.4109539   -2.4109539   -1.2477331  0.066700052   -2.4109539    1.1632207   475860 
 9878000    1.0060061   -2.4091914   -2.4091914   -1.2475373  0.075190517   -2.4091914    1.1616542   475860 
 9879000    1.0069205   -2.4098082   -2.4098082   -1.2470981  0.069945797   -2.4098082    1.1627101   475860 
 9880000    1.0072388   -2.4100883   -2.4100883   -1.2470107   0.07162303   -2.4100883    1.1630776   475860 
 9881000    1.0063489   -2.4098749   -2.4098749   -1.2478249  0.072686829   -2.4098749      1.16205   475860 
 9882000    1.0068552   -2.4101379   -2.4101379   -1.2475032  0.071094025   -2.4101379    1.1626347   475860 
 9883000    1.0074552   -2.4105728   -2.4105728   -1.2472453  0.072533338   -2.4105728    1.1633275   475860 
 9884000    1.0071434    -2.410355    -2.410355   -1.2473876  0.075372558    -2.410355    1.1629674   475860 
 9885000      1.00664    -2.411241    -2.411241   -1.2488548  0.069516853    -2.411241    1.1623862   475860 
 9886000    1.0067965   -2.4104513   -2.4104513   -1.2478844  0.075774066   -2.4104513    1.1625669   475860 
 9887000      1.00615   -2.4092847   -2.4092847   -1.2474644  0.070459529   -2.4092847    1.1618203   475860 
 9888000    1.0034596   -2.4066986   -2.4066986   -1.2479849  0.072666002   -2.4066986    1.1587137   475860 
 9889000    1.0057823   -2.4098075   -2.4098075   -1.2484117   0.06602226   -2.4098075    1.1613958   475860 
 9890000    1.0051813   -2.4091194   -2.4091194   -1.2484176  0.067666663   -2.4091194    1.1607018   475860 
 9891000    1.0054426   -2.4100293   -2.4100293   -1.2490258  0.068572475   -2.4100293    1.1610035   475860 
 9892000    1.0057056   -2.4109568   -2.4109568   -1.2496496  0.063142699   -2.4109568    1.1613072   475860 
 9893000    1.0038489   -2.4077632   -2.4077632   -1.2486001  0.071377193   -2.4077632    1.1591632   475860 
 9894000    1.0062804   -2.4094447   -2.4094447   -1.2474738  0.075308383   -2.4094447    1.1619709   475860 
 9895000    1.0067214   -2.4086335   -2.4086335   -1.2461533  0.070290966   -2.4086335    1.1624802   475860 
 9896000    1.0057244   -2.4068207   -2.4068207   -1.2454918  0.066841609   -2.4068207    1.1613289   475860 
 9897000    1.0074374   -2.4092623   -2.4092623   -1.2459554   0.06832225   -2.4092623    1.1633069   475860 
 9898000    1.0063551   -2.4085599   -2.4085599   -1.2465027  0.069330002   -2.4085599    1.1620572   475860 
 9899000    1.0065833   -2.4075074   -2.4075074   -1.2451866  0.076233895   -2.4075074    1.1623207   475860 
 9900000    1.0078751   -2.4096364   -2.4096364   -1.2458241  0.068651126   -2.4096364    1.1638124   475860 
 9901000    1.0075685   -2.4098094   -2.4098094   -1.2463512   0.06764721   -2.4098094    1.1634583   475860 
 9902000    1.0060328   -2.4081056   -2.4081056   -1.2464206  0.063374276   -2.4081056     1.161685   475860 
 9903000    1.0062443   -2.4092245   -2.4092245   -1.2472953  0.069612041   -2.4092245    1.1619292   475860 
 9904000    1.0051523    -2.408282    -2.408282   -1.2476138  0.069586303    -2.408282    1.1606682   475860 
 9905000    1.0055088   -2.4080874   -2.4080874   -1.2470075  0.074628156   -2.4080874    1.1610799   475860 
 9906000    1.0047583   -2.4075921   -2.4075921   -1.2473787  0.065843168   -2.4075921    1.1602134   475860 
 9907000    1.0052825   -2.4079176   -2.4079176    -1.247099  0.070562884   -2.4079176    1.1608187   475860 
 9908000    1.0062935   -2.4091818   -2.4091818   -1.2471958  0.067654556   -2.4091818    1.1619861   475860 
 9909000    1.0060693   -2.4093955   -2.4093955   -1.2476683  0.069871502   -2.4093955    1.1617271   475860 
 9910000    1.0045031   -2.4073495   -2.4073495   -1.2474309  0.066705833   -2.4073495    1.1599186   475860 
 9911000    1.0065811   -2.4100246   -2.4100246   -1.2477065  0.072345897   -2.4100246    1.1623181   475860 
 9912000    1.0059952    -2.409112    -2.409112   -1.2474704  0.067665234    -2.409112    1.1616416   475860 
 9913000    1.0078464   -2.4103851   -2.4103851   -1.2466059  0.066629192   -2.4103851    1.1637792   475860 
 9914000    1.0059818   -2.4091968   -2.4091968   -1.2475706   0.06776721   -2.4091968    1.1616262   475860 
 9915000     1.005416   -2.4089808   -2.4089808    -1.248008  0.072522481   -2.4089808    1.1609728   475860 
 9916000    1.0063169   -2.4096853   -2.4096853   -1.2476722  0.071785372   -2.4096853    1.1620131   475860 
 9917000     1.006637   -2.4106658   -2.4106658   -1.2482831   0.07125317   -2.4106658    1.1623827   475860 
 9918000    1.0074291   -2.4108635   -2.4108635   -1.2475662  0.064224501   -2.4108635    1.1632973   475860 
 9919000    1.0064466   -2.4099979   -2.4099979   -1.2478351  0.075062024   -2.4099979    1.1621628   475860 
 9920000    1.0066036   -2.4115594   -2.4115594   -1.2492152  0.064629073   -2.4115594    1.1623441   475860 
 9921000    1.0065016   -2.4114852   -2.4114852   -1.2492589  0.069928145   -2.4114852    1.1622263   475860 
 9922000     1.007266   -2.4130317   -2.4130317   -1.2499227  0.075842953   -2.4130317     1.163109   475860 
 9923000    1.0058009   -2.4115881   -2.4115881   -1.2501709  0.069363769   -2.4115881    1.1614172   475860 
 9924000    1.0046828   -2.4111672   -2.4111672   -1.2510411  0.076338216   -2.4111672    1.1601261   475860 
 9925000    1.0053967   -2.4123522   -2.4123522   -1.2514017  0.063698831   -2.4123522    1.1609505   475860 
 9926000    1.0050108   -2.4127339   -2.4127339    -1.252229  0.068627463   -2.4127339    1.1605049   475860 
 9927000    1.0035283   -2.4102522   -2.4102522   -1.2514592  0.067822227   -2.4102522     1.158793   475860 
 9928000    1.0028574   -2.4100869   -2.4100869   -1.2520685  0.071166373   -2.4100869    1.1580183   475860 
 9929000    1.0052836   -2.4123971   -2.4123971   -1.2515771  0.065448927   -2.4123971    1.1608199   475860 
 9930000     1.004032   -2.4114982   -2.4114982   -1.2521235  0.073902048   -2.4114982    1.1593747   475860 
 9931000    1.0064893   -2.4136032   -2.4136032    -1.251391  0.067283584   -2.4136032    1.1622121   475860 
 9932000    1.0068634   -2.4148392   -2.4148392   -1.2521951  0.071366293   -2.4148392    1.1626441   475860 
 9933000    1.0053106   -2.4129999   -2.4129999   -1.2521489  0.070783302   -2.4129999     1.160851   475860 
 9934000    1.0063499   -2.4136455   -2.4136455   -1.2515944  0.068519463   -2.4136455    1.1620511   475860 
 9935000    1.0059699   -2.4125943   -2.4125943   -1.2509819   0.07744223   -2.4125943    1.1616124   475860 
 9936000     1.006302   -2.4120975   -2.4120975   -1.2501016  0.070248585   -2.4120975    1.1619959   475860 
 9937000    1.0074998     -2.41221     -2.41221   -1.2488311  0.069622727     -2.41221    1.1633789   475860 
 9938000    1.0081646   -2.4117221   -2.4117221   -1.2475755  0.076020457   -2.4117221    1.1641466   475860 
 9939000    1.0094513   -2.4137404   -2.4137404   -1.2481081  0.075901215   -2.4137404    1.1656324   475860 
 9940000    1.0086808   -2.4133669   -2.4133669   -1.2486242  0.078744596   -2.4133669    1.1647428   475860 
 9941000    1.0086791   -2.4133122   -2.4133122   -1.2485715  0.071420454   -2.4133122    1.1647407   475860 
 9942000      1.00743   -2.4122252   -2.4122252   -1.2489268  0.070855088   -2.4122252    1.1632984   475860 
 9943000    1.0080564   -2.4128386   -2.4128386   -1.2488169  0.074436654   -2.4128386    1.1640217   475860 
 9944000    1.0069765   -2.4119264   -2.4119264   -1.2491517  0.073300862   -2.4119264    1.1627747   475860 
 9945000    1.0067527   -2.4107802   -2.4107802    -1.248264  0.069851081   -2.4107802    1.1625163   475860 
 9946000    1.0076363   -2.4097781   -2.4097781   -1.2462415  0.075348081   -2.4097781    1.1635366   475860 
 9947000    1.0052065   -2.4071937   -2.4071937   -1.2464628  0.071045618   -2.4071937    1.1607309   475860 
 9948000    1.0054159    -2.406642    -2.406642   -1.2456692  0.073968139    -2.406642    1.1609727   475860 
 9949000    1.0082065   -2.4101597   -2.4101597   -1.2459647  0.070953933   -2.4101597     1.164195   475860 
 9950000    1.0083718    -2.409539    -2.409539   -1.2451531    0.0663595    -2.409539    1.1643859   475860 
 9951000     1.005647   -2.4076008   -2.4076008   -1.2463613  0.073062383   -2.4076008    1.1612395   475860 
 9952000    1.0075159   -2.4088553   -2.4088553   -1.2454577  0.071093901   -2.4088553    1.1633976   475860 
 9953000    1.0056192   -2.4073586   -2.4073586   -1.2461511  0.071961878   -2.4073586    1.1612074   475860 
 9954000    1.0055542   -2.4076935   -2.4076935   -1.2465611  0.073446459   -2.4076935    1.1611324   475860 
 9955000    1.0051544   -2.4082426   -2.4082426   -1.2475719  0.068806834   -2.4082426    1.1606707   475860 
 9956000    1.0034764   -2.4070472   -2.4070472   -1.2483141  0.065953869   -2.4070472    1.1587331   475860 
 9957000    1.0056392   -2.4080848   -2.4080848   -1.2468543  0.073132293   -2.4080848    1.1612305   475860 
 9958000     1.007654   -2.4108762   -2.4108762   -1.2473191   0.06204373   -2.4108762     1.163557   475860 
 9959000    1.0047635   -2.4080313   -2.4080313   -1.2478119  0.071427211   -2.4080313    1.1602194   475860 
 9960000    1.0059826    -2.409519    -2.409519   -1.2478919  0.065215303    -2.409519    1.1616271   475860 
 9961000    1.0043425   -2.4071382   -2.4071382    -1.247405  0.067129132   -2.4071382    1.1597332   475860 
 9962000    1.0051453   -2.4076104   -2.4076104   -1.2469502  0.068795752   -2.4076104    1.1606602   475860 
 9963000    1.0051553   -2.4065054   -2.4065054   -1.2458336  0.064738794   -2.4065054    1.1606718   475860 
 9964000    1.0064097   -2.4083059   -2.4083059   -1.2461857  0.067904339   -2.4083059    1.1621202   475860 
 9965000    1.0062022   -2.4072727   -2.4072727   -1.2453921  0.068954155   -2.4072727    1.1618806   475860 
 9966000    1.0058401    -2.408055    -2.408055   -1.2465924   0.07286723    -2.408055    1.1614625   475860 
 9967000    1.0069747   -2.4083542   -2.4083542   -1.2455815  0.065226385   -2.4083542    1.1627727   475860 
 9968000    1.0056424   -2.4070593   -2.4070593   -1.2458251  0.066155485   -2.4070593    1.1612342   475860 
 9969000    1.0050565   -2.4058958   -2.4058958   -1.2453381  0.071131787   -2.4058958    1.1605576   475860 
 9970000    1.0081685   -2.4087625   -2.4087625   -1.2446114  0.068285813   -2.4087625    1.1641511   475860 
 9971000    1.0073975    -2.408001    -2.408001   -1.2447402  0.070332493    -2.408001    1.1632608   475860 
 9972000    1.0075865   -2.4090744   -2.4090744   -1.2455953  0.072513851   -2.4090744    1.1634791   475860 
 9973000    1.0067735   -2.4074748   -2.4074748   -1.2449345  0.063863366   -2.4074748    1.1625404   475860 
 9974000    1.0078478   -2.4087813   -2.4087813   -1.2450005  0.066129091   -2.4087813    1.1637808   475860 
 9975000    1.0066791   -2.4079517   -2.4079517   -1.2455204  0.067379505   -2.4079517    1.1624313   475860 
 9976000    1.0058347   -2.4071569   -2.4071569   -1.2457006  0.070878329   -2.4071569    1.1614563   475860 
 9977000    1.0068927   -2.4087971   -2.4087971   -1.2461191  0.072942594   -2.4087971     1.162678   475860 
 9978000    1.0056618   -2.4080638   -2.4080638   -1.2468072  0.068504159   -2.4080638    1.1612566   475860 
 9979000    1.0080599   -2.4108493   -2.4108493   -1.2468236  0.065763923   -2.4108493    1.1640257   475860 
 9980000    1.0078329   -2.4107655   -2.4107655   -1.2470019  0.065765443   -2.4107655    1.1637636   475860 
 9981000    1.0060531   -2.4087309   -2.4087309   -1.2470224  0.070332881   -2.4087309    1.1617085   475860 
 9982000    1.0071845   -2.4102773   -2.4102773   -1.2472623  0.067285041   -2.4102773    1.1630149   475860 
 9983000    1.0059556   -2.4089036   -2.4089036   -1.2473078  0.077880473   -2.4089036    1.1615958   475860 
 9984000    1.0057948   -2.4085554   -2.4085554   -1.2471452  0.073244472   -2.4085554    1.1614101   475860 
 9985000     1.007407   -2.4103752   -2.4103752   -1.2471034  0.073312045   -2.4103752    1.1632719   475860 
 9986000    1.0070715   -2.4110055   -2.4110055   -1.2481211  0.071084411   -2.4110055    1.1628844   475860 
 9987000      1.00793   -2.4115091   -2.4115091   -1.2476333  0.069378416   -2.4115091    1.1638758   475860 
 9988000    1.0069706   -2.4105527   -2.4105527   -1.2477848   0.07167871   -2.4105527    1.1627679   475860 
 9989000    1.0081112    -2.412464    -2.412464    -1.248379  0.069946412    -2.412464     1.164085   475860 
 9990000    1.0069979   -2.4107273   -2.4107273   -1.2479279  0.071009566   -2.4107273    1.1627994   475860 
 9991000    1.0077822   -2.4122453   -2.4122453   -1.2485402  0.069498027   -2.4122453    1.1637051   475860 
 9992000     1.007685   -2.4131811   -2.4131811   -1.2495882  0.071881983   -2.4131811    1.1635929   475860 
 9993000    1.0064869   -2.4107742   -2.4107742   -1.2485649  0.071885408   -2.4107742    1.1622093   475860 
 9994000    1.0076553    -2.411708    -2.411708   -1.2481495  0.073486518    -2.411708    1.1635585   475860 
 9995000    1.0058326   -2.4109959   -2.4109959    -1.249542  0.067388101   -2.4109959    1.1614539   475860 
 9996000    1.0068365   -2.4114673   -2.4114673   -1.2488543  0.072659125   -2.4114673    1.1626131   475860 
 9997000    1.0073743   -2.4120471   -2.4120471   -1.2488131  0.072138486   -2.4120471     1.163234   475860 
 9998000    1.0064416   -2.4100314   -2.4100314   -1.2478742  0.073242285   -2.4100314    1.1621571   475860 
 9999000     1.005808   -2.4089579   -2.4089579   -1.2475325  0.074005515   -2.4089579    1.1614254   475860 
10000000    1.0085233   -2.4120728   -2.4120728   -1.2475119  0.072650334   -2.4120728    1.1645609   475860 
Loop time of 41071 on 288 procs for 10000000 steps with 475860 atoms

Performance: 105183.707 tau/day, 243.481 timesteps/s
93.7% CPU use with 288 MPI tasks x 1 OpenMP threads

MPI task timing breakdown:
Section |  min time  |  avg time  |  max time  |%varavg|  %CPU | %total
-----------------------------------------------------------------------
Pair    | 1132.2     | 3563.9     | 5055.9     |1585.7 |  95.8 |  8.68
Bond    | 6.2082     | 6.6999     | 7.1268     |   6.8 | 100.0 |  0.02
Neigh   | 1382.6     | 2979.2     | 3474.6     | 825.7 |  99.0 |  7.25
Comm    | 2931.6     | 4998.9     | 8057.8     |1526.3 |  94.0 | 12.17
Output  | 554.44     | 13869      | 13958      | 667.6 |  90.7 | 33.77
Modify  | 14858      | 15479      | 29173      | 736.2 |  94.9 | 37.69
Other   |            | 173.9      |            |       |       |  0.42

Nlocal:        1652.29 ave        2562 max        1230 min
Histogram: 6 19 100 119 32 10 0 1 0 1
Nghost:        4168.28 ave        7424 max        2200 min
Histogram: 24 20 49 64 64 37 13 12 3 2
Neighs:        34587.6 ave       50692 max        7469 min
Histogram: 25 8 19 16 19 25 26 38 61 51

Total # of neighbors = 9961231
Ave neighs/atom = 20.933113
Ave special neighs/atom = 0.0000000
Neighbor list builds = 1000000
Dangerous builds = 990000

Total wall time: 11:24:38
