LAMMPS (24 Dec 2020)
OMP_NUM_THREADS environment is not set. Defaulting to 1 thread. (src/comm.cpp:94)
  using 1 OpenMP thread(s) per MPI task
Created orthogonal box = (0.0000000 0.0000000 0.0000000) to (80.000000 80.000000 160.00000)
  6 by 4 by 8 MPI processor grid
Lattice spacing in x,y,z = 1.1485556 1.1485556 1.1485556
Created 421400 atoms
  create_atoms CPU = 0.143 seconds
Lattice spacing in x,y,z = 2.8114422 2.8114422 2.8114422
Created 17661 atoms
  create_atoms CPU = 0.004 seconds
439061 atoms in group solvent
System init for delete_atoms ...
Neighbor list info ...
  update every 1 steps, delay 10 steps, check yes
  max neighbors/atom: 2000, page size: 100000
  master list distance cutoff = 1.9
  ghost atom cutoff = 1.9
  binsize = 0.95, bins = 85 85 169
  2 neighbor lists, perpetual/occasional/extra = 1 1 0
  (1) command delete_atoms, occasional
      attributes: full, newton on
      pair build: full/bin
      stencil: full/bin/3d
      bin: standard
  (2) pair lj/smooth/linear, perpetual
      attributes: half, newton on
      pair build: half/bin/newton
      stencil: half/bin/3d/newton
      bin: standard
WARNING: Ignoring 'compress yes' for molecular system (src/delete_atoms.cpp:125)
Deleted 0 atoms, new total = 439061
Balancing ...
Neighbor list info ...
  update every 1 steps, delay 10 steps, check yes
  max neighbors/atom: 2000, page size: 100000
  master list distance cutoff = 1.9
  ghost atom cutoff = 1.9
  binsize = 0.95, bins = 85 85 169
  1 neighbor lists, perpetual/occasional/extra = 1 0 0
  (1) pair lj/smooth/linear, perpetual
      attributes: half, newton on
      pair build: half/bin/newton
      stencil: half/bin/3d/newton
      bin: standard
 rebalancing time: 0.006 seconds
  iteration count = 5
  initial/final maximal load/proc = 3888.0000 2808.0000
  initial/final imbalance factor  = 1.7002102 1.2279296
  x cuts: 0.0000000 0.16666667 0.33333333 0.50000000 0.66666667 0.83333333 1.0000000
  y cuts: 0.0000000 0.25000000 0.50000000 0.75000000 1.0000000
  z cuts: 0.0000000 0.089843750 0.17578125 0.25390625 0.33593750 0.41406250 0.50390625 0.58203125 1.0000000
dynamic group thermo defined
New timer settings: style=full  mode=nosync  timeout=off
Setting up Verlet run ...
  Unit style    : lj
  Current step  : 0
  Time step     : 0.005
Per MPI rank memory allocation (min/avg/max) = 9.928 | 9.990 | 10.13 Mbytes
Step Temp E_pair E_vdwl TotEng Press PotEng KinEng Atoms 
       0            1    2.1636708    2.1636708    3.6636674    5.8516817    2.1636708    1.4999966   439061 
    1000     1.992422   0.20785138   0.20785138    3.1964775    3.2903924   0.20785138    2.9886261   439061 
    2000    2.0251532 -0.015518675 -0.015518675    3.0222042    2.4085463 -0.015518675    3.0377229   439061 
    3000    1.9823133 -0.086754101 -0.086754101    2.8867091    2.0261827 -0.086754101    2.9734632   439061 
    4000    1.9764598  -0.13141232  -0.13141232    2.8332706    1.7711891  -0.13141232    2.9646829   439061 
    5000    1.9691085  -0.11000584  -0.11000584    2.8436501    1.7283614  -0.11000584     2.953656   439061 
    6000    1.9596467 -0.063082024 -0.063082024    2.8763814     1.800778 -0.063082024    2.9394634   439061 
    7000    1.9471744 -0.0079168993 -0.0079168993     2.912838    1.9301043 -0.0079168993    2.9207549   439061 
    8000    1.9391443  0.035151227  0.035151227    2.9438611    2.0508059  0.035151227    2.9087098   439061 
    9000    1.9425472  0.055478963  0.055478963    2.9692932    2.1310721  0.055478963    2.9138142   439061 
   10000    1.9632515  0.044829701  0.044829701    2.9897003    2.0978584  0.044829701    2.9448706   439061 
   11000    1.9808083  0.037021437  0.037021437    3.0082271    2.0885194  0.037021437    2.9712057   439061 
   12000    1.9993817  0.022625062  0.022625062    3.0216907    2.0605705  0.022625062    2.9990657   439061 
   13000    2.0007747 0.00090797752 0.00090797752    3.0020632    1.9812888 0.00090797752    3.0011553   439061 
   14000    1.9447552 -0.016539343 -0.016539343    2.9005869    1.8926612 -0.016539343    2.9171262   439061 
   15000    1.8521335 -0.012621131 -0.012621131    2.7655728    1.8990881 -0.012621131     2.778194   439061 
   16000    1.7640904 -0.010583886 -0.010583886    2.6355457    1.9154326 -0.010583886    2.6461296   439061 
   17000    1.7070332 -0.018503299 -0.018503299    2.5420406    1.9013675 -0.018503299    2.5605439   439061 
   18000    1.6742383 -0.026255657 -0.026255657    2.4850961    1.8707806 -0.026255657    2.5113518   439061 
   19000    1.6599051 -0.033350068 -0.033350068    2.4565019    1.8410686 -0.033350068    2.4898519   439061 
   20000     1.656305 -0.040522291 -0.040522291    2.4439296    1.8157268 -0.040522291    2.4844519   439061 
   21000    1.6575022 -0.043839966 -0.043839966    2.4424077    1.7942815 -0.043839966    2.4862477   439061 
   22000    1.6670935  -0.05431612  -0.05431612    2.4463184    1.7334648  -0.05431612    2.5006345   439061 
   23000    1.6747284 -0.058825172 -0.058825172    2.4532617    1.6886523 -0.058825172    2.5120868   439061 
   24000    1.6775206 -0.053815268 -0.053815268      2.46246    1.6798754 -0.053815268    2.5162752   439061 
   25000    1.6818421 -0.047918135 -0.047918135    2.4748392    1.6858655 -0.047918135    2.5227573   439061 
   26000    1.6853925 -0.042824391 -0.042824391    2.4852586    1.6974749 -0.042824391     2.528083   439061 
   27000    1.6904342 -0.038297193 -0.038297193    2.4973483    1.7049518 -0.038297193    2.5356455   439061 
   28000    1.6943993 -0.031692972 -0.031692972    2.5099001    1.7203183 -0.031692972    2.5415931   439061 
   29000    1.7007484 -0.028839602 -0.028839602    2.5222772    1.7335489 -0.028839602    2.5511168   439061 
   30000    1.7115607 -0.031886823 -0.031886823    2.5354484    1.7343351 -0.031886823    2.5673353   439061 
   31000    1.7174405 -0.029384684 -0.029384684    2.5467702    1.7498617 -0.029384684    2.5761549   439061 
   32000    1.7070395  -0.03359122  -0.03359122    2.5269623    1.7433829  -0.03359122    2.5605535   439061 
   33000    1.6829943 -0.039148105 -0.039148105    2.4853376    1.7353696 -0.039148105    2.5244857   439061 
   34000    1.6571338  -0.04112161  -0.04112161    2.4445734    1.7371021  -0.04112161     2.485695   439061 
   35000    1.6395983 -0.043518426 -0.043518426    2.4158735    1.7318807 -0.043518426    2.4593919   439061 
   36000    1.6274489 -0.043947437 -0.043947437    2.3972203    1.7290093 -0.043947437    2.4411677   439061 
   37000    1.6215895 -0.047529863 -0.047529863    2.3848489     1.719261 -0.047529863    2.4323788   439061 
   38000    1.6186659 -0.049248088 -0.049248088    2.3787452    1.7121655 -0.049248088    2.4279933   439061 
   39000    1.6184847 -0.051696011 -0.051696011    2.3760255    1.6997409 -0.051696011    2.4277215   439061 
   40000    1.6210341 -0.053516477 -0.053516477    2.3780292    1.6850026 -0.053516477    2.4315457   439061 
   41000    1.6235975 -0.054640424 -0.054640424    2.3807503    1.6692237 -0.054640424    2.4353907   439061 
   42000    1.6261684 -0.054776004 -0.054776004     2.384471    1.6568231 -0.054776004     2.439247   439061 
   43000    1.6277312 -0.052530392 -0.052530392    2.3890609    1.6565738 -0.052530392    2.4415912   439061 
   44000    1.6309161 -0.051370574 -0.051370574    2.3949981    1.6550453 -0.051370574    2.4463686   439061 
   45000    1.6326114 -0.048639166 -0.048639166    2.4002723    1.6591983 -0.048639166    2.4489115   439061 
   46000    1.6376843 -0.047563211 -0.047563211    2.4089577    1.6628146 -0.047563211    2.4565209   439061 
   47000      1.64027 -0.044380653 -0.044380653    2.4160187     1.673406 -0.044380653    2.4603994   439061 
   48000    1.6450417 -0.044177726 -0.044177726    2.4233792    1.6772192 -0.044177726    2.4675569   439061 
   49000    1.6482193 -0.043419827 -0.043419827    2.4289035    1.6877192 -0.043419827    2.4723233   439061 
   50000    1.6451411 -0.045542458 -0.045542458    2.4221635     1.685632 -0.045542458     2.467706   439061 
   51000    1.6341644 -0.048508418 -0.048508418    2.4027326    1.6821015 -0.048508418     2.451241   439061 
   52000    1.6209455 -0.048350452 -0.048350452    2.3830622    1.6865672 -0.048350452    2.4314127   439061 
   53000    1.6130644 -0.051902388 -0.051902388    2.3676888     1.678628 -0.051902388    2.4195911   439061 
   54000    1.6065268 -0.052537563 -0.052537563    2.3572471    1.6785192 -0.052537563    2.4097847   439061 
   55000    1.6015574 -0.053689955 -0.053689955    2.3486407    1.6753352 -0.053689955    2.4023306   439061 
   56000    1.5994851 -0.055029352 -0.055029352    2.3441928    1.6684143 -0.055029352    2.3992221   439061 
   57000    1.5984821 -0.056197484 -0.056197484    2.3415202    1.6620476 -0.056197484    2.3977177   439061 
   58000    1.5980933 -0.056626113 -0.056626113    2.3405083    1.6554925 -0.056626113    2.3971345   439061 
   59000    1.5991714   -0.0574241   -0.0574241    2.3413276    1.6465864   -0.0574241    2.3987517   439061 
   60000    1.5992347 -0.056087427 -0.056087427    2.3427591    1.6437622 -0.056087427    2.3988466   439061 
   61000    1.6021495 -0.057824263 -0.057824263    2.3453945    1.6358453 -0.057824263    2.4032187   439061 
   62000    1.6031005 -0.054928765 -0.054928765    2.3497165    1.6394141 -0.054928765    2.4046453   439061 
   63000    1.6063606 -0.054892795 -0.054892795    2.3546427    1.6368039 -0.054892795    2.4095355   439061 
   64000    1.6068936 -0.053958123 -0.053958123    2.3563768    1.6366943 -0.053958123    2.4103349   439061 
   65000    1.6103023 -0.053840639 -0.053840639    2.3616074    1.6391634 -0.053840639     2.415448   439061 
   66000    1.6119348 -0.051334407 -0.051334407    2.3665623    1.6468904 -0.051334407    2.4178967   439061 
   67000    1.6119345 -0.050106615 -0.050106615    2.3677896     1.654877 -0.050106615    2.4178962   439061 
   68000    1.6104686 -0.052256487 -0.052256487     2.363441    1.6517013 -0.052256487    2.4156975   439061 
   69000    1.6053125 -0.052553794 -0.052553794    2.3554094    1.6552347 -0.052553794    2.4079632   439061 
   70000    1.5985899 -0.053921908 -0.053921908    2.3439575    1.6541378 -0.053921908    2.3978794   439061 
   71000     1.593627 -0.055226867 -0.055226867    2.3352082    1.6545834 -0.055226867    2.3904351   439061 
   72000    1.5886729 -0.055698081 -0.055698081    2.3273058    1.6515723 -0.055698081    2.3830039   439061 
   73000    1.5856533 -0.056745147 -0.056745147    2.3217294    1.6503208 -0.056745147    2.3784745   439061 
   74000    1.5837581 -0.057668467 -0.057668467    2.3179633    1.6443412 -0.057668467    2.3756317   439061 
   75000    1.5822872 -0.057527039 -0.057527039    2.3158984    1.6421033 -0.057527039    2.3734254   439061 
   76000    1.5828155 -0.060356525 -0.060356525    2.3138613    1.6328519 -0.060356525    2.3742178   439061 
   77000    1.5812642 -0.058659517 -0.058659517    2.3132313    1.6343904 -0.058659517    2.3718908   439061 
   78000    1.5813614 -0.059505093 -0.059505093    2.3125316    1.6277434 -0.059505093    2.3720367   439061 
   79000    1.5803824  -0.05677825  -0.05677825      2.31379    1.6322569  -0.05677825    2.3705682   439061 
   80000    1.5826766 -0.058497548 -0.058497548    2.3155119    1.6234289 -0.058497548    2.3740095   439061 
   81000    1.5839725 -0.057491588 -0.057491588    2.3184617      1.62665 -0.057491588    2.3759533   439061 
   82000    1.5861744  -0.05819989  -0.05819989    2.3210563    1.6219065  -0.05819989    2.3792562   439061 
   83000    1.5881205 -0.057690591 -0.057690591    2.3244847    1.6243694 -0.057690591    2.3821753   439061 
   84000    1.5879013 -0.056353738 -0.056353738    2.3254928    1.6276214 -0.056353738    2.3818465   439061 
   85000     1.587046 -0.054982553 -0.054982553    2.3255811    1.6332663 -0.054982553    2.3805636   439061 
   86000    1.5868986 -0.056989452 -0.056989452    2.3233531    1.6321208 -0.056989452    2.3803425   439061 
   87000    1.5844219 -0.057517195 -0.057517195    2.3191102    1.6339518 -0.057517195    2.3766274   439061 
   88000    1.5804439 -0.056593871 -0.056593871    2.3140666    1.6370503 -0.056593871    2.3706604   439061 
   89000    1.5772859 -0.058993331 -0.058993331    2.3069301    1.6314395 -0.058993331    2.3659235   439061 
   90000    1.5732367 -0.057746731 -0.057746731    2.3021029    1.6335829 -0.057746731    2.3598497   439061 
   91000    1.5714375 -0.059423679 -0.059423679    2.2977272    1.6297543 -0.059423679    2.3571509   439061 
   92000    1.5705482 -0.059529885 -0.059529885    2.2962871    1.6296108 -0.059529885     2.355817   439061 
   93000    1.5706172 -0.062165921 -0.062165921    2.2937544    1.6208825 -0.062165921    2.3559204   439061 
   94000    1.5691042 -0.060517964 -0.060517964     2.293133     1.623671 -0.060517964     2.353651   439061 
   95000    1.5688335 -0.061199959 -0.061199959     2.292045    1.6175776 -0.061199959    2.3532449   439061 
   96000    1.5686356 -0.061162511 -0.061162511    2.2917855    1.6154288 -0.061162511     2.352948   439061 
   97000    1.5672595 -0.060026342 -0.060026342    2.2908576    1.6171354 -0.060026342    2.3508839   439061 
   98000    1.5679019 -0.059891439 -0.059891439     2.291956    1.6138618 -0.059891439    2.3518475   439061 
   99000    1.5694779 -0.060830986 -0.060830986    2.2933805    1.6110274 -0.060830986    2.3542114   439061 
  100000    1.5703221 -0.061632147 -0.061632147    2.2938457    1.6067271 -0.061632147    2.3554778   439061 
  101000     1.569478 -0.059139554 -0.059139554    2.2950721    1.6145347 -0.059139554    2.3542116   439061 
  102000    1.5703131  -0.05916258  -0.05916258    2.2963016    1.6148342  -0.05916258    2.3554642   439061 
  103000    1.5705225 -0.059801726 -0.059801726    2.2959767    1.6132457 -0.059801726    2.3557784   439061 
  104000    1.5685829 -0.059232856 -0.059232856    2.2936361    1.6184926 -0.059232856     2.352869   439061 
  105000    1.5686593 -0.061109477 -0.061109477    2.2918741    1.6161711 -0.061109477    2.3529835   439061 
  106000    1.5649504  -0.05959808  -0.05959808    2.2878221    1.6188382  -0.05959808    2.3474202   439061 
  107000    1.5627952 -0.061733835 -0.061733835    2.2824536    1.6149436 -0.061733835    2.3441875   439061 
  108000    1.5598497 -0.061428719 -0.061428719    2.2783405    1.6152895 -0.061428719    2.3397693   439061 
  109000    1.5574249 -0.060317943 -0.060317943    2.2758141     1.617315 -0.060317943    2.3361321   439061 
  110000    1.5570038 -0.061560814 -0.061560814    2.2739396    1.6138145 -0.061560814    2.3355004   439061 
  111000    1.5557697 -0.062451999 -0.062451999    2.2711972    1.6101255 -0.062451999    2.3336492   439061 
  112000    1.5553949  -0.06252132  -0.06252132    2.2705657    1.6083046  -0.06252132     2.333087   439061 
  113000     1.553393 -0.060442097 -0.060442097    2.2696421    1.6114509 -0.060442097    2.3300842   439061 
  114000    1.5551952 -0.063088869 -0.063088869    2.2696986     1.603596 -0.063088869    2.3327875   439061 
  115000     1.555561 -0.063709976 -0.063709976    2.2696262    1.6009384 -0.063709976    2.3333362   439061 
  116000     1.554627 -0.062020688 -0.062020688    2.2699146    1.6038721 -0.062020688    2.3319352   439061 
  117000    1.5556102 -0.063711142 -0.063711142    2.2696989    1.5983724 -0.063711142      2.33341   439061 
  118000    1.5547367 -0.062078097 -0.062078097    2.2700216    1.6019122 -0.062078097    2.3320997   439061 
  119000     1.555662 -0.062388675 -0.062388675     2.271099    1.6001164 -0.062388675    2.3334877   439061 
  120000     1.557221 -0.065198329 -0.065198329    2.2706279    1.5932754 -0.065198329    2.3358262   439061 
  121000    1.5555621 -0.063575205 -0.063575205    2.2697626    1.5973068 -0.063575205    2.3333378   439061 
  122000    1.5529293 -0.061534667 -0.061534667    2.2678539    1.6017406 -0.061534667    2.3293886   439061 
  123000    1.5510153 -0.060617418 -0.060617418    2.2659003     1.606122 -0.060617418    2.3265177   439061 
  124000    1.5514497 -0.064660717 -0.064660717    2.2625086    1.5992737 -0.064660717    2.3271693   439061 
  125000    1.5499084 -0.065103891 -0.065103891    2.2597534    1.5964137 -0.065103891    2.3248572   439061 
  126000    1.5486302 -0.065135713 -0.065135713    2.2578043    1.5958493 -0.065135713      2.32294   439061 
  127000    1.5463572 -0.064639289 -0.064639289    2.2548912    1.5988391 -0.064639289    2.3195305   439061 
  128000    1.5443223 -0.064453062 -0.064453062    2.2520252    1.5983281 -0.064453062    2.3164782   439061 
  129000     1.543696 -0.064657413 -0.064657413    2.2508813    1.5959993 -0.064657413    2.3155387   439061 
  130000    1.5426719 -0.064355294 -0.064355294    2.2496472    1.5937142 -0.064355294    2.3140025   439061 
  131000    1.5421305  -0.06513027  -0.06513027    2.2480602    1.5915443  -0.06513027    2.3131905   439061 
  132000    1.5421877 -0.066425191 -0.066425191    2.2468511    1.5897546 -0.066425191    2.3132763   439061 
  133000    1.5422599  -0.06785511  -0.06785511    2.2455294    1.5849101  -0.06785511    2.3133845   439061 
  134000    1.5409322 -0.064722166 -0.064722166    2.2466709    1.5898985 -0.064722166    2.3113931   439061 
  135000    1.5408694 -0.064086572 -0.064086572    2.2472123    1.5933411 -0.064086572    2.3112988   439061 
  136000    1.5402334 -0.064321125 -0.064321125    2.2460237    1.5901663 -0.064321125    2.3103448   439061 
  137000    1.5399692  -0.06496606  -0.06496606    2.2449824    1.5888993  -0.06496606    2.3099485   439061 
  138000     1.540355 -0.063974277 -0.063974277     2.246553    1.5919882 -0.063974277    2.3105273   439061 
  139000    1.5401809 -0.064899641 -0.064899641    2.2453665    1.5868763 -0.064899641    2.3102661   439061 
  140000    1.5407165 -0.065677732 -0.065677732    2.2453918    1.5861487 -0.065677732    2.3110695   439061 
  141000    1.5391999 -0.065749346 -0.065749346    2.2430453    1.5868788 -0.065749346    2.3087946   439061 
  142000    1.5380321  -0.06549221  -0.06549221    2.2415507    1.5873484  -0.06549221    2.3070429   439061 
  143000    1.5365381 -0.065242515 -0.065242515    2.2395594     1.587338 -0.065242515    2.3048019   439061 
  144000     1.535605 -0.065139168 -0.065139168     2.238263    1.5892541 -0.065139168    2.3034022   439061 
  145000    1.5341456 -0.065779142 -0.065779142    2.2354341    1.5882144 -0.065779142    2.3012132   439061 
  146000     1.533126 -0.066323672 -0.066323672    2.2333601    1.5860337 -0.066323672    2.2996838   439061 
  147000    1.5328398  -0.06683955  -0.06683955    2.2324149     1.584074  -0.06683955    2.2992545   439061 
  148000    1.5317914 -0.067098607 -0.067098607    2.2305833    1.5826605 -0.067098607    2.2976819   439061 
  149000    1.5298645 -0.065646409 -0.065646409    2.2291452    1.5844812 -0.065646409    2.2947916   439061 
  150000    1.5294363 -0.067287128 -0.067287128     2.226862    1.5802199 -0.067287128    2.2941492   439061 
  151000    1.5293656 -0.068230246 -0.068230246    2.2258129    1.5755211 -0.068230246    2.2940432   439061 
  152000    1.5283852 -0.066672023 -0.066672023    2.2259005    1.5786327 -0.066672023    2.2925726   439061 
  153000    1.5274546 -0.067699012 -0.067699012    2.2234776    1.5771783 -0.067699012    2.2911767   439061 
  154000    1.5284733 -0.067704494 -0.067704494    2.2250002    1.5760239 -0.067704494    2.2927047   439061 
  155000    1.5277978 -0.067822065 -0.067822065    2.2238695    1.5748233 -0.067822065    2.2916915   439061 
  156000     1.527856 -0.067015662 -0.067015662    2.2247632    1.5777327 -0.067015662    2.2917789   439061 
  157000    1.5279442 -0.066624912 -0.066624912    2.2252862    1.5767275 -0.066624912    2.2919111   439061 
  158000    1.5278867 -0.069322524 -0.069322524    2.2225023    1.5698431 -0.069322524    2.2918248   439061 
  159000    1.5255314 -0.066582633 -0.066582633    2.2217092     1.576553 -0.066582633    2.2882918   439061 
  160000     1.525578 -0.068370137 -0.068370137    2.2199917    1.5740282 -0.068370137    2.2883619   439061 
  161000     1.523167 -0.068393531 -0.068393531    2.2163518    1.5725918 -0.068393531    2.2847453   439061 
  162000    1.5223537 -0.068180745 -0.068180745    2.2153447    1.5735743 -0.068180745    2.2835254   439061 
  163000    1.5212307 -0.067799202 -0.067799202    2.2140416    1.5738607 -0.067799202    2.2818408   439061 
  164000    1.5207619 -0.068579733 -0.068579733    2.2125579     1.571023 -0.068579733    2.2811376   439061 
  165000      1.51997 -0.067810813 -0.067810813    2.2121389    1.5728379 -0.067810813    2.2799497   439061 
  166000    1.5206483 -0.070103403 -0.070103403    2.2108639    1.5677499 -0.070103403    2.2809673   439061 
  167000    1.5189015 -0.069434575 -0.069434575    2.2089124    1.5683417 -0.069434575     2.278347   439061 
  168000    1.5192646 -0.070941678 -0.070941678      2.20795    1.5647665 -0.070941678    2.2788917   439061 
  169000    1.5156248 -0.066823747 -0.066823747    2.2066083     1.573196 -0.066823747    2.2734321   439061 
  170000    1.5174437  -0.07003048  -0.07003048    2.2061298     1.565665  -0.07003048    2.2761603   439061 
  171000    1.5158612  -0.06813742  -0.06813742    2.2056491    1.5696606  -0.06813742    2.2737866   439061 
  172000    1.5172307 -0.071382573 -0.071382573    2.2044584    1.5601231 -0.071382573    2.2758409   439061 
  173000    1.5159321 -0.068877482 -0.068877482    2.2050154    1.5666775 -0.068877482    2.2738929   439061 
  174000    1.5166548 -0.069934354 -0.069934354    2.2050426    1.5645702 -0.069934354     2.274977   439061 
  175000    1.5156709 -0.069042046 -0.069042046    2.2044591    1.5646353 -0.069042046    2.2735011   439061 
  176000    1.5151432  -0.06963817  -0.06963817    2.2030714    1.5623282  -0.06963817    2.2727096   439061 
  177000    1.5139953 -0.070671791 -0.070671791    2.2003159     1.558973 -0.070671791    2.2709877   439061 
  178000    1.5142319 -0.071566271 -0.071566271    2.1997764     1.558748 -0.071566271    2.2713427   439061 
  179000    1.5128916 -0.071149262 -0.071149262     2.198183    1.5580281 -0.071149262    2.2693323   439061 
  180000    1.5119608 -0.069844887 -0.069844887    2.1980912    1.5627384 -0.069844887    2.2679361   439061 
  181000    1.5099068   -0.0683758   -0.0683758    2.1964793    1.5649688   -0.0683758    2.2648551   439061 
  182000    1.5092059 -0.068755403 -0.068755403    2.1950483     1.564795 -0.068755403    2.2638037   439061 
  183000    1.5092438 -0.071655441 -0.071655441     2.192205     1.556653 -0.071655441    2.2638605   439061 
  184000    1.5082859 -0.071507618 -0.071507618    2.1909161    1.5572902 -0.071507618    2.2624237   439061 
  185000    1.5078979  -0.07192241  -0.07192241    2.1899193    1.5549256  -0.07192241    2.2618417   439061 
  186000    1.5079659 -0.073277016 -0.073277016    2.1886667    1.5520605 -0.073277016    2.2619437   439061 
  187000    1.5065119  -0.07193924  -0.07193924    2.1878235    1.5537826  -0.07193924    2.2597627   439061 
  188000    1.5057089 -0.071718022 -0.071718022    2.1868402    1.5553791 -0.071718022    2.2585583   439061 
  189000    1.5042307  -0.07001003  -0.07001003    2.1863308    1.5577821  -0.07001003    2.2563409   439061 
  190000     1.504459 -0.070883651 -0.070883651    2.1857997    1.5561716 -0.070883651    2.2566833   439061 
  191000     1.504463 -0.072876441 -0.072876441    2.1838129    1.5510733 -0.072876441    2.2566893   439061 
  192000    1.5035182 -0.072392064 -0.072392064    2.1828801    1.5514147 -0.072392064    2.2552721   439061 
  193000    1.5015957 -0.070299365 -0.070299365     2.182089    1.5547407 -0.070299365    2.2523884   439061 
  194000    1.5028644 -0.071989904 -0.071989904    2.1823016    1.5508761 -0.071989904    2.2542915   439061 
  195000    1.5008157 -0.070316422 -0.070316422     2.180902    1.5545484 -0.070316422    2.2512184   439061 
  196000    1.5034327 -0.073752466 -0.073752466    2.1813914    1.5475728 -0.073752466    2.2551439   439061 
  197000    1.5014826 -0.071405888 -0.071405888    2.1808129    1.5531684 -0.071405888    2.2522188   439061 
  198000    1.5020392 -0.072476783 -0.072476783     2.180577    1.5504392 -0.072476783    2.2530537   439061 
  199000    1.5010651 -0.071493617 -0.071493617    2.1800989    1.5530942 -0.071493617    2.2515925   439061 
  200000    1.5000389 -0.072111371 -0.072111371    2.1779419     1.550366 -0.072111371    2.2500533   439061 
  201000    1.5005415 -0.074253082 -0.074253082    2.1765541    1.5447247 -0.074253082    2.2508072   439061 
  202000    1.4975411  -0.07214978  -0.07214978    2.1741567    1.5485315  -0.07214978    2.2463065   439061 
  203000    1.4962861 -0.071486077 -0.071486077     2.172938    1.5518627 -0.071486077    2.2444241   439061 
  204000    1.4982766 -0.074487336 -0.074487336    2.1729224    1.5436698 -0.074487336    2.2474097   439061 
  205000     1.497714 -0.073454958 -0.073454958     2.173111    1.5459333 -0.073454958    2.2465659   439061 
  206000     1.496944 -0.073364491 -0.073364491    2.1720465    1.5454394 -0.073364491     2.245411   439061 
  207000    1.4966955 -0.074316772 -0.074316772    2.1707213    1.5435726 -0.074316772    2.2450381   439061 
  208000    1.4952811 -0.074413664 -0.074413664    2.1685029    1.5424629 -0.074413664    2.2429166   439061 
  209000    1.4947353 -0.074929371 -0.074929371    2.1671685    1.5387032 -0.074929371    2.2420979   439061 
  210000    1.4926622 -0.073706526 -0.073706526    2.1652817    1.5424456 -0.073706526    2.2389882   439061 
  211000    1.4926017 -0.073390782 -0.073390782    2.1655067    1.5431597 -0.073390782    2.2388975   439061 
  212000    1.4926589 -0.074524095 -0.074524095    2.1644592      1.53922 -0.074524095    2.2389833   439061 
  213000    1.4919365  -0.07458388  -0.07458388    2.1633157    1.5410004  -0.07458388    2.2378996   439061 
  214000    1.4905999 -0.074484625 -0.074484625    2.1614102    1.5385478 -0.074484625    2.2358948   439061 
  215000    1.4910717 -0.076020835 -0.076020835    2.1605816    1.5352814 -0.076020835    2.2366024   439061 
  216000    1.4902958 -0.075680745 -0.075680745    2.1597579     1.537381 -0.075680745    2.2354387   439061 
  217000    1.4890075 -0.075279735 -0.075279735    2.1582264    1.5364272 -0.075279735    2.2335061   439061 
  218000    1.4873091 -0.074056995 -0.074056995    2.1569015    1.5395239 -0.074056995    2.2309585   439061 
  219000    1.4864353 -0.074037103 -0.074037103    2.1556108    1.5389086 -0.074037103    2.2296479   439061 
  220000    1.4873635 -0.074764239 -0.074764239     2.156276    1.5369902 -0.074764239    2.2310402   439061 
  221000    1.4867586  -0.07506472  -0.07506472     2.155068    1.5348399  -0.07506472    2.2301328   439061 
  222000     1.485469 -0.074426633 -0.074426633    2.1537717    1.5385248 -0.074426633    2.2281984   439061 
  223000    1.4847775 -0.074069732 -0.074069732    2.1530914    1.5383957 -0.074069732    2.2271611   439061 
  224000    1.4846661  -0.07513626  -0.07513626    2.1518578    1.5341644  -0.07513626     2.226994   439061 
  225000    1.4846424  -0.07632567  -0.07632567    2.1506328    1.5311497  -0.07632567    2.2269585   439061 
  226000     1.483008 -0.075710998 -0.075710998    2.1487959    1.5323903 -0.075710998    2.2245069   439061 
  227000    1.4826227 -0.075950323 -0.075950323    2.1479787    1.5318763 -0.075950323     2.223929   439061 
  228000      1.48159 -0.075724394 -0.075724394    2.1466555    1.5322981 -0.075724394    2.2223799   439061 
  229000    1.4812569 -0.075976905 -0.075976905    2.1459035    1.5314149 -0.075976905    2.2218804   439061 
  230000    1.4798489 -0.074777963 -0.074777963    2.1449903    1.5328472 -0.074777963    2.2197682   439061 
  231000    1.4809787 -0.076932819 -0.076932819    2.1445302    1.5273253 -0.076932819     2.221463   439061 
  232000    1.4800044 -0.074870397 -0.074870397    2.1451311    1.5315974 -0.074870397    2.2200015   439061 
  233000    1.4784822 -0.074323995 -0.074323995    2.1433942    1.5349258 -0.074323995    2.2177182   439061 
  234000    1.4773698 -0.075078937 -0.075078937    2.1409708    1.5324347 -0.075078937    2.2160497   439061 
  235000    1.4786587 -0.076777258 -0.076777258    2.1412057    1.5262962 -0.076777258     2.217983   439061 
  236000    1.4779244 -0.077197669 -0.077197669    2.1396839    1.5269074 -0.077197669    2.2168816   439061 
  237000    1.4786656 -0.078213543 -0.078213543    2.1397798    1.5233957 -0.078213543    2.2179934   439061 
  238000    1.4767112 -0.076621487 -0.076621487    2.1384402    1.5283396 -0.076621487    2.2150617   439061 
  239000     1.475253 -0.075967105 -0.075967105    2.1369074     1.527555 -0.075967105    2.2128745   439061 
  240000    1.4758266  -0.07771545  -0.07771545    2.1360194    1.5228827  -0.07771545    2.2137349   439061 
  241000     1.474715  -0.07624138  -0.07624138    2.1358261    1.5269313  -0.07624138    2.2120674   439061 
  242000    1.4743615 -0.077108397 -0.077108397    2.1344289    1.5227414 -0.077108397    2.2115373   439061 
  243000    1.4729629 -0.076439477 -0.076439477    2.1329999    1.5248933 -0.076439477    2.2094394   439061 
  244000      1.47194 -0.075358458 -0.075358458    2.1325465    1.5262037 -0.075358458     2.207905   439061 
  245000    1.4726473 -0.077170073 -0.077170073    2.1317959    1.5236267 -0.077170073    2.2089659   439061 
  246000    1.4725993 -0.077878431 -0.077878431    2.1310154     1.519109 -0.077878431    2.2088938   439061 
  247000    1.4713247  -0.07777999  -0.07777999     2.129202    1.5209912  -0.07777999     2.206982   439061 
  248000    1.4718424 -0.078127735 -0.078127735    2.1296309    1.5215418 -0.078127735    2.2077586   439061 
  249000    1.4719573  -0.07993228  -0.07993228    2.1279987    1.5149539  -0.07993228     2.207931   439061 
  250000    1.4707143 -0.077494036 -0.077494036    2.1285725    1.5210244 -0.077494036    2.2060665   439061 
  251000      1.47053 -0.078143506 -0.078143506    2.1276464    1.5192828 -0.078143506    2.2057899   439061 
  252000      1.47071 -0.078747887 -0.078747887    2.1273121     1.517691 -0.078747887      2.20606   439061 
  253000    1.4689998 -0.077422988 -0.077422988    2.1260717    1.5188553 -0.077422988    2.2034947   439061 
  254000    1.4687341 -0.077940605 -0.077940605    2.1251556     1.518448 -0.077940605    2.2030962   439061 
  255000       1.4678 -0.077693292 -0.077693292    2.1240017    1.5183244 -0.077693292     2.201695   439061 
  256000    1.4687178 -0.080622879 -0.080622879    2.1224488    1.5114888 -0.080622879    2.2030717   439061 
  257000    1.4673646 -0.080198003 -0.080198003    2.1208438    1.5128059 -0.080198003    2.2010418   439061 
  258000    1.4654466 -0.078034445 -0.078034445    2.1201305    1.5164994 -0.078034445    2.1981649   439061 
  259000    1.4669259 -0.079318646 -0.079318646    2.1210652    1.5135285 -0.079318646    2.2003839   439061 
  260000    1.4657865 -0.079256834 -0.079256834    2.1194178    1.5134839 -0.079256834    2.1986747   439061 
  261000     1.465164 -0.078640225 -0.078640225    2.1191008     1.514864 -0.078640225    2.1977411   439061 
  262000    1.4633621 -0.077378567 -0.077378567    2.1176595    1.5169379 -0.077378567    2.1950381   439061 
  263000    1.4633284 -0.077934779 -0.077934779    2.1170529    1.5159451 -0.077934779    2.1949877   439061 
  264000    1.4632873 -0.080272757 -0.080272757    2.1146533    1.5075195 -0.080272757     2.194926   439061 
  265000    1.4609124 -0.077058805 -0.077058805    2.1143047    1.5159488 -0.077058805    2.1913635   439061 
  266000    1.4621068 -0.079480731 -0.079480731    2.1136745    1.5120952 -0.079480731    2.1931553   439061 
  267000    1.4587999 -0.077817714 -0.077817714    2.1103771    1.5133803 -0.077817714    2.1881948   439061 
  268000    1.4604426 -0.080966309 -0.080966309    2.1096927    1.5082779 -0.080966309     2.190659   439061 
  269000     1.459816 -0.080455918 -0.080455918    2.1092631    1.5085207 -0.080455918     2.189719   439061 
  270000    1.4589268 -0.079369512 -0.079369512    2.1090157    1.5097039 -0.079369512    2.1883852   439061 
  271000    1.4591061  -0.08055044  -0.08055044    2.1081038    1.5073703  -0.08055044    2.1886542   439061 
  272000    1.4588352 -0.081064355 -0.081064355    2.1071834    1.5067061 -0.081064355    2.1882478   439061 
  273000    1.4572694 -0.079259765 -0.079259765    2.1066394    1.5090969 -0.079259765    2.1858992   439061 
  274000    1.4571443 -0.080604891 -0.080604891    2.1051065    1.5059263 -0.080604891    2.1857114   439061 
  275000    1.4570808 -0.080539655 -0.080539655    2.1050765     1.506809 -0.080539655    2.1856162   439061 
  276000    1.4559832 -0.078875163 -0.078875163    2.1050946    1.5100276 -0.078875163    2.1839698   439061 
  277000    1.4560925 -0.079288382 -0.079288382    2.1048453    1.5102959 -0.079288382    2.1841337   439061 
  278000    1.4562877    -0.080492    -0.080492    2.1039345    1.5059157    -0.080492    2.1844265   439061 
  279000    1.4567578 -0.082251534 -0.082251534    2.1028803    1.5018966 -0.082251534    2.1851318   439061 
  280000     1.455833 -0.082722194 -0.082722194    2.1010223    1.4990942 -0.082722194    2.1837445   439061 
  281000    1.4541867  -0.08026778  -0.08026778    2.1010073    1.5045866  -0.08026778    2.1812751   439061 
  282000    1.4526877 -0.078889118 -0.078889118    2.1001374    1.5077612 -0.078889118    2.1790265   439061 
  283000    1.4522154 -0.081339875 -0.081339875    2.0969782    1.5032022 -0.081339875    2.1783181   439061 
  284000    1.4517371 -0.080673286 -0.080673286    2.0969274    1.5036078 -0.080673286    2.1776007   439061 
  285000    1.4508858 -0.080754537 -0.080754537    2.0955692    1.5033237 -0.080754537    2.1763238   439061 
  286000      1.45147 -0.081356355 -0.081356355    2.0958437    1.5008855 -0.081356355    2.1772001   439061 
  287000    1.4509946 -0.081307113 -0.081307113    2.0951799    1.5010338 -0.081307113     2.176487   439061 
  288000    1.4501607 -0.080916397 -0.080916397    2.0943197    1.5006369 -0.080916397    2.1752361   439061 
  289000    1.4495873 -0.081520335 -0.081520335    2.0928557    1.4994404 -0.081520335     2.174376   439061 
  290000    1.4473083 -0.079413015 -0.079413015    2.0915446    1.5040909 -0.079413015    2.1709576   439061 
  291000    1.4476109 -0.080805775 -0.080805775    2.0906056    1.5014522 -0.080805775    2.1714114   439061 
  292000    1.4464322 -0.081712093 -0.081712093    2.0879312    1.4976779 -0.081712093    2.1696433   439061 
  293000    1.4456877 -0.081373439 -0.081373439    2.0871532    1.4982685 -0.081373439    2.1685266   439061 
  294000    1.4464204 -0.083553204 -0.083553204    2.0860724    1.4907771 -0.083553204    2.1696256   439061 
  295000    1.4455419 -0.083146564 -0.083146564    2.0851614    1.4927182 -0.083146564    2.1683079   439061 
  296000    1.4434614 -0.081796843 -0.081796843    2.0833904     1.496409 -0.081796843    2.1651872   439061 
  297000    1.4432818 -0.081779365 -0.081779365    2.0831385     1.496339 -0.081779365    2.1649178   439061 
  298000    1.4436841 -0.082596017 -0.082596017    2.0829252    1.4952483 -0.082596017    2.1655212   439061 
  299000    1.4438891  -0.08134825  -0.08134825    2.0844804    1.4964105  -0.08134825    2.1658287   439061 
  300000    1.4437602 -0.083053007 -0.083053007    2.0825824    1.4907838 -0.083053007    2.1656354   439061 
  301000    1.4431005  -0.08361805  -0.08361805    2.0810278    1.4905402  -0.08361805    2.1646459   439061 
  302000    1.4418932 -0.082270427 -0.082270427    2.0805644    1.4945433 -0.082270427    2.1628348   439061 
  303000    1.4417522 -0.083882036 -0.083882036    2.0787414     1.489755 -0.083882036    2.1626234   439061 
  304000    1.4422008 -0.084790448 -0.084790448    2.0785058    1.4861084 -0.084790448    2.1632962   439061 
  305000    1.4409744 -0.084374692 -0.084374692    2.0770819    1.4867841 -0.084374692    2.1614566   439061 
  306000    1.4405158 -0.083232726 -0.083232726     2.077536    1.4907857 -0.083232726    2.1607687   439061 
  307000    1.4395755 -0.083741918 -0.083741918    2.0756164    1.4872012 -0.083741918    2.1593583   439061 
  308000    1.4401221 -0.085394884 -0.085394884    2.0747834    1.4842827 -0.085394884    2.1601783   439061 
  309000     1.439111 -0.083389303 -0.083389303    2.0752723    1.4879525 -0.083389303    2.1586616   439061 
  310000    1.4391902 -0.083536443 -0.083536443     2.075244    1.4888175 -0.083536443    2.1587804   439061 
  311000    1.4372926 -0.083069624 -0.083069624    2.0728644    1.4898275 -0.083069624     2.155934   439061 
  312000    1.4371932 -0.084122002 -0.084122002    2.0716629     1.487848 -0.084122002    2.1557849   439061 
  313000    1.4365872 -0.084076781 -0.084076781    2.0707991    1.4869142 -0.084076781    2.1548759   439061 
  314000    1.4354043 -0.084740267 -0.084740267    2.0683612    1.4840384 -0.084740267    2.1531015   439061 
  315000    1.4339441 -0.083474185 -0.083474185     2.067437      1.48635 -0.083474185    2.1509112   439061 
  316000    1.4356132 -0.085434576 -0.085434576    2.0679803    1.4823928 -0.085434576    2.1534149   439061 
  317000    1.4346365 -0.084610458 -0.084610458    2.0673394     1.484377 -0.084610458    2.1519498   439061 
  318000    1.4335803 -0.084599007 -0.084599007    2.0657666    1.4828742 -0.084599007    2.1503656   439061 
  319000    1.4330159 -0.084780653 -0.084780653    2.0647383    1.4817391 -0.084780653     2.149519   439061 
  320000    1.4314792  -0.08378933  -0.08378933    2.0634245    1.4846431  -0.08378933    2.1472139   439061 
  321000    1.4332357 -0.085962958 -0.085962958    2.0638857    1.4791832 -0.085962958    2.1498487   439061 
  322000    1.4305159  -0.08418959  -0.08418959    2.0615793    1.4824142  -0.08418959    2.1457689   439061 
  323000    1.4299609  -0.08336787  -0.08336787    2.0615685    1.4856488  -0.08336787    2.1449364   439061 
  324000    1.4300171 -0.084612966 -0.084612966    2.0604078      1.48117 -0.084612966    2.1450207   439061 
  325000    1.4300747 -0.085243693 -0.085243693    2.0598634     1.480177 -0.085243693    2.1451071   439061 
  326000    1.4291976 -0.085201007 -0.085201007    2.0585906    1.4790132 -0.085201007    2.1437916   439061 
  327000    1.4297727 -0.086133746 -0.086133746    2.0585204    1.4758776 -0.086133746    2.1446541   439061 
  328000    1.4294951 -0.086787069 -0.086787069    2.0574507    1.4765003 -0.086787069    2.1442378   439061 
  329000    1.4280328 -0.084811093 -0.084811093    2.0572332    1.4797222 -0.084811093    2.1420442   439061 
  330000    1.4267793 -0.083550056 -0.083550056     2.056614     1.482372 -0.083550056    2.1401641   439061 
  331000    1.4278509 -0.085743692 -0.085743692    2.0560278    1.4768492 -0.085743692    2.1417715   439061 
  332000    1.4260266 -0.084732509 -0.084732509    2.0543025    1.4799071 -0.084732509     2.139035   439061 
  333000    1.4263756  -0.08554801  -0.08554801    2.0540105    1.4773648  -0.08554801    2.1395585   439061 
  334000    1.4259024 -0.085815015 -0.085815015    2.0530337     1.476295 -0.085815015    2.1388487   439061 
  335000     1.424551 -0.084518147 -0.084518147    2.0523035    1.4770375 -0.084518147    2.1368216   439061 
  336000    1.4267556  -0.08681977  -0.08681977    2.0533087    1.4732573  -0.08681977    2.1401285   439061 
  337000    1.4259415 -0.086896958 -0.086896958    2.0520104     1.470902 -0.086896958    2.1389074   439061 
  338000    1.4256103 -0.086348785 -0.086348785    2.0520617     1.473208 -0.086348785    2.1384105   439061 
  339000    1.4246624 -0.086657398 -0.086657398    2.0503313    1.4717714 -0.086657398    2.1369887   439061 
  340000    1.4223548 -0.085784634 -0.085784634    2.0477427    1.4749894 -0.085784634    2.1335274   439061 
  341000    1.4219733 -0.085162431 -0.085162431    2.0477926    1.4759098 -0.085162431     2.132955   439061 
  342000    1.4230665 -0.087496151 -0.087496151    2.0470987    1.4698005 -0.087496151    2.1345949   439061 
  343000    1.4211279 -0.086408857 -0.086408857    2.0452782    1.4710568 -0.086408857     2.131687   439061 
  344000    1.4231586  -0.08862807  -0.08862807     2.046105    1.4670854  -0.08862807    2.1347331   439061 
  345000    1.4208683 -0.086958466 -0.086958466    2.0443391    1.4698199 -0.086958466    2.1312975   439061 
  346000    1.4212482 -0.087728016 -0.087728016    2.0441394    1.4670667 -0.087728016    2.1318675   439061 
  347000    1.4209949  -0.08810241  -0.08810241    2.0433852    1.4668133  -0.08810241    2.1314876   439061 
  348000     1.419233 -0.087173004 -0.087173004    2.0416716    1.4679696 -0.087173004    2.1288446   439061 
  349000    1.4190845 -0.087902693 -0.087902693    2.0407193     1.467488 -0.087902693    2.1286219   439061 
  350000    1.4181657 -0.088178386 -0.088178386    2.0390653    1.4638876 -0.088178386    2.1272437   439061 
  351000    1.4173793 -0.087538805 -0.087538805    2.0385254    1.4673613 -0.087538805    2.1260642   439061 
  352000    1.4171092 -0.088215487 -0.088215487    2.0374435    1.4642985 -0.088215487    2.1256589   439061 
  353000    1.4157722 -0.087586104 -0.087586104    2.0360673    1.4649598 -0.087586104    2.1236535   439061 
  354000    1.4160928 -0.088981508 -0.088981508    2.0351528    1.4618203 -0.088981508    2.1241343   439061 
  355000        1.414  -0.08780793  -0.08780793    2.0331872    1.4646113  -0.08780793    2.1209951   439061 
  356000    1.4128593 -0.087800904 -0.087800904    2.0314832    1.4645036 -0.087800904    2.1192841   439061 
  357000    1.4148936 -0.089340588 -0.089340588     2.032995    1.4617313 -0.089340588    2.1223356   439061 
  358000    1.4135135 -0.088597618 -0.088597618    2.0316678    1.4603274 -0.088597618    2.1202655   439061 
  359000    1.4135211 -0.087594771 -0.087594771     2.032682    1.4651904 -0.087594771    2.1202768   439061 
  360000    1.4148901 -0.090707762 -0.090707762    2.0316226    1.4582463 -0.090707762    2.1223304   439061 
  361000    1.4121999 -0.088934884 -0.088934884    2.0293601    1.4598601 -0.088934884     2.118295   439061 
  362000    1.4120355 -0.089013887 -0.089013887    2.0290345    1.4597142 -0.089013887    2.1180484   439061 
  363000    1.4121343  -0.08945956  -0.08945956    2.0287371    1.4592333  -0.08945956    2.1181966   439061 
  364000    1.4119315 -0.089198656 -0.089198656    2.0286938    1.4595326 -0.089198656    2.1178925   439061 
  365000    1.4115848 -0.088255383 -0.088255383     2.029117    1.4599048 -0.088255383    2.1173724   439061 
  366000    1.4119238 -0.089667046 -0.089667046    2.0282139     1.458299 -0.089667046    2.1178809   439061 
  367000    1.4108967 -0.088900808 -0.088900808    2.0274395    1.4586849 -0.088900808    2.1163403   439061 
  368000    1.4101581 -0.088706519 -0.088706519    2.0265258    1.4602639 -0.088706519    2.1152323   439061 
  369000    1.4094824 -0.088993311 -0.088993311    2.0252254    1.4593633 -0.088993311    2.1142187   439061 
  370000     1.409655 -0.089068053 -0.089068053    2.0254097    1.4585397 -0.089068053    2.1144777   439061 
  371000    1.4100116 -0.089135345 -0.089135345    2.0258773    1.4565002 -0.089135345    2.1150126   439061 
  372000    1.4099721 -0.089319468 -0.089319468    2.0256338    1.4594129 -0.089319468    2.1149533   439061 
  373000     1.408416 -0.088544152 -0.088544152     2.024075    1.4583186 -0.088544152    2.1126191   439061 
  374000    1.4077398 -0.088522126 -0.088522126    2.0230827    1.4577656 -0.088522126    2.1116049   439061 
  375000    1.4088535   -0.0905863   -0.0905863    2.0226892    1.4539866   -0.0905863    2.1132755   439061 
  376000     1.406223 -0.086987562 -0.086987562    2.0223421    1.4636787 -0.086987562    2.1093297   439061 
  377000    1.4067636  -0.08949228  -0.08949228    2.0206483     1.454652  -0.08949228    2.1101406   439061 
  378000    1.4058885 -0.089041216 -0.089041216    2.0197868    1.4572971 -0.089041216     2.108828   439061 
  379000    1.4056083 -0.090752823 -0.090752823    2.0176548    1.4531317 -0.090752823    2.1084076   439061 
  380000    1.4047748 -0.089538458 -0.089538458    2.0176189    1.4562466 -0.089538458    2.1071574   439061 
  381000    1.4040504 -0.089520655 -0.089520655    2.0165501    1.4543574 -0.089520655    2.1060708   439061 
  382000    1.4044027 -0.089513382 -0.089513382    2.0170859    1.4539362 -0.089513382    2.1065993   439061 
  383000     1.405135 -0.091456653 -0.091456653    2.0162411    1.4506252 -0.091456653    2.1076978   439061 
  384000    1.4039536 -0.090112182 -0.090112182    2.0158133     1.454893 -0.090112182    2.1059255   439061 
  385000    1.4029268 -0.089639232 -0.089639232    2.0147462    1.4525516 -0.089639232    2.1043854   439061 
  386000    1.4033924 -0.090098714 -0.090098714     2.014985    1.4516585 -0.090098714    2.1050838   439061 
  387000    1.4034824 -0.090443953 -0.090443953    2.0147749    1.4521098 -0.090443953    2.1052189   439061 
  388000    1.4022361  -0.09044061  -0.09044061    2.0129087    1.4493542  -0.09044061    2.1033494   439061 
  389000    1.4024169 -0.090750611 -0.090750611      2.01287    1.4497428 -0.090750611    2.1036206   439061 
  390000    1.4020219  -0.09243119  -0.09243119    2.0105969    1.4451502  -0.09243119    2.1030281   439061 
  391000     1.400714 -0.092203134 -0.092203134    2.0088631     1.446582 -0.092203134    2.1010663   439061 
  392000    1.3989917 -0.090541345 -0.090541345    2.0079414    1.4487433 -0.090541345    2.0984827   439061 
  393000    1.3991461 -0.090357858 -0.090357858    2.0083566    1.4485631 -0.090357858    2.0987144   439061 
  394000    1.3973762 -0.090460262 -0.090460262    2.0055992    1.4476916 -0.090460262    2.0960595   439061 
  395000    1.3973376 -0.090789756 -0.090789756    2.0052118    1.4486865 -0.090789756    2.0960016   439061 
  396000    1.3981648  -0.09284795  -0.09284795    2.0043945    1.4427549  -0.09284795    2.0972424   439061 
  397000    1.3965181 -0.091475227 -0.091475227    2.0032971     1.447331 -0.091475227    2.0947723   439061 
  398000    1.3959391 -0.091061374 -0.091061374    2.0028426    1.4469813 -0.091061374     2.093904   439061 
  399000    1.3963365 -0.091966199 -0.091966199    2.0025338    1.4439189 -0.091966199       2.0945   439061 
  400000    1.3950335 -0.090594119 -0.090594119    2.0019514    1.4476366 -0.090594119    2.0925455   439061 
  401000    1.3954754 -0.091726383 -0.091726383    2.0014819    1.4444717 -0.091726383    2.0932083   439061 
  402000     1.394846 -0.092267162 -0.092267162     1.999997    1.4443061 -0.092267162    2.0922642   439061 
  403000     1.394683  -0.09215031  -0.09215031    1.9998694    1.4419161  -0.09215031    2.0920197   439061 
  404000    1.3931877 -0.091097643 -0.091097643    1.9986792    1.4466016 -0.091097643    2.0897769   439061 
  405000    1.3926962 -0.090692927 -0.090692927    1.9983466     1.444344 -0.090692927    2.0890395   439061 
  406000    1.3924154 -0.090735638 -0.090735638    1.9978827     1.444967 -0.090735638    2.0886183   439061 
  407000    1.3934334 -0.092895065 -0.092895065    1.9972502    1.4404671 -0.092895065    2.0901453   439061 
  408000    1.3937757 -0.092933732 -0.092933732    1.9977251    1.4396552 -0.092933732    2.0906588   439061 
  409000    1.3913226 -0.090298492 -0.090298492    1.9966807    1.4454833 -0.090298492    2.0869791   439061 
  410000    1.3914703 -0.091535344 -0.091535344    1.9956654    1.4416144 -0.091535344    2.0872007   439061 
  411000    1.3920321 -0.093462589 -0.093462589    1.9945808    1.4371469 -0.093462589    2.0880434   439061 
  412000    1.3914994 -0.092829719 -0.092829719    1.9944146    1.4412616 -0.092829719    2.0872443   439061 
  413000    1.3911876 -0.091544273 -0.091544273    1.9952324    1.4412117 -0.091544273    2.0867766   439061 
  414000    1.3903235 -0.091788168 -0.091788168    1.9936924     1.440449 -0.091788168    2.0854805   439061 
  415000    1.3909095 -0.093047435 -0.093047435    1.9933121     1.439185 -0.093047435    2.0863596   439061 
  416000    1.3903823 -0.093360644 -0.093360644    1.9922081    1.4397115 -0.093360644    2.0855687   439061 
  417000    1.3889614 -0.092227394 -0.092227394      1.99121    1.4410307 -0.092227394    2.0834374   439061 
  418000    1.3876759 -0.092743012 -0.092743012    1.9887661    1.4377792 -0.092743012    2.0815091   439061 
  419000    1.3889276 -0.094000847 -0.094000847    1.9893858    1.4348622 -0.094000847    2.0833866   439061 
  420000    1.3874152 -0.093290106 -0.093290106     1.987828    1.4372415 -0.093290106    2.0811181   439061 
  421000    1.3863332 -0.092533457 -0.092533457    1.9869616    1.4391444 -0.092533457    2.0794951   439061 
  422000    1.3856527 -0.093282677 -0.093282677    1.9851916    1.4356727 -0.093282677    2.0784743   439061 
  423000    1.3864338 -0.094544069 -0.094544069    1.9851019    1.4324161 -0.094544069     2.079646   439061 
  424000    1.3852385 -0.093882462 -0.093882462    1.9839705    1.4348591 -0.093882462    2.0778529   439061 
  425000    1.3849509 -0.093350979 -0.093350979    1.9840706    1.4341629 -0.093350979    2.0774216   439061 
  426000    1.3857454 -0.094430554 -0.094430554    1.9841829     1.431837 -0.094430554    2.0786134   439061 
  427000    1.3845159 -0.094542131 -0.094542131    1.9822269    1.4324983 -0.094542131    2.0767691   439061 
  428000    1.3826231 -0.092544068 -0.092544068    1.9813858     1.436886 -0.092544068    2.0739299   439061 
  429000    1.3843295 -0.095334375 -0.095334375    1.9811552    1.4289914 -0.095334375    2.0764896   439061 
  430000    1.3831062  -0.09400768  -0.09400768    1.9806469    1.4320073  -0.09400768    2.0746546   439061 
  431000    1.3812689 -0.092496966 -0.092496966    1.9794016    1.4336524 -0.092496966    2.0718986   439061 
  432000    1.3821255 -0.094541385 -0.094541385    1.9786422    1.4291406 -0.094541385    2.0731836   439061 
  433000    1.3817254 -0.094991743 -0.094991743    1.9775916    1.4278499 -0.094991743    2.0725834   439061 
  434000    1.3819449  -0.09611869  -0.09611869    1.9767939    1.4250373  -0.09611869    2.0729126   439061 
  435000    1.3810575 -0.094534956 -0.094534956    1.9770466    1.4292574 -0.094534956    2.0715815   439061 
  436000    1.3810667 -0.094850562 -0.094850562    1.9767448     1.429212 -0.094850562    2.0715953   439061 
  437000    1.3823076 -0.096469429 -0.096469429    1.9769872    1.4231367 -0.096469429    2.0734567   439061 
  438000    1.3807892 -0.095380955 -0.095380955    1.9757981    1.4283638 -0.095380955    2.0711791   439061 
  439000    1.3798987  -0.09429366  -0.09429366    1.9755497    1.4298572  -0.09429366    2.0698433   439061 
  440000    1.3786276 -0.093999837 -0.093999837    1.9739368    1.4290183 -0.093999837    2.0679367   439061 
  441000    1.3781667 -0.093415215 -0.093415215    1.9738301    1.4317314 -0.093415215    2.0672453   439061 
  442000       1.3805 -0.096584472 -0.096584472    1.9741608    1.4255273 -0.096584472    2.0707453   439061 
  443000    1.3799774 -0.095983418 -0.095983418    1.9739779    1.4262512 -0.095983418    2.0699613   439061 
  444000    1.3778534 -0.093664745 -0.093664745    1.9731106    1.4302367 -0.093664745    2.0667754   439061 
  445000    1.3784372 -0.094182589 -0.094182589    1.9734685    1.4306196 -0.094182589    2.0676511   439061 
  446000    1.3785635 -0.095667549 -0.095667549     1.972173    1.4240687 -0.095667549    2.0678406   439061 
  447000    1.3775224 -0.095993765 -0.095993765    1.9702851    1.4223133 -0.095993765    2.0662789   439061 
  448000    1.3757888 -0.093193786 -0.093193786    1.9704847    1.4296373 -0.093193786    2.0636785   439061 
  449000    1.3770413 -0.096879231 -0.096879231     1.968678    1.4210769 -0.096879231    2.0655572   439061 
  450000    1.3752677  -0.09499274  -0.09499274    1.9679042    1.4256513  -0.09499274    2.0628969   439061 
  451000    1.3753305 -0.096018087 -0.096018087     1.966973    1.4214746 -0.096018087    2.0629911   439061 
  452000    1.3746516 -0.094896763 -0.094896763     1.967076    1.4257409 -0.094896763    2.0619727   439061 
  453000    1.3738074  -0.09507851  -0.09507851    1.9656279    1.4257387  -0.09507851    2.0607064   439061 
  454000    1.3727947 -0.095383132 -0.095383132    1.9638043    1.4235967 -0.095383132    2.0591874   439061 
  455000     1.372377 -0.095818403 -0.095818403    1.9627424    1.4221174 -0.095818403    2.0585608   439061 
  456000    1.3724491 -0.096094355 -0.096094355    1.9625746    1.4200162 -0.096094355    2.0586689   439061 
  457000    1.3720275 -0.096055512 -0.096055512    1.9619811    1.4204483 -0.096055512    2.0580366   439061 
  458000      1.37247 -0.096175781 -0.096175781    1.9625245    1.4213015 -0.096175781    2.0587003   439061 
  459000    1.3714178 -0.095363832 -0.095363832    1.9617581    1.4220674 -0.095363832    2.0571219   439061 
  460000    1.3720513 -0.097265507 -0.097265507    1.9608067    1.4164682 -0.097265507    2.0580722   439061 
  461000    1.3714913 -0.096907208 -0.096907208    1.9603251    1.4183855 -0.096907208    2.0572323   439061 
  462000    1.3705638 -0.096085256 -0.096085256    1.9597557    1.4202453 -0.096085256     2.055841   439061 
  463000    1.3698539 -0.096465036 -0.096465036    1.9583111     1.417225 -0.096465036    2.0547761   439061 
  464000    1.3690983 -0.096668666 -0.096668666    1.9569742    1.4173749 -0.096668666    2.0536428   439061 
  465000    1.3687599 -0.095458913 -0.095458913    1.9576762    1.4197501 -0.095458913    2.0531351   439061 
  466000    1.3693577 -0.096544384 -0.096544384    1.9574875    1.4183537 -0.096544384    2.0540319   439061 
  467000     1.370046 -0.097541285 -0.097541285     1.957523    1.4157455 -0.097541285    2.0550643   439061 
  468000    1.3697838 -0.097118273 -0.097118273    1.9575527    1.4160769 -0.097118273     2.054671   439061 
  469000    1.3703834 -0.098676561 -0.098676561    1.9568939    1.4147055 -0.098676561    2.0555704   439061 
  470000    1.3697199  -0.09639654  -0.09639654    1.9581786    1.4194798  -0.09639654    2.0545752   439061 
  471000    1.3695977  -0.09904013  -0.09904013    1.9553518    1.4130272  -0.09904013    2.0543919   439061 
  472000    1.3678277 -0.096542958 -0.096542958    1.9551939    1.4169221 -0.096542958    2.0517369   439061 
  473000    1.3673209  -0.09782215  -0.09782215    1.9531545    1.4160761  -0.09782215    2.0509767   439061 
  474000    1.3663464 -0.095856788 -0.095856788    1.9536581    1.4193307 -0.095856788    2.0495149   439061 
  475000    1.3666286 -0.097483976 -0.097483976    1.9524543    1.4132367 -0.097483976    2.0499383   439061 
  476000    1.3660407 -0.097709928 -0.097709928    1.9513465    1.4138608 -0.097709928    2.0490564   439061 
  477000    1.3665374  -0.09889024  -0.09889024    1.9509112    1.4120853  -0.09889024    2.0498014   439061 
  478000    1.3653031 -0.097287431 -0.097287431    1.9506626    1.4137539 -0.097287431      2.04795   439061 
  479000    1.3646177 -0.096029811 -0.096029811    1.9508921    1.4174198 -0.096029811    2.0469219   439061 
  480000    1.3647183 -0.097520421 -0.097520421    1.9495523    1.4137065 -0.097520421    2.0470727   439061 
  481000    1.3650993 -0.097235123 -0.097235123    1.9504091    1.4140239 -0.097235123    2.0476443   439061 
  482000    1.3643465 -0.097068655 -0.097068655    1.9494465    1.4139539 -0.097068655    2.0465151   439061 
  483000    1.3639614  -0.09741114  -0.09741114    1.9485262     1.412684  -0.09741114    2.0459374   439061 
  484000    1.3638783 -0.097270303 -0.097270303    1.9485424    1.4128941 -0.097270303    2.0458127   439061 
  485000     1.364007 -0.098356932 -0.098356932    1.9476489    1.4107479 -0.098356932    2.0460058   439061 
  486000     1.363449 -0.098075727 -0.098075727    1.9470932    1.4103888 -0.098075727    2.0451689   439061 
  487000    1.3636393 -0.097598128 -0.097598128    1.9478561    1.4110888 -0.097598128    2.0454543   439061 
  488000    1.3629584 -0.098083646 -0.098083646    1.9463494    1.4117569 -0.098083646     2.044433   439061 
  489000    1.3620754 -0.096636245 -0.096636245    1.9464722    1.4139256 -0.096636245    2.0431085   439061 
  490000    1.3628368 -0.098517669 -0.098517669    1.9457329      1.40911 -0.098517669    2.0442506   439061 
  491000    1.3638164 -0.099821773 -0.099821773    1.9458982    1.4055127 -0.099821773      2.04572   439061 
  492000    1.3608878  -0.09899856  -0.09899856    1.9423285    1.4075049  -0.09899856     2.041327   439061 
  493000    1.3615655 -0.098765663 -0.098765663     1.943578    1.4075727 -0.098765663    2.0423436   439061 
  494000    1.3613794  -0.10038524  -0.10038524    1.9416792    1.4042654  -0.10038524    2.0420645   439061 
  495000    1.3578261 -0.096915911 -0.096915911    1.9398186    1.4112929 -0.096915911    2.0367345   439061 
  496000    1.3570304 -0.098280749 -0.098280749    1.9372602     1.409293 -0.098280749     2.035541   439061 
  497000    1.3579739 -0.099124921 -0.099124921    1.9378313    1.4059148 -0.099124921    2.0369562   439061 
  498000    1.3570558 -0.097868346 -0.097868346    1.9377107    1.4103993 -0.097868346    2.0355791   439061 
  499000    1.3564684 -0.099102401 -0.099102401    1.9355955    1.4071082 -0.099102401    2.0346979   439061 
  500000    1.3569376 -0.099338839 -0.099338839     1.936063    1.4045416 -0.099338839    2.0354018   439061 
  501000     1.356827 -0.099204212 -0.099204212    1.9360317    1.4054548 -0.099204212    2.0352359   439061 
  502000    1.3578136  -0.10041865  -0.10041865     1.936297    1.4037093  -0.10041865    2.0367157   439061 
  503000    1.3564815 -0.099328588 -0.099328588     1.935389    1.4042862 -0.099328588    2.0347176   439061 
  504000    1.3561183 -0.097981943 -0.097981943    1.9361909     1.407044 -0.097981943    2.0341729   439061 
  505000    1.3570126  -0.10136543  -0.10136543    1.9341488    1.3985866  -0.10136543    2.0355142   439061 
  506000    1.3552079 -0.099067579 -0.099067579    1.9337396    1.4061885 -0.099067579    2.0328072   439061 
  507000    1.3555634  -0.10059171  -0.10059171    1.9327488    1.3982901  -0.10059171    2.0333405   439061 
  508000    1.3537206 -0.097829256 -0.097829256     1.932747    1.4064052 -0.097829256    2.0305762   439061 
  509000    1.3539379 -0.099046874 -0.099046874    1.9318553    1.4022381 -0.099046874    2.0309022   439061 
  510000    1.3539412  -0.10062383  -0.10062383    1.9302833    1.3992591  -0.10062383    2.0309072   439061 
  511000    1.3516412 -0.097831163 -0.097831163     1.929626    1.4059469 -0.097831163    2.0274572   439061 
  512000    1.3515984 -0.098098149 -0.098098149    1.9292948    1.4040595 -0.098098149    2.0273929   439061 
  513000    1.3519905 -0.098930701 -0.098930701    1.9290504    1.4028312 -0.098930701    2.0279811   439061 
  514000    1.3522512 -0.099275056 -0.099275056    1.9290971    1.4043431 -0.099275056    2.0283722   439061 
  515000     1.352021  -0.10012395  -0.10012395    1.9279029    1.3984013  -0.10012395    2.0280269   439061 
  516000    1.3506671 -0.099495975 -0.099495975       1.9265    1.4035125 -0.099495975     2.025996   439061 
  517000    1.3510409    -0.100657    -0.100657    1.9258997    1.4003572    -0.100657    2.0265567   439061 
  518000    1.3499141  -0.10045001  -0.10045001    1.9244165    1.3973734  -0.10045001    2.0248665   439061 
  519000    1.3485622 -0.099408558 -0.099408558    1.9234302    1.3994082 -0.099408558    2.0228388   439061 
  520000    1.3485978   -0.1006727   -0.1006727    1.9222193    1.3987496   -0.1006727     2.022892   439061 
  521000    1.3483967  -0.10120738  -0.10120738     1.921383    1.3965508  -0.10120738    2.0225904   439061 
  522000    1.3486278  -0.10025845  -0.10025845    1.9226786    1.3997365  -0.10025845    2.0229371   439061 
  523000    1.3481702 -0.099901236 -0.099901236    1.9223495    1.3984247 -0.099901236    2.0222507   439061 
  524000    1.3499744  -0.10258519  -0.10258519    1.9223718    1.3928203  -0.10258519     2.024957   439061 
  525000    1.3480902 -0.099963504 -0.099963504    1.9221671    1.3977331 -0.099963504    2.0221306   439061 
  526000    1.3483418  -0.10045022  -0.10045022    1.9220579    1.3963028  -0.10045022    2.0225082   439061 
  527000    1.3477309 -0.099973517 -0.099973517    1.9216183    1.3977771 -0.099973517    2.0215918   439061 
  528000    1.3479944  -0.10118163  -0.10118163    1.9208053    1.3938097  -0.10118163    2.0219869   439061 
  529000    1.3485032  -0.10212763  -0.10212763    1.9206226    1.3917635  -0.10212763    2.0227502   439061 
  530000     1.347195  -0.09963096  -0.09963096    1.9211569    1.3977685  -0.09963096    2.0207878   439061 
  531000    1.3464654 -0.099340557 -0.099340557     1.920353    1.3970446 -0.099340557    2.0196935   439061 
  532000    1.3451394    -0.100422    -0.100422    1.9172826    1.3951452    -0.100422    2.0177046   439061 
  533000    1.3448894 -0.099982837 -0.099982837    1.9173466    1.3969255 -0.099982837    2.0173294   439061 
  534000    1.3451964  -0.10120102  -0.10120102     1.916589    1.3927434  -0.10120102      2.01779   439061 
  535000    1.3429316 -0.099348421 -0.099348421    1.9150443    1.3995005 -0.099348421    2.0143928   439061 
  536000    1.3434042  -0.10193471  -0.10193471     1.913167    1.3905577  -0.10193471    2.0151017   439061 
  537000    1.3444914  -0.10338438  -0.10338438    1.9133481    1.3869778  -0.10338438    2.0167325   439061 
  538000    1.3425846  -0.10133509  -0.10133509    1.9125372    1.3912998  -0.10133509    2.0138723   439061 
  539000    1.3432278  -0.10180426  -0.10180426    1.9130328    1.3919313  -0.10180426    2.0148371   439061 
  540000      1.34246  -0.10091309  -0.10091309    1.9127723    1.3924115  -0.10091309    2.0136854   439061 
  541000    1.3431507  -0.10200499  -0.10200499    1.9127165     1.389653  -0.10200499    2.0147215   439061 
  542000    1.3414457  -0.10178162  -0.10178162    1.9103823    1.3919401  -0.10178162    2.0121639   439061 
  543000    1.3425696  -0.10234956  -0.10234956    1.9115003    1.3887296  -0.10234956    2.0138498   439061 
  544000    1.3411365  -0.10040707  -0.10040707    1.9112931    1.3930416  -0.10040707    2.0117001   439061 
  545000    1.3411605  -0.10115694  -0.10115694    1.9105792    1.3919745  -0.10115694    2.0117361   439061 
  546000    1.3425676  -0.10339957  -0.10339957    1.9104473    1.3853033  -0.10339957    2.0138468   439061 
  547000    1.3414746  -0.10341729  -0.10341729      1.90879    1.3850287  -0.10341729    2.0122073   439061 
  548000    1.3399019  -0.10209195  -0.10209195    1.9077564    1.3880208  -0.10209195    2.0098483   439061 
  549000    1.3391482  -0.10117094  -0.10117094    1.9075468    1.3899256  -0.10117094    2.0087178   439061 
  550000    1.3411615  -0.10375328  -0.10375328    1.9079844    1.3836688  -0.10375328    2.0117377   439061 
  551000    1.3400992  -0.10250746  -0.10250746    1.9076367     1.387099  -0.10250746    2.0101442   439061 
  552000    1.3405162  -0.10370294  -0.10370294    1.9070668    1.3844408  -0.10370294    2.0107697   439061 
  553000     1.339432  -0.10212483  -0.10212483    1.9070186    1.3876148  -0.10212483    2.0091434   439061 
  554000     1.339241  -0.10282702  -0.10282702    1.9060299    1.3875869  -0.10282702    2.0088569   439061 
  555000    1.3398174  -0.10252998  -0.10252998    1.9071915     1.388296  -0.10252998    2.0097215   439061 
  556000    1.3385239  -0.10209668  -0.10209668    1.9056847    1.3890462  -0.10209668    2.0077813   439061 
  557000    1.3384663  -0.10163514  -0.10163514    1.9060597    1.3884645  -0.10163514    2.0076948   439061 
  558000    1.3387098  -0.10118318  -0.10118318    1.9068769    1.3901216  -0.10118318    2.0080601   439061 
  559000    1.3387796  -0.10284946  -0.10284946    1.9053154    1.3874085  -0.10284946    2.0081648   439061 
  560000    1.3362995  -0.10193707  -0.10193707    1.9025076    1.3868465  -0.10193707    2.0044447   439061 
  561000    1.3351528  -0.10104934  -0.10104934    1.9016753    1.3885413  -0.10104934    2.0027247   439061 
  562000    1.3363458  -0.10302664  -0.10302664    1.9014875    1.3842264  -0.10302664    2.0045141   439061 
  563000    1.3364708  -0.10271188  -0.10271188    1.9019897    1.3862135  -0.10271188    2.0047016   439061 
  564000    1.3365356  -0.10281303  -0.10281303    1.9019858    1.3843909  -0.10281303    2.0047988   439061 
  565000    1.3352418  -0.10264104  -0.10264104    1.9002171    1.3847666  -0.10264104    2.0028581   439061 
  566000    1.3354623  -0.10384767  -0.10384767    1.8993412    1.3821629  -0.10384767    2.0031889   439061 
  567000    1.3333888  -0.10140874  -0.10140874    1.8986698    1.3860948  -0.10140874    2.0000786   439061 
  568000    1.3346947  -0.10304152  -0.10304152     1.898996    1.3841287  -0.10304152    2.0020375   439061 
  569000    1.3345921  -0.10405173  -0.10405173    1.8978318    1.3777408  -0.10405173    2.0018835   439061 
  570000    1.3336177  -0.10354087  -0.10354087    1.8968812    1.3816139  -0.10354087     2.000422   439061 
  571000    1.3329657  -0.10314219  -0.10314219    1.8963019    1.3811666  -0.10314219    1.9994441   439061 
  572000    1.3320233  -0.10370261  -0.10370261    1.8943279    1.3806772  -0.10370261    1.9980305   439061 
  573000    1.3320845  -0.10355018  -0.10355018     1.894572    1.3822806  -0.10355018    1.9981222   439061 
  574000     1.331916   -0.1033324   -0.1033324     1.894537    1.3832797   -0.1033324    1.9978694   439061 
  575000    1.3323471  -0.10396496  -0.10396496    1.8945512    1.3805577  -0.10396496    1.9985161   439061 
  576000    1.3322991  -0.10423845  -0.10423845    1.8942057    1.3792543  -0.10423845    1.9984441   439061 
  577000    1.3313534  -0.10354535  -0.10354535    1.8934802     1.381839  -0.10354535    1.9970255   439061 
  578000    1.3311464   -0.1033107   -0.1033107    1.8934044     1.381594   -0.1033107    1.9967151   439061 
  579000    1.3311826  -0.10262045  -0.10262045    1.8941489    1.3836152  -0.10262045    1.9967693   439061 
  580000    1.3314363  -0.10345305  -0.10345305    1.8936968    1.3802289  -0.10345305    1.9971499   439061 
  581000    1.3323962  -0.10493749  -0.10493749    1.8936522    1.3750947  -0.10493749    1.9985897   439061 
  582000    1.3318249  -0.10500532  -0.10500532    1.8927275    1.3774359  -0.10500532    1.9977328   439061 
  583000    1.3316861  -0.10479215  -0.10479215    1.8927325    1.3765857  -0.10479215    1.9975246   439061 
  584000    1.3295902  -0.10306578  -0.10306578     1.891315    1.3803751  -0.10306578    1.9943808   439061 
  585000    1.3294379  -0.10318316  -0.10318316    1.8909692      1.38025  -0.10318316    1.9941524   439061 
  586000    1.3295286  -0.10374249  -0.10374249    1.8905459    1.3797327  -0.10374249    1.9942884   439061 
  587000    1.3294011  -0.10494024  -0.10494024    1.8891568    1.3739896  -0.10494024    1.9940971   439061 
  588000    1.3289346   -0.1048288   -0.1048288    1.8885685    1.3754278   -0.1048288    1.9933973   439061 
  589000    1.3288886  -0.10587007  -0.10587007    1.8874582    1.3720313  -0.10587007    1.9933283   439061 
  590000    1.3287188  -0.10531108  -0.10531108    1.8877626      1.37362  -0.10531108    1.9930737   439061 
  591000    1.3272821    -0.104759    -0.104759    1.8861597    1.3749243    -0.104759    1.9909187   439061 
  592000    1.3266895  -0.10449406  -0.10449406    1.8855357    1.3758581  -0.10449406    1.9900297   439061 
  593000    1.3273924  -0.10586187  -0.10586187    1.8852222     1.373548  -0.10586187     1.991084   439061 
  594000    1.3260492  -0.10487756  -0.10487756    1.8841917    1.3739502  -0.10487756    1.9890693   439061 
  595000    1.3267968  -0.10541889  -0.10541889    1.8847718     1.373995  -0.10541889    1.9901906   439061 
  596000    1.3258561  -0.10470402  -0.10470402    1.8840756    1.3757001  -0.10470402    1.9887797   439061 
  597000    1.3272946  -0.10772392  -0.10772392    1.8832135    1.3666734  -0.10772392    1.9909374   439061 
  598000    1.3258278  -0.10597605  -0.10597605    1.8827611    1.3700729  -0.10597605    1.9887372   439061 
  599000    1.3251274  -0.10418738  -0.10418738    1.8834992    1.3740581  -0.10418738    1.9876865   439061 
  600000     1.325478  -0.10558728  -0.10558728    1.8826252    1.3703741  -0.10558728    1.9882125   439061 
  601000    1.3241007  -0.10356716  -0.10356716    1.8825793     1.376181  -0.10356716    1.9861465   439061 
  602000    1.3230225  -0.10300149  -0.10300149    1.8815277    1.3780267  -0.10300149    1.9845292   439061 
  603000     1.323266  -0.10450325  -0.10450325    1.8803912     1.374196  -0.10450325    1.9848945   439061 
  604000    1.3237652   -0.1047746   -0.1047746    1.8808687    1.3725877   -0.1047746    1.9856433   439061 
  605000    1.3231251  -0.10430032  -0.10430032    1.8803828    1.3718988  -0.10430032    1.9846831   439061 
  606000    1.3237368  -0.10546332  -0.10546332    1.8801373    1.3705887  -0.10546332    1.9856006   439061 
  607000    1.3243109  -0.10606839  -0.10606839    1.8803934    1.3698644  -0.10606839    1.9864618   439061 
  608000     1.322997  -0.10559265  -0.10559265    1.8788983    1.3684906  -0.10559265     1.984491   439061 
  609000    1.3211494  -0.10269012  -0.10269012    1.8790295    1.3774336  -0.10269012    1.9817196   439061 
  610000     1.321777  -0.10531695  -0.10531695     1.877344     1.370126  -0.10531695     1.982661   439061 
  611000    1.3214202  -0.10489277  -0.10489277    1.8772331    1.3721342  -0.10489277    1.9821258   439061 
  612000    1.3208517   -0.1048403   -0.1048403    1.8764327    1.3715546   -0.1048403     1.981273   439061 
  613000    1.3209688  -0.10669087  -0.10669087    1.8747578    1.3672135  -0.10669087    1.9814487   439061 
  614000     1.319876  -0.10643196  -0.10643196    1.8733776    1.3670477  -0.10643196    1.9798095   439061 
  615000     1.320571  -0.10720182  -0.10720182    1.8736502     1.365872  -0.10720182     1.980852   439061 
  616000    1.3204491  -0.10739132  -0.10739132    1.8732778    1.3640181  -0.10739132    1.9806691   439061 
  617000    1.3194512  -0.10668623  -0.10668623    1.8724861    1.3652343  -0.10668623    1.9791723   439061 
  618000     1.319885  -0.10716157  -0.10716157    1.8726614    1.3642664  -0.10716157    1.9798229   439061 
  619000    1.3199034  -0.10739347  -0.10739347    1.8724571    1.3643855  -0.10739347    1.9798506   439061 
  620000    1.3190734  -0.10655788  -0.10655788    1.8720478    1.3670121  -0.10655788    1.9786056   439061 
  621000    1.3194273  -0.10733302  -0.10733302    1.8718034    1.3634863  -0.10733302    1.9791365   439061 
  622000    1.3191482  -0.10687396  -0.10687396    1.8718439    1.3644424  -0.10687396    1.9787178   439061 
  623000    1.3188466  -0.10594286  -0.10594286    1.8723225    1.3678676  -0.10594286    1.9782654   439061 
  624000     1.319257  -0.10673132  -0.10673132    1.8721496    1.3623756  -0.10673132     1.978881   439061 
  625000    1.3176696  -0.10534905  -0.10534905    1.8711508    1.3691494  -0.10534905    1.9764999   439061 
  626000    1.3196497  -0.10843843  -0.10843843    1.8710316    1.3606191  -0.10843843      1.97947   439061 
  627000    1.3181926  -0.10714146  -0.10714146    1.8701429    1.3643853  -0.10714146    1.9772843   439061 
  628000    1.3175196  -0.10636473  -0.10636473    1.8699102    1.3661422  -0.10636473    1.9762749   439061 
  629000    1.3165468  -0.10582222  -0.10582222    1.8689935    1.3656629  -0.10582222    1.9748157   439061 
  630000    1.3170552  -0.10766977  -0.10766977    1.8679085    1.3604689  -0.10766977    1.9755783   439061 
  631000     1.316991  -0.10732551  -0.10732551    1.8681565    1.3615494  -0.10732551     1.975482   439061 
  632000    1.3164518  -0.10672193  -0.10672193    1.8679513    1.3639759  -0.10672193    1.9746732   439061 
  633000    1.3156901   -0.1068514   -0.1068514    1.8666792    1.3645061   -0.1068514    1.9735306   439061 
  634000    1.3148741  -0.10664766  -0.10664766     1.865659    1.3643699  -0.10664766    1.9723067   439061 
  635000    1.3154249  -0.10837244  -0.10837244    1.8647603    1.3589937  -0.10837244    1.9731328   439061 
  636000     1.314822  -0.10672723  -0.10672723    1.8655013      1.36443  -0.10672723    1.9722285   439061 
  637000    1.3150544  -0.10841348  -0.10841348    1.8641636    1.3576506  -0.10841348    1.9725771   439061 
  638000    1.3138935   -0.1067639   -0.1067639    1.8640718    1.3636633   -0.1067639    1.9708357   439061 
  639000     1.315014  -0.10790007  -0.10790007    1.8646165    1.3618009  -0.10790007    1.9725165   439061 
  640000    1.3144028  -0.10701476  -0.10701476    1.8645849    1.3616656  -0.10701476    1.9715996   439061 
  641000     1.313063    -0.105418    -0.105418     1.864172    1.3656502    -0.105418      1.96959   439061 
  642000    1.3138852  -0.10679109  -0.10679109    1.8640323    1.3616937  -0.10679109    1.9708234   439061 
  643000    1.3145191  -0.10732046  -0.10732046    1.8644537    1.3603547  -0.10732046    1.9717742   439061 
  644000    1.3140731  -0.10798342  -0.10798342    1.8631218    1.3595804  -0.10798342    1.9711052   439061 
  645000    1.3139009  -0.10838389  -0.10838389     1.862463    1.3580489  -0.10838389    1.9708469   439061 
  646000    1.3141142  -0.10801499  -0.10801499    1.8631518    1.3591479  -0.10801499    1.9711668   439061 
  647000    1.3126552  -0.10720787  -0.10720787    1.8617704    1.3599306  -0.10720787    1.9689783   439061 
  648000    1.3130947  -0.10687244  -0.10687244    1.8627651    1.3628925  -0.10687244    1.9696376   439061 
  649000    1.3135174  -0.10863081  -0.10863081    1.8616408    1.3565653  -0.10863081    1.9702716   439061 
  650000    1.3128309  -0.10826824  -0.10826824    1.8609736    1.3593338  -0.10826824    1.9692419   439061 
  651000     1.312678  -0.10774907  -0.10774907    1.8612634    1.3611739  -0.10774907    1.9690125   439061 
  652000    1.3126368  -0.10699555  -0.10699555    1.8619551    1.3620223  -0.10699555    1.9689507   439061 
  653000    1.3124155   -0.1079066   -0.1079066    1.8607122    1.3570896   -0.1079066    1.9686188   439061 
  654000    1.3107534  -0.10710638  -0.10710638    1.8590192    1.3623472  -0.10710638    1.9661256   439061 
  655000    1.3107548  -0.10830504  -0.10830504    1.8578227    1.3562343  -0.10830504    1.9661278   439061 
  656000    1.3102062  -0.10778245  -0.10778245    1.8575223    1.3573011  -0.10778245    1.9653048   439061 
  657000    1.3099615   -0.1083802   -0.1083802    1.8565576    1.3549869   -0.1083802    1.9649378   439061 
  658000    1.3095231  -0.10854543  -0.10854543    1.8557348    1.3574212  -0.10854543    1.9642802   439061 
  659000    1.3086285  -0.10651771  -0.10651771    1.8564206    1.3618312  -0.10651771    1.9629383   439061 
  660000    1.3102647  -0.10875477  -0.10875477    1.8566378    1.3547385  -0.10875477    1.9653926   439061 
  661000    1.3090563   -0.1078432   -0.1078432    1.8557367    1.3585509   -0.1078432    1.9635799   439061 
  662000    1.3078706  -0.10715585  -0.10715585    1.8546456    1.3597473  -0.10715585    1.9618014   439061 
  663000    1.3071651  -0.10772495  -0.10772495    1.8530182    1.3586622  -0.10772495    1.9607431   439061 
  664000    1.3075869  -0.10798847  -0.10798847    1.8533875    1.3554068  -0.10798847    1.9613759   439061 
  665000    1.3085591   -0.1100677   -0.1100677    1.8527665    1.3511035   -0.1100677    1.9628342   439061 
  666000    1.3067204  -0.10771847  -0.10771847    1.8523576    1.3547259  -0.10771847    1.9600761   439061 
  667000    1.3069693   -0.1084009   -0.1084009    1.8520486    1.3544626   -0.1084009    1.9604495   439061 
  668000     1.304974  -0.10761733  -0.10761733    1.8498393    1.3549968  -0.10761733    1.9574566   439061 
  669000    1.3060618  -0.10871289  -0.10871289    1.8503754    1.3547126  -0.10871289    1.9590883   439061 
  670000    1.3067674  -0.10976963  -0.10976963     1.850377        1.351  -0.10976963    1.9601466   439061 
  671000    1.3058864  -0.10906517  -0.10906517      1.84976    1.3525519  -0.10906517    1.9588252   439061 
  672000    1.3053474  -0.10907688  -0.10907688    1.8489398    1.3525896  -0.10907688    1.9580167   439061 
  673000    1.3035076  -0.10838448  -0.10838448    1.8468725    1.3522168  -0.10838448     1.955257   439061 
  674000    1.3046331   -0.1098823   -0.1098823    1.8470629     1.350273   -0.1098823    1.9569452   439061 
  675000    1.3037654  -0.10982807  -0.10982807    1.8458156    1.3509975  -0.10982807    1.9556437   439061 
  676000    1.3024263  -0.10910929  -0.10910929    1.8445256    1.3513057  -0.10910929    1.9536349   439061 
  677000    1.3024199  -0.10889149  -0.10889149    1.8447339    1.3522278  -0.10889149    1.9536254   439061 
  678000    1.3030771  -0.10997208  -0.10997208    1.8446391     1.349274  -0.10997208    1.9546112   439061 
  679000    1.3024899  -0.10980684  -0.10980684    1.8439236    1.3519695  -0.10980684    1.9537304   439061 
  680000    1.3034596  -0.11134323  -0.11134323    1.8438417    1.3444497  -0.11134323    1.9551849   439061 
  681000    1.3014908  -0.10829093  -0.10829093    1.8439408    1.3533271  -0.10829093    1.9522317   439061 
  682000    1.3022117  -0.11033102  -0.11033102     1.842982    1.3495558  -0.11033102    1.9533131   439061 
  683000    1.3012371  -0.10919146  -0.10919146    1.8426597    1.3495029  -0.10919146    1.9518512   439061 
  684000    1.3013404  -0.11004473  -0.11004473    1.8419614    1.3469039  -0.11004473    1.9520061   439061 
  685000    1.3008369  -0.10982967  -0.10982967    1.8414212    1.3481366  -0.10982967    1.9512509   439061 
  686000    1.3006556  -0.10939834  -0.10939834    1.8415807    1.3482145  -0.10939834     1.950979   439061 
  687000    1.2992752  -0.10872972  -0.10872972    1.8401786    1.3503342  -0.10872972    1.9489083   439061 
  688000    1.3007432  -0.11097047  -0.11097047    1.8401399     1.344982  -0.11097047    1.9511104   439061 
  689000    1.3000809  -0.11043666  -0.11043666    1.8396802    1.3479085  -0.11043666    1.9501169   439061 
  690000    1.2984592  -0.10937305  -0.10937305    1.8383112    1.3492105  -0.10937305    1.9476843   439061 
  691000    1.2989413  -0.11001721  -0.11001721    1.8383903    1.3471808  -0.11001721    1.9484075   439061 
  692000    1.3001618  -0.11022663  -0.11022663    1.8400116    1.3465551  -0.11022663    1.9502383   439061 
  693000    1.2990491  -0.11017121  -0.11017121     1.838398    1.3477396  -0.11017121    1.9485692   439061 
  694000       1.2981  -0.10818252  -0.10818252     1.838963    1.3535613  -0.10818252    1.9471455   439061 
  695000    1.2992266  -0.11073441  -0.11073441     1.838101    1.3459737  -0.11073441    1.9488355   439061 
  696000    1.2981126   -0.1110328   -0.1110328    1.8361317    1.3428879   -0.1110328    1.9471645   439061 
  697000    1.2986925  -0.11066426  -0.11066426    1.8373701    1.3464374  -0.11066426    1.9480343   439061 
  698000    1.2984175  -0.11021005  -0.11021005    1.8374117    1.3470283  -0.11021005    1.9476217   439061 
  699000    1.2977805  -0.11013633  -0.11013633      1.83653    1.3448763  -0.11013633    1.9466663   439061 
  700000    1.2991402  -0.11060663  -0.11060663    1.8380992    1.3445711  -0.11060663    1.9487059   439061 
  701000    1.2984884  -0.10943962  -0.10943962    1.8382885    1.3469925  -0.10943962    1.9477281   439061 
  702000    1.2991139  -0.11104076  -0.11104076    1.8376257    1.3417345  -0.11104076    1.9486664   439061 
  703000    1.2985922  -0.10946802  -0.10946802    1.8384158    1.3472089  -0.10946802    1.9478838   439061 
  704000     1.299008  -0.11107003  -0.11107003    1.8374376    1.3426823  -0.11107003    1.9485076   439061 
[...]
22833000 3.3497528e-06            0            0    1.1030569 1.436272e-06            0    1.1030569        2 
22834000 3.3497528e-06            0            0    1.1030569 1.436272e-06            0    1.1030569        2 
22835000 3.3497528e-06            0            0    1.1030569 1.436272e-06            0    1.1030569        2 
22836000 3.3497528e-06            0            0    1.1030569 1.436272e-06            0    1.1030569        2 
22837000 3.3497528e-06            0            0    1.1030569 1.436272e-06            0    1.1030569        2 
22838000 3.3497528e-06            0            0    1.1030569 1.436272e-06            0    1.1030569        2 
22839000 3.3497528e-06            0            0    1.1030569 1.436272e-06            0    1.1030569        2 
22840000 3.3497528e-06            0            0    1.1030569 1.436272e-06            0    1.1030569        2 
22841000 3.3497528e-06            0            0    1.1030569 1.436272e-06            0    1.1030569        2 
22842000 3.3497528e-06            0            0    1.1030569 1.436272e-06            0    1.1030569        2 
22843000 3.3497528e-06            0            0    1.1030569 1.436272e-06            0    1.1030569        2 
22844000 3.3497528e-06            0            0    1.1030569 1.436272e-06            0    1.1030569        2 
22845000 3.3497528e-06            0            0    1.1030569 1.436272e-06            0    1.1030569        2 
22846000 3.3497528e-06            0            0    1.1030569 1.436272e-06            0    1.1030569        2 
22847000 3.3497528e-06            0            0    1.1030569 1.436272e-06            0    1.1030569        2 
22848000 3.3497528e-06            0            0    1.1030569 1.436272e-06            0    1.1030569        2 
22849000 3.3497528e-06            0            0    1.1030569 1.436272e-06            0    1.1030569        2 
22850000 3.3497528e-06            0            0    1.1030569 1.436272e-06            0    1.1030569        2 
22851000 3.3497528e-06            0            0    1.1030569 1.436272e-06            0    1.1030569        2 
22852000 3.3497528e-06            0            0    1.1030569 1.436272e-06            0    1.1030569        2 
22853000 3.3497528e-06            0            0    1.1030569 1.436272e-06            0    1.1030569        2 
22854000 3.3497528e-06            0            0    1.1030569 1.436272e-06            0    1.1030569        2 
22855000 3.3497528e-06            0            0    1.1030569 1.436272e-06            0    1.1030569        2 
22856000 3.3497528e-06            0            0    1.1030569 1.436272e-06            0    1.1030569        2 
22857000 3.3497528e-06            0            0    1.1030569 1.436272e-06            0    1.1030569        2 
22858000 3.3497528e-06            0            0    1.1030569 1.436272e-06            0    1.1030569        2 
22859000 3.3497528e-06            0            0    1.1030569 1.436272e-06            0    1.1030569        2 
22860000 3.3497528e-06            0            0    1.1030569 1.436272e-06            0    1.1030569        2 
22861000 3.3497528e-06            0            0    1.1030569 1.436272e-06            0    1.1030569        2 
22862000 3.3497528e-06            0            0    1.1030569 1.436272e-06            0    1.1030569        2 
22863000 3.3497528e-06            0            0    1.1030569 1.436272e-06            0    1.1030569        2 
22864000 3.3497528e-06            0            0    1.1030569 1.436272e-06            0    1.1030569        2 
22865000 3.3497528e-06            0            0    1.1030569 1.436272e-06            0    1.1030569        2 
22866000 3.3497528e-06            0            0    1.1030569 1.436272e-06            0    1.1030569        2 
22867000 3.3497528e-06            0            0    1.1030569 1.436272e-06            0    1.1030569        2 
22868000 3.3497528e-06            0            0    1.1030569 1.436272e-06            0    1.1030569        2 
22869000 3.3497528e-06            0            0    1.1030569 1.436272e-06            0    1.1030569        2 
22870000 3.3497528e-06            0            0    1.1030569 1.436272e-06            0    1.1030569        2 
22871000 3.3497528e-06            0            0    1.1030569 1.436272e-06            0    1.1030569        2 
22872000 3.3497528e-06            0            0    1.1030569 1.436272e-06            0    1.1030569        2 
22873000 3.3497528e-06            0            0    1.1030569 1.436272e-06            0    1.1030569        2 
22874000 3.3497528e-06            0            0    1.1030569 1.436272e-06            0    1.1030569        2 
22875000 3.3497528e-06            0            0    1.1030569 1.436272e-06            0    1.1030569        2 
22876000 3.3497528e-06            0            0    1.1030569 1.436272e-06            0    1.1030569        2 
22877000 3.3497528e-06            0            0    1.1030569 1.436272e-06            0    1.1030569        2 
22878000 3.3497528e-06            0            0    1.1030569 1.436272e-06            0    1.1030569        2 
22879000 3.3497528e-06            0            0    1.1030569 1.436272e-06            0    1.1030569        2 
22880000 3.3497528e-06            0            0    1.1030569 1.436272e-06            0    1.1030569        2 
22881000 3.3497528e-06            0            0    1.1030569 1.436272e-06            0    1.1030569        2 
22882000 3.3497528e-06            0            0    1.1030569 1.436272e-06            0    1.1030569        2 
22883000 3.3497528e-06            0            0    1.1030569 1.436272e-06            0    1.1030569        2 
22884000 3.3497528e-06            0            0    1.1030569 1.436272e-06            0    1.1030569        2 
22885000 3.3497528e-06            0            0    1.1030569 1.436272e-06            0    1.1030569        2 
22886000 3.3497528e-06            0            0    1.1030569 1.436272e-06            0    1.1030569        2 
22887000 3.3497528e-06            0            0    1.1030569 1.436272e-06            0    1.1030569        2 
22888000 3.3497528e-06            0            0    1.1030569 1.436272e-06            0    1.1030569        2 
22889000 3.3497528e-06            0            0    1.1030569 1.436272e-06            0    1.1030569        2 
22890000 3.3497528e-06            0            0    1.1030569 1.436272e-06            0    1.1030569        2 
22891000 3.3497528e-06            0            0    1.1030569 1.436272e-06            0    1.1030569        2 
22892000 3.3497528e-06            0            0    1.1030569 1.436272e-06            0    1.1030569        2 
22893000 3.3497528e-06            0            0    1.1030569 1.436272e-06            0    1.1030569        2 
22894000 3.3497528e-06            0            0    1.1030569 1.436272e-06            0    1.1030569        2 
22895000 3.3497528e-06            0            0    1.1030569 1.436272e-06            0    1.1030569        2 
22896000 3.3497528e-06            0            0    1.1030569 1.436272e-06            0    1.1030569        2 
22897000 3.3497528e-06            0            0    1.1030569 1.436272e-06            0    1.1030569        2 
22898000 3.3497528e-06            0            0    1.1030569 1.436272e-06            0    1.1030569        2 
22899000 3.3497528e-06            0            0    1.1030569 1.436272e-06            0    1.1030569        2 
22900000 3.3497528e-06            0            0    1.1030569 1.436272e-06            0    1.1030569        2 
22901000 3.3497528e-06            0            0    1.1030569 1.436272e-06            0    1.1030569        2 
22902000 3.3497528e-06            0            0    1.1030569 1.436272e-06            0    1.1030569        2 
22903000 3.3497528e-06            0            0    1.1030569 1.436272e-06            0    1.1030569        2 
22904000 3.3497528e-06            0            0    1.1030569 1.436272e-06            0    1.1030569        2 
22905000 3.3497528e-06            0            0    1.1030569 1.436272e-06            0    1.1030569        2 
22906000 3.3497528e-06            0            0    1.1030569 1.436272e-06            0    1.1030569        2 
22907000 3.3497528e-06            0            0    1.1030569 1.436272e-06            0    1.1030569        2 
22908000 3.3497528e-06            0            0    1.1030569 1.436272e-06            0    1.1030569        2 
22909000 3.3497528e-06            0            0    1.1030569 1.436272e-06            0    1.1030569        2 
22910000 3.3497528e-06            0            0    1.1030569 1.436272e-06            0    1.1030569        2 
22911000 3.3497528e-06            0            0    1.1030569 1.436272e-06            0    1.1030569        2 
22912000 3.3497528e-06            0            0    1.1030569 1.436272e-06            0    1.1030569        2 
22913000 3.3497528e-06            0            0    1.1030569 1.436272e-06            0    1.1030569        2 
22914000 3.3497528e-06            0            0    1.1030569 1.436272e-06            0    1.1030569        2 
22915000 3.3497528e-06            0            0    1.1030569 1.436272e-06            0    1.1030569        2 
22916000 3.3497528e-06            0            0    1.1030569 1.436272e-06            0    1.1030569        2 
22917000 3.3497528e-06            0            0    1.1030569 1.436272e-06            0    1.1030569        2 
22918000 3.3497528e-06            0            0    1.1030569 1.436272e-06            0    1.1030569        2 
22919000 3.3497528e-06            0            0    1.1030569 1.436272e-06            0    1.1030569        2 
22920000 3.3497528e-06            0            0    1.1030569 1.436272e-06            0    1.1030569        2 
22921000 3.3497528e-06            0            0    1.1030569 1.436272e-06            0    1.1030569        2 
22922000 3.3497528e-06            0            0    1.1030569 1.436272e-06            0    1.1030569        2 
22923000 3.3497528e-06            0            0    1.1030569 1.436272e-06            0    1.1030569        2 
22924000 3.3497528e-06            0            0    1.1030569 1.436272e-06            0    1.1030569        2 
22925000 3.3497528e-06            0            0    1.1030569 1.436272e-06            0    1.1030569        2 
22926000 3.3497528e-06            0            0    1.1030569 1.436272e-06            0    1.1030569        2 
22927000 3.3497528e-06            0            0    1.1030569 1.436272e-06            0    1.1030569        2 
22928000 3.3497528e-06            0            0    1.1030569 1.436272e-06            0    1.1030569        2 
22929000 3.3497528e-06            0            0    1.1030569 1.436272e-06            0    1.1030569        2 
22930000 3.3497528e-06            0            0    1.1030569 1.436272e-06            0    1.1030569        2 
22931000 3.3497528e-06            0            0    1.1030569 1.436272e-06            0    1.1030569        2 
22932000 3.3497528e-06            0            0    1.1030569 1.436272e-06            0    1.1030569        2 
22933000 3.3497528e-06            0            0    1.1030569 1.436272e-06            0    1.1030569        2 
22934000 3.3497528e-06            0            0    1.1030569 1.436272e-06            0    1.1030569        2 
22935000 3.3497528e-06            0            0    1.1030569 1.436272e-06            0    1.1030569        2 
22936000 3.3497528e-06            0            0    1.1030569 1.436272e-06            0    1.1030569        2 
22937000 3.3497528e-06            0            0    1.1030569 1.436272e-06            0    1.1030569        2 
22938000 3.3497528e-06            0            0    1.1030569 1.436272e-06            0    1.1030569        2 
22939000 3.3497528e-06            0            0    1.1030569 1.436272e-06            0    1.1030569        2 
22940000 3.3497528e-06            0            0    1.1030569 1.436272e-06            0    1.1030569        2 
22941000 3.3497528e-06            0            0    1.1030569 1.436272e-06            0    1.1030569        2 
22942000 3.3497528e-06            0            0    1.1030569 1.436272e-06            0    1.1030569        2 
22943000 3.3497528e-06            0            0    1.1030569 1.436272e-06            0    1.1030569        2 
22944000 3.3497528e-06            0            0    1.1030569 1.436272e-06            0    1.1030569        2 
22945000 3.3497528e-06            0            0    1.1030569 1.436272e-06            0    1.1030569        2 
22946000 3.3497528e-06            0            0    1.1030569 1.436272e-06            0    1.1030569        2 
22947000 3.3497528e-06            0            0    1.1030569 1.436272e-06            0    1.1030569        2 
22948000 3.3497528e-06            0            0    1.1030569 1.436272e-06            0    1.1030569        2 
22949000 3.3497528e-06            0            0    1.1030569 1.436272e-06            0    1.1030569        2 
22950000 3.3497528e-06            0            0    1.1030569 1.436272e-06            0    1.1030569        2 
22951000 3.3497528e-06            0            0    1.1030569 1.436272e-06            0    1.1030569        2 
22952000 3.3497528e-06            0            0    1.1030569 1.436272e-06            0    1.1030569        2 
22953000 3.3497528e-06            0            0    1.1030569 1.436272e-06            0    1.1030569        2 
22954000 3.3497528e-06            0            0    1.1030569 1.436272e-06            0    1.1030569        2 
22955000 3.3497528e-06            0            0    1.1030569 1.436272e-06            0    1.1030569        2 
22956000 3.3497528e-06            0            0    1.1030569 1.436272e-06            0    1.1030569        2 
22957000 3.3497528e-06            0            0    1.1030569 1.436272e-06            0    1.1030569        2 
22958000 3.3497528e-06            0            0    1.1030569 1.436272e-06            0    1.1030569        2 
22959000 3.3497528e-06            0            0    1.1030569 1.436272e-06            0    1.1030569        2 
22960000 3.3497528e-06            0            0    1.1030569 1.436272e-06            0    1.1030569        2 
22961000 3.3497528e-06            0            0    1.1030569 1.436272e-06            0    1.1030569        2 
22962000 3.3497528e-06            0            0    1.1030569 1.436272e-06            0    1.1030569        2 
22963000 3.3497528e-06            0            0    1.1030569 1.436272e-06            0    1.1030569        2 
22964000 3.3497528e-06            0            0    1.1030569 1.436272e-06            0    1.1030569        2 
22965000 3.3497528e-06            0            0    1.1030569 1.436272e-06            0    1.1030569        2 
22966000 3.3497528e-06            0            0    1.1030569 1.436272e-06            0    1.1030569        2 
22967000 3.3497528e-06            0            0    1.1030569 1.436272e-06            0    1.1030569        2 
22968000 3.3497528e-06            0            0    1.1030569 1.436272e-06            0    1.1030569        2 
22969000 3.3497528e-06            0            0    1.1030569 1.436272e-06            0    1.1030569        2 
22970000 3.3497528e-06            0            0    1.1030569 1.436272e-06            0    1.1030569        2 
22971000 3.3497528e-06            0            0    1.1030569 1.436272e-06            0    1.1030569        2 
22972000 3.3497528e-06            0            0    1.1030569 1.436272e-06            0    1.1030569        2 
22973000 3.3497528e-06            0            0    1.1030569 1.436272e-06            0    1.1030569        2 
22974000 3.3497528e-06            0            0    1.1030569 1.436272e-06            0    1.1030569        2 
22975000 3.3497528e-06            0            0    1.1030569 1.436272e-06            0    1.1030569        2 
22976000 3.3497528e-06            0            0    1.1030569 1.436272e-06            0    1.1030569        2 
22977000 3.3497528e-06            0            0    1.1030569 1.436272e-06            0    1.1030569        2 
22978000 3.3497528e-06            0            0    1.1030569 1.436272e-06            0    1.1030569        2 
22979000 3.3497528e-06            0            0    1.1030569 1.436272e-06            0    1.1030569        2 
22980000 3.3497528e-06            0            0    1.1030569 1.436272e-06            0    1.1030569        2 
22981000 3.3497528e-06            0            0    1.1030569 1.436272e-06            0    1.1030569        2 
22982000 3.3497528e-06            0            0    1.1030569 1.436272e-06            0    1.1030569        2 
22983000 3.3497528e-06            0            0    1.1030569 1.436272e-06            0    1.1030569        2 
22984000 3.3497528e-06            0            0    1.1030569 1.436272e-06            0    1.1030569        2 
22985000 3.3497528e-06            0            0    1.1030569 1.436272e-06            0    1.1030569        2 
22986000 3.3497528e-06            0            0    1.1030569 1.436272e-06            0    1.1030569        2 
22987000 3.3497528e-06            0            0    1.1030569 1.436272e-06            0    1.1030569        2 
22988000 3.3497528e-06            0            0    1.1030569 1.436272e-06            0    1.1030569        2 
22989000 3.3497528e-06            0            0    1.1030569 1.436272e-06            0    1.1030569        2 
22990000 3.3497528e-06            0            0    1.1030569 1.436272e-06            0    1.1030569        2 
22991000 3.3497528e-06            0            0    1.1030569 1.436272e-06            0    1.1030569        2 
22992000 3.3497528e-06            0            0    1.1030569 1.436272e-06            0    1.1030569        2 
22993000 3.3497528e-06            0            0    1.1030569 1.436272e-06            0    1.1030569        2 
22994000 3.3497528e-06            0            0    1.1030569 1.436272e-06            0    1.1030569        2 
22995000 3.3497528e-06            0            0    1.1030569 1.436272e-06            0    1.1030569        2 
22996000 3.3497528e-06            0            0    1.1030569 1.436272e-06            0    1.1030569        2 
22997000 3.3497528e-06            0            0    1.1030569 1.436272e-06            0    1.1030569        2 
22998000 3.3497528e-06            0            0    1.1030569 1.436272e-06            0    1.1030569        2 
22999000 3.3497528e-06            0            0    1.1030569 1.436272e-06            0    1.1030569        2 
23000000 3.3497528e-06            0            0    1.1030569 1.436272e-06            0    1.1030569        2 
Loop time of 6384.72 on 192 procs for 20000000 steps with 2 atoms

Performance: 1353231.777 tau/day, 3132.481 timesteps/s
81.5% CPU use with 192 MPI tasks x 1 OpenMP threads

MPI task timing breakdown:
Section |  min time  |  avg time  |  max time  |%varavg|  %CPU | %total
-----------------------------------------------------------------------
Pair    | 992.95     | 1142       | 1312.5     | 220.2 |  86.5 | 17.89
Bond    | 12.53      | 12.996     | 13.754     |   6.7 |  88.3 |  0.20
Neigh   | 853.79     | 960.74     | 1058.2     | 153.0 |  90.6 | 15.05
Comm    | 1341.6     | 2201.6     | 2428       | 627.9 |  82.6 | 34.48
Output  | 1089.8     | 1094.3     | 1094.4     |   1.0 |  65.7 | 17.14
Modify  | 495.47     | 655.15     | 1392.9     |1052.9 |  83.2 | 10.26
Other   |            | 317.9      |            |       |       |  4.98

Nlocal:      0.0104167 ave           1 max           0 min
Histogram: 190 0 0 0 0 0 0 0 0 2
Nghost:      0.0572917 ave           1 max           0 min
Histogram: 181 0 0 0 0 0 0 0 0 11
Neighs:         0.00000 ave           0 max           0 min
Histogram: 192 0 0 0 0 0 0 0 0 0

Total # of neighbors = 0
Ave neighs/atom = 0.0000000
Ave special neighs/atom = 0.0000000
Neighbor list builds = 1885397
Dangerous builds = 1311695
Total wall time: 2:21:01
