LAMMPS (24 Dec 2020)
OMP_NUM_THREADS environment is not set. Defaulting to 1 thread. (src/comm.cpp:94)
  using 1 OpenMP thread(s) per MPI task
Created orthogonal box = (0.0000000 0.0000000 0.0000000) to (80.000000 80.000000 160.00000)
  6 by 4 by 8 MPI processor grid
Lattice spacing in x,y,z = 1.1485556 1.1485556 1.1485556
Created 421400 atoms
  create_atoms CPU = 0.151 seconds
Lattice spacing in x,y,z = 2.8114422 2.8114422 2.8114422
Created 17661 atoms
  create_atoms CPU = 0.005 seconds
439061 atoms in group solvent
System init for delete_atoms ...
Neighbor list info ...
  update every 1 steps, delay 10 steps, check yes
  max neighbors/atom: 2000, page size: 100000
  master list distance cutoff = 2.4
  ghost atom cutoff = 2.4
  binsize = 1.2, bins = 67 67 134
  2 neighbor lists, perpetual/occasional/extra = 1 1 0
  (1) command delete_atoms, occasional
      attributes: full, newton on
      pair build: full/bin
      stencil: full/bin/3d
      bin: standard
  (2) pair lj/smooth/linear, perpetual
      attributes: half, newton on
      pair build: half/bin/newton
      stencil: half/bin/3d/newton
      bin: standard
WARNING: Ignoring 'compress yes' for molecular system (src/delete_atoms.cpp:125)
Deleted 0 atoms, new total = 439061
Balancing ...
Neighbor list info ...
  update every 1 steps, delay 10 steps, check yes
  max neighbors/atom: 2000, page size: 100000
  master list distance cutoff = 2.4
  ghost atom cutoff = 2.4
  binsize = 1.2, bins = 67 67 134
  1 neighbor lists, perpetual/occasional/extra = 1 0 0
  (1) pair lj/smooth/linear, perpetual
      attributes: half, newton on
      pair build: half/bin/newton
      stencil: half/bin/3d/newton
      bin: standard
 rebalancing time: 0.006 seconds
  iteration count = 5
  initial/final maximal load/proc = 3888.0000 2808.0000
  initial/final imbalance factor  = 1.7002102 1.2279296
  x cuts: 0.0000000 0.16666667 0.33333333 0.50000000 0.66666667 0.83333333 1.0000000
  y cuts: 0.0000000 0.25000000 0.50000000 0.75000000 1.0000000
  z cuts: 0.0000000 0.089843750 0.17578125 0.25390625 0.33593750 0.41406250 0.50390625 0.58203125 1.0000000
dynamic group thermo defined
New timer settings: style=full  mode=nosync  timeout=off
Setting up Verlet run ...
  Unit style    : lj
  Current step  : 0
  Time step     : 0.005
Per MPI rank memory allocation (min/avg/max) = 9.917 | 9.995 | 10.07 Mbytes
Step Temp E_pair E_vdwl TotEng Press PotEng KinEng Atoms 
       0          0.6   0.22342731   0.22342731    1.1234253    4.4891685   0.22342731   0.89999795   439061 
    1000    1.7059457   -1.9353816   -1.9353816   0.62353109     2.194881   -1.9353816    2.5589127   439061 
    2000    1.6163654    -1.994266    -1.994266   0.43027659     1.329303    -1.994266    2.4245426   439061 
    3000    1.4604175   -1.9303877   -1.9303877   0.26023352    1.0104674   -1.9303877    2.1906213   439061 
    4000    1.3774997   -1.9262521   -1.9262521   0.13999276   0.80610087   -1.9262521    2.0662448   439061 
    5000    1.3283661   -1.9083458   -1.9083458  0.084198714    0.6508245   -1.9083458    1.9925445   439061 
    6000    1.2959416   -1.8801974   -1.8801974  0.063710603   0.57284548   -1.8801974     1.943908   439061 
    7000    1.2737421   -1.8500345   -1.8500345  0.060574311   0.57594775   -1.8500345    1.9106089   439061 
    8000    1.2573587   -1.8209807   -1.8209807  0.065053101   0.60995442   -1.8209807    1.8860338   439061 
    9000    1.2524467   -1.8068133   -1.8068133   0.07185238   0.63915473   -1.8068133    1.8786657   439061 
   10000    1.2523548   -1.8020219   -1.8020219  0.076506056   0.67719177   -1.8020219    1.8785279   439061 
   11000    1.2551936   -1.8007591   -1.8007591  0.082027065   0.69730157   -1.8007591    1.8827861   439061 
   12000    1.2557964   -1.7968669   -1.7968669  0.086823519   0.69894474   -1.7968669    1.8836904   439061 
   13000    1.2474895   -1.7814781   -1.7814781   0.08975193   0.65300766   -1.7814781      1.87123   439061 
   14000    1.2314133   -1.7553994   -1.7553994   0.09171634   0.59498694   -1.7553994    1.8471158   439061 
   15000     1.218391   -1.7330585   -1.7330585  0.094523807   0.55816442   -1.7330585    1.8275823   439061 
   16000    1.2101757   -1.7192273   -1.7192273  0.096032111   0.54802216   -1.7192273    1.8152594   439061 
   17000     1.212318   -1.7323008   -1.7323008  0.086172027    0.5943176   -1.7323008    1.8184728   439061 
   18000    1.2004449   -1.7574087   -1.7574087  0.043254567   0.66010537   -1.7574087    1.8006632   439061 
   19000    1.1743212   -1.7773464   -1.7773464 -0.015868566   0.68422754   -1.7773464    1.7614778   439061 
   20000    1.1518674   -1.7913208   -1.7913208 -0.063523643   0.66874737   -1.7913208    1.7277972   439061 
   21000    1.1354339   -1.8045817   -1.8045817  -0.10143473   0.65792757   -1.8045817     1.703147   439061 
   22000    1.1235512    -1.818177    -1.818177  -0.13285399   0.65587513    -1.818177     1.685323   439061 
   23000    1.1140104   -1.8311055   -1.8311055  -0.16009379   0.65505715   -1.8311055    1.6710118   439061 
   24000    1.1032375   -1.8368485   -1.8368485  -0.18199592   0.64306522   -1.8368485    1.6548526   439061 
   25000    1.0944278   -1.8402781   -1.8402781  -0.19864009   0.60807976   -1.8402781     1.641638   439061 
   26000    1.0816124   -1.8333086   -1.8333086  -0.21089375   0.57854931   -1.8333086    1.6224149   439061 
   27000    1.0691619   -1.8246105   -1.8246105  -0.22087134   0.55148611   -1.8246105    1.6037392   439061 
   28000    1.0594533    -1.816174    -1.816174  -0.22699768   0.52077865    -1.816174    1.5891764   439061 
   29000    1.0485408   -1.8061557   -1.8061557  -0.23334813   0.49396356   -1.8061557    1.5728075   439061 
   30000    1.0367814   -1.7936242   -1.7936242  -0.23845562   0.47105741   -1.7936242    1.5551686   439061 
   31000    1.0289787     -1.78553     -1.78553  -0.24206543   0.44919559     -1.78553    1.5434646   439061 
   32000    1.0226893   -1.7783781   -1.7783781  -0.24434769   0.43968461   -1.7783781    1.5340304   439061 
   33000    1.0185509    -1.773721    -1.773721  -0.24589811   0.43593424    -1.773721    1.5278229   439061 
   34000    1.0158237   -1.7693365   -1.7693365  -0.24560443   0.43582866   -1.7693365     1.523732   439061 
   35000    1.0141603    -1.767074    -1.767074    -0.245837   0.42979768    -1.767074     1.521237   439061 
   36000    1.0133033   -1.7648304   -1.7648304  -0.24487888   0.42486933   -1.7648304    1.5199515   439061 
   37000    1.0121223   -1.7630005   -1.7630005   -0.2448205   0.42369814   -1.7630005      1.51818   439061 
   38000     1.011087   -1.7597043   -1.7597043  -0.24307727   0.42086738   -1.7597043    1.5166271   439061 
   39000    1.0073827   -1.7523224   -1.7523224   -0.2412518   0.41732857   -1.7523224    1.5110706   439061 
   40000    1.0061032   -1.7489415   -1.7489415  -0.23979011    0.4012633   -1.7489415    1.5091514   439061 
   41000    1.0029411   -1.7424697   -1.7424697  -0.23806151    0.3973697   -1.7424697    1.5044082   439061 
   42000    1.0040479   -1.7432051   -1.7432051  -0.23713667   0.39912246   -1.7432051    1.5060684   439061 
   43000    1.0075953   -1.7500007   -1.7500007  -0.23861122   0.42367608   -1.7500007    1.5113895   439061 
   44000    1.0098194    -1.763063    -1.763063  -0.24833731   0.45083627    -1.763063    1.5147257   439061 
   45000    1.0073797   -1.7797245   -1.7797245  -0.26865836   0.47405632   -1.7797245    1.5110661   439061 
   46000    1.0004792   -1.7913624   -1.7913624  -0.29064709   0.48398908   -1.7913624    1.5007153   439061 
   47000   0.99386928   -1.7992905   -1.7992905     -0.30849   0.46983901   -1.7992905    1.4908005   439061 
   48000    0.9860942   -1.8005679   -1.8005679  -0.32142995   0.46596687   -1.8005679    1.4791379   439061 
   49000   0.98288031   -1.8067057   -1.8067057  -0.33238861   0.45743229   -1.8067057    1.4743171   439061 
   50000   0.97938927   -1.8083475   -1.8083475  -0.33926696   0.45630283   -1.8083475    1.4690806   439061 
   51000   0.97657199   -1.8112691   -1.8112691   -0.3464144   0.44918969   -1.8112691    1.4648547   439061 
   52000   0.97270833   -1.8120867   -1.8120867  -0.35302754   0.44202797   -1.8120867    1.4590592   439061 
   53000   0.96835089   -1.8108165   -1.8108165  -0.35829342   0.43502388   -1.8108165     1.452523   439061 
   54000     0.964198   -1.8099477   -1.8099477  -0.36365395   0.42052901   -1.8099477    1.4462937   439061 
   55000   0.95903307   -1.8052641   -1.8052641  -0.36671781   0.40676806   -1.8052641    1.4385463   439061 
   56000   0.95453558   -1.8010229   -1.8010229  -0.36922282    0.3990246   -1.8010229    1.4318001   439061 
   57000   0.94977802   -1.7962634   -1.7962634  -0.37159964   0.38256154   -1.7962634    1.4246638   439061 
   58000   0.94555203   -1.7917112   -1.7917112   -0.3733864   0.37590948   -1.7917112    1.4183248   439061 
   59000   0.94356501   -1.7904017   -1.7904017  -0.37505745   0.37131511   -1.7904017    1.4153443   439061 
   60000   0.93989083   -1.7860372   -1.7860372  -0.37620415   0.36705632   -1.7860372     1.409833   439061 
   61000   0.93735834   -1.7834995   -1.7834995  -0.37746522   0.36303965   -1.7834995    1.4060343   439061 
   62000   0.93763568   -1.7834443   -1.7834443  -0.37699399    0.3581094   -1.7834443    1.4064503   439061 
   63000   0.93561243   -1.7804439   -1.7804439  -0.37702849   0.35544788   -1.7804439    1.4034155   439061 
   64000   0.93565712   -1.7796072   -1.7796072  -0.37612467   0.35004807   -1.7796072    1.4034825   439061 
   65000   0.93339611   -1.7757347   -1.7757347  -0.37564368   0.34699682   -1.7757347     1.400091   439061 
   66000   0.93349893   -1.7746742   -1.7746742    -0.374429   0.34419834   -1.7746742    1.4002452   439061 
   67000   0.93190836   -1.7728435   -1.7728435  -0.37498413   0.34007774   -1.7728435    1.3978594   439061 
   68000   0.93129495   -1.7705507   -1.7705507  -0.37361148   0.33669426   -1.7705507    1.3969392   439061 
   69000   0.93357773   -1.7721193   -1.7721193  -0.37175593   0.34267451   -1.7721193    1.4003634   439061 
   70000   0.93550166   -1.7770091   -1.7770091  -0.37375983   0.35218007   -1.7770091    1.4032493   439061 
   71000   0.93755566   -1.7844465   -1.7844465  -0.37811617   0.37005237   -1.7844465    1.4063303   439061 
   72000   0.93720627    -1.793516    -1.793516  -0.38770983   0.38591518    -1.793516    1.4058062   439061 
   73000   0.93480129   -1.8028098   -1.8028098  -0.40061106   0.39380673   -1.8028098    1.4021987   439061 
   74000   0.93189696   -1.8100396   -1.8100396  -0.41219732   0.39478212   -1.8100396    1.3978423   439061 
   75000   0.92854653   -1.8148962   -1.8148962  -0.42207958   0.39352126   -1.8148962    1.3928166   439061 
   76000   0.92629809   -1.8178181   -1.8178181  -0.42837409   0.39069536   -1.8178181     1.389444   439061 
   77000   0.92445794   -1.8213352   -1.8213352  -0.43465144   0.38022884   -1.8213352    1.3866838   439061 
   78000   0.92177296   -1.8212536   -1.8212536  -0.43859731   0.37395988   -1.8212536    1.3826563   439061 
   79000   0.91975686    -1.822198    -1.822198  -0.44256587   0.37656088    -1.822198    1.3796322   439061 
   80000   0.91688704   -1.8216625   -1.8216625  -0.44633507    0.3660104   -1.8216625    1.3753274   439061 
   81000    0.9151635   -1.8217662   -1.8217662   -0.4490241   0.36309404   -1.8217662    1.3727421   439061 
   82000   0.91317236   -1.8210957   -1.8210957  -0.45134024   0.35735175   -1.8210957    1.3697554   439061 
   83000    0.9098865    -1.819472    -1.819472  -0.45464531   0.35243001    -1.819472    1.3648266   439061 
   84000   0.90721987   -1.8171736   -1.8171736  -0.45634689   0.34516348   -1.8171736    1.3608267   439061 
   85000   0.90470391   -1.8147291   -1.8147291  -0.45767629   0.33999965   -1.8147291    1.3570528   439061 
   86000    0.9015383   -1.8117456   -1.8117456  -0.45944127   0.33490516   -1.8117456    1.3523044   439061 
   87000   0.90015527   -1.8105536   -1.8105536  -0.46032372   0.32749749   -1.8105536    1.3502298   439061 
   88000    0.8977907   -1.8078265   -1.8078265  -0.46114352   0.32946108   -1.8078265     1.346683   439061 
   89000   0.89802395   -1.8088586   -1.8088586  -0.46182575   0.32158511   -1.8088586    1.3470329   439061 
   90000   0.89596394   -1.8059926   -1.8059926  -0.46204975    0.3175212   -1.8059926    1.3439428   439061 
   91000   0.89581671   -1.8061618   -1.8061618  -0.46243983   0.31383114   -1.8061618     1.343722   439061 
   92000   0.89350553   -1.8029017   -1.8029017  -0.46264644   0.31723552   -1.8029017    1.3402552   439061 
   93000   0.89249987   -1.8011043   -1.8011043  -0.46235753   0.31321489   -1.8011043    1.3387468   439061 
   94000   0.89286966   -1.8010426   -1.8010426  -0.46174114   0.30991803   -1.8010426    1.3393014   439061 
   95000   0.89196189   -1.8000928   -1.8000928  -0.46215304   0.31089115   -1.8000928    1.3379398   439061 
   96000   0.89290903   -1.8028664   -1.8028664  -0.46350588    0.3055599   -1.8028664    1.3393605   439061 
   97000   0.89347767   -1.8035135   -1.8035135  -0.46330009   0.31118617   -1.8035135    1.3402134   439061 
   98000   0.89516722   -1.8082281   -1.8082281  -0.46548035   0.31507593   -1.8082281    1.3427478   439061 
   99000   0.89476432   -1.8110373   -1.8110373  -0.46889385   0.33104651   -1.8110373    1.3421434   439061 
  100000   0.89613019   -1.8175224   -1.8175224  -0.47333016   0.33634925   -1.8175224    1.3441922   439061 
  101000   0.89546761    -1.824185    -1.824185  -0.48098659   0.34452833    -1.824185    1.3431984   439061 
  102000   0.89482986   -1.8309809   -1.8309809  -0.48873912   0.34366792   -1.8309809    1.3422417   439061 
  103000   0.89154488   -1.8332325   -1.8332325  -0.49591827   0.34601198   -1.8332325    1.3373143   439061 
  104000   0.89016955   -1.8369341   -1.8369341  -0.50168278   0.34425575   -1.8369341    1.3352513   439061 
  105000   0.88698298    -1.836432    -1.836432  -0.50596056   0.34320926    -1.836432    1.3304714   439061 
  106000   0.88650697   -1.8383203   -1.8383203  -0.50856289   0.33685395   -1.8383203    1.3297574   439061 
  107000    0.8846103     -1.83918     -1.83918  -0.51226758   0.33101573     -1.83918    1.3269124   439061 
  108000   0.88364837   -1.8395504   -1.8395504  -0.51408084   0.32842964   -1.8395504    1.3254695   439061 
  109000    0.8817899   -1.8386111   -1.8386111  -0.51592925   0.32935189   -1.8386111    1.3226818   439061 
  110000    0.8790608   -1.8371006   -1.8371006  -0.51851242   0.32285362   -1.8371006    1.3185882   439061 
  111000   0.87812881   -1.8371005   -1.8371005  -0.51991024   0.31476665   -1.8371005    1.3171902   439061 
  112000   0.87704799   -1.8376174   -1.8376174   -0.5220484   0.31049091   -1.8376174     1.315569   439061 
  113000   0.87441587   -1.8351494   -1.8351494  -0.52352861   0.31180701   -1.8351494    1.3116208   439061 
  114000   0.87345522   -1.8344485   -1.8344485  -0.52426864   0.30852251   -1.8344485    1.3101799   439061 
  115000   0.87207993   -1.8342488   -1.8342488  -0.52613189   0.30401749   -1.8342488    1.3081169   439061 
  116000    0.8702162   -1.8331101   -1.8331101  -0.52778881   0.29954126   -1.8331101    1.3053213   439061 
  117000   0.86945362   -1.8326566   -1.8326566  -0.52847919   0.29177984   -1.8326566    1.3041775   439061 
  118000    0.8691557   -1.8316795   -1.8316795  -0.52794895   0.29581565   -1.8316795    1.3037306   439061 
  119000   0.86761392    -1.829813    -1.829813  -0.52839506   0.29186108    -1.829813    1.3014179   439061 
  120000   0.86642728   -1.8280629   -1.8280629  -0.52842491   0.29317062   -1.8280629     1.299638   439061 
  121000   0.86663756    -1.828646    -1.828646  -0.52869264   0.28684018    -1.828646    1.2999534   439061 
  122000   0.86602719   -1.8285248   -1.8285248  -0.52948702   0.28615817   -1.8285248    1.2990378   439061 
  123000    0.8647868   -1.8272968   -1.8272968  -0.53011959    0.2868551   -1.8272968    1.2971772   439061 
  124000   0.86542711   -1.8289007   -1.8289007  -0.53076296   0.28604825   -1.8289007    1.2981377   439061 
  125000   0.86610852   -1.8295401   -1.8295401  -0.53038028    0.2917907   -1.8295401    1.2991598   439061 
  126000   0.86710889   -1.8322428   -1.8322428  -0.53158239   0.29635507   -1.8322428    1.3006604   439061 
  127000    0.8681918      -1.8359      -1.8359  -0.53361525   0.29664893      -1.8359    1.3022847   439061 
  128000   0.86790411   -1.8390721   -1.8390721  -0.53721888   0.30095232   -1.8390721    1.3018532   439061 
  129000   0.86714074   -1.8423062   -1.8423062  -0.54159801   0.30609448   -1.8423062    1.3007081   439061 
  130000   0.86670281   -1.8449235   -1.8449235   -0.5448722   0.31071075   -1.8449235    1.3000513   439061 
  131000   0.86563788   -1.8480241   -1.8480241  -0.54957024     0.315386   -1.8480241    1.2984539   439061 
  132000   0.86356453   -1.8495549   -1.8495549  -0.55421108   0.31164595   -1.8495549    1.2953439   439061 
  133000   0.86317999   -1.8538905   -1.8538905  -0.55912348   0.31077287   -1.8538905     1.294767   439061 
  134000    0.8613992   -1.8543355   -1.8543355  -0.56223962   0.30749386   -1.8543355    1.2920959   439061 
  135000   0.85955356   -1.8541549   -1.8541549  -0.56482751   0.30708994   -1.8541549    1.2893274   439061 
  136000   0.85921083   -1.8552887   -1.8552887  -0.56647541   0.29856023   -1.8552887    1.2888133   439061 
  137000   0.85802305   -1.8550164   -1.8550164  -0.56798472   0.29799439   -1.8550164    1.2870316   439061 
  138000   0.85639172    -1.854241    -1.854241  -0.56965629   0.29774599    -1.854241    1.2845847   439061 
  139000   0.85601815   -1.8557966   -1.8557966  -0.57177234   0.29284978   -1.8557966    1.2840243   439061 
  140000   0.85305833   -1.8531404   -1.8531404  -0.57355582   0.29061027   -1.8531404    1.2795846   439061 
  141000   0.85253036   -1.8537913   -1.8537913  -0.57499865   0.28836988   -1.8537913    1.2787926   439061 
  142000   0.85113083   -1.8533261   -1.8533261  -0.57663279   0.28351963   -1.8533261    1.2766933   439061 
  143000   0.84996565   -1.8519818   -1.8519818  -0.57703628   0.28589617   -1.8519818    1.2749456   439061 
  144000   0.84856494   -1.8506923   -1.8506923  -0.57784778   0.28393376   -1.8506923    1.2728445   439061 
  145000    0.8473778   -1.8493711   -1.8493711  -0.57830732   0.27922077   -1.8493711    1.2710638   439061 
  146000   0.84744889   -1.8504813   -1.8504813  -0.57931083   0.27652442   -1.8504813    1.2711704   439061 
  147000   0.84652143   -1.8497019   -1.8497019  -0.57992264   0.27746795   -1.8497019    1.2697793   439061 
  148000   0.84643336    -1.848961    -1.848961  -0.57931384   0.27760355    -1.848961    1.2696471   439061 
  149000   0.84656809   -1.8489685   -1.8489685  -0.57911928   0.26747557   -1.8489685    1.2698492   439061 
  150000   0.84631608   -1.8490776   -1.8490776  -0.57960633   0.27267622   -1.8490776    1.2694712   439061 
  151000   0.84538251   -1.8484418   -1.8484418  -0.58037088   0.27191873   -1.8484418    1.2680709   439061 
  152000   0.84463746    -1.847994    -1.847994   -0.5810407   0.27392657    -1.847994    1.2669533   439061 
  153000     0.845559   -1.8501449   -1.8501449  -0.58180927   0.27099137   -1.8501449    1.2683356   439061 
  154000   0.84571177   -1.8518188   -1.8518188    -0.583254   0.27667008   -1.8518188    1.2685648   439061 
  155000   0.84576082   -1.8527171   -1.8527171  -0.58407875   0.27253766   -1.8527171    1.2686383   439061 
  156000   0.84572684   -1.8544437   -1.8544437  -0.58585635   0.28222458   -1.8544437    1.2685874   439061 
  157000   0.84621322   -1.8578066   -1.8578066   -0.5884897   0.27801282   -1.8578066    1.2693169   439061 
  158000   0.84497507   -1.8586782   -1.8586782  -0.59121846   0.28711742   -1.8586782    1.2674597   439061 
  159000   0.84566534   -1.8625577   -1.8625577   -0.5940626   0.28383295   -1.8625577    1.2684951   439061 
  160000   0.84299501   -1.8623855   -1.8623855  -0.59789582     0.287417   -1.8623855    1.2644896   439061 
  161000   0.84390969   -1.8658064   -1.8658064  -0.59994475   0.28640698   -1.8658064    1.2658617   439061 
  162000   0.84249279   -1.8662417   -1.8662417  -0.60250537   0.28808738   -1.8662417    1.2637363   439061 
  163000   0.84110939   -1.8683562   -1.8683562  -0.60669502   0.27879776   -1.8683562    1.2616612   439061 
  164000   0.84032162   -1.8698609   -1.8698609   -0.6093814   0.27994356   -1.8698609    1.2604796   439061 
  165000   0.83790524   -1.8680195   -1.8680195  -0.61116452   0.28268242   -1.8680195     1.256855   439061 
  166000   0.83855523   -1.8692549   -1.8692549  -0.61142494   0.27740254   -1.8692549      1.25783   439061 
  167000   0.83728148   -1.8694197   -1.8694197  -0.61350035   0.27195338   -1.8694197    1.2559194   439061 
  168000   0.83548925   -1.8680241   -1.8680241  -0.61479311   0.27328501   -1.8680241     1.253231   439061 
  169000   0.83611725   -1.8693898   -1.8693898  -0.61521676   0.26798803   -1.8693898     1.254173   439061 
  170000    0.8339087    -1.867485    -1.867485  -0.61662483   0.26759303    -1.867485    1.2508602   439061 
  171000   0.83271901   -1.8672238   -1.8672238   -0.6181481   0.26448383   -1.8672238    1.2490757   439061 
  172000   0.83190873   -1.8665098   -1.8665098  -0.61864951   0.26675333   -1.8665098    1.2478602   439061 
  173000   0.83164381   -1.8672776   -1.8672776  -0.61981472   0.26315697   -1.8672776    1.2474629   439061 
  174000   0.83099185   -1.8660704   -1.8660704  -0.61958547   0.26241076   -1.8660704    1.2464849   439061 
  175000   0.82967323   -1.8652968   -1.8652968  -0.62078981   0.26312226   -1.8652968     1.244507   439061 
  176000   0.82980452   -1.8664804   -1.8664804  -0.62177648   0.25955525   -1.8664804    1.2447039   439061 
  177000   0.82858641   -1.8652162   -1.8652162  -0.62233938   0.26020861   -1.8652162    1.2428768   439061 
  178000   0.82910544   -1.8665239   -1.8665239  -0.62286859   0.25849548   -1.8665239    1.2436553   439061 
  179000   0.82799531   -1.8664484   -1.8664484   -0.6244583   0.25883802   -1.8664484    1.2419901   439061 
  180000   0.82782955   -1.8673426   -1.8673426  -0.62560107   0.25678222   -1.8673426    1.2417415   439061 
  181000   0.82770653   -1.8681296   -1.8681296  -0.62657266   0.25424286   -1.8681296     1.241557   439061 
  182000   0.82697811   -1.8681028   -1.8681028  -0.62763845   0.25323229   -1.8681028    1.2404643   439061 
  183000   0.82601968   -1.8693494   -1.8693494  -0.63032275   0.25897394   -1.8693494    1.2390267   439061 
  184000   0.82670476   -1.8711839   -1.8711839  -0.63112963   0.25920327   -1.8711839    1.2400543   439061 
  185000    0.8270724   -1.8738497   -1.8738497  -0.63324393   0.25913692   -1.8738497    1.2406058   439061 
  186000   0.82594989    -1.873558    -1.873558  -0.63463597   0.26575169    -1.873558     1.238922   439061 
  187000   0.82552287   -1.8753259   -1.8753259  -0.63704438   0.26481523   -1.8753259    1.2382815   439061 
  188000   0.82606303   -1.8776239   -1.8776239  -0.63853219   0.26526836   -1.8776239    1.2390917   439061 
  189000   0.82619995   -1.8796025   -1.8796025  -0.64030541   0.26424648   -1.8796025    1.2392971   439061 
  190000   0.82498106    -1.879031    -1.879031  -0.64156228   0.26754961    -1.879031    1.2374688   439061 
  191000   0.82369294    -1.879931    -1.879931  -0.64439437   0.26712214    -1.879931    1.2355366   439061 
  192000   0.82363096   -1.8807102   -1.8807102  -0.64526656   0.26836153   -1.8807102    1.2354436   439061 
  193000   0.82351317   -1.8834962   -1.8834962  -0.64822925     0.263206   -1.8834962    1.2352669   439061 
  194000   0.82187426   -1.8823387   -1.8823387  -0.64953015   0.26265965   -1.8823387    1.2328086   439061 
  195000   0.82023382   -1.8827511   -1.8827511  -0.65240321   0.26271885   -1.8827511    1.2303479   439061 
  196000   0.81952898   -1.8825346   -1.8825346  -0.65324391   0.25972771   -1.8825346    1.2292907   439061 
  197000   0.81832573    -1.882059    -1.882059  -0.65457318   0.25777407    -1.882059    1.2274858   439061 
  198000   0.81864087   -1.8826155   -1.8826155    -0.654657   0.25241727   -1.8826155    1.2279585   439061 
  199000   0.81838394   -1.8832215   -1.8832215  -0.65564836   0.25233778   -1.8832215    1.2275731   439061 
  200000   0.81573333    -1.880193    -1.880193   -0.6565958    0.2504787    -1.880193    1.2235972   439061 
  201000   0.81595757   -1.8804726   -1.8804726  -0.65653908   0.24998946   -1.8804726    1.2239336   439061 
  202000   0.81510131   -1.8795831   -1.8795831  -0.65693393   0.24721965   -1.8795831    1.2226492   439061 
  203000   0.81518346   -1.8801968   -1.8801968  -0.65742437   0.24525714   -1.8801968    1.2227724   439061 
  204000   0.81487589   -1.8799543   -1.8799543  -0.65764327   0.24774946   -1.8799543    1.2223111   439061 
  205000     0.815148   -1.8808099   -1.8808099  -0.65809072   0.24435951   -1.8808099    1.2227192   439061 
  206000   0.81298454   -1.8793305   -1.8793305  -0.65985644   0.24330985   -1.8793305     1.219474   439061 
  207000   0.81294648   -1.8801057   -1.8801057  -0.66068879   0.24200026   -1.8801057    1.2194169   439061 
  208000    0.8133137   -1.8826299   -1.8826299  -0.66266209   0.24089799   -1.8826299    1.2199678   439061 
  209000   0.81163478    -1.880906    -1.880906  -0.66345656    0.2393653    -1.880906    1.2174494   439061 
  210000   0.81151039   -1.8806207   -1.8806207  -0.66335788   0.24840498   -1.8806207    1.2172628   439061 
  211000   0.81233404   -1.8842082   -1.8842082   -0.6657099   0.24213845   -1.8842082    1.2184983   439061 
  212000   0.81114233   -1.8831462   -1.8831462  -0.66643548   0.24381302   -1.8831462    1.2167107   439061 
  213000   0.81144487   -1.8851918   -1.8851918  -0.66802727   0.24422749   -1.8851918    1.2171645   439061 
  214000   0.81185206   -1.8854546   -1.8854546  -0.66767929   0.24633785   -1.8854546    1.2177753   439061 
  215000   0.81361108   -1.8889403   -1.8889403   -0.6685265   0.24745909   -1.8889403    1.2204138   439061 
  216000   0.81161058   -1.8888156   -1.8888156  -0.67140247   0.24399174   -1.8888156    1.2174131   439061 
  217000   0.81048272   -1.8879467   -1.8879467  -0.67222536     0.247067   -1.8879467    1.2157213   439061 
  218000   0.81029523   -1.8897808   -1.8897808  -0.67434071   0.24769937   -1.8897808    1.2154401   439061 
  219000   0.80957679   -1.8901913   -1.8901913  -0.67582888   0.24939448   -1.8901913    1.2143624   439061 
  220000   0.80918088   -1.8906206   -1.8906206  -0.67685209    0.2486679   -1.8906206    1.2137686   439061 
  221000   0.80903827   -1.8926873   -1.8926873  -0.67913268   0.24622082   -1.8926873    1.2135546   439061 
  222000   0.80889426   -1.8940129   -1.8940129  -0.68067423   0.24595936   -1.8940129    1.2133386   439061 
  223000   0.80619335   -1.8924829   -1.8924829  -0.68319562   0.24479521   -1.8924829    1.2092873   439061 
  224000    0.8069027   -1.8945493   -1.8945493    -0.684198   0.24197484   -1.8945493    1.2103513   439061 
  225000   0.80567175   -1.8941092   -1.8941092  -0.68560433   0.24259766   -1.8941092    1.2085049   439061 
  226000   0.80487369   -1.8936286   -1.8936286  -0.68632078   0.24243582   -1.8936286    1.2073078   439061 
  227000     0.804838   -1.8945309   -1.8945309  -0.68727663   0.23721613   -1.8945309    1.2072542   439061 
  228000   0.80297192   -1.8924723   -1.8924723  -0.68801715   0.23811104   -1.8924723    1.2044551   439061 
  229000   0.80295866   -1.8930721   -1.8930721  -0.68863681   0.23635053   -1.8930721    1.2044353   439061 
  230000   0.80207324   -1.8924317   -1.8924317  -0.68932457    0.2338089   -1.8924317    1.2031071   439061 
  231000   0.80151164   -1.8927024   -1.8927024  -0.69043765   0.23858316   -1.8927024    1.2022647   439061 
  232000   0.80176286    -1.894456    -1.894456  -0.69181442   0.23005431    -1.894456    1.2026416   439061 
  233000    0.8005519   -1.8932576   -1.8932576  -0.69243243   0.23050845   -1.8932576    1.2008251   439061 
  234000   0.80050387   -1.8947215   -1.8947215  -0.69396838   0.23257234   -1.8947215    1.2007531   439061 
  235000   0.79979239   -1.8946659   -1.8946659  -0.69498006   0.23458204   -1.8946659    1.1996859   439061 
  236000   0.79890055   -1.8948644   -1.8948644  -0.69651633   0.23324498   -1.8948644    1.1983481   439061 
  237000   0.79875684   -1.8956357   -1.8956357  -0.69750318   0.23761171   -1.8956357    1.1981325   439061 
  238000   0.79847969   -1.8960196   -1.8960196  -0.69830278   0.23158097   -1.8960196    1.1977168   439061 
  239000   0.79875748   -1.8975426   -1.8975426  -0.69940914   0.23221669   -1.8975426    1.1981335   439061 
  240000   0.79855862   -1.8983512   -1.8983512  -0.70051605   0.23012545   -1.8983512    1.1978352   439061 
  241000   0.79805527   -1.8984461   -1.8984461  -0.70136588   0.23136022   -1.8984461    1.1970802   439061 
  242000   0.79739158   -1.8983573   -1.8983573  -0.70227265   0.23211225   -1.8983573    1.1960846   439061 
  243000   0.79788829   -1.8999307   -1.8999307  -0.70310095   0.23043323   -1.8999307    1.1968297   439061 
  244000   0.79757259   -1.9001617   -1.9001617  -0.70380553   0.23692687   -1.9001617    1.1963562   439061 
  245000   0.79777792    -1.902367    -1.902367  -0.70570284     0.228163    -1.902367    1.1966641   439061 
  246000   0.79638127   -1.9018395   -1.9018395  -0.70727032   0.23035087   -1.9018395    1.1945692   439061 
  247000   0.79670258   -1.9044205   -1.9044205  -0.70936931   0.23267065   -1.9044205    1.1950512   439061 
  248000   0.79638798   -1.9044655   -1.9044655  -0.70988622     0.234002   -1.9044655    1.1945792   439061 
  249000   0.79500846   -1.9034904   -1.9034904  -0.71098041   0.23965665   -1.9034904      1.19251   439061 
  250000   0.79478332   -1.9036637   -1.9036637   -0.7114914   0.23272302   -1.9036637    1.1921723   439061 
  251000   0.79385695    -1.904538    -1.904538  -0.71375525   0.23111265    -1.904538    1.1907827   439061 
  252000   0.79211227   -1.9039235   -1.9039235  -0.71575778   0.23169762   -1.9039235    1.1881657   439061 
  253000   0.79317436   -1.9058935   -1.9058935  -0.71613463   0.22670602   -1.9058935    1.1897588   439061 
  254000   0.79300365   -1.9055227   -1.9055227  -0.71601995   0.22315089   -1.9055227    1.1895028   439061 
  255000   0.79219179   -1.9060161   -1.9060161  -0.71773109   0.22341719   -1.9060161     1.188285   439061 
  256000   0.79002842   -1.9047577   -1.9047577  -0.71971774   0.22590905   -1.9047577    1.1850399   439061 
  257000    0.7894585   -1.9050085   -1.9050085  -0.72082342   0.22054306   -1.9050085    1.1841851   439061 
  258000   0.78973768    -1.906162    -1.906162   -0.7215582   0.22208825    -1.906162    1.1846038   439061 
  259000   0.78955153   -1.9083976   -1.9083976  -0.72407304   0.22058226   -1.9083976    1.1843246   439061 
  260000   0.78840126   -1.9067165   -1.9067165  -0.72411733    0.2198032   -1.9067165    1.1825992   439061 
  261000   0.78776071   -1.9065817   -1.9065817   -0.7249433   0.22370213   -1.9065817    1.1816384   439061 
  262000   0.78809358   -1.9079495   -1.9079495  -0.72581183   0.21924817   -1.9079495    1.1821377   439061 
  263000   0.78861947   -1.9090736   -1.9090736   -0.7261471   0.21835121   -1.9090736    1.1829265   439061 
  264000   0.78780051   -1.9075547   -1.9075547  -0.72585667   0.21849804   -1.9075547    1.1816981   439061 
  265000   0.78769918    -1.909123    -1.909123  -0.72757694   0.21836962    -1.909123    1.1815461   439061 
  266000   0.78683105   -1.9088595   -1.9088595  -0.72861562   0.21674495   -1.9088595    1.1802439   439061 
  267000   0.78728534   -1.9101452   -1.9101452  -0.72921992   0.21947145   -1.9101452    1.1809253   439061 
  268000   0.78567641   -1.9103253   -1.9103253   -0.7318134    0.2183103   -1.9103253    1.1785119   439061 
  269000   0.78489068   -1.9099888   -1.9099888  -0.73265548   0.22038042   -1.9099888    1.1773333   439061 
  270000   0.78375191   -1.9087734   -1.9087734  -0.73314822   0.22860655   -1.9087734    1.1756252   439061 
  271000    0.7851826   -1.9128607   -1.9128607  -0.73508947    0.2220493   -1.9128607    1.1777712   439061 
  272000   0.78514219   -1.9139671   -1.9139671  -0.73625654   0.21958955   -1.9139671    1.1777106   439061 
  273000   0.78478781   -1.9138775   -1.9138775  -0.73669845   0.21601573   -1.9138775     1.177179   439061 
  274000   0.78523209   -1.9137563   -1.9137563   -0.7359109   0.22712802   -1.9137563    1.1778454   439061 
  275000   0.78452121   -1.9141524   -1.9141524   -0.7373733   0.22162594   -1.9141524    1.1767791   439061 
  276000   0.78375889   -1.9147382   -1.9147382  -0.73910254   0.21598292   -1.9147382    1.1756357   439061 
  277000   0.78356733   -1.9147051   -1.9147051  -0.73935676   0.22080473   -1.9147051    1.1753483   439061 
  278000   0.78210647   -1.9137848   -1.9137848  -0.74062771   0.22028541   -1.9137848     1.173157   439061 
  279000   0.78238493    -1.915708    -1.915708  -0.74213327   0.21362285    -1.915708    1.1735747   439061 
  280000   0.78206463   -1.9157854   -1.9157854  -0.74269117   0.21482127   -1.9157854    1.1730943   439061 
  281000   0.78180397   -1.9163273   -1.9163273  -0.74362405   0.21804389   -1.9163273    1.1727033   439061 
  282000   0.78129344     -1.91686     -1.91686  -0.74492251   0.21766183     -1.91686    1.1719375   439061 
  283000   0.78037144   -1.9167018   -1.9167018  -0.74614726    0.2151799   -1.9167018    1.1705545   439061 
  284000   0.77999987   -1.9168977   -1.9168977  -0.74690053   0.21016672   -1.9168977    1.1699971   439061 
  285000    0.7796689   -1.9169574   -1.9169574  -0.74745675   0.21455641   -1.9169574    1.1695007   439061 
  286000   0.77952271   -1.9172895   -1.9172895  -0.74800809   0.21202586   -1.9172895    1.1692814   439061 
  287000    0.7782866   -1.9162222   -1.9162222  -0.74879498   0.21299774   -1.9162222    1.1674272   439061 
  288000   0.77798182   -1.9163954   -1.9163954  -0.74942533   0.21178727   -1.9163954    1.1669701   439061 
  289000    0.7779879   -1.9171408   -1.9171408   -0.7501616   0.21294102   -1.9171408    1.1669792   439061 
  290000   0.77731787   -1.9161174   -1.9161174  -0.75014325   0.21337791   -1.9161174    1.1659741   439061 
  291000   0.77696472   -1.9163128   -1.9163128  -0.75086839   0.21018161   -1.9163128    1.1654444   439061 
  292000   0.77649611   -1.9162514   -1.9162514  -0.75150993   0.21290754   -1.9162514    1.1647415   439061 
  293000    0.7768292   -1.9185663   -1.9185663   -0.7533251   0.21091583   -1.9185663    1.1652412   439061 
  294000   0.77672602   -1.9192567   -1.9192567  -0.75417037   0.21087833   -1.9192567    1.1650864   439061 
  295000   0.77537114   -1.9185056   -1.9185056  -0.75545156   0.21320314   -1.9185056    1.1630541   439061 
  296000   0.77502439   -1.9191621   -1.9191621  -0.75662816   0.20787663   -1.9191621    1.1625339   439061 
  297000   0.77556768   -1.9210334   -1.9210334  -0.75768456   0.20748463   -1.9210334    1.1633489   439061 
  298000   0.77599127   -1.9216808   -1.9216808  -0.75769655   0.20794682   -1.9216808    1.1639843   439061 
  299000    0.7752774    -1.921476    -1.921476  -0.75856255   0.21051298    -1.921476    1.1629135   439061 
  300000   0.77300412   -1.9186374   -1.9186374   -0.7591339   0.20872541   -1.9186374    1.1595035   439061 
  301000   0.77392719   -1.9213834   -1.9213834  -0.76049521   0.20707474   -1.9213834    1.1608881   439061 
  302000   0.77301356   -1.9212458   -1.9212458  -0.76172814   0.20769618   -1.9212458    1.1595177   439061 
  303000   0.77313833    -1.921715    -1.921715  -0.76201015   0.21308912    -1.921715    1.1597048   439061 
  304000   0.77305878   -1.9228418   -1.9228418  -0.76325633   0.20909127   -1.9228418    1.1595855   439061 
  305000   0.77334137   -1.9240553   -1.9240553  -0.76404585   0.20757748   -1.9240553    1.1600094   439061 
  306000   0.77216426     -1.92405     -1.92405  -0.76580623   0.21124033     -1.92405    1.1582438   439061 
  307000   0.77243981   -1.9254921   -1.9254921  -0.76683505   0.20618009   -1.9254921    1.1586571   439061 
  308000   0.77207124   -1.9261092   -1.9261092  -0.76800495   0.20842255   -1.9261092    1.1581042   439061 
  309000    0.7719999   -1.9260356   -1.9260356  -0.76803835   0.20671896   -1.9260356    1.1579972   439061 
  310000   0.77047091   -1.9246452   -1.9246452  -0.76894146   0.20449848   -1.9246452    1.1557037   439061 
  311000   0.76972422   -1.9249696   -1.9249696  -0.77038589   0.20335154   -1.9249696    1.1545837   439061 
  312000   0.77067293   -1.9264262   -1.9264262  -0.77041947   0.20691329   -1.9264262    1.1560068   439061 
  313000   0.77076256   -1.9271843   -1.9271843  -0.77104311   0.20561391   -1.9271843    1.1561412   439061 
  314000   0.76995465   -1.9267445   -1.9267445  -0.77181515   0.20674651   -1.9267445    1.1549294   439061 
  315000   0.76852672   -1.9257627   -1.9257627  -0.77297523   0.20878932   -1.9257627    1.1527875   439061 
  316000   0.76833788   -1.9263435   -1.9263435  -0.77383928   0.20481989   -1.9263435    1.1525042   439061 
  317000   0.76873391   -1.9282974   -1.9282974  -0.77519918   0.19886924   -1.9282974    1.1530982   439061 
  318000   0.76816369   -1.9281334   -1.9281334  -0.77589044   0.20258487   -1.9281334    1.1522429   439061 
  319000   0.76765672   -1.9284617   -1.9284617   -0.7769792   0.20029275   -1.9284617    1.1514825   439061 
  320000   0.76626617   -1.9270208   -1.9270208  -0.77762419   0.20352429   -1.9270208    1.1493966   439061 
  321000   0.76640008   -1.9273912   -1.9273912  -0.77779368   0.20050664   -1.9273912    1.1495975   439061 
  322000   0.76644849   -1.9279005   -1.9279005  -0.77823042   0.20052457   -1.9279005    1.1496701   439061 
  323000   0.76666099   -1.9294813   -1.9294813  -0.77949247   0.19585709   -1.9294813    1.1499889   439061 
  324000   0.76453295   -1.9266991   -1.9266991  -0.77990226   0.19974946   -1.9266991    1.1467968   439061 
  325000   0.76464263   -1.9271964   -1.9271964  -0.78023502   0.19863007   -1.9271964    1.1469613   439061 
  326000   0.76574564   -1.9293201   -1.9293201  -0.78070427   0.19776774   -1.9293201    1.1486158   439061 
  327000   0.76475414   -1.9288551   -1.9288551  -0.78172647   0.19811998   -1.9288551    1.1471286   439061 
  328000   0.76520529   -1.9299669   -1.9299669  -0.78216159   0.19966566   -1.9299669    1.1478053   439061 
  329000   0.76477938   -1.9292479   -1.9292479  -0.78208141   0.20214476   -1.9292479    1.1471665   439061 
  330000   0.76385481   -1.9302777   -1.9302777  -0.78449806   0.20185083   -1.9302777    1.1457796   439061 
  331000   0.76398676   -1.9303525   -1.9303525  -0.78437497   0.19620134   -1.9303525    1.1459775   439061 
  332000   0.76257894    -1.929569    -1.929569  -0.78570323     0.198886    -1.929569    1.1438658   439061 
  333000   0.76387754   -1.9327756   -1.9327756   -0.7869619   0.19645173   -1.9327756    1.1458137   439061 
  334000   0.76249496   -1.9313824   -1.9313824  -0.78764253   0.19578894   -1.9313824    1.1437398   439061 
  335000   0.76236949    -1.932519    -1.932519  -0.78896738   0.19855964    -1.932519    1.1435516   439061 
  336000   0.76205017   -1.9321206   -1.9321206  -0.78904792   0.20093603   -1.9321206    1.1430727   439061 
  337000   0.76251589    -1.934601    -1.934601  -0.79082976   0.19645213    -1.934601    1.1437712   439061 
  338000   0.76261759   -1.9357917   -1.9357917  -0.79186794   0.19455671   -1.9357917    1.1439238   439061 
  339000   0.76037199   -1.9341091   -1.9341091  -0.79355367    0.2025393   -1.9341091    1.1405554   439061 
  340000   0.76112045   -1.9360576   -1.9360576  -0.79437949   0.19695316   -1.9360576    1.1416781   439061 
  341000   0.76164337   -1.9380036   -1.9380036  -0.79554116   0.19672826   -1.9380036    1.1424625   439061 
  342000   0.75992564   -1.9369248   -1.9369248  -0.79703897   0.19923336   -1.9369248    1.1398859   439061 
  343000   0.76044786   -1.9379626   -1.9379626  -0.79729343    0.1988336   -1.9379626    1.1406692   439061 
  344000   0.75938126   -1.9374581   -1.9374581   -0.7983888   0.19643051   -1.9374581    1.1390693   439061 
  345000   0.76033458   -1.9382825   -1.9382825  -0.79778318   0.19321167   -1.9382825    1.1404993   439061 
  346000   0.75848631   -1.9359706   -1.9359706  -0.79824376   0.19723592   -1.9359706    1.1377269   439061 
  347000   0.75869344   -1.9368251   -1.9368251  -0.79878749   0.18863935   -1.9368251    1.1380376   439061 
  348000   0.75732302   -1.9357482   -1.9357482   -0.7997663   0.19700924   -1.9357482    1.1359819   439061 
  349000   0.75823908    -1.937238    -1.937238  -0.79988199   0.19368214    -1.937238     1.137356   439061 
  350000   0.75787872   -1.9377502   -1.9377502   -0.8009347   0.19012233   -1.9377502    1.1368155   439061 
  351000   0.75776877   -1.9368235   -1.9368235  -0.80017289   0.19356581   -1.9368235    1.1366506   439061 
  352000   0.75694097   -1.9367278   -1.9367278  -0.80131897   0.19298842   -1.9367278    1.1354089   439061 
  353000   0.75682404   -1.9380762   -1.9380762  -0.80284275    0.1950431   -1.9380762    1.1352335   439061 
  354000   0.75693157   -1.9396787   -1.9396787   -0.8042839   0.18935228   -1.9396787    1.1353948   439061 
  355000   0.75658727   -1.9390326   -1.9390326  -0.80415428   0.19193896   -1.9390326    1.1348783   439061 
  356000   0.75614704   -1.9387094   -1.9387094  -0.80449142   0.19287948   -1.9387094     1.134218   439061 
  357000   0.75641064   -1.9408985   -1.9408985  -0.80628513    0.1898632   -1.9408985    1.1346134   439061 
  358000   0.75459148   -1.9394719   -1.9394719  -0.80758724   0.19022994   -1.9394719    1.1318846   439061 
  359000   0.75370982   -1.9388372   -1.9388372  -0.80827502   0.19128308   -1.9388372    1.1305622   439061 
  360000   0.75335658   -1.9405039   -1.9405039  -0.81047162   0.18869366   -1.9405039    1.1300323   439061 
  361000   0.75382139   -1.9407444   -1.9407444  -0.81001491   0.18613113   -1.9407444    1.1307295   439061 
  362000    0.7531313   -1.9408816   -1.9408816  -0.81118721   0.18847085   -1.9408816    1.1296944   439061 
  363000   0.75252902   -1.9406254   -1.9406254  -0.81183444   0.18731904   -1.9406254     1.128791   439061 
  364000   0.75299599   -1.9423617   -1.9423617  -0.81287025   0.18731456   -1.9423617    1.1294914   439061 
  365000   0.75273516   -1.9428026   -1.9428026   -0.8137024   0.18384053   -1.9428026    1.1291002   439061 
  366000   0.75179012   -1.9410803   -1.9410803  -0.81339767   0.18790632   -1.9410803    1.1276826   439061 
  367000   0.75026589   -1.9392088   -1.9392088  -0.81381258   0.18850736   -1.9392088    1.1253963   439061 
  368000   0.75214732   -1.9430204   -1.9430204  -0.81480201   0.18546938   -1.9430204    1.1282184   439061 
  369000   0.75229651   -1.9432388   -1.9432388  -0.81479659   0.18593185   -1.9432388    1.1284422   439061 
  370000   0.75100158   -1.9419638   -1.9419638  -0.81546399   0.18693333   -1.9419638    1.1264998   439061 
  371000   0.75179459   -1.9427169   -1.9427169  -0.81502757   0.18793449   -1.9427169    1.1276893   439061 
  372000   0.75102241    -1.942726    -1.942726  -0.81619493   0.18390008    -1.942726     1.126531   439061 
  373000   0.75043293   -1.9431296   -1.9431296  -0.81748277    0.1895938   -1.9431296    1.1256468   439061 
  374000    0.7512293   -1.9455776   -1.9455776   -0.8187362   0.18885552   -1.9455776    1.1268414   439061 
  375000   0.74995788   -1.9450332   -1.9450332  -0.82009891    0.1838356   -1.9450332    1.1249343   439061 
  376000   0.75068644   -1.9463428   -1.9463428  -0.82031568   0.18549557   -1.9463428    1.1260271   439061 
  377000    0.7502526   -1.9457827   -1.9457827   -0.8204064   0.18436284   -1.9457827    1.1253763   439061 
  378000   0.74908835   -1.9447807   -1.9447807  -0.82115074    0.1858897   -1.9447807      1.12363   439061 
  379000   0.74908592   -1.9464318   -1.9464318  -0.82280551   0.18578221   -1.9464318    1.1236263   439061 
  380000   0.74906237   -1.9469682   -1.9469682  -0.82337717   0.18563944   -1.9469682     1.123591   439061 
  381000    0.7490116   -1.9476976   -1.9476976  -0.82418274    0.1855733   -1.9476976    1.1235148   439061 
  382000   0.74786749     -1.94592     -1.94592  -0.82412128   0.18380173     -1.94592    1.1217987   439061 
  383000   0.74802328   -1.9466858   -1.9466858  -0.82465345   0.18170359   -1.9466858    1.1220324   439061 
  384000   0.74867599   -1.9480228   -1.9480228  -0.82501136   0.17975743   -1.9480228    1.1230114   439061 
  385000    0.7473523   -1.9464875   -1.9464875  -0.82546164   0.18194059   -1.9464875    1.1210259   439061 
  386000   0.74749908   -1.9465323   -1.9465323  -0.82528628   0.18147488   -1.9465323    1.1212461   439061 
  387000    0.7471657    -1.946897    -1.946897  -0.82615104   0.18027293    -1.946897     1.120746   439061 
  388000   0.74735473   -1.9473525   -1.9473525  -0.82632299   0.18070524   -1.9473525    1.1210295   439061 
  389000   0.74641657     -1.94605     -1.94605  -0.82642773   0.17936067     -1.94605    1.1196223   439061 
  390000   0.74606189   -1.9461667   -1.9461667  -0.82707645   0.18093278   -1.9461667    1.1190903   439061 
  391000   0.74602118   -1.9465208   -1.9465208  -0.82749154    0.1800496   -1.9465208    1.1190292   439061 
  392000    0.7459861    -1.946621    -1.946621  -0.82764437   0.17892947    -1.946621    1.1189766   439061 
  393000   0.74543748   -1.9469603   -1.9469603  -0.82880668    0.1811763   -1.9469603    1.1181537   439061 
  394000    0.7447612   -1.9467955   -1.9467955  -0.82965623    0.1790881   -1.9467955    1.1171393   439061 
  395000   0.74377408   -1.9461153   -1.9461153  -0.83045668   0.17948484   -1.9461153    1.1156586   439061 
  396000   0.74502441   -1.9484669   -1.9484669  -0.83093282   0.17692932   -1.9484669    1.1175341   439061 
  397000   0.74421401   -1.9479207   -1.9479207   -0.8316022   0.17942819   -1.9479207    1.1163185   439061 
  398000   0.74459791   -1.9489424   -1.9489424  -0.83204805    0.1797625   -1.9489424    1.1168943   439061 
  399000   0.74438897   -1.9501641   -1.9501641  -0.83358324   0.17632558   -1.9501641    1.1165809   439061 
  400000    0.7438749   -1.9494518   -1.9494518  -0.83364196   0.17764415   -1.9494518    1.1158098   439061 
  401000   0.74273974   -1.9497478   -1.9497478  -0.83564077   0.17377164   -1.9497478    1.1141071   439061 
  402000   0.74400377   -1.9519588   -1.9519588  -0.83595568    0.1781471   -1.9519588    1.1160031   439061 
  403000   0.74303781   -1.9506089   -1.9506089  -0.83605468   0.17656076   -1.9506089    1.1145542   439061 
  404000   0.74350543   -1.9518408   -1.9518408  -0.83658515   0.17446136   -1.9518408    1.1152556   439061 
  405000   0.74277943   -1.9512402   -1.9512402  -0.83707362   0.17998521   -1.9512402    1.1141666   439061 
  406000   0.74242788   -1.9508871   -1.9508871  -0.83724777   0.17698838   -1.9508871    1.1136393   439061 
  407000   0.74266124   -1.9515062   -1.9515062  -0.83751691   0.17669446   -1.9515062    1.1139893   439061 
  408000   0.74268766   -1.9514228   -1.9514228   -0.8373939   0.17834129   -1.9514228    1.1140289   439061 
  409000   0.74217137   -1.9518171   -1.9518171  -0.83856258   0.17686767   -1.9518171    1.1132545   439061 
  410000   0.74239544   -1.9533985   -1.9533985  -0.83980786   0.17162157   -1.9533985    1.1135906   439061 
  411000   0.74065929   -1.9522344   -1.9522344  -0.84124794     0.175238   -1.9522344    1.1109864   439061 
  412000   0.74083214   -1.9524617   -1.9524617  -0.84121601   0.17390294   -1.9524617    1.1112457   439061 
  413000   0.74091465   -1.9542438   -1.9542438  -0.84287437   0.16961657   -1.9542438    1.1113694   439061 
  414000   0.73984065   -1.9527534   -1.9527534  -0.84299496   0.17002672   -1.9527534    1.1097584   439061 
  415000   0.73964581   -1.9534479   -1.9534479  -0.84398172   0.17013347   -1.9534479    1.1094662   439061 
  416000   0.73922256   -1.9539478   -1.9539478  -0.84511653   0.17177121   -1.9539478    1.1088313   439061 
  417000   0.73747308   -1.9523768   -1.9523768  -0.84616973    0.1754812   -1.9523768    1.1062071   439061 
  418000   0.73842291    -1.954084    -1.954084  -0.84645219   0.17242982    -1.954084    1.1076318   439061 
  419000   0.73830334    -1.954759    -1.954759  -0.84730654   0.17160997    -1.954759    1.1074525   439061 
  420000   0.73774061   -1.9545264   -1.9545264  -0.84791805   0.17197441   -1.9545264    1.1066084   439061 
  421000   0.73802236   -1.9551184   -1.9551184  -0.84808739   0.16830601   -1.9551184     1.107031   439061 
  422000   0.73778415   -1.9549709   -1.9549709  -0.84829716   0.17278839   -1.9549709    1.1066737   439061 
  423000   0.73758374   -1.9550838   -1.9550838  -0.84871066   0.16989506   -1.9550838    1.1063731   439061 
  424000   0.73707014   -1.9551728   -1.9551728  -0.84957011   0.16837853   -1.9551728    1.1056027   439061 
  425000   0.73645931   -1.9540283   -1.9540283  -0.84934188   0.17136148   -1.9540283    1.1046864   439061 
  426000   0.73638076   -1.9552728   -1.9552728  -0.85070415   0.16791282   -1.9552728    1.1045686   439061 
  427000   0.73581265   -1.9549992   -1.9549992  -0.85128272   0.17097219   -1.9549992    1.1037165   439061 
  428000   0.73672517   -1.9569709   -1.9569709  -0.85188562   0.17034692   -1.9569709    1.1050852   439061 
  429000   0.73630592   -1.9564963   -1.9564963   -0.8520399   0.16972544   -1.9564963    1.1044564   439061 
  430000    0.7362086   -1.9571985   -1.9571985  -0.85288815   0.17052402   -1.9571985    1.1043104   439061 
  431000    0.7357332   -1.9571269   -1.9571269  -0.85352964   0.16962312   -1.9571269    1.1035973   439061 
  432000   0.73477248   -1.9567768   -1.9567768  -0.85462061   0.16840122   -1.9567768    1.1021562   439061 
  433000   0.73422348    -1.957457    -1.957457  -0.85612432   0.16972044    -1.957457    1.1013327   439061 
  434000   0.73534354   -1.9592147   -1.9592147  -0.85620194   0.16714298   -1.9592147    1.1030128   439061 
  435000   0.73497844   -1.9585957   -1.9585957  -0.85613053   0.17019744   -1.9585957    1.1024652   439061 
  436000   0.73385657   -1.9579747   -1.9579747  -0.85719238   0.17069503   -1.9579747    1.1007824   439061 
  437000   0.73358362   -1.9580863   -1.9580863  -0.85771342   0.16787021   -1.9580863    1.1003729   439061 
  438000   0.73422959   -1.9588131   -1.9588131  -0.85747122   0.16952993   -1.9588131    1.1013419   439061 
  439000   0.73257126   -1.9578432   -1.9578432  -0.85898883   0.16864605   -1.9578432    1.0988544   439061 
  440000   0.73312114   -1.9602512   -1.9602512  -0.86057199   0.16719022   -1.9602512    1.0996792   439061 
  441000   0.73217426   -1.9590402   -1.9590402  -0.86078128   0.16453497   -1.9590402    1.0982589   439061 
  442000    0.7317357   -1.9598382   -1.9598382  -0.86223718   0.16229794   -1.9598382    1.0976011   439061 
  443000    0.7317244   -1.9603048   -1.9603048  -0.86272069   0.16265196   -1.9603048    1.0975841   439061 
  444000   0.73251071   -1.9617486   -1.9617486  -0.86298506   0.15996965   -1.9617486    1.0987636   439061 
  445000   0.73145296   -1.9605238   -1.9605238  -0.86334683     0.160398   -1.9605238    1.0971769   439061 
  446000   0.73161898   -1.9610036   -1.9610036   -0.8635776   0.16217589   -1.9610036     1.097426   439061 
  447000   0.73173928   -1.9617257   -1.9617257  -0.86411931   0.16623012   -1.9617257    1.0976064   439061 
  448000   0.73063044   -1.9600072   -1.9600072  -0.86406404   0.16307168   -1.9600072    1.0959432   439061 
  449000   0.73172292   -1.9608696   -1.9608696  -0.86328778    0.1661767   -1.9608696    1.0975819   439061 
  450000   0.73202522   -1.9621729   -1.9621729  -0.86413755   0.15904898   -1.9621729    1.0980353   439061 
  451000   0.73091377   -1.9607845   -1.9607845  -0.86441633   0.16225677   -1.9607845    1.0963682   439061 
  452000   0.73250203   -1.9631753   -1.9631753  -0.86442474   0.16198438   -1.9631753    1.0987505   439061 
  453000   0.73127647   -1.9615432   -1.9615432    -0.864631   0.16336082   -1.9615432    1.0969122   439061 
  454000   0.73184764   -1.9627402   -1.9627402  -0.86497128   0.16591277   -1.9627402     1.097769   439061 
  455000   0.73102829   -1.9617036   -1.9617036  -0.86516363   0.16535696   -1.9617036    1.0965399   439061 
  456000   0.73113805   -1.9627122   -1.9627122  -0.86600759   0.16318499   -1.9627122    1.0967046   439061 
  457000   0.73040105   -1.9626354   -1.9626354   -0.8670363   0.16135245   -1.9626354    1.0955991   439061 
  458000   0.72999414   -1.9641909   -1.9641909  -0.86920215   0.15949786   -1.9641909    1.0949887   439061 
  459000   0.72834977    -1.962241    -1.962241  -0.86971881   0.16210554    -1.962241    1.0925222   439061 
  460000    0.7288147   -1.9635961   -1.9635961  -0.87037653   0.16178373   -1.9635961    1.0932196   439061 
  461000   0.72930812   -1.9646507   -1.9646507  -0.87069098   0.16207885   -1.9646507    1.0939597   439061 
  462000   0.72840178   -1.9634715   -1.9634715  -0.87087133   0.15984186   -1.9634715    1.0926002   439061 
  463000   0.72850806    -1.963723    -1.963723  -0.87096337   0.16244873    -1.963723    1.0927596   439061 
  464000   0.72860796   -1.9640951   -1.9640951   -0.8711857   0.16299214   -1.9640951    1.0929095   439061 
  465000   0.72800076   -1.9637206   -1.9637206   -0.8717219   0.16067583   -1.9637206    1.0919987   439061 
  466000    0.7280595   -1.9651787   -1.9651787  -0.87309189   0.16045101   -1.9651787    1.0920868   439061 
  467000   0.72833294   -1.9663072   -1.9663072  -0.87381026    0.1571537   -1.9663072    1.0924969   439061 
  468000   0.72664121   -1.9647432   -1.9647432  -0.87478389   0.16293857   -1.9647432    1.0899593   439061 
  469000   0.72689688   -1.9662061   -1.9662061  -0.87586327   0.15825778   -1.9662061    1.0903428   439061 
  470000   0.72666245   -1.9664617   -1.9664617  -0.87647052   0.15643975   -1.9664617    1.0899912   439061 
  471000   0.72620211   -1.9667753   -1.9667753  -0.87747464   0.15863691   -1.9667753    1.0893007   439061 
  472000   0.72502116   -1.9646826   -1.9646826  -0.87715333   0.16054639   -1.9646826    1.0875293   439061 
  473000   0.72591396   -1.9673851   -1.9673851  -0.87851669   0.15593904   -1.9673851    1.0888685   439061 
  474000   0.72529419   -1.9665758   -1.9665758    -0.878637   0.16071122   -1.9665758    1.0879388   439061 
  475000   0.72482461    -1.967202    -1.967202  -0.87996755   0.15594817    -1.967202    1.0872344   439061 
  476000   0.72447102    -1.968004    -1.968004  -0.88129991    0.1577656    -1.968004    1.0867041   439061 
  477000   0.72465471   -1.9684911   -1.9684911  -0.88151153   0.15277617   -1.9684911    1.0869796   439061 
  478000   0.72492129   -1.9684556   -1.9684556  -0.88107611   0.15507138   -1.9684556    1.0873795   439061 
  479000   0.72438846   -1.9676911   -1.9676911  -0.88111084   0.15516544   -1.9676911    1.0865802   439061 
  480000   0.72434346   -1.9678863   -1.9678863  -0.88137361   0.15721529   -1.9678863    1.0865127   439061 
  481000   0.72425097   -1.9674361   -1.9674361  -0.88106209   0.15808569   -1.9674361     1.086374   439061 
  482000   0.72407082   -1.9675141   -1.9675141  -0.88141032   0.15723373   -1.9675141    1.0861038   439061 
  483000   0.72452591    -1.968759    -1.968759  -0.88197265    0.1581714    -1.968759    1.0867864   439061 
  484000    0.7244252   -1.9700888   -1.9700888  -0.88345352   0.15671898   -1.9700888    1.0866353   439061 
  485000   0.72409856   -1.9692952   -1.9692952  -0.88314979   0.15572683   -1.9692952    1.0861454   439061 
  486000   0.72434047    -1.970992    -1.970992  -0.88448379   0.15579976    -1.970992    1.0865082   439061 
  487000   0.72434773   -1.9707658   -1.9707658  -0.88424673   0.15701445   -1.9707658    1.0865191   439061 
  488000   0.72290489     -1.97085     -1.97085  -0.88649518   0.15488026     -1.97085    1.0843549   439061 
  489000   0.72262134   -1.9705283   -1.9705283  -0.88659877   0.15597252   -1.9705283    1.0839295   439061 
  490000   0.72302474   -1.9717232   -1.9717232  -0.88718857   0.15729078   -1.9717232    1.0845346   439061 
  491000   0.72150951   -1.9710689   -1.9710689  -0.88880713   0.15645703   -1.9710689    1.0822618   439061 
  492000   0.72141192   -1.9718457   -1.9718457  -0.88973031   0.15519448   -1.9718457    1.0821154   439061 
  493000    0.7213279    -1.972591    -1.972591  -0.89060157   0.15333667    -1.972591    1.0819894   439061 
  494000   0.72107657   -1.9729972   -1.9729972  -0.89138481   0.15117668   -1.9729972    1.0816124   439061 
  495000   0.72097474   -1.9730797   -1.9730797  -0.89162007   0.15384055   -1.9730797    1.0814596   439061 
  496000    0.7197537   -1.9719925   -1.9719925  -0.89236446   0.15213386   -1.9719925    1.0796281   439061 
  497000   0.72068614    -1.973687    -1.973687  -0.89266029   0.15079768    -1.973687    1.0810268   439061 
  498000    0.7205992   -1.9742757   -1.9742757  -0.89337938   0.15063876   -1.9742757    1.0808963   439061 
  499000   0.71849026   -1.9713911   -1.9713911   -0.8936582   0.15052168   -1.9713911    1.0777329   439061 
  500000   0.72032442   -1.9741471   -1.9741471  -0.89366293   0.15191513   -1.9741471    1.0804842   439061 
  501000   0.71973565   -1.9723564   -1.9723564  -0.89275538   0.15007259   -1.9723564     1.079601   439061 
  502000   0.71879594   -1.9715248   -1.9715248  -0.89333336   0.15141852   -1.9715248    1.0781915   439061 
  503000   0.71972958   -1.9736563   -1.9736563  -0.89406442   0.14912851   -1.9736563    1.0795919   439061 
  504000   0.72007999   -1.9749537   -1.9749537  -0.89483618   0.14884755   -1.9749537    1.0801175   439061 
  505000   0.71939808   -1.9739881   -1.9739881  -0.89489345   0.15035664   -1.9739881    1.0790947   439061 
  506000   0.71882063   -1.9734893   -1.9734893  -0.89526085   0.15134411   -1.9734893    1.0782285   439061 
  507000   0.71899512   -1.9754508   -1.9754508  -0.89696058   0.15227134   -1.9754508    1.0784902   439061 
  508000   0.71814178   -1.9742167   -1.9742167  -0.89700648   0.15116318   -1.9742167    1.0772102   439061 
  509000   0.71802135   -1.9746757   -1.9746757   -0.8976461   0.15314621   -1.9746757    1.0770296   439061 
  510000   0.71830011   -1.9748351   -1.9748351  -0.89738741    0.1499076   -1.9748351    1.0774477   439061 
  511000   0.71850051   -1.9753648   -1.9753648  -0.89761645   0.15067874   -1.9753648    1.0777483   439061 
  512000   0.71685911   -1.9743861   -1.9743861  -0.89909994   0.14954509   -1.9743861    1.0752862   439061 
  513000   0.71684444   -1.9748017   -1.9748017  -0.89953747   0.15026207   -1.9748017    1.0752642   439061 
  514000   0.71761809   -1.9756518   -1.9756518  -0.89922712   0.14868081   -1.9756518    1.0764247   439061 
  515000   0.71711705    -1.976097    -1.976097  -0.90042389   0.14996582    -1.976097    1.0756731   439061 
  516000     0.716488   -1.9753941   -1.9753941  -0.90066456   0.14751676   -1.9753941    1.0747296   439061 
  517000   0.71760481   -1.9764315   -1.9764315  -0.90002674   0.14985508   -1.9764315    1.0764048   439061 
  518000   0.71661145   -1.9758265   -1.9758265  -0.90091179   0.14910727   -1.9758265    1.0749147   439061 
  519000   0.71522089   -1.9753328   -1.9753328  -0.90250394   0.14761295   -1.9753328    1.0728289   439061 
  520000   0.71564362   -1.9761936   -1.9761936  -0.90273059   0.14917815   -1.9761936     1.073463   439061 
  521000   0.71672871    -1.977432    -1.977432  -0.90234141   0.14683652    -1.977432    1.0750906   439061 
  522000   0.71580098   -1.9770383   -1.9770383  -0.90333924   0.15072759   -1.9770383     1.073699   439061 
  523000   0.71585914   -1.9777054   -1.9777054  -0.90391916   0.14592206   -1.9777054    1.0737863   439061 
  524000   0.71599796    -1.978139    -1.978139   -0.9041445   0.15104347    -1.978139    1.0739945   439061 
  525000   0.71615013   -1.9799993   -1.9799993  -0.90577659   0.14822814   -1.9799993    1.0742227   439061 
  526000   0.71555131   -1.9801916   -1.9801916   -0.9068671   0.14358443   -1.9801916    1.0733245   439061 
  527000   0.71392446   -1.9775507   -1.9775507  -0.90666648   0.14541979   -1.9775507    1.0708842   439061 
  528000   0.71474271    -1.980308    -1.980308  -0.90819637   0.14431705    -1.980308    1.0721116   439061 
  529000   0.71455572   -1.9801484   -1.9801484   -0.9083173   0.14618482   -1.9801484    1.0718311   439061 
  530000   0.71401995   -1.9799038   -1.9799038  -0.90887633   0.14513724   -1.9799038    1.0710275   439061 
  531000   0.71344045   -1.9785606   -1.9785606  -0.90840232   0.14725739   -1.9785606    1.0701582   439061 
  532000   0.71392162   -1.9803059   -1.9803059  -0.90942592   0.14699413   -1.9803059      1.07088   439061 
  533000   0.71337279   -1.9799953   -1.9799953  -0.90993857   0.14682071   -1.9799953    1.0700567   439061 
  534000   0.71401587   -1.9819872   -1.9819872  -0.91096587    0.1451838   -1.9819872    1.0710214   439061 
  535000   0.71274239    -1.981025    -1.981025  -0.91191383   0.14614712    -1.981025    1.0691111   439061 
  536000   0.71292964   -1.9819289   -1.9819289  -0.91253692   0.14530413   -1.9819289     1.069392   439061 
  537000   0.71226472   -1.9811504   -1.9811504  -0.91275575   0.14507873   -1.9811504    1.0683946   439061 
  538000   0.71313674   -1.9824022   -1.9824022  -0.91269956   0.14573037   -1.9824022    1.0697027   439061 
  539000   0.71277707    -1.982211    -1.982211  -0.91304778   0.14490276    -1.982211    1.0691632   439061 
  540000   0.71328586   -1.9833714   -1.9833714  -0.91344508   0.14154575   -1.9833714    1.0699263   439061 
  541000   0.71248004   -1.9827281   -1.9827281   -0.9140105   0.14572584   -1.9827281    1.0687176   439061 
  542000   0.71140687   -1.9818482   -1.9818482  -0.91474029   0.14503112   -1.9818482    1.0671079   439061 
  543000   0.71174618   -1.9827697   -1.9827697  -0.91515288    0.1404169   -1.9827697    1.0676168   439061 
  544000   0.71024223   -1.9813061   -1.9813061  -0.91594515   0.14686795   -1.9813061    1.0653609   439061 
  545000    0.7107979   -1.9820031   -1.9820031  -0.91580864    0.1419966   -1.9820031    1.0661944   439061 
  546000   0.71284928   -1.9856879   -1.9856879  -0.91641641    0.1440407   -1.9856879    1.0692715   439061 
  547000   0.71144507   -1.9842171   -1.9842171  -0.91705194   0.14368364   -1.9842171    1.0671652   439061 
  548000   0.71080944   -1.9839122   -1.9839122  -0.91770042   0.14218098   -1.9839122    1.0662117   439061 
  549000   0.71024202   -1.9823708   -1.9823708  -0.91701018   0.14491579   -1.9823708    1.0653606   439061 
  550000   0.71040843   -1.9832848   -1.9832848  -0.91767462   0.14344618   -1.9832848    1.0656102   439061 
  551000   0.70999785   -1.9835887   -1.9835887  -0.91859437   0.14468363   -1.9835887    1.0649944   439061 
  552000   0.71031834   -1.9849614   -1.9849614  -0.91948634   0.14311781   -1.9849614    1.0654751   439061 
  553000   0.70985418   -1.9847531   -1.9847531  -0.91997425   0.14330037   -1.9847531    1.0647788   439061 
  554000    0.7104902   -1.9862737   -1.9862737  -0.92054084   0.14372248   -1.9862737    1.0657329   439061 
  555000    0.7097654   -1.9860983   -1.9860983  -0.92145259   0.14484837   -1.9860983    1.0646457   439061 
  556000   0.70879866     -1.98479     -1.98479  -0.92159442   0.14473827     -1.98479    1.0631956   439061 
  557000   0.70886836    -1.985571    -1.985571  -0.92227087   0.14628407    -1.985571    1.0633001   439061 
  558000   0.70923162   -1.9866788   -1.9866788   -0.9228338   0.14239392   -1.9866788     1.063845   439061 
  559000   0.70900322   -1.9872374   -1.9872374  -0.92373501   0.13792199   -1.9872374    1.0635024   439061 
  560000   0.70886803   -1.9865509   -1.9865509  -0.92325125   0.14099418   -1.9865509    1.0632996   439061 
  561000   0.70846156   -1.9863541   -1.9863541  -0.92366415   0.14153955   -1.9863541    1.0626899   439061 
  562000   0.70701087   -1.9850616   -1.9850616  -0.92454771   0.13930482   -1.9850616    1.0605139   439061 
  563000   0.70714889   -1.9857326   -1.9857326  -0.92501172    0.1391288   -1.9857326    1.0607209   439061 
  564000   0.70776341   -1.9864071   -1.9864071  -0.92476443   0.13666269   -1.9864071    1.0616427   439061 
  565000   0.70804479   -1.9868346   -1.9868346  -0.92476984    0.1386534   -1.9868346    1.0620648   439061 
  566000   0.70774841   -1.9873358   -1.9873358  -0.92571556    0.1375452   -1.9873358    1.0616202   439061 
  567000    0.7069486   -1.9867416   -1.9867416  -0.92632108    0.1388841   -1.9867416    1.0604205   439061 
  568000   0.70644263   -1.9877561   -1.9877561  -0.92809455   0.13775466   -1.9877561    1.0596615   439061 
  569000   0.70665274   -1.9890222   -1.9890222  -0.92904551   0.13960865   -1.9890222    1.0599767   439061 
  570000   0.70660817   -1.9885117   -1.9885117  -0.92860187    0.1392194   -1.9885117    1.0599098   439061 
  571000   0.70583258   -1.9884204   -1.9884204  -0.92967389   0.14123012   -1.9884204    1.0587465   439061 
  572000   0.70666843   -1.9902038   -1.9902038   -0.9302036   0.13597925   -1.9902038    1.0600002   439061 
  573000   0.70598967   -1.9882572   -1.9882572  -0.92927511   0.13707838   -1.9882572    1.0589821   439061 
  574000   0.70704206   -1.9903648   -1.9903648  -0.92980417   0.13731806   -1.9903648    1.0605607   439061 
  575000   0.70615212   -1.9903336   -1.9903336  -0.93110788   0.13648115   -1.9903336    1.0592258   439061 
  576000   0.70462703   -1.9887971   -1.9887971  -0.93185893   0.13819363   -1.9887971    1.0569381   439061 
  577000    0.7051504   -1.9886775   -1.9886775  -0.93095432   0.14013472   -1.9886775    1.0577232   439061 
  578000   0.70531217   -1.9893458   -1.9893458  -0.93138001    0.1400296   -1.9893458    1.0579658   439061 
  579000   0.70531707   -1.9902702   -1.9902702  -0.93229704   0.13813374   -1.9902702    1.0579732   439061 
  580000   0.70442419   -1.9900216   -1.9900216  -0.93338776   0.13982902   -1.9900216    1.0566339   439061 
  581000   0.70385479   -1.9897407   -1.9897407  -0.93396093    0.1349652   -1.9897407    1.0557798   439061 
  582000   0.70328843   -1.9902044   -1.9902044  -0.93527411   0.13604788   -1.9902044    1.0549302   439061 
  583000   0.70364757   -1.9914536   -1.9914536  -0.93598468   0.13475633   -1.9914536     1.055469   439061 
  584000   0.70358828   -1.9908013   -1.9908013  -0.93542126   0.13537225   -1.9908013      1.05538   439061 
  585000   0.70241832   -1.9895447   -1.9895447  -0.93591962   0.13596663   -1.9895447    1.0536251   439061 
  586000   0.70360376   -1.9922276   -1.9922276  -0.93682441   0.13502499   -1.9922276    1.0554032   439061 
  587000   0.70351977   -1.9925659   -1.9925659  -0.93728867    0.1385542   -1.9925659    1.0552773   439061 
  588000   0.70310424   -1.9922967   -1.9922967  -0.93764274   0.13372987   -1.9922967     1.054654   439061 
  589000   0.70263065   -1.9922419   -1.9922419  -0.93829836   0.13525172   -1.9922419    1.0539436   439061 
  590000   0.70328672   -1.9934691   -1.9934691  -0.93854146   0.13706691   -1.9934691    1.0549277   439061 
  591000   0.70285874   -1.9935972   -1.9935972  -0.93931145   0.13425069   -1.9935972    1.0542857   439061 
  592000    0.7034246   -1.9947335   -1.9947335  -0.93959897   0.13798767   -1.9947335    1.0551345   439061 
  593000   0.70247513   -1.9931759   -1.9931759  -0.93946561   0.13571516   -1.9931759    1.0537103   439061 
  594000   0.70319227   -1.9937563   -1.9937563  -0.93897031    0.1369358   -1.9937563     1.054786   439061 
  595000   0.70296425   -1.9932935   -1.9932935  -0.93884958   0.13752115   -1.9932935     1.054444   439061 
  596000   0.70153452   -1.9921448   -1.9921448  -0.93984543   0.13540755   -1.9921448    1.0522994   439061 
  597000   0.70152659   -1.9930885   -1.9930885  -0.94080106   0.13086857   -1.9930885    1.0522875   439061 
  598000   0.70161256   -1.9929248   -1.9929248  -0.94050837   0.13367137   -1.9929248    1.0524164   439061 
  599000   0.70219116   -1.9935637   -1.9935637  -0.94027934    0.1320616   -1.9935637    1.0532843   439061 
  600000   0.70218035   -1.9941682   -1.9941682  -0.94090009   0.13207659   -1.9941682    1.0532681   439061 
  601000   0.70122307   -1.9925934   -1.9925934   -0.9407612   0.13120863   -1.9925934    1.0518322   439061 
  602000   0.70139309   -1.9932315   -1.9932315  -0.94114422   0.13180277   -1.9932315    1.0520872   439061 
  603000   0.70203974   -1.9941788   -1.9941788  -0.94112159   0.13314819   -1.9941788    1.0530572   439061 
  604000   0.70093582   -1.9934876   -1.9934876  -0.94208629    0.1339531   -1.9934876    1.0514013   439061 
  605000   0.70004564   -1.9917342   -1.9917342  -0.94166818   0.13613098   -1.9917342    1.0500661   439061 
  606000   0.70061896   -1.9924596   -1.9924596  -0.94153358   0.13407548   -1.9924596    1.0509261   439061 
  607000   0.70060566   -1.9925636   -1.9925636   -0.9416575   0.13179187   -1.9925636    1.0509061   439061 
  608000   0.69979649   -1.9925942   -1.9925942  -0.94290184   0.13152827   -1.9925942    1.0496923   439061 
  609000   0.69952229   -1.9934218   -1.9934218   -0.9441408   0.12770204   -1.9934218     1.049281   439061 
  610000   0.69903172   -1.9929477   -1.9929477  -0.94440246   0.13114935   -1.9929477    1.0485452   439061 
  611000   0.69947238   -1.9943817   -1.9943817  -0.94517554   0.13101681   -1.9943817    1.0492062   439061 
  612000   0.69901745   -1.9950313   -1.9950313  -0.94650755   0.12676538   -1.9950313    1.0485238   439061 
  613000   0.69893008   -1.9950612   -1.9950612  -0.94666848   0.12569982   -1.9950612    1.0483927   439061 
  614000   0.69913164   -1.9965194   -1.9965194  -0.94782429   0.12726847   -1.9965194    1.0486951   439061 
  615000   0.69904859   -1.9962164   -1.9962164  -0.94764592   0.13041393   -1.9962164    1.0485705   439061 
  616000   0.69784267   -1.9956268   -1.9956268  -0.94886514   0.13217538   -1.9956268    1.0467616   439061 
  617000     0.698253   -1.9969105   -1.9969105   -0.9495334    0.1314337   -1.9969105    1.0473771   439061 
  618000   0.69853101   -1.9987165   -1.9987165  -0.95092235   0.12417602   -1.9987165    1.0477941   439061 
  619000   0.69854575   -1.9977763   -1.9977763  -0.94996004    0.1316984   -1.9977763    1.0478162   439061 
  620000    0.6987415    -1.999321    -1.999321  -0.95121117   0.12856878    -1.999321    1.0481099   439061 
  621000   0.69908685   -2.0001024   -2.0001024  -0.95147452   0.13112196   -2.0001024    1.0486279   439061 
  622000   0.69790106   -1.9992711   -1.9992711  -0.95242192   0.12825748   -1.9992711    1.0468492   439061 
  623000   0.69935851    -2.000523    -2.000523  -0.95148765   0.13042806    -2.000523    1.0490354   439061 
  624000   0.69878149   -2.0000438   -2.0000438  -0.95187393    0.1290126   -2.0000438    1.0481698   439061 
  625000   0.69707278     -1.99876     -1.99876  -0.95315325   0.13138583     -1.99876    1.0456068   439061 
  626000   0.69767807   -2.0002816   -2.0002816   -0.9537669   0.12895008   -2.0002816    1.0465147   439061 
  627000   0.69780708   -2.0014558   -2.0014558  -0.95474753   0.12908214   -2.0014558    1.0467082   439061 
  628000   0.69775457   -2.0006897   -2.0006897  -0.95406025   0.13105893   -2.0006897    1.0466295   439061 
  629000   0.69721184   -1.9995939   -1.9995939  -0.95377855   0.12963746   -1.9995939    1.0458154   439061 
  630000   0.69763146   -2.0001185   -2.0001185  -0.95367365    0.1291177   -2.0001185    1.0464448   439061 
  631000      0.69739   -2.0010648   -2.0010648  -0.95498214   0.13111256   -2.0010648    1.0460826   439061 
  632000   0.69678952   -2.0003852   -2.0003852  -0.95520331    0.1286928   -2.0003852    1.0451819   439061 
  633000   0.69613436   -1.9998584   -1.9998584  -0.95565922   0.12666998   -1.9998584    1.0441992   439061 
  634000   0.69603689   -2.0000694   -2.0000694  -0.95601648   0.13006629   -2.0000694     1.044053   439061 
  635000   0.69537906   -1.9996971   -1.9996971  -0.95663091   0.12729318   -1.9996971    1.0430662   439061 
  636000   0.69630738    -2.000409    -2.000409  -0.95595026    0.1239747    -2.000409    1.0444587   439061 
  637000   0.69595066   -1.9996854   -1.9996854   -0.9557618   0.12895872   -1.9996854    1.0439236   439061 
  638000   0.69618976   -2.0002438   -2.0002438  -0.95596152      0.12392   -2.0002438    1.0442823   439061 
  639000    0.6965654   -2.0006455   -2.0006455  -0.95579978   0.12928171   -2.0006455    1.0448457   439061 
  640000   0.69472619   -1.9981167   -1.9981167  -0.95602978   0.12756601   -1.9981167    1.0420869   439061 
  641000   0.69557198   -1.9988778   -1.9988778  -0.95552217   0.12765372   -1.9988778    1.0433556   439061 
  642000   0.69436172   -1.9977967   -1.9977967  -0.95625655    0.1266785   -1.9977967    1.0415402   439061 
  643000   0.69604546   -1.9998428   -1.9998428  -0.95577696   0.12191161   -1.9998428    1.0440658   439061 
  644000   0.69480118   -1.9988079   -1.9988079  -0.95660854   0.12359564   -1.9988079    1.0421994   439061 
  645000   0.69505186   -2.0001942   -2.0001942  -0.95761876   0.12401894   -2.0001942    1.0425754   439061 
  646000   0.69481718    -1.999846    -1.999846  -0.95762259   0.12948226    -1.999846    1.0422234   439061 
  647000   0.69535743   -2.0004798   -2.0004798  -0.95744606   0.12631844   -2.0004798    1.0430338   439061 
  648000   0.69380014   -1.9987394   -1.9987394  -0.95804158   0.12681919   -1.9987394    1.0406978   439061 
  649000   0.69287582   -1.9985447   -1.9985447   -0.9592333   0.12181905   -1.9985447    1.0393114   439061 
  650000   0.69396385   -1.9992531   -1.9992531   -0.9583097   0.12313012   -1.9992531    1.0409434   439061 
  651000   0.69402173   -2.0001401   -2.0001401  -0.95910985   0.12348068   -2.0001401    1.0410302   439061 
  652000   0.69334733   -2.0003862   -2.0003862  -0.96036759   0.11867522   -2.0003862    1.0400186   439061 
  653000   0.69355653   -2.0012714   -2.0012714  -0.96093902   0.12208363   -2.0012714    1.0403324   439061 
  654000   0.69431062   -2.0018683   -2.0018683  -0.96040475   0.12477141   -2.0018683    1.0414636   439061 
  655000   0.69308307   -1.9998393   -1.9998393  -0.96021708   0.12730494   -1.9998393    1.0396222   439061 
  656000   0.69251236   -2.0005896   -2.0005896  -0.96182341   0.12348937   -2.0005896    1.0387662   439061 
  657000   0.69379263   -2.0033705   -2.0033705  -0.96268391   0.12184951   -2.0033705    1.0406866   439061 
  658000   0.69200719   -2.0016513   -2.0016513  -0.96364284   0.12152566   -2.0016513    1.0380084   439061 
  659000   0.69284221   -2.0040573   -2.0040573  -0.96479633   0.12279071   -2.0040573     1.039261   439061 
  660000   0.69126207   -2.0019529   -2.0019529  -0.96506215    0.1245289   -2.0019529    1.0368907   439061 
  661000   0.69233277   -2.0034795   -2.0034795  -0.96498274   0.12658305   -2.0034795    1.0384968   439061 
  662000   0.69223771   -2.0039122   -2.0039122  -0.96555796   0.12598308   -2.0039122    1.0383542   439061 
  663000   0.69236043   -2.0040812   -2.0040812   -0.9655429   0.12561287   -2.0040812    1.0385383   439061 
  664000   0.69237099   -2.0046936   -2.0046936  -0.96613949    0.1245822   -2.0046936    1.0385541   439061 
  665000   0.69175934   -2.0052992   -2.0052992  -0.96766256    0.1228857   -2.0052992    1.0376366   439061 
  666000   0.69168786   -2.0053198   -2.0053198  -0.96779041   0.12248516   -2.0053198    1.0375294   439061 
  667000   0.69108026   -2.0062585   -2.0062585  -0.96964045   0.12375447   -2.0062585     1.036618   439061 
  668000   0.69188321   -2.0065369   -2.0065369  -0.96871449   0.12457597   -2.0065369    1.0378224   439061 
  669000   0.69116816   -2.0062032   -2.0062032  -0.96945336     0.119582   -2.0062032    1.0367499   439061 
  670000   0.69182779   -2.0067513   -2.0067513  -0.96901199   0.12226878   -2.0067513    1.0377393   439061 
  671000   0.68980028   -2.0041728   -2.0041728  -0.96947474   0.12330354   -2.0041728    1.0346981   439061 
  672000    0.6903877   -2.0055439   -2.0055439  -0.96996469   0.11971879   -2.0055439    1.0355792   439061 
  673000   0.69041414   -2.0056515   -2.0056515  -0.97003269    0.1190594   -2.0056515    1.0356188   439061 
  674000   0.68971994   -2.0045829   -2.0045829  -0.97000533    0.1203562   -2.0045829    1.0345776   439061 
  675000   0.69051127   -2.0055137   -2.0055137  -0.96974919   0.12135601   -2.0055137    1.0357645   439061 
  676000   0.69008678   -2.0043027   -2.0043027  -0.96917493   0.12314587   -2.0043027    1.0351278   439061 
  677000   0.69086714   -2.0056445   -2.0056445  -0.96934616     0.119823   -2.0056445    1.0362984   439061 
  678000   0.68944908   -2.0036369   -2.0036369  -0.96946559   0.12185952   -2.0036369    1.0341713   439061 
  679000   0.69048225   -2.0061733   -2.0061733  -0.97045226   0.12162831   -2.0061733     1.035721   439061 
  680000   0.69102782   -2.0064216   -2.0064216  -0.96988221   0.12226908   -2.0064216    1.0365394   439061 
  681000    0.6896951   -2.0053114   -2.0053114  -0.97077112   0.11722771   -2.0053114    1.0345403   439061 
  682000   0.68992926   -2.0054348   -2.0054348  -0.97054325   0.12277698   -2.0054348    1.0348915   439061 
  683000   0.68958323   -2.0059326   -2.0059326  -0.97156015   0.11751332   -2.0059326    1.0343725   439061 
  684000   0.68949148    -2.007077    -2.007077  -0.97284209   0.11856245    -2.007077    1.0342349   439061 
  685000   0.68892739    -2.006411    -2.006411  -0.97302227   0.12028501    -2.006411    1.0333887   439061 
  686000   0.68893453   -2.0052929   -2.0052929  -0.97189343   0.12150095   -2.0052929    1.0333994   439061 
  687000   0.68879513   -2.0052601   -2.0052601  -0.97206976   0.12072313   -2.0052601    1.0331903   439061 
  688000   0.68932334   -2.0073937   -2.0073937  -0.97341105    0.1189838   -2.0073937    1.0339826   439061 
  689000   0.68784902   -2.0052158   -2.0052158  -0.97344465   0.12021208   -2.0052158    1.0317712   439061 
  690000   0.68855923   -2.0058805   -2.0058805  -0.97304398   0.11759557   -2.0058805    1.0328365   439061 
  691000   0.68867277   -2.0067629   -2.0067629  -0.97375608   0.11954304   -2.0067629    1.0330068   439061 
  692000   0.68748836   -2.0062616   -2.0062616  -0.97503139   0.12193375   -2.0062616    1.0312302   439061 
  693000   0.68801041   -2.0072804   -2.0072804  -0.97526716   0.11666222   -2.0072804    1.0320133   439061 
  694000   0.68792126   -2.0075603   -2.0075603  -0.97568071   0.11744101   -2.0075603    1.0318795   439061 
  695000   0.68858409   -2.0081119   -2.0081119  -0.97523808   0.11936447   -2.0081119    1.0328738   439061 
  696000   0.68804526   -2.0071203   -2.0071203  -0.97505474   0.11737594   -2.0071203    1.0320655   439061 
  697000   0.68807916   -2.0077402   -2.0077402  -0.97562377   0.11859974   -2.0077402    1.0321164   439061 
  698000   0.68854912   -2.0076556   -2.0076556  -0.97483424   0.11893759   -2.0076556    1.0328213   439061 
  699000   0.68766458   -2.0076696   -2.0076696  -0.97617506   0.11890985   -2.0076696    1.0314945   439061 
  700000   0.68740607   -2.0077589   -2.0077589  -0.97665216   0.11338465   -2.0077589    1.0311068   439061 
  701000   0.68660619   -2.0066919   -2.0066919  -0.97678491   0.11581672   -2.0066919    1.0299069   439061 
  702000   0.68641512   -2.0061915   -2.0061915  -0.97657121   0.11789807   -2.0061915    1.0296203   439061 
  703000   0.68661526   -2.0073904   -2.0073904  -0.97746984   0.11743863   -2.0073904    1.0299205   439061 
  704000   0.68676869    -2.008917    -2.008917  -0.97876631   0.11266069    -2.008917    1.0301507   439061 
[...]
 4832000   0.60700018   -2.3319546   -2.3319546   -1.4214564  0.041469384   -2.3319546    0.9104982   439061 
 4833000    0.6070834   -2.3316519   -2.3316519   -1.4210288  0.037780983   -2.3316519   0.91062302   439061 
 4834000   0.60657489     -2.33179     -2.33179   -1.4219297  0.040101983     -2.33179   0.90986026   439061 
 4835000   0.60537055   -2.3318378   -2.3318378    -1.423784  0.036924011   -2.3318378   0.90805376   439061 
 4836000   0.60620027   -2.3317684   -2.3317684   -1.4224701  0.037582924   -2.3317684   0.90929834   439061 
 4837000   0.60743195   -2.3326846   -2.3326846   -1.4215387  0.039133131   -2.3326846   0.91114585   439061 
 4838000   0.60684005    -2.330931    -2.330931    -1.420673  0.042469483    -2.330931     0.910258   439061 
 4839000   0.60734515   -2.3309864   -2.3309864   -1.4199707   0.04009042   -2.3309864   0.91101566   439061 
 4840000   0.60753928   -2.3316402   -2.3316402   -1.4203334  0.038676562   -2.3316402   0.91130684   439061 
 4841000   0.60792577   -2.3326178   -2.3326178   -1.4207312  0.041644019   -2.3326178   0.91188658   439061 
 4842000   0.60752375   -2.3317866   -2.3317866    -1.420503  0.041234806   -2.3317866   0.91128354   439061 
 4843000   0.60755538   -2.3316493   -2.3316493   -1.4203183  0.040413754   -2.3316493     0.911331   439061 
 4844000   0.60788729   -2.3317242   -2.3317242   -1.4198953  0.039575108   -2.3317242   0.91182886   439061 
 4845000   0.60775187   -2.3314091   -2.3314091   -1.4197834  0.038732663   -2.3314091   0.91162573   439061 
 4846000   0.60582181   -2.3292309   -2.3292309   -1.4205002  0.041722484   -2.3292309   0.90873065   439061 
 4847000   0.60755144   -2.3315871   -2.3315871    -1.420262  0.039289076   -2.3315871   0.91132509   439061 
 4848000   0.60709421   -2.3307229   -2.3307229   -1.4200837  0.036336282   -2.3307229   0.91063924   439061 
 4849000   0.60744525    -2.332374    -2.332374   -1.4212082  0.041220577    -2.332374    0.9111658   439061 
 4850000   0.60773474   -2.3328349   -2.3328349   -1.4212348  0.041243154   -2.3328349   0.91160004   439061 
 4851000   0.60593104   -2.3301285   -2.3301285    -1.421234  0.038820949   -2.3301285    0.9088945   439061 
 4852000   0.60676496   -2.3310854   -2.3310854     -1.42094  0.038500211   -2.3310854   0.91014537   439061 
 4853000   0.60666254   -2.3309841   -2.3309841   -1.4209923  0.042534742   -2.3309841   0.90999174   439061 
 4854000   0.60616971   -2.3308901   -2.3308901   -1.4216376  0.040627321   -2.3308901   0.90925249   439061 
 4855000   0.60712868   -2.3311269   -2.3311269    -1.420436  0.039650665   -2.3311269   0.91069094   439061 
 4856000   0.60749623    -2.331225    -2.331225   -1.4199827   0.03855317    -2.331225   0.91124227   439061 
 4857000   0.60760157   -2.3311723   -2.3311723    -1.419772  0.037727019   -2.3311723   0.91140027   439061 
 4858000   0.60664207   -2.3304907   -2.3304907   -1.4205297  0.038408076   -2.3304907   0.90996103   439061 
 4859000   0.60718224   -2.3305483   -2.3305483    -1.419777  0.037617214   -2.3305483   0.91077129   439061 
 4860000   0.60783436   -2.3320294   -2.3320294   -1.4202799   0.03471745   -2.3320294   0.91174947   439061 
 4861000   0.60685769   -2.3309095   -2.3309095    -1.420625  0.042873023   -2.3309095   0.91028447   439061 
 4862000   0.60778974   -2.3323732   -2.3323732   -1.4206907  0.036540598   -2.3323732   0.91168253   439061 
 4863000   0.60755338   -2.3321418   -2.3321418   -1.4208138  0.040915438   -2.3321418     0.911328   439061 
 4864000   0.60759075   -2.3326138   -2.3326138   -1.4212297  0.038747279   -2.3326138   0.91138405   439061 
 4865000   0.60847999   -2.3330686   -2.3330686   -1.4203507  0.042511939   -2.3330686   0.91271791   439061 
 4866000   0.60822621   -2.3330566   -2.3330566   -1.4207193  0.040985572   -2.3330566   0.91233723   439061 
 4867000   0.60779156   -2.3330582   -2.3330582    -1.421373  0.040166628   -2.3330582   0.91168526   439061 
 4868000   0.60703987   -2.3319968   -2.3319968   -1.4214391  0.039735053   -2.3319968   0.91055773   439061 
 4869000   0.60733395   -2.3337872   -2.3337872   -1.4227884  0.037640428   -2.3337872   0.91099885   439061 
 4870000   0.60640517   -2.3323319   -2.3323319   -1.4227262  0.041881693   -2.3323319   0.90960568   439061 
 4871000   0.60720749    -2.332389    -2.332389   -1.4215798  0.040146875    -2.332389   0.91080915   439061 
 4872000   0.60714857   -2.3328173   -2.3328173   -1.4220966  0.040691237   -2.3328173   0.91072077   439061 
 4873000   0.60814624   -2.3321635   -2.3321635   -1.4199463  0.039194286   -2.3321635   0.91221728   439061 
 4874000   0.60732835   -2.3315158   -2.3315158   -1.4205254  0.039957255   -2.3315158   0.91099045   439061 
 4875000   0.60741386    -2.331523    -2.331523   -1.4204043  0.040363313    -2.331523   0.91111871   439061 
 4876000   0.60741491   -2.3316284   -2.3316284   -1.4205082  0.039914729   -2.3316284   0.91112029   439061 
 4877000   0.60805304   -2.3321108   -2.3321108   -1.4200333  0.041773283   -2.3321108   0.91207749   439061 
 4878000   0.60745372   -2.3315347   -2.3315347   -1.4203562  0.036468031   -2.3315347    0.9111785   439061 
 4879000   0.60705508    -2.330405    -2.330405   -1.4198245  0.042666397    -2.330405   0.91058054   439061 
 4880000   0.60709588   -2.3308988   -2.3308988    -1.420257  0.038987148   -2.3308988   0.91064175   439061 
 4881000   0.60672286   -2.3306275   -2.3306275   -1.4205453  0.036857786   -2.3306275   0.91008221   439061 
 4882000   0.60610204   -2.3298182   -2.3298182   -1.4206672  0.036134679   -2.3298182   0.90915099   439061 
 4883000   0.60690648   -2.3311648   -2.3311648   -1.4208071  0.034540445   -2.3311648   0.91035764   439061 
 4884000   0.60710184    -2.331361    -2.331361   -1.4207103  0.039642509    -2.331361   0.91065069   439061 
 4885000   0.60741128   -2.3326019   -2.3326019   -1.4214871  0.037231315   -2.3326019   0.91111485   439061 
 4886000   0.60757881   -2.3321999   -2.3321999   -1.4208337  0.038252081   -2.3321999   0.91136613   439061 
 4887000   0.60557289   -2.3298344   -2.3298344   -1.4214772  0.035243478   -2.3298344   0.90835726   439061 
 4888000   0.60632418   -2.3310919   -2.3310919   -1.4216077  0.036201685   -2.3310919   0.90948419   439061 
 4889000   0.60608716   -2.3305244   -2.3305244   -1.4213957  0.031073418   -2.3305244   0.90912867   439061 
 4890000    0.6059304   -2.3310373   -2.3310373   -1.4221437  0.038791324   -2.3310373   0.90889352   439061 
 4891000   0.60667133   -2.3316392   -2.3316392   -1.4216343  0.034812168   -2.3316392   0.91000492   439061 
 4892000   0.60678048    -2.331461    -2.331461   -1.4212924  0.034982213    -2.331461   0.91016865   439061 
 4893000   0.60652125   -2.3305582   -2.3305582   -1.4207784  0.040541495   -2.3305582    0.9097798   439061 
 4894000   0.60679411   -2.3309277   -2.3309277   -1.4207386  0.037434698   -2.3309277   0.91018909   439061 
 4895000   0.60727517    -2.331954    -2.331954   -1.4210433  0.036353247    -2.331954   0.91091069   439061 
 4896000    0.6078181    -2.332513    -2.332513   -1.4207879  0.037090623    -2.332513   0.91172507   439061 
 4897000   0.60788091   -2.3322228   -2.3322228   -1.4204036  0.044941046   -2.3322228   0.91181928   439061 
 4898000   0.60822156   -2.3328107   -2.3328107   -1.4204804  0.039955518   -2.3328107   0.91233026   439061 
 4899000   0.60746438   -2.3316451   -2.3316451   -1.4204506   0.03965906   -2.3316451   0.91119449   439061 
 4900000   0.60887578   -2.3332979   -2.3332979   -1.4199863  0.038861517   -2.3332979   0.91331159   439061 
 4901000   0.60673476   -2.3314215   -2.3314215   -1.4213214  0.040445706   -2.3314215   0.91010007   439061 
 4902000    0.6062379   -2.3313434   -2.3313434   -1.4219886  0.038007186   -2.3313434   0.90935478   439061 
 4903000   0.60639063    -2.331716    -2.331716   -1.4221321  0.041707087    -2.331716   0.90958387   439061 
 4904000   0.60655435   -2.3316021   -2.3316021   -1.4217726  0.039399443   -2.3316021   0.90982946   439061 
 4905000   0.60763851   -2.3320906   -2.3320906   -1.4206349  0.040501428   -2.3320906   0.91145568   439061 
 4906000   0.60774702   -2.3326179   -2.3326179   -1.4209994   0.03859109   -2.3326179   0.91161846   439061 
 4907000   0.60671122   -2.3318256   -2.3318256   -1.4217608  0.039907578   -2.3318256   0.91006476   439061 
 4908000   0.60712342   -2.3324973   -2.3324973   -1.4218142  0.036864982   -2.3324973   0.91068305   439061 
 4909000   0.60814405   -2.3345139   -2.3345139   -1.4222999  0.038309895   -2.3345139     0.912214   439061 
 4910000    0.6070713   -2.3330331   -2.3330331   -1.4224282  0.039577749   -2.3330331   0.91060487   439061 
 4911000   0.60704302   -2.3327287   -2.3327287   -1.4221662   0.03881412   -2.3327287   0.91056245   439061 
 4912000   0.60694925   -2.3323962   -2.3323962   -1.4219744   0.03953641   -2.3323962    0.9104218   439061 
 4913000   0.60742844   -2.3333081   -2.3333081   -1.4221675  0.041045105   -2.3333081   0.91114058   439061 
 4914000   0.60676998   -2.3323384   -2.3323384   -1.4221855  0.038455306   -2.3323384   0.91015289   439061 
 4915000   0.60754223   -2.3334693   -2.3334693    -1.422158  0.038157576   -2.3334693   0.91131126   439061 
 4916000   0.60655483   -2.3323638   -2.3323638   -1.4225336  0.039054603   -2.3323638   0.90983017   439061 
 4917000   0.60631278   -2.3322844   -2.3322844   -1.4228173  0.036707976   -2.3322844    0.9094671   439061 
 4918000   0.60641623   -2.3322439   -2.3322439   -1.4226216  0.042201083   -2.3322439   0.90962228   439061 
 4919000    0.6072148   -2.3334177   -2.3334177   -1.4225976  0.039334419   -2.3334177   0.91082013   439061 
 4920000   0.60724634   -2.3338871   -2.3338871   -1.4230197  0.034672508   -2.3338871   0.91086743   439061 
 4921000   0.60676471   -2.3318122   -2.3318122   -1.4216672  0.042033347   -2.3318122   0.91014499   439061 
 4922000   0.60696041    -2.332305    -2.332305   -1.4218665  0.037981154    -2.332305   0.91043854   439061 
 4923000   0.60669407   -2.3319974   -2.3319974   -1.4219584  0.038157253   -2.3319974   0.91003903   439061 
 4924000   0.60661291   -2.3326993   -2.3326993    -1.422782  0.036710395   -2.3326993    0.9099173   439061 
 4925000   0.60622907   -2.3310637   -2.3310637   -1.4217222  0.037586383   -2.3310637   0.90934153   439061 
 4926000   0.60655109   -2.3313284   -2.3313284   -1.4215039   0.03965452   -2.3313284   0.90982456   439061 
 4927000   0.60599739   -2.3304308   -2.3304308   -1.4214368  0.038442363   -2.3304308   0.90899401   439061 
 4928000   0.60665011    -2.331837    -2.331837   -1.4218639  0.035269547    -2.331837   0.90997308   439061 
 4929000   0.60626569   -2.3325086   -2.3325086   -1.4231122  0.037867008   -2.3325086   0.90939647   439061 
 4930000   0.60661339   -2.3322389   -2.3322389   -1.4223209  0.040510232   -2.3322389   0.90991801   439061 
 4931000   0.60573352   -2.3320809   -2.3320809   -1.4234827  0.034924354   -2.3320809   0.90859821   439061 
 4932000   0.60700387   -2.3328879   -2.3328879   -1.4223842  0.035356862   -2.3328879   0.91050373   439061 
 4933000   0.60753277   -2.3331966   -2.3331966   -1.4218995  0.038636795   -2.3331966   0.91129708   439061 
 4934000   0.60775729   -2.3336151   -2.3336151   -1.4219813  0.038989075   -2.3336151   0.91163386   439061 
 4935000    0.6053925   -2.3309538   -2.3309538   -1.4228671  0.039090971   -2.3309538   0.90808668   439061 
 4936000   0.60611176   -2.3322459   -2.3322459   -1.4230803  0.039947182   -2.3322459   0.90916557   439061 
 4937000   0.60579819   -2.3325207   -2.3325207   -1.4238255  0.039260578   -2.3325207   0.90869521   439061 
 4938000   0.60622665   -2.3329014   -2.3329014   -1.4235635  0.038616078   -2.3329014    0.9093379   439061 
 4939000   0.60678775   -2.3336127   -2.3336127   -1.4234332   0.03829856   -2.3336127   0.91017955   439061 
 4940000       0.6062   -2.3325468   -2.3325468   -1.4232489  0.042104245   -2.3325468   0.90929792   439061 
 4941000   0.60642647    -2.333595    -2.333595   -1.4239574  0.037865318    -2.333595   0.90963764   439061 
 4942000   0.60636857    -2.332842    -2.332842   -1.4232913  0.041032356    -2.332842   0.90955079   439061 
 4943000    0.6070753   -2.3336353   -2.3336353   -1.4230244  0.040342214   -2.3336353   0.91061087   439061 
 4944000   0.60650804   -2.3328641   -2.3328641   -1.4231041  0.041957094   -2.3328641   0.90975999   439061 
 4945000   0.60658213   -2.3326388   -2.3326388   -1.4227677  0.040950485   -2.3326388   0.90987113   439061 
 4946000    0.6072221   -2.3340223   -2.3340223   -1.4231912  0.035548065   -2.3340223   0.91083107   439061 
 4947000   0.60744215   -2.3342639   -2.3342639   -1.4231027  0.034854476   -2.3342639   0.91116115   439061 
 4948000   0.60797426   -2.3355546   -2.3355546   -1.4235953  0.039901942   -2.3355546   0.91195931   439061 
 4949000   0.60783883   -2.3349825   -2.3349825   -1.4232263  0.038908507   -2.3349825   0.91175616   439061 
 4950000   0.60680356   -2.3332919   -2.3332919   -1.4230887  0.040633796   -2.3332919   0.91020326   439061 
 4951000   0.60791955   -2.3342579   -2.3342579   -1.4223806  0.043118671   -2.3342579   0.91187725   439061 
 4952000    0.6071761   -2.3334103   -2.3334103   -1.4226482  0.038933057   -2.3334103   0.91076207   439061 
 4953000     0.607472   -2.3330021   -2.3330021   -1.4217962  0.043649186   -2.3330021   0.91120592   439061 
 4954000   0.60831255   -2.3343692   -2.3343692   -1.4219024  0.035337158   -2.3343692   0.91246675   439061 
 4955000   0.60694301   -2.3318178   -2.3318178   -1.4214053  0.041248463   -2.3318178   0.91041245   439061 
 4956000   0.60705195   -2.3325581   -2.3325581   -1.4219823  0.039085498   -2.3325581   0.91057585   439061 
 4957000   0.60786888   -2.3332188   -2.3332188   -1.4214176  0.034420754   -2.3332188   0.91180124   439061 
 4958000   0.60760208   -2.3328216   -2.3328216   -1.4214206  0.038886302   -2.3328216   0.91140104   439061 
 4959000   0.60734461   -2.3324638   -2.3324638    -1.421449  0.036964216   -2.3324638   0.91101484   439061 
 4960000   0.60656892   -2.3319898   -2.3319898   -1.4221385  0.037622675   -2.3319898   0.90985131   439061 
 4961000   0.60519908   -2.3302646   -2.3302646   -1.4224681  0.033540067   -2.3302646   0.90779655   439061 
 4962000   0.60467197   -2.3304821   -2.3304821   -1.4234762  0.037201485   -2.3304821   0.90700589   439061 
 4963000   0.60643521   -2.3319864   -2.3319864   -1.4223357  0.037523332   -2.3319864   0.90965075   439061 
 4964000   0.60536224    -2.330236    -2.330236   -1.4221947  0.033133046    -2.330236   0.90804129   439061 
 4965000    0.6053815   -2.3299659   -2.3299659   -1.4218957  0.034394329   -2.3299659   0.90807018   439061 
 4966000   0.60584728    -2.330238    -2.330238   -1.4214692  0.033616682    -2.330238   0.90876885   439061 
 4967000   0.60633744   -2.3306766   -2.3306766   -1.4211726   0.03677905   -2.3306766   0.90950409   439061 
 4968000   0.60643412   -2.3311592   -2.3311592   -1.4215101  0.036708277   -2.3311592    0.9096491   439061 
 4969000    0.6062916   -2.3306753   -2.3306753   -1.4212399  0.035725186   -2.3306753   0.90943533   439061 
 4970000   0.60565197   -2.3295083   -2.3295083   -1.4210324  0.037751186   -2.3295083   0.90847589   439061 
 4971000   0.60754525   -2.3320318   -2.3320318    -1.420716  0.036577295   -2.3320318    0.9113158   439061 
 4972000   0.60703041   -2.3316617   -2.3316617   -1.4211182  0.037479224   -2.3316617   0.91054354   439061 
 4973000   0.60607979    -2.331109    -2.331109   -1.4219914  0.039280439    -2.331109   0.90911762   439061 
 4974000   0.60628962   -2.3314106   -2.3314106   -1.4219783  0.038810964   -2.3314106   0.90943236   439061 
 4975000   0.60657328   -2.3314885   -2.3314885   -1.4216307  0.036595657   -2.3314885   0.90985784   439061 
 4976000   0.60679778   -2.3315758   -2.3315758   -1.4213812  0.038551426   -2.3315758   0.91019459   439061 
 4977000   0.60704315   -2.3317534   -2.3317534   -1.4211908  0.039089548   -2.3317534   0.91056265   439061 
 4978000   0.60821595   -2.3331586   -2.3331586   -1.4208367  0.040100717   -2.3331586   0.91232185   439061 
 4979000   0.60702781    -2.331177    -2.331177   -1.4206373  0.041302769    -2.331177   0.91053965   439061 
 4980000   0.60638571   -2.3303696   -2.3303696   -1.4207932  0.037753775   -2.3303696   0.90957649   439061 
 4981000   0.60634515   -2.3314414   -2.3314414   -1.4219258  0.036660627   -2.3314414   0.90951566   439061 
 4982000   0.60761231   -2.3337403   -2.3337403   -1.4223239  0.038350074   -2.3337403   0.91141639   439061 
 4983000   0.60732455    -2.332402    -2.332402   -1.4214172  0.039598809    -2.332402   0.91098475   439061 
 4984000   0.60887983   -2.3350366   -2.3350366   -1.4217189  0.040124683   -2.3350366   0.91331766   439061 
 4985000   0.60777849   -2.3332229   -2.3332229   -1.4215573  0.039472009   -2.3332229   0.91166566   439061 
 4986000   0.60851206   -2.3342941   -2.3342941   -1.4215281  0.040949232   -2.3342941   0.91276601   439061 
 4987000   0.60677179   -2.3321742   -2.3321742   -1.4220186  0.040109652   -2.3321742   0.91015561   439061 
 4988000   0.60760647   -2.3338121   -2.3338121   -1.4224045  0.035620784   -2.3338121   0.91140763   439061 
 4989000    0.6068877   -2.3331302   -2.3331302   -1.4228007   0.03433055   -2.3331302   0.91032948   439061 
 4990000   0.60634128   -2.3319946   -2.3319946   -1.4224847  0.043346714   -2.3319946   0.90950985   439061 
 4991000   0.60707823    -2.333422    -2.333422   -1.4228067  0.037344665    -2.333422   0.91061527   439061 
 4992000   0.60764747   -2.3338866   -2.3338866   -1.4224175  0.038340601   -2.3338866   0.91146913   439061 
 4993000   0.60697249   -2.3331798   -2.3331798   -1.4227231  0.038487213   -2.3331798   0.91045666   439061 
 4994000   0.60659879   -2.3339303   -2.3339303   -1.4240342  0.036631058   -2.3339303   0.90989611   439061 
 4995000   0.60727385   -2.3338003   -2.3338003   -1.4228916  0.036727999   -2.3338003    0.9109087   439061 
 4996000   0.60594403   -2.3315491   -2.3315491   -1.4226351  0.037166412   -2.3315491   0.90891397   439061 
 4997000   0.60699236    -2.332687    -2.332687   -1.4222005  0.038994156    -2.332687   0.91048647   439061 
 4998000   0.60717069   -2.3328508   -2.3328508   -1.4220969  0.037798132   -2.3328508   0.91075395   439061 
 4999000   0.60746121   -2.3325762   -2.3325762   -1.4213864  0.038763778   -2.3325762   0.91118973   439061 
 5000000   0.60696643   -2.3332695   -2.3332695   -1.4228219  0.035108737   -2.3332695   0.91044757   439061 
Loop time of 5811.87 on 192 procs for 5000000 steps with 439061 atoms

Performance: 371653.170 tau/day, 860.308 timesteps/s
88.5% CPU use with 192 MPI tasks x 1 OpenMP threads

MPI task timing breakdown:
Section |  min time  |  avg time  |  max time  |%varavg|  %CPU | %total
-----------------------------------------------------------------------
Pair    | 1091.8     | 2350.5     | 2800.5     |1013.3 |  91.1 | 40.44
Bond    | 3.0393     | 3.3015     | 3.4467     |   3.8 | 100.0 |  0.06
Neigh   | 669.04     | 1051.9     | 1162.1     | 416.8 |  97.2 | 18.10
Comm    | 881.8      | 1741       | 3350.8     |1536.3 |  84.6 | 29.96
Output  | 277.04     | 277.42     | 277.44     |   0.2 |  67.7 |  4.77
Modify  | 129.95     | 226.06     | 688.11     |1105.5 |  87.5 |  3.89
Other   |            | 161.6      |            |       |       |  2.78

Nlocal:        2286.78 ave        2755 max        1814 min
Histogram: 2 0 4 4 72 100 6 2 0 2
Nghost:        2717.18 ave        2965 max        1931 min
Histogram: 3 6 20 12 4 3 0 2 39 103
Neighs:        37969.5 ave       44027 max       10914 min
Histogram: 2 6 8 6 0 2 0 1 83 84

Total # of neighbors = 7290149
Ave neighs/atom = 16.603955
Ave special neighs/atom = 0.0000000
Neighbor list builds = 499822
Dangerous builds = 481429
System init for write_data ...
Total wall time: 1:36:55
