LAMMPS (24 Dec 2020)
OMP_NUM_THREADS environment is not set. Defaulting to 1 thread. (src/comm.cpp:94)
  using 1 OpenMP thread(s) per MPI task
#Read the equilibrated lj fluid and add nanocubes

units           lj
atom_style      full
#atom_modify     map array first cubes
dimension       3
boundary        p p f
pair_style      lj/cut/opt 2.5

variable        sigma           equal 1.0
variable        epsilon         equal 1.0
read_restart	restart.dat.3000000
Reading restart file ...
  restart file = 24 Dec 2020, LAMMPS = 24 Dec 2020
  restoring atom style full from restart
  orthogonal box = (0.0000000 0.0000000 0.0000000) to (80.000000 80.000000 160.00000)
  6 by 4 by 12 MPI processor grid
  restoring pair style lj/cut/opt from restart
  520603 atoms
Finding 1-2 1-3 1-4 neighbors ...
  special bond factors lj:    0        0        0       
  special bond factors coul:  0        0        0       
     0 = max # of 1-2 neighbors
     0 = max # of 1-3 neighbors
     0 = max # of 1-4 neighbors
     1 = max # of special neighbors
  special bonds CPU = 2.655 seconds
  read_restart CPU = 3.207 seconds

group		solvent type 1
410875 atoms in group solvent
group 		hull  type 2
42816 atoms in group hull
group 		dummy type 3
66912 atoms in group dummy

neighbor      0.4 bin
neigh_modify  exclude molecule/intra cubes


pair_modify   shift yes

pair_coeff    1 1 1.0 1.0 #solvent
pair_coeff    2 2 1.0 1.0 1.12 #np
pair_coeff    3 3 0.0 0.0 0.0 #dummy
pair_coeff    2 3 0.0 0.0 0.0 #np dummy
pair_coeff    1 2 ${eps} ${sig} ${nscut} #np solvent
pair_coeff    1 2 5.0 ${sig} ${nscut} 
pair_coeff    1 2 5.0 1.0 ${nscut} 
pair_coeff    1 2 5.0 1.0 4.0 
pair_coeff    1 3 0.0 0.0 0.0 #dummy solvent


comm_modify   mode multi cutoff/multi 1 2.5 cutoff/multi 2 2.5 cutoff/multi 3 6.95

reset_timestep 	0

balance 	1.05 shift z 10 1.05
Balancing ...
Unused restart file global fix info:
  fix style: STORE, fix ID: msd_COMPUTE_STORE
Unused restart file peratom fix info:
  fix style: STORE, fix ID: bin1_COMPUTE_STORE
Neighbor list info ...
  update every 1 steps, delay 10 steps, check yes
  max neighbors/atom: 2000, page size: 100000
  master list distance cutoff = 4.4
  ghost atom cutoff = 6.95
  binsize = 2.2, bins = 37 37 73
  1 neighbor lists, perpetual/occasional/extra = 1 0 0
  (1) pair lj/cut/opt, perpetual
      attributes: half, newton on
      pair build: half/bin/newton
      stencil: half/bin/3d/newton
      bin: standard
 rebalancing time: 0.047 seconds
  iteration count = 5
  initial/final maximal load/proc = 3448.0000 3681.0000
  initial/final imbalance factor  = 1.9074496 2.0363463
  x cuts: 0.0000000 0.16666667 0.33333333 0.50000000 0.66666667 0.83333333 1.0000000
  y cuts: 0.0000000 0.25000000 0.50000000 0.75000000 1.0000000
  z cuts: 0.0000000 0.065104167 0.11197917 0.16927083 0.22395833 0.27604167 0.33854167 0.40364583 0.45572917 0.52343750 0.59114583 0.69010417 1.0000000

####################### WALLS ###########################

variable       epsilonWall equal 2*${epsilon}
variable       epsilonWall equal 2*1
variable       repulsive   equal   0.7147*${sigma}
variable       repulsive   equal   0.7147*1
variable       full	   equal   3*${sigma}
variable       full	   equal   3*1
region         lowWall block EDGE EDGE EDGE EDGE EDGE 2

fix            topWall all wall/lj93 zhi EDGE 	       ${epsilonWall} ${sigma} ${repulsive} units box
fix            topWall all wall/lj93 zhi EDGE 	       2 ${sigma} ${repulsive} units box
fix            topWall all wall/lj93 zhi EDGE 	       2 1 ${repulsive} units box
fix            topWall all wall/lj93 zhi EDGE 	       2 1 0.7147 units box
fix            lowSol solvent wall/lj93 zlo EDGE                ${epsilonWall} ${sigma} ${full} units box
fix            lowSol solvent wall/lj93 zlo EDGE                2 ${sigma} ${full} units box
fix            lowSol solvent wall/lj93 zlo EDGE                2 1 ${full} units box
fix            lowSol solvent wall/lj93 zlo EDGE                2 1 3 units box
fix 	       lowCub cubes wall/lj93 zlo EDGE                ${epsilonWall} ${sigma} ${repulsive} units box
fix 	       lowCub cubes wall/lj93 zlo EDGE                2 ${sigma} ${repulsive} units box
fix 	       lowCub cubes wall/lj93 zlo EDGE                2 1 ${repulsive} units box
fix 	       lowCub cubes wall/lj93 zlo EDGE                2 1 0.7147 units box


###################### COMPUTES ##########################

compute        bin1 solvent chunk/atom bin/1d z lower 1.0 units box


######################  FIXES ############################


fix             peclet solvent ave/chunk 10 10 10000 bin1 density/number norm                  none ave one file density.profile

fix              temp solvent ave/chunk 10 10 10000 bin1 temp norm                  none ave one file temp.profile

fix             1 cubes rigid/nve/small molecule
  create bodies CPU = 0.028 seconds
  96 rigid bodies with 109728 atoms
  6.9282032 = max distance from body owner to body atom

fix             2 solvent nve


## Thermostat
region          regthermo block EDGE EDGE EDGE EDGE 0 15
group           thermo dynamic solvent region regthermo every 1000
dynamic group thermo defined
fix             3 thermo langevin ${temp} ${temp} 10 156453
fix             3 thermo langevin 1.0 ${temp} 10 156453
fix             3 thermo langevin 1.0 1.0 10 156453

## Evaporation
region		regevap block EDGE EDGE EDGE EDGE 140 EDGE
fix		4 solvent evaporate ${evap} 1 regevap 156415
fix		4 solvent evaporate 135 1 regevap 156415


#### Load balancing

fix             bal all balance 1000 1.05 shift z 10 1.05

############### Diagnostics and computes ###################

compute        	com cubes          rigid/local   1 mol x y z
compute        	quat cubes         rigid/local   1 mol quatw quati quatj quatk

compute 	cc2 cubes 	   chunk/atom 	 molecule
compute 	msd cubes 	   msd/chunk 	 cc2

fix 		msd all ave/time  1 1 10000 c_msd[*] file dump.msd ave one mode vector

dump            1 all custom 500000 dump.lammpstrj id mol type x y z
dump		cubetrj hull custom 500000 cubes.lammpstrj id mol type x y z
dump            com cubes local 10000 dump.*.xyz c_com[*]
dump	        xyz hull xyz 100000 cubes.xyz
dump            quat cubes      local 10000 dump.*.quat c_quat[*]
#dump		mol cubes molfile 10000 mol.xyz xyz


dump            2 all image 10000 image.*.png type type
dump_modify     2 pad 8
dump		image cubes image 10000 image_cubes.*.png type type
dump_modify	image pad 8
dump            3 all movie 5000 movie.avi type type
dump		4 cubes movie 5000 movie_cubes.avi type type


thermo          1000
thermo_style    custom step temp epair evdwl etotal press pe ke atoms

restart         1000000 restart1.dat restart2.dat
timestep        0.005
timer           full
New timer settings: style=full  mode=nosync  timeout=off

run 		20000000
Per MPI rank memory allocation (min/avg/max) = 14.65 | 20.68 | 24.70 Mbytes
Step Temp E_pair E_vdwl TotEng Press PotEng KinEng Atoms 
       0     1.016952   -5.0144055   -5.0144055   -3.8099338  0.023977965   -5.0144055    1.2044718   520603 
    1000     1.016753   -5.0143146   -5.0143146   -3.8100623  0.080539264   -5.0143146    1.2042522   520596 
    2000    1.0177216   -5.0152833   -5.0152833   -3.8098676  0.070652943   -5.0152833    1.2054156   520589 
    3000      1.01758   -5.0155762   -5.0155762   -3.8103098  0.087736077   -5.0155762    1.2052664   520581 
    4000    1.0184098   -5.0167952   -5.0167952   -3.8105296  0.080706753   -5.0167952    1.2062655   520574 
    5000    1.0182465   -5.0166982   -5.0166982   -3.8106076   0.07147566   -5.0166982    1.2060906   520566 
    6000    1.0203552    -5.019472    -5.019472   -3.8108674  0.075564164    -5.019472    1.2086046   520559 
    7000    1.0176815   -5.0165412   -5.0165412   -3.8110874  0.070217056   -5.0165412    1.2054538   520552 
    8000    1.0188019   -5.0187569   -5.0187569   -3.8119575  0.079553152   -5.0187569    1.2067995   520544 
    9000    1.0170563   -5.0171845   -5.0171845   -3.8124366  0.086773393   -5.0171845    1.2047479   520537 
   10000    1.0186476   -5.0199278   -5.0199278   -3.8132763  0.081531804   -5.0199278    1.2066515   520529 
   11000    1.0195664   -5.0203158   -5.0203158   -3.8125598  0.071916081   -5.0203158    1.2077561   520522 
   12000    1.0187457   -5.0195667   -5.0195667   -3.8127665  0.073035466   -5.0195667    1.2068002   520515 
   13000    1.0185502   -5.0204989   -5.0204989   -3.8139118  0.075168425   -5.0204989    1.2065872   520507 
   14000    1.0180308   -5.0204324   -5.0204324   -3.8144443  0.089627956   -5.0204324    1.2059881   520500 
   15000    1.0186303   -5.0202926   -5.0202926   -3.8135758  0.072472367   -5.0202926    1.2067168   520492 
   16000    1.0168065   -5.0191867   -5.0191867   -3.8146144  0.075719601   -5.0191867    1.2045724   520485 
   17000    1.0170111   -5.0191473   -5.0191473   -3.8143163  0.077594349   -5.0191473     1.204831   520478 
   18000    1.0156339   -5.0164658   -5.0164658   -3.8132478  0.091181536   -5.0164658     1.203218   520470 
   19000     1.017833   -5.0205041   -5.0205041   -3.8146646  0.051841755   -5.0205041    1.2058395   520463 
   20000    1.0158252   -5.0186343   -5.0186343    -3.815155  0.074899729   -5.0186343    1.2034793   520455 
   21000    1.0149942    -5.018045    -5.018045    -3.815534  0.084056574    -5.018045    1.2025109   520448 
   22000     1.016169   -5.0191761   -5.0191761   -3.8152572  0.090366871   -5.0191761     1.203919   520441 
   23000    1.0153414    -5.016201    -5.016201    -3.813244  0.074248647    -5.016201     1.202957   520433 
   24000    1.0146824   -5.0157278   -5.0157278   -3.8135354  0.077742192   -5.0157278    1.2021924   520426 
   25000    1.0159536   -5.0162804   -5.0162804   -3.8125635  0.070827298   -5.0162804    1.2037169   520418 
   26000    1.0178087   -5.0180276   -5.0180276   -3.8120964  0.096865154   -5.0180276    1.2059312   520411 
   27000    1.0176726   -5.0173459   -5.0173459   -3.8115575  0.061067164   -5.0173459    1.2057884   520403 
   28000    1.0172563   -5.0175488   -5.0175488   -3.8122374  0.070398091   -5.0175488    1.2053114   520396 
   29000    1.0193644   -5.0192462   -5.0192462   -3.8114207  0.073857736   -5.0192462    1.2078255   520389 
   30000    1.0184547   -5.0191484   -5.0191484   -3.8123823  0.056973818   -5.0191484    1.2067661   520381 
   31000    1.0164724   -5.0171041   -5.0171041   -3.8126706    0.1154571   -5.0171041    1.2044335   520374 
   32000    1.0184334   -5.0183664   -5.0183664   -3.8115907  0.088279983   -5.0183664    1.2067756   520366 
   33000    1.0163965    -5.017471    -5.017471   -3.8130927  0.076389822    -5.017471    1.2043783   520359 
   34000    1.0150486   -5.0158328   -5.0158328   -3.8130356  0.058115346   -5.0158328    1.2027972   520352 
   35000    1.0167859   -5.0178926   -5.0178926   -3.8130182  0.088872161   -5.0178926    1.2048744   520344 
   36000    1.0145362   -5.0158273   -5.0158273   -3.8136026  0.059508635   -5.0158273    1.2022247   520337 
   37000    1.0145221   -5.0154642   -5.0154642   -3.8132376   0.03410864   -5.0154642    1.2022265   520329 
   38000     1.017417   -5.0194228   -5.0194228   -3.8137496  0.085843107   -5.0194228    1.2056733   520322 
   39000    1.0149464    -5.017775    -5.017775   -3.8150133  0.073296823    -5.017775    1.2027617   520315 
   40000    1.0156664   -5.0184521   -5.0184521   -3.8148187  0.074031105   -5.0184521    1.2036334   520307 
   41000    1.0161317    -5.019765    -5.019765    -3.815564  0.046347998    -5.019765    1.2042011   520300 
   42000    1.0158599   -5.0190956   -5.0190956   -3.8151982  0.084196948   -5.0190956    1.2038974   520292 
   43000    1.0140944   -5.0174013   -5.0174013     -3.81558  0.081577715   -5.0174013    1.2018213   520285 
   44000    1.0156607    -5.018671    -5.018671   -3.8149773  0.072371782    -5.018671    1.2036937   520278 
   45000    1.0160158   -5.0188446   -5.0188446   -3.8147115  0.090294394   -5.0188446     1.204133   520270 
   46000    1.0170861   -5.0195337   -5.0195337   -3.8141158   0.08205019   -5.0195337    1.2054178   520263 
   47000    1.0173154   -5.0196545   -5.0196545   -3.8139464  0.091177447   -5.0196545    1.2057081   520255 
   48000    1.0180439   -5.0201607   -5.0201607    -3.813573  0.065845163   -5.0201607    1.2065877   520248 
   49000    1.0154301   -5.0179453   -5.0179453   -3.8144392  0.086638147   -5.0179453    1.2035061   520241 
   50000    1.0161639   -5.0190148   -5.0190148   -3.8146205  0.067054698   -5.0190148    1.2043943   520233 
   51000     1.016203   -5.0189595   -5.0189595   -3.8145028  0.085006567   -5.0189595    1.2044568   520226 
   52000    1.0157202   -5.0194945   -5.0194945   -3.8155914  0.055832206   -5.0194945    1.2039031   520218 
   53000    1.0171423   -5.0199243   -5.0199243   -3.8143194  0.055380613   -5.0199243    1.2056049   520211 
   54000    1.0167005   -5.0194796   -5.0194796   -3.8143799  0.059925053   -5.0194796    1.2050997   520203 
   55000    1.0150082   -5.0185036   -5.0185036   -3.8153936  0.090304759   -5.0185036      1.20311   520196 
   56000    1.0159022   -5.0200011   -5.0200011   -3.8158151  0.073527451   -5.0200011    1.2041859   520189 
   57000    1.0162218    -5.019557    -5.019557   -3.8149738  0.095925428    -5.019557    1.2045832   520181 
   58000    1.0156864   -5.0193032   -5.0193032   -3.8153384  0.081845367   -5.0193032    1.2039649   520174 
   59000    1.0167338   -5.0196234   -5.0196234   -3.8143984  0.079896869   -5.0196234     1.205225   520166 
   60000    1.0149769   -5.0169469   -5.0169469   -3.8137884  0.075955553   -5.0169469    1.2031585   520159 
   61000     1.016426   -5.0192659   -5.0192659   -3.8143734  0.085464955   -5.0192659    1.2048925   520152 
   62000    1.0167833   -5.0194797   -5.0194797    -3.814145   0.06720687   -5.0194797    1.2053346   520144 
   63000     1.015649   -5.0188591   -5.0188591   -3.8148529  0.083757834   -5.0188591    1.2040061   520137 
   64000    1.0141977   -5.0179072   -5.0179072    -3.815603  0.082418255   -5.0179072    1.2023042   520129 
   65000    1.0162945   -5.0200276   -5.0200276   -3.8152215  0.061551038   -5.0200276    1.2048061   520122 
   66000    1.0125259   -5.0157551   -5.0157551   -3.8154004  0.060271449   -5.0157551    1.2003547   520115 
   67000    1.0135186   -5.0171514   -5.0171514   -3.8156015  0.049708155   -5.0171514      1.20155   520107 
   68000    1.0154605    -5.019166    -5.019166   -3.8152977  0.081765759    -5.019166    1.2038683   520100 
   69000    1.0158389   -5.0201665   -5.0201665    -3.815831  0.096235719   -5.0201665    1.2043355   520092 
   70000    1.0161823    -5.021114    -5.021114   -3.8163552  0.078193529    -5.021114    1.2047588   520085 
   71000    1.0137383   -5.0183909   -5.0183909   -3.8165134  0.071582091   -5.0183909    1.2018775   520078 
   72000    1.0148899   -5.0200939   -5.0200939   -3.8168326  0.065546736   -5.0200939    1.2032613   520070 
   73000    1.0142347   -5.0193438   -5.0193438   -3.8168431   0.06590628   -5.0193438    1.2025006   520063 
   74000    1.0135035   -5.0169649   -5.0169649   -3.8153126  0.081101206   -5.0169649    1.2016523   520055 
   75000    1.0168081   -5.0215363   -5.0215363   -3.8159497  0.065855218   -5.0215363    1.2055865   520048 
   76000    1.0151445   -5.0193811   -5.0193811   -3.8157508   0.10593468   -5.0193811    1.2036303   520041 
   77000    1.0160752   -5.0205751   -5.0205751   -3.8158228  0.078776534   -5.0205751    1.2047523   520033 
   78000    1.0150723   -5.0188403   -5.0188403   -3.8152609  0.074015081   -5.0188403    1.2035794   520026 
   79000    1.0153283   -5.0203324   -5.0203324    -3.816431  0.059878843   -5.0203324    1.2039014   520018 
   80000    1.0169647   -5.0210833   -5.0210833   -3.8152254  0.080099072   -5.0210833     1.205858   520011 
   81000    1.0164004   -5.0199674   -5.0199674     -3.81476  0.076982922   -5.0199674    1.2052074   520003 
   82000    1.0150986   -5.0179847   -5.0179847   -3.8143047   0.09233553   -5.0179847      1.20368   519996 
   83000    1.0154921   -5.0194216   -5.0194216   -3.8152588  0.087154462   -5.0194216    1.2041628   519989 
   84000    1.0155998   -5.0189229   -5.0189229   -3.8146139  0.095344087   -5.0189229     1.204309   519981 
   85000    1.0142819   -5.0185436   -5.0185436   -3.8157812  0.057609732   -5.0185436    1.2027624   519974 
   86000    1.0135887   -5.0184354   -5.0184354   -3.8164765  0.096372299   -5.0184354    1.2019589   519966 
   87000    1.0138876   -5.0190503   -5.0190503   -3.8167207  0.078932896   -5.0190503    1.2023295   519959 
   88000    1.0159812   -5.0219618   -5.0219618   -3.8171332  0.056557828   -5.0219618    1.2048285   519952 
   89000    1.0155061   -5.0210998   -5.0210998   -3.8168161  0.086377077   -5.0210998    1.2042836   519944 
   90000    1.0147228   -5.0198958   -5.0198958   -3.8165249  0.078201532   -5.0198958    1.2033709   519937 
   91000    1.0151733   -5.0200632   -5.0200632   -3.8161395  0.078997291   -5.0200632    1.2039237   519929 
   92000    1.0157083   -5.0211749   -5.0211749   -3.8166005  0.077513608   -5.0211749    1.2045744   519922 
   93000    1.0148084   -5.0208613   -5.0208613   -3.8173379  0.063486312   -5.0208613    1.2035234   519915 
   94000    1.0167343   -5.0236283   -5.0236283   -3.8178023  0.071444948   -5.0236283     1.205826   519907 
   95000    1.0141184   -5.0192619   -5.0192619   -3.8165221  0.066674978   -5.0192619    1.2027398   519900 
   96000    1.0160836   -5.0217605   -5.0217605   -3.8166715  0.072702774   -5.0217605     1.205089   519892 
   97000    1.0148184    -5.020732    -5.020732   -3.8171273  0.070060487    -5.020732    1.2036047   519885 
   98000    1.0162849   -5.0226589   -5.0226589   -3.8172987  0.084460509   -5.0226589    1.2053602   519878 
   99000    1.0161647   -5.0227289   -5.0227289   -3.8174927  0.063000758   -5.0227289    1.2052362   519870 
  100000    1.0170754   -5.0227382   -5.0227382   -3.8164056  0.067864423   -5.0227382    1.2063326   519863 
  101000    1.0165679   -5.0228959   -5.0228959   -3.8171467  0.069978417   -5.0228959    1.2057492   519855 
  102000     1.016985   -5.0230369   -5.0230369   -3.8167768  0.082214244   -5.0230369    1.2062601   519848 
  103000    1.0153077   -5.0214003   -5.0214003   -3.8171134  0.063817716   -5.0214003    1.2042869   519841 
  104000    1.0153782   -5.0219657   -5.0219657   -3.8175766  0.077692795   -5.0219657    1.2043891   519833 
  105000    1.0154364   -5.0222863   -5.0222863    -3.817812   0.10046654   -5.0222863    1.2044743   519826 
  106000    1.0154057   -5.0225972   -5.0225972   -3.8181408  0.080028099   -5.0225972    1.2044564   519818 
  107000    1.0154409   -5.0232244   -5.0232244     -3.81871  0.079013711   -5.0232244    1.2045144   519811 
  108000    1.0147231   -5.0223277   -5.0223277   -3.8186462  0.066929444   -5.0223277    1.2036815   519803 
  109000    1.0133611    -5.020745    -5.020745   -3.8186629  0.078022769    -5.020745    1.2020821   519796 
  110000    1.0142256   -5.0215875   -5.0215875   -3.8184637  0.083725525   -5.0215875    1.2031237   519789 
  111000    1.0149216   -5.0229734   -5.0229734   -3.8190054  0.094803397   -5.0229734    1.2039679   519781 
  112000     1.013954   -5.0214701   -5.0214701   -3.8186338  0.073712146   -5.0214701    1.2028363   519774 
  113000    1.0140347   -5.0217369   -5.0217369   -3.8187864  0.065838597   -5.0217369    1.2029505   519766 
  114000    1.0142288   -5.0213642   -5.0213642   -3.8181671  0.068067621   -5.0213642     1.203197   519759 
  115000    1.0124214   -5.0192986   -5.0192986   -3.8182296  0.075007014   -5.0192986     1.201069   519752 
  116000    1.0129413    -5.019845    -5.019845   -3.8181407  0.071254226    -5.019845    1.2017042   519744 
  117000    1.0136297   -5.0202213   -5.0202213   -3.8176842   0.10356769   -5.0202213    1.2025371   519737 
  118000    1.0155323   -5.0219495   -5.0219495   -3.8171366  0.075966348   -5.0219495    1.2048129   519729 
  119000    1.0161021   -5.0233944   -5.0233944   -3.8178892  0.058300914   -5.0233944    1.2055052   519722 
  120000    1.0146879    -5.022018    -5.022018   -3.8181745  0.072817295    -5.022018    1.2038435   519715 
  121000    1.0149179   -5.0232597   -5.0232597   -3.8191247  0.075465443   -5.0232597    1.2041349   519707 
  122000    1.0156907    -5.024741    -5.024741    -3.819673  0.063849121    -5.024741    1.2050681   519700 
  123000    1.0147688   -5.0224366   -5.0224366   -3.8184437  0.051475327   -5.0224366    1.2039929   519692 
  124000    1.0143291   -5.0223446   -5.0223446   -3.8188572  0.097052887   -5.0223446    1.2034874   519685 
  125000    1.0148301   -5.0229202   -5.0229202   -3.8188222  0.097588254   -5.0229202     1.204098   519678 
  126000    1.0127916   -5.0211394   -5.0211394   -3.8194416   0.10285424   -5.0211394    1.2016978   519670 
  127000    1.0135423   -5.0215077   -5.0215077   -3.8189029  0.085230534   -5.0215077    1.2026048   519663 
  128000    1.0142936   -5.0224523   -5.0224523   -3.8189377  0.049286558   -5.0224523    1.2035146   519655 
  129000    1.0144484   -5.0232385   -5.0232385   -3.8195239  0.062087441   -5.0232385    1.2037145   519648 
  130000    1.0131315   -5.0222761   -5.0222761   -3.8201079  0.076825141   -5.0222761    1.2021682   519641 
  131000    1.0156161   -5.0243046   -5.0243046   -3.8191696  0.063048946   -5.0243046    1.2051349   519633 
  132000    1.0161256   -5.0249101   -5.0249101   -3.8191543  0.087406862   -5.0249101    1.2057558   519626 
  133000    1.0162895   -5.0256487   -5.0256487   -3.8196799   0.10225067   -5.0256487    1.2059687   519618 
  134000    1.0168488   -5.0265295   -5.0265295   -3.8198808   0.07826615   -5.0265295    1.2066487   519611 
  135000     1.014913   -5.0253661   -5.0253661    -3.820996  0.080020094   -5.0253661    1.2043701   519603 
  136000    1.0145861   -5.0253327   -5.0253327   -3.8213344  0.071372495   -5.0253327    1.2039984   519596 
  137000    1.0149776   -5.0248791   -5.0248791   -3.8203999  0.086370722   -5.0248791    1.2044792   519589 
  138000    1.0169784    -5.027563    -5.027563   -3.8206908  0.098474226    -5.027563    1.2068722   519581 
  139000    1.0164136   -5.0277857   -5.0277857   -3.8215675  0.093843371   -5.0277857    1.2062182   519574 
  140000     1.014459   -5.0258667   -5.0258667   -3.8219496  0.089036625   -5.0258667    1.2039171   519566 
  141000    1.0122095   -5.0242782   -5.0242782   -3.8230146   0.05774817   -5.0242782    1.2012637   519559 
  142000    1.0148165   -5.0275176   -5.0275176   -3.8231438  0.056412393   -5.0275176    1.2043739   519552 
  143000    1.0127161   -5.0241305   -5.0241305   -3.8222308  0.056164002   -5.0241305    1.2018996   519544 
  144000    1.0123197   -5.0246754   -5.0246754     -3.82323  0.087056762   -5.0246754    1.2014454   519537 
  145000     1.013278   -5.0258458   -5.0258458   -3.8232446  0.093856054   -5.0258458    1.2026012   519529 
  146000    1.0126797   -5.0256778   -5.0256778   -3.8237705  0.070127911   -5.0256778    1.2019073   519522 
  147000    1.0147305   -5.0286153   -5.0286153   -3.8242578  0.073340884   -5.0286153    1.2043576   519515 
  148000    1.0123986    -5.027018    -5.027018   -3.8254097  0.052372489    -5.027018    1.2016083   519507 
  149000    1.0139909   -5.0282393   -5.0282393   -3.8247248   0.10126414   -5.0282393    1.2035145   519500 
  150000    1.0137098   -5.0270997   -5.0270997   -3.8239003  0.072958527   -5.0270997    1.2031994   519492 
  151000    1.0139184   -5.0282984   -5.0282984   -3.8248352  0.049969925   -5.0282984    1.2034632   519485 
  152000    1.0159236   -5.0302809   -5.0302809   -3.8244215   0.08059577   -5.0302809    1.2058595   519478 
  153000    1.0133224   -5.0272894   -5.0272894   -3.8244989  0.071380185   -5.0272894    1.2027905   519470 
  154000    1.0134729   -5.0271489   -5.0271489   -3.8241635  0.066817626   -5.0271489    1.2029854   519463 
  155000    1.0127124    -5.025905    -5.025905   -3.8238039   0.06404547    -5.025905    1.2021011   519455 
  156000    1.0147644   -5.0293275   -5.0293275   -3.8247744  0.089204514   -5.0293275    1.2045532   519448 
  157000     1.011724   -5.0255932   -5.0255932   -3.8246329    0.0734295   -5.0255932    1.2009603   519441 
  158000    1.0143298   -5.0294463   -5.0294463   -3.8253743  0.085701666   -5.0294463     1.204072   519433 
  159000    1.0133978   -5.0280004   -5.0280004   -3.8250185  0.070229752   -5.0280004    1.2029819   519426 
  160000    1.0126115   -5.0271008   -5.0271008   -3.8250338    0.0819408   -5.0271008     1.202067   519418 
  161000    1.0133533   -5.0280997   -5.0280997   -3.8251359  0.072960417   -5.0280997    1.2029638   519411 
  162000    1.0129228   -5.0274826   -5.0274826   -3.8250113  0.058028332   -5.0274826    1.2024713   519403 
  163000    1.0132971   -5.0270688   -5.0270688    -3.824137   0.06393296   -5.0270688    1.2029318   519396 
  164000    1.0118187   -5.0260066   -5.0260066   -3.8248137  0.075857301   -5.0260066    1.2011929   519389 
  165000    1.0128216   -5.0275743   -5.0275743   -3.8251723  0.092527112   -5.0275743     1.202402   519381 
  166000    1.0145247   -5.0285941   -5.0285941    -3.824154   0.07958534   -5.0285941    1.2044401   519374 
  167000    1.0128825   -5.0275388   -5.0275388   -3.8250298  0.078563958   -5.0275388    1.2025091   519366 
  168000    1.0125996     -5.02797     -5.02797   -3.8257806  0.078759707     -5.02797    1.2021894   519359 
  169000    1.0140295   -5.0294271   -5.0294271   -3.8255239  0.078456363   -5.0294271    1.2039032   519352 
  170000    1.0117679   -5.0282698   -5.0282698   -3.8270331  0.078449645   -5.0282698    1.2012367   519344 
  171000    1.0121467   -5.0281281   -5.0281281   -3.8264255  0.068465797   -5.0281281    1.2017027   519337 
  172000     1.014144   -5.0308225   -5.0308225   -3.8267299  0.075269281   -5.0308225    1.2040926   519329 
  173000    1.0140723    -5.030854    -5.030854   -3.8268303  0.079901558    -5.030854    1.2040237   519322 
  174000    1.0129694   -5.0294746   -5.0294746   -3.8267442  0.082939976   -5.0294746    1.2027303   519315 
  175000    1.0140532   -5.0312544   -5.0312544   -3.8272187   0.08799814   -5.0312544    1.2040357   519307 
  176000    1.0125892   -5.0291494   -5.0291494   -3.8268357  0.078581796   -5.0291494    1.2023137   519300 
  177000    1.0126831   -5.0295374   -5.0295374   -3.8270937   0.07670296   -5.0295374    1.2024437   519292 
  178000    1.0137963   -5.0304898   -5.0304898   -3.8267081  0.066931118   -5.0304898    1.2037817   519285 
  179000    1.0134134    -5.029416    -5.029416   -3.8260727  0.078589316    -5.029416    1.2033433   519278 
  180000    1.0131076   -5.0289891   -5.0289891   -3.8259904   0.08224526   -5.0289891    1.2029987   519270 
  181000     1.012939   -5.0291642   -5.0291642   -3.8263495   0.08058976   -5.0291642    1.2028147   519263 
  182000    1.0141633   -5.0297636   -5.0297636   -3.8254765  0.072854775   -5.0297636    1.2042871   519255 
  183000    1.0124599   -5.0283826   -5.0283826    -3.826102  0.070805967   -5.0283826    1.2022805   519248 
  184000    1.0136981   -5.0311155   -5.0311155   -3.8273484  0.085061439   -5.0311155    1.2037671   519241 
  185000    1.0138241   -5.0303369   -5.0303369   -3.8264016  0.087758329   -5.0303369    1.2039352   519233 
  186000    1.0136474   -5.0291377   -5.0291377   -3.8253959  0.076885622   -5.0291377    1.2037417   519226 
  187000    1.0146001   -5.0317501   -5.0317501   -3.8268586  0.070446504   -5.0317501    1.2048915   519218 
  188000    1.0115782   -5.0288238   -5.0288238   -3.8275046   0.08123415   -5.0288238    1.2013192   519211 
  189000    1.0139167   -5.0324033   -5.0324033   -3.8282885  0.059408434   -5.0324033    1.2041148   519203 
  190000    1.0121144    -5.030194    -5.030194   -3.8282034  0.090382307    -5.030194    1.2019906   519196 
  191000    1.0112064   -5.0306466   -5.0306466   -3.8297181  0.078168428   -5.0306466    1.2009285   519189 
  192000    1.0117072   -5.0306173   -5.0306173   -3.8290755   0.07477592   -5.0306173    1.2015418   519181 
  193000     1.012847   -5.0318597   -5.0318597   -3.8289481  0.068402365   -5.0318597    1.2029116   519174 
  194000    1.0116635   -5.0306624   -5.0306624   -3.8291379  0.080233258   -5.0306624    1.2015245   519166 
  195000    1.0124398   -5.0317894   -5.0317894   -3.8293267  0.073004643   -5.0317894    1.2024627   519159 
  196000    1.0110404   -5.0300813   -5.0300813   -3.8292644  0.066934014   -5.0300813    1.2008169   519152 
  197000    1.0110543   -5.0295215   -5.0295215   -3.8286697  0.080647753   -5.0295215    1.2008519   519144 
  198000    1.0119579    -5.030257    -5.030257   -3.8283156  0.053850244    -5.030257    1.2019414   519137 
  199000    1.0136665   -5.0321026   -5.0321026   -3.8281134  0.067329168   -5.0321026    1.2039893   519129 
  200000    1.0129227    -5.030944    -5.030944   -3.8278219  0.081278465    -5.030944    1.2031221   519122 
  201000    1.0114253   -5.0292105   -5.0292105   -3.8278508  0.062380387   -5.0292105    1.2013596   519115 
  202000    1.0137743   -5.0319139   -5.0319139   -3.8277455  0.068201368   -5.0319139    1.2041684   519107 
  203000     1.011638   -5.0311544   -5.0311544   -3.8295074  0.072871724   -5.0311544     1.201647   519100 
  204000    1.0131105   -5.0320385   -5.0320385   -3.8286239  0.075578552   -5.0320385    1.2034146   519092 
  205000    1.0121477   -5.0315873   -5.0315873      -3.8293  0.054544279   -5.0315873    1.2022872   519085 
  206000     1.013681   -5.0325355   -5.0325355   -3.8284107  0.085807397   -5.0325355    1.2041248   519078 
  207000    1.0128841   -5.0322493   -5.0322493   -3.8290526  0.061403897   -5.0322493    1.2031968   519070 
  208000    1.0122352    -5.031586    -5.031586   -3.8291439  0.070762322    -5.031586    1.2024421   519063 
  209000    1.0124509   -5.0322881   -5.0322881   -3.8295711  0.037241545   -5.0322881    1.2027169   519055 
  210000    1.0105465   -5.0301627   -5.0301627   -3.8296919  0.071383858   -5.0301627    1.2004708   519048 
  211000    1.0123708   -5.0318293   -5.0318293   -3.8291751  0.061855048   -5.0318293    1.2026542   519041 
  212000    1.0118257   -5.0319765   -5.0319765   -3.8299513  0.066759577   -5.0319765    1.2020252   519033 
  213000    1.0120591   -5.0324733   -5.0324733   -3.8301546  0.099290826   -5.0324733    1.2023186   519026 
  214000    1.0125766   -5.0332712   -5.0332712   -3.8303192  0.080221355   -5.0332712    1.2029519   519018 
  215000    1.0136193   -5.0338038   -5.0338038   -3.8295969  0.088708181   -5.0338038    1.2042069   519011 
  216000    1.0129047   -5.0332396   -5.0332396    -3.829863   0.06389336   -5.0332396    1.2033765   519003 
  217000    1.0122577    -5.033423    -5.033423   -3.8307989  0.086665966    -5.033423    1.2026241   518996 
  218000    1.0127609   -5.0343965   -5.0343965   -3.8311583  0.076094991   -5.0343965    1.2032381   518989 
  219000    1.0119764   -5.0342638   -5.0342638   -3.8319392  0.072276319   -5.0342638    1.2023246   518981 
  220000    1.0121324   -5.0339517   -5.0339517   -3.8314256  0.081660122   -5.0339517    1.2025262   518974 
  221000    1.0132533   -5.0360955   -5.0360955    -3.832219  0.080034952   -5.0360955    1.2038766   518966 
  222000    1.0114986   -5.0335531   -5.0335531   -3.8317453  0.079690251   -5.0335531    1.2018078   518959 
  223000    1.0118061   -5.0346209   -5.0346209   -3.8324314  0.081768646   -5.0346209    1.2021895   518952 
  224000     1.010554     -5.03176     -5.03176   -3.8310397  0.057166633     -5.03176    1.2007203   518944 
  225000    1.0123493   -5.0338671   -5.0338671   -3.8309975   0.07714183   -5.0338671    1.2028697   518937 
  226000    1.0108067   -5.0315975   -5.0315975   -3.8305422   0.08321487   -5.0315975    1.2010553   518929 
  227000    1.0108539   -5.0319874   -5.0319874   -3.8308599  0.069170945   -5.0319874    1.2011275   518922 
  228000    1.0105753   -5.0317891   -5.0317891   -3.8309765   0.06324787   -5.0317891    1.2008126   518915 
  229000    1.0119144   -5.0334899   -5.0334899   -3.8310675  0.069771938   -5.0334899    1.2024224   518907 
  230000    1.0117797   -5.0331552   -5.0331552   -3.8308767  0.057668183   -5.0331552    1.2022785   518900 
  231000    1.0102633   -5.0308918   -5.0308918   -3.8303966  0.069464385   -5.0308918    1.2004951   518892 
  232000    1.0122313   -5.0325114   -5.0325114   -3.8296614  0.089602223   -5.0325114      1.20285   518885 
  233000    1.0113302   -5.0312181   -5.0312181   -3.8294227  0.084990342   -5.0312181    1.2017954   518878 
  234000    1.0118607   -5.0321771   -5.0321771   -3.8297328  0.088055622   -5.0321771    1.2024443   518870 
  235000    1.0116837   -5.0313648   -5.0313648   -3.8291146  0.093873695   -5.0313648    1.2022502   518863 
  236000    1.0128456   -5.0328094   -5.0328094   -3.8291598  0.083810322   -5.0328094    1.2036496   518855 
  237000    1.0111112    -5.030673    -5.030673   -3.8290684  0.052101408    -5.030673    1.2016046   518848 
  238000    1.0110727   -5.0304308   -5.0304308   -3.8288557  0.047548947   -5.0304308    1.2015751   518841 
  239000    1.0117127   -5.0322973   -5.0322973   -3.8299431  0.090672299   -5.0322973    1.2023542   518833 
  240000    1.0112748   -5.0309265   -5.0309265   -3.8290765  0.090827143   -5.0309265      1.20185   518826 
  241000    1.0122427   -5.0322235   -5.0322235   -3.8292047  0.064599685   -5.0322235    1.2030188   518818 
  242000    1.0125948      -5.0328      -5.0328   -3.8293464  0.084347675      -5.0328    1.2034536   518811 
  243000    1.0119193   -5.0325827   -5.0325827   -3.8299134  0.081196488   -5.0325827    1.2026692   518803 
  244000    1.0124789   -5.0338117   -5.0338117   -3.8304612  0.092418375   -5.0338117    1.2033505   518796 
  245000    1.0131221   -5.0336139   -5.0336139   -3.8294825  0.080118373   -5.0336139    1.2041314   518789 
  246000    1.0129767   -5.0336925   -5.0336925   -3.8297155  0.075700374   -5.0336925    1.2039771   518781 
  247000    1.0133253   -5.0343202   -5.0343202   -3.8299126  0.084335081   -5.0343202    1.2044077   518774 
  248000     1.011904    -5.032607    -5.032607   -3.8298702  0.086455091    -5.032607    1.2027369   518766 
  249000    1.0117933   -5.0331349   -5.0331349   -3.8305133  0.069289467   -5.0331349    1.2026216   518759 
  250000    1.0105778   -5.0320353   -5.0320353   -3.8308423  0.059521563   -5.0320353     1.201193   518752 
  251000    1.0111769   -5.0335512   -5.0335512   -3.8316276  0.053969262   -5.0335512    1.2019236   518744 
  252000    1.0100535   -5.0320898   -5.0320898   -3.8314853  0.043456354   -5.0320898    1.2006045   518737 
  253000    1.0108235   -5.0336938   -5.0336938   -3.8321555  0.069367532   -5.0336938    1.2015383   518729 
  254000    1.0097657   -5.0325623   -5.0325623   -3.8322652  0.061375632   -5.0325623    1.2002971   518722 
  255000    1.0116323   -5.0342957   -5.0342957   -3.8317635  0.086657355   -5.0342957    1.2025322   518715 
  256000    1.0096342   -5.0321448   -5.0321448   -3.8319693  0.053902961   -5.0321448    1.2001755   518707 
  257000     1.011855   -5.0354736   -5.0354736   -3.8326419  0.060077377   -5.0354736    1.2028317   518700 
  258000    1.0118105   -5.0348541   -5.0348541   -3.8320568  0.058818105   -5.0348541    1.2027973   518692 
  259000    1.0104014   -5.0337104   -5.0337104   -3.8325719   0.08406039   -5.0337104    1.2011384   518685 
  260000    1.0119365   -5.0354811   -5.0354811   -3.8325016   0.07089908   -5.0354811    1.2029795   518678 
  261000    1.0106954   -5.0349447   -5.0349447    -3.833422  0.054015421   -5.0349447    1.2015227   518670 
  262000    1.0109608   -5.0350691   -5.0350691   -3.8332147   0.07604588   -5.0350691    1.2018544   518663 
  263000    1.0118839   -5.0354508   -5.0354508   -3.8324803  0.088487213   -5.0354508    1.2029704   518655 
  264000     1.011721   -5.0346423   -5.0346423   -3.8318494  0.069759703   -5.0346423    1.2027929   518648 
  265000    1.0128334   -5.0357843   -5.0357843   -3.8316526  0.061272072   -5.0357843    1.2041317   518641 
  266000    1.0124844   -5.0358848   -5.0358848   -3.8321494   0.07402351   -5.0358848    1.2037354   518633 
  267000    1.0093653   -5.0332267   -5.0332267   -3.8331834  0.090545686   -5.0332267    1.2000432   518626 
  268000    1.0103004   -5.0345968   -5.0345968   -3.8334232  0.062764751   -5.0345968    1.2011735   518618 
  269000    1.0101459   -5.0344885   -5.0344885   -3.8334824  0.053489821   -5.0344885    1.2010061   518611 
  270000    1.0100451   -5.0335218   -5.0335218    -3.832617  0.056258983   -5.0335218    1.2009048   518603 
  271000    1.0087253   -5.0327797   -5.0327797    -3.833428  0.066863044   -5.0327797    1.1993517   518596 
  272000    1.0092782   -5.0330153   -5.0330153     -3.83299  0.080664551   -5.0330153    1.2000253   518589 
  273000    1.0090983   -5.0327932   -5.0327932   -3.8329633  0.064840104   -5.0327932    1.1998299   518581 
  274000    1.0103502    -5.033812    -5.033812   -3.8324773  0.065795712    -5.033812    1.2013347   518574 
  275000    1.0089244   -5.0327175   -5.0327175   -3.8330596   0.10007732   -5.0327175    1.1996578   518566 
  276000    1.0105138   -5.0346992   -5.0346992   -3.8331352  0.062914184   -5.0346992     1.201564   518559 
  277000    1.0113533   -5.0355151   -5.0355151   -3.8329367  0.074922352   -5.0355151    1.2025784   518552 
  278000    1.0104009   -5.0343421   -5.0343421   -3.8328776  0.086738013   -5.0343421    1.2014644   518544 
  279000    1.0120273   -5.0359419   -5.0359419   -3.8325273  0.078600689   -5.0359419    1.2034146   518537 
  280000    1.0106701   -5.0356919   -5.0356919   -3.8338725    0.0852079   -5.0356919    1.2018194   518529 
  281000    1.0093058   -5.0341992   -5.0341992    -3.833986    0.0661417   -5.0341992    1.2002132   518522 
  282000    1.0124491   -5.0371862   -5.0371862   -3.8332189  0.079360569   -5.0371862    1.2039673   518515 
  283000    1.0116407   -5.0354643   -5.0354643   -3.8324397  0.085439244   -5.0354643    1.2030246   518507 
  284000    1.0115367   -5.0355354   -5.0355354   -3.8326183  0.087619596   -5.0355354    1.2029172   518500 
  285000     1.011771   -5.0360769   -5.0360769   -3.8328625  0.068032015   -5.0360769    1.2032143   518492 
  286000    1.0137824   -5.0386014   -5.0386014   -3.8329789  0.063267557   -5.0386014    1.2056225   518485 
  287000    1.0116324   -5.0361995   -5.0361995   -3.8331176  0.069619248   -5.0361995     1.203082   518478 
  288000    1.0118446     -5.03685     -5.03685   -3.8334972  0.098454259     -5.03685    1.2033529   518470 
  289000    1.0110591   -5.0364148   -5.0364148   -3.8339798  0.070453357   -5.0364148     1.202435   518463 
  290000    1.0115547   -5.0363982   -5.0363982   -3.8333553  0.066070893   -5.0363982     1.203043   518455 
  291000    1.0113533   -5.0367895   -5.0367895   -3.8339699  0.085885324   -5.0367895    1.2028196   518448 
  292000    1.0117495   -5.0370218   -5.0370218   -3.8337146  0.068021272   -5.0370218    1.2033071   518441 
  293000    1.0115709   -5.0382781   -5.0382781   -3.8351648  0.033456802   -5.0382781    1.2031133   518433 
  294000    1.0096558   -5.0352073   -5.0352073   -3.8343555  0.051434537   -5.0352073    1.2008518   518426 
  295000    1.0091034    -5.035899    -5.035899   -3.8356858  0.042764323    -5.035899    1.2002132   518418 
  296000    1.0092737   -5.0356029   -5.0356029   -3.8351709  0.078800816   -5.0356029     1.200432   518411 
  297000    1.0090929   -5.0347105   -5.0347105    -3.834475  0.069535225   -5.0347105    1.2002354   518403 
  298000     1.010602   -5.0349199   -5.0349199   -3.8328733  0.071777374   -5.0349199    1.2020466   518396 
  299000    1.0103471   -5.0361676   -5.0361676   -3.8344079  0.063395954   -5.0361676    1.2017597   518389 
  300000    1.0110457   -5.0362312   -5.0362312    -3.833622   0.07378735   -5.0362312    1.2026092   518381 
  301000    1.0087686   -5.0346478   -5.0346478   -3.8347309  0.064791818   -5.0346478    1.1999169   518374 
  302000    1.0100595   -5.0358158   -5.0358158   -3.8343448  0.093274655   -5.0358158    1.2014709   518366 
  303000    1.0120292   -5.0363643   -5.0363643   -3.8325342  0.080551491   -5.0363643    1.2038301   518359 
  304000    1.0090577    -5.032917    -5.032917   -3.8326053  0.074421846    -5.032917    1.2003117   518352 
  305000     1.011442   -5.0375707   -5.0375707   -3.8344043  0.074024918   -5.0375707    1.2031665   518344 
  306000     1.010299   -5.0354766   -5.0354766   -3.8336536  0.070537287   -5.0354766     1.201823   518337 
  307000    1.0097463   -5.0351678   -5.0351678   -3.8339837  0.064819638   -5.0351678    1.2011841   518329 
  308000    1.0109269   -5.0364727   -5.0364727   -3.8338679  0.063023731   -5.0364727    1.2026048   518322 
  309000    1.0118705    -5.038189    -5.038189   -3.8344455  0.052855857    -5.038189    1.2037435   518315 
  310000    1.0109485   -5.0366289   -5.0366289   -3.8339636  0.057092762   -5.0366289    1.2026652   518307 
  311000    1.0104542   -5.0370886   -5.0370886   -3.8349951  0.074124499   -5.0370886    1.2020935   518300 
  312000    1.0115038   -5.0385564   -5.0385564   -3.8351956  0.084353156   -5.0385564    1.2033608   518292 
  313000    1.0091944   -5.0349553   -5.0349553   -3.8343258  0.043080289   -5.0349553    1.2006295   518285 
  314000    1.0105884    -5.036749    -5.036749   -3.8344448  0.068310651    -5.036749    1.2023042   518278 
  315000    1.0106104   -5.0373753   -5.0373753   -3.8350264  0.060994034   -5.0373753    1.2023489   518270 
  316000    1.0110079   -5.0376077   -5.0376077   -3.8347697  0.075441203   -5.0376077     1.202838   518263 
  317000    1.0115456    -5.038233    -5.038233   -3.8347366  0.049875858    -5.038233    1.2034964   518255 
  318000    1.0109194   -5.0381624   -5.0381624   -3.8353948  0.069082282   -5.0381624    1.2027676   518248 
  319000    1.0108231   -5.0375392   -5.0375392     -3.83487  0.067396371   -5.0375392    1.2026692   518241 
  320000    1.0093411   -5.0364849   -5.0364849   -3.8355604   0.10154639   -5.0364849    1.2009245   518233 
  321000    1.0103553   -5.0373927   -5.0373927   -3.8352452  0.088585595   -5.0373927    1.2021474   518226 
  322000     1.009032   -5.0364562   -5.0364562   -3.8358647  0.090097787   -5.0364562    1.2005915   518218 
  323000    1.0101179    -5.036679    -5.036679   -3.8347793  0.077611489    -5.036679    1.2018997   518211 
  324000    1.0103025   -5.0378243   -5.0378243   -3.8356863  0.088778035   -5.0378243     1.202138   518203 
  325000    1.0101707   -5.0378107   -5.0378107   -3.8358133  0.046795542   -5.0378107    1.2019975   518196 
  326000    1.0091163   -5.0367973   -5.0367973   -3.8360383  0.065342027   -5.0367973     1.200759   518189 
  327000    1.0085908    -5.035944    -5.035944   -3.8357918  0.082198942    -5.035944    1.2001522   518181 
  328000    1.0103189    -5.038081    -5.038081   -3.8358562  0.069175739    -5.038081    1.2022248   518174 
  329000    1.0097332    -5.037021    -5.037021   -3.8354746  0.059101029    -5.037021    1.2015464   518166 
  330000    1.0105283   -5.0376304   -5.0376304   -3.8351216  0.071447662   -5.0376304    1.2025088   518159 
  331000    1.0106238   -5.0379736   -5.0379736   -3.8353349  0.077121892   -5.0379736    1.2026386   518152 
  332000    1.0115602   -5.0381701   -5.0381701   -3.8343986  0.070575113   -5.0381701    1.2037715   518144 
  333000    1.0126379   -5.0390206   -5.0390206   -3.8339502  0.068332284   -5.0390206    1.2050704   518137 
  334000    1.0119629   -5.0400151   -5.0400151   -3.8357295  0.064813564   -5.0400151    1.2042856   518129 
  335000    1.0104254   -5.0377998   -5.0377998   -3.8353277  0.088321839   -5.0377998    1.2024722   518122 
  336000    1.0090085   -5.0371381   -5.0371381   -3.8363359  0.075960289   -5.0371381    1.2008022   518115 
  337000    1.0108276   -5.0388652   -5.0388652   -3.8358795  0.065456126   -5.0388652    1.2029857   518107 
  338000    1.0088385   -5.0375743   -5.0375743   -3.8369397  0.070044265   -5.0375743    1.2006346   518100 
  339000    1.0076798   -5.0360128   -5.0360128   -3.8367386  0.062289329   -5.0360128    1.1992742   518092 
  340000    1.0080544   -5.0354868   -5.0354868   -3.8357507  0.056888224   -5.0354868    1.1997362   518085 
  341000     1.008721   -5.0371135   -5.0371135   -3.8365677  0.063930773   -5.0371135    1.2005458   518078 
  342000    1.0088734   -5.0375417   -5.0375417    -3.836796  0.063512859   -5.0375417    1.2007457   518070 
  343000    1.0110552   -5.0395884   -5.0395884   -3.8362297  0.066225451   -5.0395884    1.2033587   518063 
  344000    1.0089821   -5.0373551   -5.0373551   -3.8364453   0.05303392   -5.0373551    1.2009099   518055 
  345000    1.0106462   -5.0389392   -5.0389392   -3.8360324  0.085321063   -5.0389392    1.2029068   518048 
  346000    1.0096827   -5.0386581   -5.0386581   -3.8368819  0.063021974   -5.0386581    1.2017762   518041 
  347000    1.0102475   -5.0386282   -5.0386282   -3.8361612  0.089042016   -5.0386282     1.202467   518033 
  348000    1.0093408   -5.0380162   -5.0380162   -3.8366121   0.06715143   -5.0380162    1.2014041   518026 
  349000    1.0087099    -5.036637    -5.036637   -3.8359654  0.084825237    -5.036637    1.2006716   518018 
  350000    1.0086265   -5.0362807   -5.0362807   -3.8356921  0.079098277   -5.0362807    1.2005886   518011 
  351000    1.0105976   -5.0383192   -5.0383192   -3.8353658  0.073940886   -5.0383192    1.2029534   518003 
  352000    1.0075124   -5.0351479   -5.0351479   -3.8358507  0.090656759   -5.0351479    1.1992972   517996 
  353000    1.0084374    -5.037342    -5.037342   -3.8369275  0.084088985    -5.037342    1.2004145   517989 
  354000    1.0081701   -5.0367874   -5.0367874   -3.8366727  0.080311397   -5.0367874    1.2001148   517981 
  355000    1.0093204   -5.0379261   -5.0379261   -3.8364257   0.07152925   -5.0379261    1.2015003   517974 
  356000     1.009679   -5.0386031   -5.0386031   -3.8366573  0.078942209   -5.0386031    1.2019458   517966 
  357000    1.0099037   -5.0388972   -5.0388972   -3.8366677  0.050651672   -5.0388972    1.2022295   517959 
  358000    1.0089561   -5.0392088   -5.0392088    -3.838091  0.048744626   -5.0392088    1.2011177   517952 
  359000    1.0078912   -5.0378695   -5.0378695    -3.838001  0.057075748   -5.0378695    1.1998685   517944 
  360000    1.0082112   -5.0379997   -5.0379997   -3.8377341  0.093604922   -5.0379997    1.2002657   517937 
  361000    1.0075206   -5.0380721   -5.0380721     -3.83861  0.066212932   -5.0380721    1.1994621   517929 
  362000    1.0082579   -5.0398788   -5.0398788   -3.8395228  0.077210278   -5.0398788     1.200356   517922 
  363000    1.0088132   -5.0406822   -5.0406822   -3.8396488  0.070422247   -5.0406822    1.2010334   517915 
  364000    1.0099413   -5.0414791   -5.0414791   -3.8390841  0.069577519   -5.0414791     1.202395   517907 
  365000    1.0080454   -5.0399465   -5.0399465   -3.8397924  0.086208833   -5.0399465     1.200154   517900 
  366000    1.0107415   -5.0434699   -5.0434699   -3.8400873  0.064958628   -5.0434699    1.2033826   517892 
  367000    1.0100621   -5.0430882   -5.0430882   -3.8404983  0.068383897   -5.0430882      1.20259   517885 
  368000    1.0094196   -5.0412331   -5.0412331   -3.8393919  0.077436327   -5.0412331    1.2018412   517878 
  369000    1.0100122   -5.0435325   -5.0435325   -3.8409671  0.060706019   -5.0435325    1.2025654   517870 
  370000    1.0098284   -5.0423679   -5.0423679   -3.8400052   0.10791053   -5.0423679    1.2023627   517863 
  371000    1.0102749   -5.0437677   -5.0437677   -3.8408548  0.068282095   -5.0437677    1.2029129   517855 
  372000     1.010998   -5.0439637   -5.0439637   -3.8401735  0.088616163   -5.0439637    1.2037902   517848 
  373000    1.0097062   -5.0437534   -5.0437534   -3.8414851  0.079271277   -5.0437534    1.2022684   517841 
  374000    1.0107706   -5.0445076   -5.0445076   -3.8409533   0.09027361   -5.0445076    1.2035543   517833 
  375000    1.0107807   -5.0435507   -5.0435507   -3.8399681  0.083303231   -5.0435507    1.2035826   517826 
  376000    1.0095294   -5.0426087   -5.0426087   -3.8404975  0.088867643   -5.0426087    1.2021112   517818 
  377000    1.0103477   -5.0426487   -5.0426487   -3.8395468  0.076320473   -5.0426487    1.2031018   517811 
  378000    1.0095681   -5.0424454   -5.0424454   -3.8402533    0.1117235   -5.0424454    1.2021921   517803 
  379000    1.0082479   -5.0408472   -5.0408472    -3.840211  0.079066102   -5.0408472    1.2006362   517796 
  380000    1.0068331   -5.0409492   -5.0409492   -3.8419816  0.066432048   -5.0409492    1.1989677   517789 
  381000    1.0067597   -5.0402317   -5.0402317   -3.8413329  0.067694017   -5.0402317    1.1988988   517781 
  382000    1.0061863   -5.0402674   -5.0402674   -3.8420353  0.073076889   -5.0402674    1.1982321   517774 
  383000    1.0070808   -5.0414217   -5.0414217   -3.8421058   0.05715542   -5.0414217    1.1993159   517766 
  384000    1.0075815   -5.0412292   -5.0412292   -3.8413007  0.077864457   -5.0412292    1.1999285   517759 
  385000    1.0093591   -5.0425282   -5.0425282   -3.8404666  0.097743499   -5.0425282    1.2020616   517752 
  386000    1.0070361   -5.0402757   -5.0402757   -3.8409621  0.078954176   -5.0402757    1.1993136   517744 
  387000    1.0088393   -5.0428497   -5.0428497   -3.8413723  0.060524963   -5.0428497    1.2014774   517737 
  388000    1.0076469   -5.0418227   -5.0418227   -3.8417469  0.072676186   -5.0418227    1.2000758   517729 
  389000     1.007495   -5.0420455   -5.0420455   -3.8421344  0.074851462   -5.0420455    1.1999111   517722 
  390000    1.0075083   -5.0423483   -5.0423483    -3.842405  0.076875848   -5.0423483    1.1999433   517715 
  391000    1.0077376   -5.0431806   -5.0431806   -3.8429457  0.050036305   -5.0431806    1.2002348   517707 
  392000    1.0084478   -5.0441628   -5.0441628   -3.8430658  0.076615462   -5.0441628    1.2010969   517700 
  393000    1.0091503   -5.0443173   -5.0443173    -3.842365  0.067917819   -5.0443173    1.2019522   517692 
  394000    1.0093653    -5.044217    -5.044217   -3.8419924  0.081017528    -5.044217    1.2022245   517685 
  395000    1.0079589   -5.0431874   -5.0431874   -3.8426218  0.075337335   -5.0431874    1.2005656   517678 
  396000    1.0095757   -5.0462183   -5.0462183   -3.8437083   0.06499795   -5.0462183      1.20251   517670 
  397000    1.0064721   -5.0423935   -5.0423935   -3.8435639  0.074783291   -5.0423935    1.1988295   517663 
  398000    1.0068106   -5.0437339   -5.0437339   -3.8444826  0.062168413   -5.0437339    1.1992513   517655 
  399000     1.005779   -5.0432735   -5.0432735   -3.8452349  0.067586466   -5.0432735    1.1980386   517648 
  400000    1.0065674   -5.0433981   -5.0433981    -3.844404  0.077457073   -5.0433981    1.1989941   517641 
  401000    1.0079384   -5.0462913   -5.0462913   -3.8456457  0.076690855   -5.0462913    1.2006457   517633 
  402000    1.0077147   -5.0451971   -5.0451971   -3.8448016  0.086200502   -5.0451971    1.2003955   517626 
  403000    1.0082849   -5.0460416   -5.0460416   -3.8449483  0.081330981   -5.0460416    1.2010932   517618 
  404000     1.006347   -5.0449448   -5.0449448   -3.8461439  0.058170104   -5.0449448    1.1988009   517611 
  405000    1.0083499   -5.0460917   -5.0460917   -3.8448863  0.087938125   -5.0460917    1.2012054   517603 
  406000    1.0082423   -5.0473796   -5.0473796   -3.8462861  0.087740446   -5.0473796    1.2010935   517596 
  407000    1.0089021   -5.0485707   -5.0485707   -3.8466749  0.065758307   -5.0485707    1.2018957   517589 
  408000    1.0074703   -5.0478396   -5.0478396   -3.8476309  0.079639959   -5.0478396    1.2002086   517581 
  409000    1.0093053   -5.0495402   -5.0495402   -3.8471293  0.076785451   -5.0495402    1.2024109   517574 
  410000    1.0080613   -5.0470829   -5.0470829   -3.8461354   0.06340339   -5.0470829    1.2009475   517566 
  411000    1.0090647   -5.0483816   -5.0483816   -3.8462224  0.072163062   -5.0483816    1.2021592   517559 
  412000    1.0065496   -5.0454323   -5.0454323   -3.8462534  0.076974751   -5.0454323    1.1991789   517552 
  413000    1.0086574   -5.0480468   -5.0480468   -3.8463381  0.063949293   -5.0480468    1.2017087   517544 
  414000    1.0068319   -5.0454301   -5.0454301   -3.8458801  0.057733628   -5.0454301      1.19955   517537 
  415000    1.0060593   -5.0453576   -5.0453576   -3.8467095  0.065100843   -5.0453576    1.1986481   517529 
  416000     1.006206   -5.0456396   -5.0456396   -3.8468005  0.082496189   -5.0456396    1.1988391   517522 
  417000    1.0057979   -5.0460053   -5.0460053   -3.8476362  0.067705978   -5.0460053    1.1983691   517515 
  418000    1.0072172   -5.0474402   -5.0474402   -3.8473616  0.068351381   -5.0474402    1.2000787   517507 
  419000    1.0070655   -5.0465591   -5.0465591    -3.846645  0.067493479   -5.0465591    1.1999141   517500 
  420000    1.0045892   -5.0445475   -5.0445475   -3.8475653  0.083107827   -5.0445475    1.1969821   517492 
  421000    1.0060624   -5.0459022   -5.0459022   -3.8471484  0.069739663   -5.0459022    1.1987538   517485 
  422000    1.0081447   -5.0476624   -5.0476624   -3.8464114  0.068168562   -5.0476624     1.201251   517478 
  423000    1.0065243   -5.0469022   -5.0469022   -3.8475633   0.04850862   -5.0469022    1.1993389   517470 
  424000     1.007039   -5.0460299   -5.0460299   -3.8460615  0.069008543   -5.0460299    1.1999684   517463 
  425000    1.0080777   -5.0464557   -5.0464557   -3.8452311  0.065760284   -5.0464557    1.2012246   517455 
  426000    1.0059386   -5.0437099   -5.0437099    -3.845018  0.087248005   -5.0437099    1.1986919   517448 
  427000    1.0060336    -5.043292    -5.043292   -3.8444707  0.056630129    -5.043292    1.1988213   517441 
  428000     1.007822   -5.0456662   -5.0456662   -3.8446953  0.053266078   -5.0456662     1.200971   517433 
  429000    1.0068623   -5.0445758   -5.0445758   -3.8447322  0.065326518   -5.0445758    1.1998436   517426 
  430000     1.008288   -5.0454588   -5.0454588   -3.8438977  0.057709411   -5.0454588    1.2015611   517418 
  431000    1.0061209   -5.0437026   -5.0437026   -3.8447077  0.095113454   -5.0437026    1.1989949   517411 
  432000    1.0079784   -5.0464235   -5.0464235   -3.8451965  0.071297217   -5.0464235     1.201227   517403 
  433000    1.0083462   -5.0468623   -5.0468623   -3.8451807  0.062869688   -5.0468623    1.2016816   517396 
  434000    1.0071559   -5.0450024   -5.0450024   -3.8447231  0.074167678   -5.0450024    1.2002793   517389 
  435000    1.0069197   -5.0450725   -5.0450725   -3.8450561  0.068744878   -5.0450725    1.2000163   517381 
  436000    1.0063717   -5.0458426   -5.0458426   -3.8464632  0.075461423   -5.0458426    1.1993795   517374 
  437000    1.0060114   -5.0448957   -5.0448957    -3.845927   0.11046122   -5.0448957    1.1989687   517366 
  438000    1.0078646   -5.0463941   -5.0463941   -3.8452006  0.060616335   -5.0463941    1.2011935   517359 
  439000    1.0065875   -5.0458385   -5.0458385   -3.8461508  0.069853862   -5.0458385    1.1996877   517352 
  440000    1.0054732   -5.0455397   -5.0455397   -3.8471616   0.08541956   -5.0455397    1.1983781   517344 
  441000    1.0059292    -5.046761    -5.046761   -3.8478231  0.089522035    -5.046761    1.1989379   517337 
  442000    1.0064482   -5.0470122   -5.0470122   -3.8474371  0.084183527   -5.0470122    1.1995751   517329 
  443000    1.0069217    -5.048365    -5.048365   -3.8482093   0.08181855    -5.048365    1.2001557   517322 
  444000    1.0072855   -5.0476416   -5.0476416   -3.8470362  0.082585043   -5.0476416    1.2006055   517315 
  445000    1.0076695   -5.0476358   -5.0476358    -3.846554  0.074830229   -5.0476358    1.2010817   517307 
  446000    1.0073211   -5.0473233   -5.0473233   -3.8466406   0.10699978   -5.0473233    1.2006828   517300 
  447000    1.0070087   -5.0462209   -5.0462209    -3.845892  0.057910469   -5.0462209    1.2003289   517292 
  448000    1.0053927   -5.0438344   -5.0438344   -3.8454155  0.089165003   -5.0438344    1.1984189   517285 
  449000    1.0056284   -5.0453975   -5.0453975   -3.8466814  0.043875938   -5.0453975     1.198716   517278 
  450000    1.0056177   -5.0469558   -5.0469558   -3.8482339  0.053828459   -5.0469558    1.1987219   517270 
  451000    1.0051094   -5.0460021   -5.0460021   -3.8478698  0.050332255   -5.0460021    1.1981322   517263 
  452000    1.0064283   -5.0466085   -5.0466085   -3.8468856  0.038878027   -5.0466085    1.1997229   517255 
  453000    1.0070674   -5.0469803   -5.0469803   -3.8464793  0.082999995   -5.0469803     1.200501   517248 
  454000    1.0062934    -5.047606    -5.047606   -3.8480113  0.076774312    -5.047606    1.1995946   517241 
  455000    1.0056182   -5.0465505   -5.0465505   -3.8477423  0.049325563   -5.0465505    1.1988083   517233 
  456000     1.004427   -5.0450859   -5.0450859   -3.8476816  0.072900676   -5.0450859    1.1974044   517226 
  457000     1.005803   -5.0471718   -5.0471718   -3.8481085     0.060899   -5.0471718    1.1990633   517218 
  458000    1.0064091   -5.0482944   -5.0482944   -3.8484923  0.082288279   -5.0482944    1.1998021   517211 
  459000    1.0068458   -5.0481952   -5.0481952    -3.847854  0.047233673   -5.0481952    1.2003412   517203 
  460000    1.0080604   -5.0486999   -5.0486999   -3.8468943  0.092303099   -5.0486999    1.2018056   517196 
  461000    1.0076027    -5.048411    -5.048411   -3.8471348  0.086058935    -5.048411    1.2012762   517189 
  462000     1.005554    -5.047899    -5.047899   -3.8490467  0.049645358    -5.047899    1.1988522   517181 
  463000    1.0079121   -5.0504861   -5.0504861   -3.8488062  0.064249426   -5.0504861    1.2016799   517174 
  464000    1.0054714   -5.0466946   -5.0466946   -3.8479061   0.05614935   -5.0466946    1.1987885   517166 
  465000    1.0055605   -5.0476819   -5.0476819   -3.8487709  0.055834031   -5.0476819     1.198911   517159 
  466000    1.0062801   -5.0489653   -5.0489653   -3.8491801  0.070813807   -5.0489653    1.1997851   517152 
  467000    1.0060341   -5.0490621   -5.0490621   -3.8495517  0.061204658   -5.0490621    1.1995104   517144 
  468000    1.0049088   -5.0478459   -5.0478459    -3.849661  0.046675348   -5.0478459    1.1981849   517137 
  469000    1.0070695   -5.0503119   -5.0503119   -3.8495321  0.078423636   -5.0503119    1.2007798   517129 
  470000    1.0039239   -5.0469579   -5.0469579   -3.8499126  0.061782503   -5.0469579    1.1970453   517122 
  471000    1.0059771   -5.0496285   -5.0496285   -3.8501188  0.082941744   -5.0496285    1.1995097   517115 
  472000    1.0046311   -5.0497626   -5.0497626   -3.8518392  0.067599131   -5.0497626    1.1979234   517107 
  473000    1.0045442   -5.0491438   -5.0491438   -3.8513079  0.084647575   -5.0491438    1.1978359   517100 
  474000    1.0053194   -5.0488592   -5.0488592   -3.8500803  0.045119648   -5.0488592    1.1987788   517092 
  475000    1.0056016    -5.050036    -5.050036   -3.8509045  0.079355201    -5.050036    1.1991315   517085 
  476000    1.0058553   -5.0502771   -5.0502771   -3.8508267  0.076327221   -5.0502771    1.1994503   517078 
  477000    1.0065104   -5.0505577   -5.0505577   -3.8503077   0.05794728   -5.0505577      1.20025   517070 
  478000    1.0045714   -5.0497481   -5.0497481    -3.851794  0.072035394   -5.0497481    1.1979541   517063 
  479000    1.0055334   -5.0507988   -5.0507988    -3.851679  0.066732518   -5.0507988    1.1991198   517055 
  480000    1.0045715   -5.0483025   -5.0483025   -3.8503136  0.088828774   -5.0483025    1.1979889   517048 
  481000    1.0059849   -5.0504546   -5.0504546   -3.8507639  0.063979782   -5.0504546    1.1996907   517041 
  482000    1.0049681   -5.0483672   -5.0483672   -3.8498706  0.084212795   -5.0483672    1.1984966   517033 
  483000    1.0033111   -5.0472038   -5.0472038    -3.850667  0.079138409   -5.0472038    1.1965368   517026 
  484000    1.0051984   -5.0492786   -5.0492786   -3.8504725  0.057947659   -5.0492786    1.1988061   517018 
  485000    1.0039985    -5.047837    -5.047837   -3.8504456  0.056381106    -5.047837    1.1973913   517011 
  486000      1.00608   -5.0511713   -5.0511713    -3.851279   0.08924973   -5.0511713    1.1998923   517003 
  487000    1.0062099   -5.0504201   -5.0504201   -3.8503566  0.078210194   -5.0504201    1.2000635   516996 
  488000    1.0054574   -5.0498724   -5.0498724   -3.8506902  0.068337264   -5.0498724    1.1991823   516989 
  489000    1.0052752   -5.0503333   -5.0503333   -3.8513498   0.08475207   -5.0503333    1.1989834   516981 
  490000     1.006248   -5.0512715   -5.0512715   -3.8511115  0.077471805   -5.0512715      1.20016   516974 
  491000    1.0061592   -5.0515934   -5.0515934   -3.8515208  0.069085636   -5.0515934    1.2000726   516966 
  492000     1.006006   -5.0514273   -5.0514273   -3.8515212  0.069074083   -5.0514273    1.1999061   516959 
  493000    1.0064484   -5.0518138   -5.0518138   -3.8513638  0.061295813   -5.0518138    1.2004501   516952 
  494000    1.0077311   -5.0542956   -5.0542956    -3.852297  0.059102839   -5.0542956    1.2019986   516944 
  495000    1.0074759   -5.0537926   -5.0537926    -3.852082  0.070242673   -5.0537926    1.2017105   516937 
  496000    1.0070766   -5.0540706   -5.0540706   -3.8528177  0.059192498   -5.0540706    1.2012528   516929 
  497000    1.0070514   -5.0542963   -5.0542963   -3.8530573  0.080507372   -5.0542963     1.201239   516922 
  498000     1.005281   -5.0532263   -5.0532263   -3.8540828    0.0973797   -5.0532263    1.1991435   516915 
  499000    1.0049688   -5.0536158   -5.0536158   -3.8548262  0.099805923   -5.0536158    1.1987897   516907 
  500000    1.0056605   -5.0541726   -5.0541726   -3.8545416  0.062505269   -5.0541726     1.199631   516900 
  501000    1.0081429   -5.0567757   -5.0567757   -3.8541648  0.089730836   -5.0567757    1.2026109   516892 
  502000    1.0053343   -5.0534692   -5.0534692   -3.8541925  0.074706487   -5.0534692    1.1992767   516885 
  503000    1.0056439   -5.0534144   -5.0534144   -3.8537522  0.060293629   -5.0534144    1.1996622   516878 
  504000    1.0039149   -5.0523255   -5.0523255   -3.8547072  0.061041497   -5.0523255    1.1976182   516870 
  505000    1.0026378   -5.0501109   -5.0501109       -3.854  0.084816758   -5.0501109    1.1961109   516863 
  506000    1.0038825   -5.0520614   -5.0520614    -3.854447  0.072579852   -5.0520614    1.1976143   516855 
  507000    1.0059005   -5.0544683   -5.0544683   -3.8544302  0.064060813   -5.0544683     1.200038   516848 
  508000    1.0031336   -5.0522137   -5.0522137   -3.8554604  0.070034991   -5.0522137    1.1967533   516841 
  509000    1.0022064   -5.0498381   -5.0498381   -3.8541725  0.071016175   -5.0498381    1.1956656   516833 
  510000    1.0033033   -5.0506917   -5.0506917   -3.8537012  0.080952485   -5.0506917    1.1969905   516826 
  511000    1.0041413    -5.052242    -5.052242   -3.8542332  0.072267468    -5.052242    1.1980088   516818 
  512000    1.0029672    -5.051608    -5.051608   -3.8549837  0.051020679    -5.051608    1.1966243   516811 
  513000    1.0036307   -5.0520501   -5.0520501   -3.8546157   0.06186587   -5.0520501    1.1974344   516803 
  514000    1.0043484   -5.0515761   -5.0515761   -3.8532691  0.073209233   -5.0515761     1.198307   516796 
  515000    1.0035588   -5.0513323   -5.0513323   -3.8539512  0.092508465   -5.0513323    1.1973811   516789 
  516000    1.0035986   -5.0508206   -5.0508206   -3.8533735  0.066852844   -5.0508206    1.1974471   516781 
  517000    1.0046487   -5.0520697   -5.0520697   -3.8533535   0.08023931   -5.0520697    1.1987162   516774 
  518000     1.003288   -5.0515085   -5.0515085   -3.8543973   0.07263372   -5.0515085    1.1971112   516766 
  519000    1.0047184   -5.0536487   -5.0536487   -3.8548145  0.054534294   -5.0536487    1.1988342   516759 
  520000    1.0026877   -5.0519305   -5.0519305   -3.8555031  0.076537994   -5.0519305    1.1964274   516752 
  521000    1.0028811   -5.0527931   -5.0527931   -3.8561165  0.074269977   -5.0527931    1.1966766   516744 
  522000    1.0033751    -5.052797    -5.052797   -3.8555146  0.080307566    -5.052797    1.1972824   516737 
  523000    1.0029626   -5.0533751   -5.0533751   -3.8565664  0.061924845   -5.0533751    1.1968087   516729 
  524000    1.0031938    -5.053264    -5.053264   -3.8561633  0.083309888    -5.053264    1.1971007   516722 
  525000    1.0025835   -5.0528623   -5.0528623   -3.8564736  0.070061046   -5.0528623    1.1963887   516715 
  526000    1.0028855   -5.0532807   -5.0532807    -3.856513  0.060042217   -5.0532807    1.1967676   516707 
  527000    1.0041855   -5.0546506   -5.0546506   -3.8563155  0.074582637   -5.0546506    1.1983352   516700 
  528000      1.00369   -5.0533822   -5.0533822   -3.8556197  0.081262422   -5.0533822    1.1977624   516692 
  529000    1.0017915   -5.0524852   -5.0524852   -3.8569722  0.083893865   -5.0524852     1.195513   516685 
  530000    1.0023931   -5.0537842   -5.0537842   -3.8575371  0.096841542   -5.0537842    1.1962471   516678 
  531000    1.0035857   -5.0545001   -5.0545001   -3.8568111  0.086371651   -5.0545001     1.197689   516670 
  532000    1.0040806   -5.0561881   -5.0561881   -3.8578924  0.068587086   -5.0561881    1.1982957   516663 
  533000    1.0035881   -5.0551097   -5.0551097   -3.8573831  0.058890013   -5.0551097    1.1977266   516655 
  534000    1.0029664    -5.053931    -5.053931   -3.8569301  0.048583814    -5.053931    1.1970009   516648 
  535000    1.0021024   -5.0532815   -5.0532815   -3.8572956  0.050481165   -5.0532815    1.1959858   516641 
  536000    1.0041898   -5.0551019   -5.0551019   -3.8566062   0.05514987   -5.0551019    1.1984957   516633 
  537000     1.004169   -5.0538957   -5.0538957   -3.8554087   0.05811669   -5.0538957     1.198487   516626 
  538000    1.0026157   -5.0529591   -5.0529591   -3.8563073   0.06850231   -5.0529591    1.1966518   516618 
  539000    1.0031026   -5.0536046   -5.0536046   -3.8563555  0.057093856   -5.0536046    1.1972491   516611 
  540000    1.0025136   -5.0521522   -5.0521522   -3.8555875   0.10079815   -5.0521522    1.1965647   516603 
  541000    1.0031012   -5.0537146   -5.0537146   -3.8564324  0.072864479   -5.0537146    1.1972822   516596 
  542000    1.0035721    -5.056096    -5.056096   -3.8582355  0.057177673    -5.056096    1.1978605   516589 
  543000    1.0034558   -5.0553758   -5.0553758   -3.8576355  0.057334363   -5.0553758    1.1977403   516581 
  544000    1.0045927    -5.056071    -5.056071   -3.8569575  0.060066369    -5.056071    1.1991135   516574 
  545000    1.0044478   -5.0565776   -5.0565776   -3.8576184    0.0736053   -5.0565776    1.1989592   516566 
  546000    1.0037152   -5.0568492   -5.0568492   -3.8587483  0.065044954   -5.0568492    1.1981009   516559 
  547000    1.0032449   -5.0563477   -5.0563477    -3.858792  0.071926453   -5.0563477    1.1975557   516552 
  548000    1.0030939   -5.0565328   -5.0565328   -3.8591388  0.073348311   -5.0565328    1.1973941   516544 
  549000    1.0016125    -5.056011    -5.056011   -3.8603691  0.060351188    -5.056011    1.1956419   516537 
  550000    1.0024191   -5.0563647   -5.0563647   -3.8597414  0.071110719   -5.0563647    1.1966232   516529 
  551000    1.0017856   -5.0546975   -5.0546975   -3.8588143  0.066664296   -5.0546975    1.1958832   516522 
  552000    1.0034891   -5.0558489   -5.0558489   -3.8579159  0.070919181   -5.0558489     1.197933   516515 
  553000    1.0023016   -5.0563507   -5.0563507   -3.8598167   0.06895166   -5.0563507     1.196534   516507 
  554000    1.0010905   -5.0557992   -5.0557992   -3.8606949   0.05920387   -5.0557992    1.1951044   516500 
  555000    1.0024965     -5.05743     -5.05743   -3.8606286  0.082462178     -5.05743    1.1968014   516492 
  556000    1.0022006   -5.0560262   -5.0560262   -3.8595619  0.091553742   -5.0560262    1.1964643   516485 
  557000    1.0032547   -5.0561635   -5.0561635   -3.8584245  0.050240304   -5.0561635     1.197739   516478 
  558000    1.0021127   -5.0555642   -5.0555642   -3.8591701  0.081604198   -5.0555642    1.1963941   516470 
  559000    1.0022448   -5.0559881   -5.0559881     -3.85942  0.063474748   -5.0559881    1.1965681   516463 
  560000     1.001917   -5.0558029   -5.0558029   -3.8596076  0.070436611   -5.0558029    1.1961953   516455 
  561000    1.0022124   -5.0555601   -5.0555601   -3.8589959  0.064456216   -5.0555601    1.1965642   516448 
  562000    1.0024866    -5.055551    -5.055551   -3.8586433  0.050719941    -5.055551    1.1969077   516441 
  563000    1.0027242   -5.0561238   -5.0561238   -3.8589137   0.08628314   -5.0561238      1.19721   516433 
  564000    1.0034578   -5.0570194   -5.0570194   -3.8589173  0.064925353   -5.0570194    1.1981021   516426 
  565000     1.002547   -5.0560247   -5.0560247   -3.8589915  0.069583054   -5.0560247    1.1970332   516418 
  566000     1.002147   -5.0556829   -5.0556829   -3.8591111  0.089087809   -5.0556829    1.1965718   516411 
  567000    1.0024062   -5.0564699   -5.0564699   -3.8595701   0.07013672   -5.0564699    1.1968998   516403 
  568000    1.0012705   -5.0548806   -5.0548806   -3.8593207  0.056356912   -5.0548806      1.19556   516396 
  569000    1.0021908   -5.0568865   -5.0568865   -3.8602114  0.050503197   -5.0568865    1.1966751   516389 
  570000    1.0011169   -5.0561459   -5.0561459   -3.8607346   0.08416493   -5.0561459    1.1954113   516381 
  571000    1.0011595   -5.0566186   -5.0566186   -3.8611402  0.062444986   -5.0566186    1.1954784   516374 
  572000    1.0030311   -5.0589623   -5.0589623   -3.8612305  0.088729593   -5.0589623    1.1977318   516366 
  573000    1.0021182   -5.0590636   -5.0590636   -3.8624057  0.054987311   -5.0590636    1.1966579   516359 
  574000    1.0050373   -5.0618259   -5.0618259   -3.8616659  0.079432376   -5.0618259      1.20016   516352 
  575000    1.0043576    -5.060632    -5.060632   -3.8612651  0.074337799    -5.060632    1.1993669   516344 
  576000    1.0024869   -5.0575049   -5.0575049   -3.8603557    0.0711328   -5.0575049    1.1971492   516337 
  577000    1.0025546   -5.0575016   -5.0575016   -3.8602531  0.075262081   -5.0575016    1.1972485   516329 
  578000    1.0039256   -5.0590787   -5.0590787   -3.8601766   0.07072719   -5.0590787    1.1989021   516322 
  579000    1.0018811    -5.056889    -5.056889   -3.8604122   0.10395937    -5.056889    1.1964768   516315 
  580000    1.0027451   -5.0582723   -5.0582723   -3.8607452  0.066693847   -5.0582723    1.1975271   516307 
  581000     1.004461   -5.0601504   -5.0601504   -3.8605579  0.047083675   -5.0601504    1.1995925   516300 
  582000    1.0033644   -5.0594592   -5.0594592   -3.8611577  0.079514749   -5.0594592    1.1983015   516292 
  583000    1.0030705   -5.0588508   -5.0588508    -3.860884  0.053952058   -5.0588508    1.1979668   516285 
  584000    1.0008753   -5.0570445   -5.0570445   -3.8616832  0.061352857   -5.0570445    1.1953612   516278 
  585000    1.0021939   -5.0571388   -5.0571388   -3.8601842  0.079317214   -5.0571388    1.1969546   516270 
  586000    1.0021058    -5.058434    -5.058434   -3.8615684  0.073259418    -5.058434    1.1968656   516263 
  587000    1.0018674   -5.0593145   -5.0593145   -3.8627151  0.073217459   -5.0593145    1.1965994   516255 
  588000    1.0018219   -5.0599943   -5.0599943   -3.8634329  0.076224939   -5.0599943    1.1965613   516248 
  589000    1.0031857    -5.061107    -5.061107   -3.8629006  0.097218091    -5.061107    1.1982064   516241 
  590000    1.0020791    -5.058487    -5.058487   -3.8615837  0.065956187    -5.058487    1.1969032   516233 
  591000    1.0023475   -5.0591526   -5.0591526   -3.8619126  0.086030138   -5.0591526    1.1972401   516226 
  592000    1.0005057   -5.0581318   -5.0581318   -3.8630731  0.092510731   -5.0581318    1.1950587   516218 
  593000    1.0025529   -5.0611763   -5.0611763   -3.8636561  0.053734725   -5.0611763    1.1975202   516211 
  594000    1.0013877   -5.0615913   -5.0615913   -3.8654443  0.059991988   -5.0615913     1.196147   516203 
  595000    1.0013227   -5.0613655   -5.0613655     -3.86528  0.072069089   -5.0613655    1.1960855   516196 
  596000    1.0015344   -5.0619753   -5.0619753   -3.8656206  0.060934343   -5.0619753    1.1963546   516189 
  597000   0.99965279    -5.060225    -5.060225   -3.8660994  0.089163367    -5.060225    1.1941255   516181 
  598000    1.0005654   -5.0611999   -5.0611999    -3.865968  0.073973125   -5.0611999    1.1952319   516174 
  599000    1.0018303   -5.0615879   -5.0615879   -3.8648264  0.078558129   -5.0615879    1.1967615   516166 
  600000    1.0015648   -5.0617057   -5.0617057   -3.8652451  0.077741594   -5.0617057    1.1964605   516159 
  601000   0.99926727   -5.0597333   -5.0597333   -3.8660013  0.051634843   -5.0597333    1.1937321   516152 
  602000   0.99980446    -5.059903    -5.059903   -3.8655107  0.094883093    -5.059903    1.1943923   516144 
  603000    1.0011516   -5.0618763   -5.0618763   -3.8658584   0.06305243   -5.0618763    1.1960178   516137 
  604000    1.0011865   -5.0619646   -5.0619646   -3.8658865  0.056148015   -5.0619646    1.1960781   516129 
  605000    1.0000916   -5.0607892   -5.0607892    -3.866003  0.066887671   -5.0607892    1.1947862   516122 
  606000    1.0016115    -5.062259    -5.062259   -3.8656407  0.067246307    -5.062259    1.1966183   516115 
  607000    1.0002102   -5.0608509   -5.0608509   -3.8658882  0.056022593   -5.0608509    1.1949627   516107 
  608000     1.000935    -5.061011    -5.061011   -3.8651662  0.078036528    -5.061011    1.1958448   516100 
  609000   0.99975908    -5.060877    -5.060877   -3.8664185  0.084472992    -5.060877    1.1944585   516092 
  610000    1.0000806   -5.0604831   -5.0604831   -3.8656243  0.066552508   -5.0604831    1.1948588   516085 
  611000    1.0022808   -5.0614291   -5.0614291   -3.8639253   0.06360464   -5.0614291    1.1975037   516078 
  612000    1.0003775   -5.0597859   -5.0597859   -3.8645376  0.073604251   -5.0597859    1.1952483   516070 
  613000    1.0003869   -5.0607321   -5.0607321   -3.8654564  0.075585744   -5.0607321    1.1952757   516063 
  614000   0.99986232   -5.0597772   -5.0597772   -3.8651098  0.059560094   -5.0597772    1.1946674   516055 
  615000    1.0019719   -5.0617414   -5.0617414   -3.8645372  0.084512752   -5.0617414    1.1972042   516048 
  616000    1.0020338   -5.0615017   -5.0615017   -3.8642073  0.071256537   -5.0615017    1.1972945   516041 
  617000    1.0024154   -5.0626767   -5.0626767   -3.8649077  0.084057886   -5.0626767     1.197769   516033 
  618000    1.0023403   -5.0628994   -5.0628994   -3.8652039  0.065299773   -5.0628994    1.1976955   516026 
  619000    1.0014199   -5.0616115   -5.0616115   -3.8649972  0.070876307   -5.0616115    1.1966143   516018 
  620000    1.0008449   -5.0611027   -5.0611027   -3.8651593  0.071471333   -5.0611027    1.1959434   516011 
  621000    1.0002667   -5.0608894   -5.0608894   -3.8656184  0.055984058   -5.0608894     1.195271   516003 
  622000   0.99985237   -5.0610242   -5.0610242   -3.8662321  0.062416234   -5.0610242    1.1947921   515996 
  623000    1.0007425     -5.06197     -5.06197    -3.866098  0.043679678     -5.06197     1.195872   515989 
  624000   0.99874613   -5.0591594   -5.0591594   -3.8656545  0.071585753   -5.0591594    1.1935049   515981 
  625000   0.99987241   -5.0595514   -5.0595514   -3.8646843  0.055464083   -5.0595514     1.194867   515974 
  626000    1.0004412   -5.0602489   -5.0602489   -3.8646836    0.0790778   -5.0602489    1.1955653   515966 
  627000    1.0005353   -5.0601153   -5.0601153   -3.8644214  0.078639764   -5.0601153    1.1956939   515959 
  628000    1.0005857   -5.0610848   -5.0610848   -3.8653143  0.064475197   -5.0610848    1.1957704   515952 
  629000    1.0004827   -5.0607922   -5.0607922   -3.8651263  0.089007403   -5.0607922    1.1956659   515944 
  630000     1.001307   -5.0618916   -5.0618916   -3.8652243  0.092105659   -5.0618916    1.1966673   515937 
  631000    1.0005297   -5.0600402   -5.0600402   -3.8642833  0.071454433   -5.0600402    1.1957569   515929 
  632000   0.99985166   -5.0590415   -5.0590415   -3.8640788  0.063736836   -5.0590415    1.1949627   515922 
  633000    1.0006628   -5.0602308   -5.0602308   -3.8642825  0.074856257   -5.0602308    1.1959483   515915 
  634000    1.0006243   -5.0599379   -5.0599379   -3.8640171  0.080771576   -5.0599379    1.1959209   515907 
  635000   0.99928796   -5.0580089   -5.0580089    -3.863669  0.068356352   -5.0580089    1.1943399   515900 
  636000   0.99896552   -5.0584943   -5.0584943   -3.8645213  0.068128001   -5.0584943     1.193973   515892 
  637000    1.0007305   -5.0603305   -5.0603305   -3.8642317  0.056639949   -5.0603305    1.1960988   515885 
  638000   0.99960329   -5.0602861   -5.0602861   -3.8655184  0.074474008   -5.0602861    1.1947677   515878 
  639000   0.99982428   -5.0610384   -5.0610384    -3.865988  0.081166929   -5.0610384    1.1950504   515870 
  640000   0.99968088   -5.0605144   -5.0605144   -3.8656192  0.060097438   -5.0605144    1.1948952   515863 
  641000    0.9996739   -5.0597932   -5.0597932   -3.8648878  0.067925815   -5.0597932    1.1949054   515855 
  642000    1.0011349    -5.062119    -5.062119   -3.8654511  0.068431578    -5.062119    1.1966679   515848 
  643000   0.99977996   -5.0608668   -5.0608668   -3.8658022   0.06477963   -5.0608668    1.1950646   515841 
  644000    1.0008743   -5.0616977   -5.0616977   -3.8653064  0.077593723   -5.0616977    1.1963913   515833 
  645000    1.0022934   -5.0622826   -5.0622826   -3.8641788  0.085208589   -5.0622826    1.1981039   515826 
  646000    1.0019607   -5.0625084   -5.0625084   -3.8647837  0.060723078   -5.0625084    1.1977247   515818 
  647000    1.0015389    -5.062028    -5.062028   -3.8647913  0.066891456    -5.062028    1.1972367   515811 
  648000    1.0007167   -5.0614685   -5.0614685   -3.8651961   0.04916298   -5.0614685    1.1962724   515803 
  649000    1.0024828   -5.0632684   -5.0632684   -3.8648684  0.069608067   -5.0632684       1.1984   515796 
  650000    1.0012505   -5.0620078   -5.0620078   -3.8650648  0.085709887   -5.0620078     1.196943   515789 
  651000    1.0003533   -5.0603522   -5.0603522   -3.8644631  0.064285717   -5.0603522    1.1958891   515781 
  652000    1.0010448    -5.062572    -5.062572     -3.86584  0.073695415    -5.062572     1.196732   515774 
  653000    1.0004693   -5.0612768   -5.0612768   -3.8652143  0.070988097   -5.0612768    1.1960625   515766 
  654000   0.99972483    -5.060178    -5.060178   -3.8649893  0.075156989    -5.060178    1.1951887   515759 
  655000    1.0003288   -5.0615067   -5.0615067   -3.8655798  0.060820641   -5.0615067     1.195927   515752 
  656000   0.99939506   -5.0606999   -5.0606999   -3.8658707  0.030378491   -5.0606999    1.1948292   515744 
  657000   0.99984661    -5.061387    -5.061387   -3.8660017  0.066539243    -5.061387    1.1953853   515737 
  658000   0.99899932   -5.0610333   -5.0610333   -3.8666425  0.081725396   -5.0610333    1.1943908   515729 
  659000   0.99805089   -5.0594445   -5.0594445   -3.8661714  0.086868264   -5.0594445    1.1932731   515722 
  660000   0.99878711   -5.0596036   -5.0596036   -3.8654341   0.07310844   -5.0596036    1.1941695   515715 
  661000    0.9992065   -5.0603137   -5.0603137   -3.8656242   0.06234108   -5.0603137    1.1946895   515707 
  662000    1.0004596   -5.0624248   -5.0624248   -3.8662208  0.063575773   -5.0624248     1.196204   515700 
[...]
17480000   0.68339999   -5.5212388   -5.5212388   -4.4438671  0.044555465   -5.5212388    1.0773716   391122 
17481000   0.68266589    -5.520521    -5.520521   -4.4442874  0.068422631    -5.520521    1.0762336   391115 
17482000   0.68561774   -5.5247288   -5.5247288   -4.4438195  0.054154837   -5.5247288    1.0809093   391107 
17483000   0.68397446   -5.5213785   -5.5213785   -4.4430406   0.05480016   -5.5213785    1.0783379   391100 
17484000   0.68528031   -5.5230569   -5.5230569   -4.4426381  0.055354256   -5.5230569    1.0804188   391092 
17485000   0.68471322    -5.521106    -5.521106    -4.441562   0.06564057    -5.521106    1.0795441   391085 
17486000   0.68282602   -5.5190626   -5.5190626   -4.4424747  0.045391459   -5.5190626    1.0765879   391078 
17487000   0.68331789   -5.5187647   -5.5187647   -4.4413792  0.039746871   -5.5187647    1.0773855   391070 
17488000   0.68299595   -5.5180527   -5.5180527   -4.4411555  0.052514613   -5.5180527    1.0768971   391063 
17489000   0.68547975   -5.5230138   -5.5230138   -4.4421783  0.044496293   -5.5230138    1.0808355   391055 
17490000   0.68407728   -5.5214097   -5.5214097   -4.4427662  0.060668913   -5.5214097    1.0786435   391048 
17491000   0.68635093   -5.5248496   -5.5248496   -4.4426018  0.057580191   -5.5248496    1.0822479   391041 
17492000   0.68358272    -5.521474    -5.521474    -4.443569  0.071748142    -5.521474     1.077905   391033 
17493000    0.6856379   -5.5243477   -5.5243477   -4.4431827   0.05107241   -5.5243477     1.081165   391026 
17494000    0.6840309   -5.5202974   -5.5202974   -4.4416443  0.045187149   -5.5202974    1.0786531   391018 
17495000   0.68405642   -5.5217325   -5.5217325   -4.4430199  0.051337413   -5.5217325    1.0787126   391011 
17496000    0.6843756   -5.5205196   -5.5205196   -4.4412816  0.073682913   -5.5205196     1.079238   391003 
17497000    0.6838876   -5.5216378   -5.5216378     -4.44315  0.050827158   -5.5216378    1.0784878   390996 
17498000   0.68436047   -5.5203592   -5.5203592   -4.4411064  0.038178805   -5.5203592    1.0792528   390989 
17499000   0.68456553   -5.5202448   -5.5202448   -4.4406465  0.037845145   -5.5202448    1.0795983   390981 
17500000   0.68435372   -5.5207129   -5.5207129   -4.4414293  0.037890743   -5.5207129    1.0792836   390974 
17501000   0.68362297   -5.5201621   -5.5201621   -4.4420089  0.063246593   -5.5201621    1.0781532   390966 
17502000   0.68416008   -5.5216456   -5.5216456    -4.442626  0.051076585   -5.5216456    1.0790196   390959 
17503000   0.68484518   -5.5228402   -5.5228402   -4.4427207   0.05601198   -5.5228402    1.0801194   390952 
17504000   0.68300892    -5.521435    -5.521435   -4.4441896  0.035114874    -5.521435    1.0772454   390944 
17505000   0.68482181   -5.5238377   -5.5238377   -4.4437137  0.035883549   -5.5238377     1.080124   390937 
17506000   0.68237681   -5.5208739   -5.5208739   -4.4445841  0.064661347   -5.5208739    1.0762897   390929 
17507000   0.68517419   -5.5245066   -5.5245066   -4.4437854  0.044932478   -5.5245066    1.0807213   390922 
17508000   0.68544033   -5.5250023   -5.5250023   -4.4438419  0.066609899   -5.5250023    1.0811604   390915 
17509000   0.68416386   -5.5217726   -5.5217726   -4.4426035  0.054750069   -5.5217726    1.0791691   390907 
17510000   0.68375892   -5.5218838   -5.5218838   -4.4433341  0.024642593   -5.5218838    1.0785497   390900 
17511000   0.68249252   -5.5201258   -5.5201258   -4.4435516  0.052354263   -5.5201258    1.0765741   390892 
17512000   0.68315896   -5.5215012   -5.5215012   -4.4438566   0.04640763   -5.5215012    1.0776447   390885 
17513000   0.68238755   -5.5210361   -5.5210361    -4.444589  0.049759935   -5.5210361    1.0764471   390878 
17514000   0.68324773   -5.5220009   -5.5220009   -4.4441748   0.03612984   -5.5220009     1.077826   390870 
17515000   0.68542518   -5.5238365   -5.5238365   -4.4425561  0.071687848   -5.5238365    1.0812803   390863 
17516000   0.68395743   -5.5221951   -5.5221951   -4.4432081  0.059640925   -5.5221951     1.078987   390855 
17517000   0.68371069    -5.522315    -5.522315   -4.4436979  0.036268345    -5.522315    1.0786171   390848 
17518000   0.68408261   -5.5216121   -5.5216121    -4.442389  0.038290424   -5.5216121    1.0792232   390841 
17519000   0.68405988   -5.5213611   -5.5213611   -4.4421518  0.043454627   -5.5213611    1.0792094   390833 
17520000   0.68374894   -5.5199944   -5.5199944   -4.4412562  0.075706888   -5.5199944    1.0787381   390826 
17521000   0.68540533   -5.5216697   -5.5216697   -4.4402962  0.041291849   -5.5216697    1.0813735   390818 
17522000   0.68607964    -5.522402    -5.522402   -4.4399452  0.057184027    -5.522402    1.0824568   390811 
17523000   0.68487107     -5.52193     -5.52193   -4.4413579  0.064732628     -5.52193    1.0805721   390803 
17524000    0.6843537   -5.5210495   -5.5210495   -4.4412743  0.044073521   -5.5210495    1.0797752   390796 
17525000   0.68273471   -5.5193496   -5.5193496   -4.4421096  0.051664509   -5.5193496      1.07724   390789 
17526000    0.6828933   -5.5196509   -5.5196509   -4.4421387  0.040056431   -5.5196509    1.0775123   390781 
17527000   0.68400416   -5.5217234   -5.5217234    -4.442439  0.048964352   -5.5217234    1.0792844   390774 
17528000   0.68471208   -5.5215095   -5.5215095    -4.441086  0.053172728   -5.5215095    1.0804235   390766 
17529000   0.68095036   -5.5169099   -5.5169099   -4.4424028  0.058037045   -5.5169099    1.0745071   390759 
17530000   0.68385399   -5.5215707   -5.5215707   -4.4424625  0.048521293   -5.5215707    1.0791082   390752 
17531000   0.68430573   -5.5219915   -5.5219915   -4.4421484  0.060055908   -5.5219915    1.0798431   390744 
17532000   0.68391645   -5.5209636   -5.5209636   -4.4417154  0.063508228   -5.5209636    1.0792482   390737 
17533000   0.68446393   -5.5233131   -5.5233131   -4.4431788  0.061594147   -5.5233131    1.0801342   390729 
17534000   0.68183744   -5.5191033   -5.5191033   -4.4430946  0.083916439   -5.5191033    1.0760087   390722 
17535000   0.68305519   -5.5221376   -5.5221376   -4.4441879  0.053503756   -5.5221376    1.0779498   390715 
17536000   0.68459322   -5.5244362   -5.5244362   -4.4440371  0.050025132   -5.5244362    1.0803991   390707 
17537000   0.68227005   -5.5222105   -5.5222105   -4.4454584  0.051691986   -5.5222105    1.0767521   390700 
17538000   0.68365006   -5.5226917   -5.5226917   -4.4437396  0.056360217   -5.5226917    1.0789521   390692 
17539000   0.68378406   -5.5235084   -5.5235084   -4.4443255  0.051835087   -5.5235084    1.0791829   390685 
17540000   0.68499338   -5.5247376   -5.5247376   -4.4436268  0.074582448   -5.5247376    1.0811109   390678 
17541000   0.68467015   -5.5248814   -5.5248814   -4.4442585  0.054770626   -5.5248814    1.0806229   390670 
17542000   0.68404181   -5.5249068   -5.5249068   -4.4452563  0.069790035   -5.5249068    1.0796505   390663 
17543000   0.68495984   -5.5260513   -5.5260513   -4.4449297  0.046825971   -5.5260513    1.0811216   390655 
17544000   0.68277366   -5.5232211   -5.5232211   -4.4455308  0.064079826   -5.5232211    1.0776903   390648 
17545000   0.68470818   -5.5262801   -5.5262801    -4.445517   0.08373037   -5.5262801    1.0807631   390641 
17546000   0.68406879   -5.5244049   -5.5244049    -4.444629  0.042346598   -5.5244049     1.079776   390633 
17547000   0.68383293   -5.5243406   -5.5243406   -4.4449175  0.061004327   -5.5243406     1.079423   390626 
17548000   0.68314739   -5.5243703   -5.5243703   -4.4460073  0.041008535   -5.5243703     1.078363   390618 
17549000   0.68289097   -5.5243299   -5.5243299   -4.4463524  0.061348515   -5.5243299    1.0779775   390611 
17550000   0.68313315   -5.5234952   -5.5234952   -4.4451133  0.051569061   -5.5234952    1.0783819   390603 
17551000   0.68379812   -5.5246723   -5.5246723   -4.4452213  0.062387357   -5.5246723     1.079451   390596 
17552000   0.68337599   -5.5233704   -5.5233704   -4.4445665  0.059959229   -5.5233704    1.0788039   390589 
17553000   0.68368371   -5.5242215   -5.5242215   -4.4449097  0.052201431   -5.5242215    1.0793118   390581 
17554000   0.68265769    -5.523125    -5.523125   -4.4454136  0.051060449    -5.523125    1.0777114   390574 
17555000    0.6823793   -5.5227612   -5.5227612   -4.4454672  0.052173086   -5.5227612     1.077294   390566 
17556000   0.68398354   -5.5246032   -5.5246032   -4.4447572  0.064030498   -5.5246032     1.079846   390559 
17557000   0.68198355   -5.5226832   -5.5226832   -4.4459754  0.060019904   -5.5226832    1.0767078   390552 
17558000     0.682667   -5.5232797   -5.5232797   -4.4454708  0.047082477   -5.5232797    1.0778089   390544 
17559000   0.68336953   -5.5236364   -5.5236364    -4.444699  0.064157247   -5.5236364    1.0789374   390537 
17560000   0.68314899   -5.5241855   -5.5241855   -4.4455742  0.062379777   -5.5241855    1.0786113   390529 
17561000   0.68363861   -5.5259141   -5.5259141   -4.4465104  0.054369496   -5.5259141    1.0794037   390522 
17562000   0.68331561   -5.5260751   -5.5260751   -4.4471621  0.045903439   -5.5260751     1.078913   390515 
17563000   0.68354719   -5.5258341   -5.5258341   -4.4465333  0.051799001   -5.5258341    1.0793008   390507 
17564000   0.68344173   -5.5247427   -5.5247427   -4.4455891  0.060065591   -5.5247427    1.0791536   390500 
17565000    0.6823699   -5.5229998   -5.5229998   -4.4455165  0.032749511   -5.5229998    1.0774833   390492 
17566000   0.68343332   -5.5242452   -5.5242452   -4.4450635  0.062836897   -5.5242452    1.0791818   390485 
17567000   0.68275482   -5.5231504   -5.5231504   -4.4450207  0.052398208   -5.5231504    1.0781297   390478 
17568000   0.68185831   -5.5219916   -5.5219916   -4.4452555  0.057499683   -5.5219916    1.0767361   390470 
17569000   0.68268559   -5.5229348   -5.5229348    -4.444873  0.056405266   -5.5229348    1.0780618   390463 
17570000   0.68279328   -5.5220325   -5.5220325   -4.4437785  0.065020988   -5.5220325     1.078254   390455 
17571000   0.68349229   -5.5238416   -5.5238416   -4.4444644  0.036732621   -5.5238416    1.0793772   390448 
17572000   0.68563455   -5.5255248   -5.5255248   -4.4427451  0.051217095   -5.5255248    1.0827797   390441 
17573000   0.68417958   -5.5239372   -5.5239372   -4.4434332  0.038699415   -5.5239372    1.0805041   390433 
17574000   0.68462739   -5.5242733   -5.5242733   -4.4430426  0.049422753   -5.5242733    1.0812307   390426 
17575000    0.6828145   -5.5225024   -5.5225024   -4.4441127  0.044925088   -5.5225024    1.0783897   390418 
17576000   0.68197461   -5.5215965   -5.5215965    -4.444514  0.059416822   -5.5215965    1.0770825   390411 
17577000   0.68330662   -5.5239095   -5.5239095   -4.4447011  0.044332283   -5.5239095    1.0792084   390403 
17578000   0.68325977   -5.5247941   -5.5247941   -4.4456404  0.040464482   -5.5247941    1.0791537   390396 
17579000   0.68261338   -5.5246854   -5.5246854   -4.4465333  0.066588371   -5.5246854    1.0781521   390389 
17580000   0.68253255   -5.5249235   -5.5249235    -4.446877  0.047386624   -5.5249235    1.0780465   390381 
17581000   0.68239793   -5.5246296   -5.5246296   -4.4467764  0.059068981   -5.5246296    1.0778532   390374 
17582000   0.68349689   -5.5264939   -5.5264939   -4.4468827  0.036601054   -5.5264939    1.0796112   390366 
17583000   0.68287733   -5.5247568   -5.5247568   -4.4461049  0.051445695   -5.5247568    1.0786519   390359 
17584000   0.68313203   -5.5246603   -5.5246603   -4.4455867  0.069268257   -5.5246603    1.0790736   390352 
17585000   0.68301328   -5.5248084   -5.5248084   -4.4459003  0.061333118   -5.5248084    1.0789081   390344 
17586000   0.68310009   -5.5240048   -5.5240048   -4.4449402  0.066785676   -5.5240048    1.0790646   390337 
17587000   0.68223511   -5.5243693   -5.5243693    -4.446649  0.042212605   -5.5243693    1.0777203   390329 
17588000    0.6826998   -5.5238771   -5.5238771   -4.4454034  0.050774911   -5.5238771    1.0784737   390322 
17589000   0.68438338    -5.526146    -5.526146   -4.4449933  0.049007542    -5.526146    1.0811527   390315 
17590000   0.68283007   -5.5232493   -5.5232493   -4.4445284  0.042569182   -5.5232493    1.0787209   390307 
17591000   0.68332588   -5.5241861   -5.5241861   -4.4446626  0.046373777   -5.5241861    1.0795236   390300 
17592000   0.68353213   -5.5246059   -5.5246059   -4.4447343  0.054987358   -5.5246059    1.0798715   390292 
17593000    0.6818634   -5.5225931   -5.5225931   -4.4453386   0.03477522   -5.5225931    1.0772545   390285 
17594000   0.68245165   -5.5232039   -5.5232039   -4.4450007  0.046827619   -5.5232039    1.0782032   390278 
17595000   0.68155756   -5.5215098   -5.5215098   -4.4446971  0.032615361   -5.5215098    1.0768127   390270 
17596000   0.68200325   -5.5232674   -5.5232674   -4.4457312  0.032519137   -5.5232674    1.0775362   390263 
17597000   0.68297562   -5.5243266   -5.5243266    -4.445232   0.07765949   -5.5243266    1.0790947   390255 
17598000   0.68173992   -5.5230066   -5.5230066    -4.445845  0.065112982   -5.5230066    1.0771616   390248 
17599000   0.68131923   -5.5225813   -5.5225813   -4.4460651  0.056242718   -5.5225813    1.0765162   390241 
17600000   0.68260989   -5.5240852   -5.5240852   -4.4455076   0.04034605   -5.5240852    1.0785776   390233 
17601000   0.68240625   -5.5237819   -5.5237819   -4.4455068  0.055681267   -5.5237819    1.0782752   390226 
17602000   0.68276146   -5.5242082   -5.5242082   -4.4453496  0.065164328   -5.5242082    1.0788586   390218 
17603000   0.68305591   -5.5241365   -5.5241365   -4.4447933  0.049547995   -5.5241365    1.0793432   390211 
17604000   0.68309832   -5.5253261   -5.5253261   -4.4458938  0.065317629   -5.5253261    1.0794323   390203 
17605000   0.68305416   -5.5246148   -5.5246148   -4.4452329   0.05678934   -5.5246148    1.0793819   390196 
17606000   0.68181037   -5.5232038   -5.5232038    -4.445768   0.03193281   -5.5232038    1.0774358   390189 
17607000    0.6836626   -5.5248951   -5.5248951   -4.4445101  0.037509063   -5.5248951    1.0803849   390181 
17608000   0.68100117   -5.5225568   -5.5225568   -4.4463584  0.053125384   -5.5225568    1.0761984   390174 
17609000   0.68298722   -5.5239272   -5.5239272   -4.4445681  0.045153399   -5.5239272    1.0793591   390166 
17610000   0.68299938   -5.5236444   -5.5236444   -4.4442467  0.040731396   -5.5236444    1.0793977   390159 
17611000   0.68294566   -5.5249792   -5.5249792   -4.4456471  0.041685309   -5.5249792    1.0793322   390152 
17612000   0.68070283   -5.5227257   -5.5227257   -4.4469161  0.043891666   -5.5227257    1.0758097   390144 
17613000   0.68205001   -5.5241552   -5.5241552    -4.446197  0.032177052   -5.5241552    1.0779581   390137 
17614000   0.68249196   -5.5252814   -5.5252814   -4.4466026  0.059005779   -5.5252814    1.0786788   390129 
17615000   0.68269874     -5.52481     -5.52481    -4.445785  0.052081505     -5.52481    1.0790249   390122 
17616000   0.68312341   -5.5261756   -5.5261756   -4.4464601  0.047091554   -5.5261756    1.0797155   390115 
17617000   0.68303944   -5.5250752   -5.5250752   -4.4454702  0.079390506   -5.5250752    1.0796049   390107 
17618000   0.68210196   -5.5242306   -5.5242306   -4.4460881  0.067185486   -5.5242306    1.0781425   390100 
17619000    0.6825862   -5.5248456   -5.5248456   -4.4459156  0.025545886   -5.5248456      1.07893   390092 
17620000   0.68292842   -5.5246082   -5.5246082   -4.4451179  0.042097684   -5.5246082    1.0794903   390085 
17621000   0.68384479   -5.5265069   -5.5265069   -4.4455487  0.057984727   -5.5265069    1.0809582   390078 
17622000   0.68342971   -5.5257706   -5.5257706   -4.4454464  0.045058875   -5.5257706    1.0803242   390070 
17623000   0.68304925   -5.5246737   -5.5246737   -4.4449315  0.047940353   -5.5246737    1.0797422   390063 
17624000   0.68315013   -5.5256127   -5.5256127   -4.4456888   0.05768375   -5.5256127    1.0799238   390055 
17625000    0.6839106   -5.5273362   -5.5273362   -4.4461908  0.031598696   -5.5273362    1.0811454   390048 
17626000    0.6812913   -5.5238969   -5.5238969   -4.4468728  0.061533065   -5.5238969     1.077024   390041 
17627000   0.68183542   -5.5241351   -5.5241351   -4.4462288  0.031808314   -5.5241351    1.0779063   390033 
17628000   0.68243558    -5.524326    -5.524326   -4.4454515  0.049089893    -5.524326    1.0788745   390026 
17629000   0.68274781   -5.5243123   -5.5243123   -4.4449221  0.048997121   -5.5243123    1.0793902   390018 
17630000   0.68252422   -5.5231694   -5.5231694   -4.4441133  0.050418297   -5.5231694    1.0790561   390011 
17631000   0.68299292   -5.5249983   -5.5249983    -4.445179  0.062683478   -5.5249983    1.0798193   390003 
17632000   0.68188191   -5.5252281   -5.5252281    -4.447146  0.048508621   -5.5252281    1.0780821   389996 
17633000   0.68232074   -5.5269722   -5.5269722   -4.4481769  0.074445279   -5.5269722    1.0787953   389989 
17634000   0.68068116   -5.5254339   -5.5254339   -4.4492088  0.049986285   -5.5254339    1.0762251   389981 
17635000    0.6824414   -5.5277024   -5.5277024   -4.4486748   0.04139913   -5.5277024    1.0790275   389974 
17636000   0.68152716   -5.5255301   -5.5255301    -4.447926  0.051243808   -5.5255301    1.0776041   389966 
17637000   0.68294294   -5.5284576   -5.5284576   -4.4485955  0.044038685   -5.5284576    1.0798621   389959 
17638000   0.68093282   -5.5271527   -5.5271527   -4.4504497  0.055097818   -5.5271527     1.076703   389952 
17639000   0.68156975   -5.5281886   -5.5281886   -4.4504563  0.045176059   -5.5281886    1.0777322   389944 
17640000   0.68133231   -5.5272357   -5.5272357   -4.4498596   0.05807582   -5.5272357    1.0773761   389937 
17641000   0.68252171   -5.5310158   -5.5310158   -4.4517368  0.039727538   -5.5310158    1.0792791   389929 
17642000   0.67975301   -5.5257638   -5.5257638   -4.4508436  0.039988713   -5.5257638    1.0749202   389922 
17643000    0.6809532   -5.5273416   -5.5273416   -4.4505042  0.053817608   -5.5273416    1.0768374   389915 
17644000   0.68021895   -5.5259286   -5.5259286   -4.4502302  0.047346522   -5.5259286    1.0756984   389907 
17645000   0.68131084    -5.527821    -5.527821   -4.4503766  0.055350059    -5.527821    1.0774444   389900 
17646000   0.68302629   -5.5304057   -5.5304057   -4.4502263  0.037830431   -5.5304057    1.0801795   389892 
17647000   0.68202501   -5.5288231   -5.5288231   -4.4502077  0.049263238   -5.5288231    1.0786153   389885 
17648000   0.68145448   -5.5277547   -5.5277547   -4.4500223  0.046249329   -5.5277547    1.0777324   389878 
17649000   0.68052597   -5.5261246   -5.5261246   -4.4498386  0.063129791   -5.5261246     1.076286   389870 
17650000   0.68067541    -5.526231    -5.526231   -4.4496893  0.042224973    -5.526231    1.0765417   389863 
17651000   0.68119343   -5.5269398   -5.5269398   -4.4495567  0.037019037   -5.5269398    1.0773831   389855 
17652000   0.68078832   -5.5279176   -5.5279176   -4.4511558  0.055747277   -5.5279176    1.0767617   389848 
17653000   0.68368006   -5.5318532   -5.5318532   -4.4504984  0.039457142   -5.5318532    1.0813548   389841 
17654000    0.6805874   -5.5273416   -5.5273416   -4.4508562  0.044861043   -5.5273416    1.0764853   389833 
17655000   0.68044147   -5.5277294   -5.5277294   -4.4514556  0.057073105   -5.5277294    1.0762738   389826 
17656000    0.6813225   -5.5286825   -5.5286825    -4.450993  0.039580315   -5.5286825    1.0776895   389818 
17657000   0.68068664   -5.5280022   -5.5280022   -4.4512991  0.023415742   -5.5280022    1.0767031   389811 
17658000   0.68083962   -5.5257518   -5.5257518   -4.4487847  0.068670918   -5.5257518    1.0769672   389803 
17659000   0.68223968   -5.5282163   -5.5282163   -4.4490151  0.070468138   -5.5282163    1.0792012   389796 
17660000   0.68141228      -5.5267      -5.5267   -4.4487883  0.053099688      -5.5267    1.0779117   389789 
17661000   0.68136208  