LAMMPS (24 Dec 2020)
OMP_NUM_THREADS environment is not set. Defaulting to 1 thread. (src/comm.cpp:94)
  using 1 OpenMP thread(s) per MPI task
#Read the equilibrated lj fluid and add nanocubes

units           lj
atom_style      full
#atom_modify     map array first cubes
dimension       3
boundary        p p f
pair_style      lj/cut/opt 2.5

variable        sigma           equal 1.0
variable        epsilon         equal 1.0

read_restart	${restart}
read_restart	restart.dat.4000000
Reading restart file ...
  restart file = 24 Dec 2020, LAMMPS = 24 Dec 2020
  restoring atom style full from restart
  orthogonal box = (0.0000000 0.0000000 0.0000000) to (160.00000 160.00000 320.00000)
  5 by 4 by 12 MPI processor grid
  restoring pair style lj/cut/opt from restart
  4153413 atoms
Finding 1-2 1-3 1-4 neighbors ...
  special bond factors lj:    0        0        0       
  special bond factors coul:  0        0        0       
     0 = max # of 1-2 neighbors
     0 = max # of 1-3 neighbors
     0 = max # of 1-4 neighbors
     1 = max # of special neighbors
  special bonds CPU = 1.915 seconds
  read_restart CPU = 3.582 seconds

neighbor      0.4 bin
neigh_modify  exclude molecule/intra cubes


pair_modify   shift yes

pair_coeff    1 1 1.0 1.0 #solvent
pair_coeff    2 2 0.6 1.0 #np
pair_coeff    3 3 0.0 0.0 0.0 #dummy
pair_coeff    2 3 0.0 0.0 0.0 #np dummy
pair_coeff    1 2 0.8 1.0 #np solvent
pair_coeff    1 3 0.0 0.0 0.0 #dummy solvent


comm_modify   mode multi cutoff/multi 1 2.5 cutoff/multi 2 2.5 cutoff/multi 3 6.95

reset_timestep 	0

balance 	1.05 shift z 10 1.05
Balancing ...
Unused restart file global fix info:
  fix style: STORE, fix ID: msd_COMPUTE_STORE
Neighbor list info ...
  update every 1 steps, delay 10 steps, check yes
  max neighbors/atom: 2000, page size: 100000
  master list distance cutoff = 2.9
  ghost atom cutoff = 6.95
  binsize = 1.45, bins = 111 111 221
  1 neighbor lists, perpetual/occasional/extra = 1 0 0
  (1) pair lj/cut/opt, perpetual
      attributes: half, newton on
      pair build: half/bin/newton
      stencil: half/bin/3d/newton
      bin: standard
 rebalancing time: 0.048 seconds
  iteration count = 5
  initial/final maximal load/proc = 31311.000 22162.000
  initial/final imbalance factor  = 1.8092687 1.2806046
  x cuts: 0.0000000 0.20000000 0.40000000 0.60000000 0.80000000 1.0000000
  y cuts: 0.0000000 0.25000000 0.50000000 0.75000000 1.0000000
  z cuts: 0.0000000 0.054687500 0.10677083 0.15104167 0.20312500 0.25520833 0.30468750 0.35677083 0.40625000 0.46875000 0.53125000 0.59114583 1.0000000

####################### WALLS ###########################

variable       epsilonWall equal 2*${epsilon}
variable       epsilonWall equal 2*1

variable       cutoffTop   equal   0.7147*${sigma}
variable       cutoffTop   equal   0.7147*1

variable       cutoffLow   equal   3*${sigma}
variable       cutoffLow   equal   3*1

region         lowWall block EDGE EDGE EDGE EDGE EDGE 2


fix            topWall all wall/lj93 zhi EDGE 	       ${epsilonWall} ${sigma} ${cutoffTop} units box
fix            topWall all wall/lj93 zhi EDGE 	       2 ${sigma} ${cutoffTop} units box
fix            topWall all wall/lj93 zhi EDGE 	       2 1 ${cutoffTop} units box
fix            topWall all wall/lj93 zhi EDGE 	       2 1 0.7147 units box

fix            lowWall all wall/lj93 zlo EDGE                ${epsilonWall} ${sigma} ${cutoffLow} units box
fix            lowWall all wall/lj93 zlo EDGE                2 ${sigma} ${cutoffLow} units box
fix            lowWall all wall/lj93 zlo EDGE                2 1 ${cutoffLow} units box
fix            lowWall all wall/lj93 zlo EDGE                2 1 3 units box


######################  FIXES ############################


fix             1 cubes rigid/nve/small molecule #temp 1.0 1.0 0.25
  create bodies CPU = 0.004 seconds
  512 rigid bodies with 585216 atoms
  6.9282032 = max distance from body owner to body atom

fix             2 solvent nve


## Thermostat

region          regthermo block EDGE EDGE EDGE EDGE 0 20
group           thermo dynamic solvent region regthermo every 1000
dynamic group thermo defined
fix             3 thermo langevin ${startTemp} ${temp} 0.1 156453
fix             3 thermo langevin 0.8 ${temp} 0.1 156453
fix             3 thermo langevin 0.8 0.8 0.1 156453


## Evaporation

region		regevap block EDGE EDGE EDGE EDGE 140 EDGE
fix 		evap solvent evaporate ${Nevap} 1 regevap 156455
fix 		evap solvent evaporate 50 1 regevap 156455


## Load balancing

fix             bal all balance 1000 1.05 shift z 10 1.05


############### Diagnostics and computes ###################

compute        com cubes          rigid/local   1 mol x y z
compute        quat cubes         rigid/local   1 mol quatw quati quatj quatk
compute 	cc2 cubes chunk/atom molecule

compute 	msd cubes msd/chunk cc2


thermo          1000
thermo_style    custom step temp epair evdwl etotal press pe ke vol


dump            1 all custom 100000 dump.lammpstrj id mol type x y z
dump            2 all image 10000 image.*.png type type
dump_modify     2 pad 8


dump		image cubes image 10000 image_cubes.*.png type type
dump_modify	image pad 8


dump            3 all movie 5000 movie.avi type type
dump           com cubes local 1000 dump.*.xyz c_com[*]
dump           quat cubes      local 1000 dump.*.quat c_quat[*]


restart         1000000 restart.dat
timestep        0.005
timer           full
New timer settings: style=full  mode=nosync  timeout=off

run            10000000
Per MPI rank memory allocation (min/avg/max) = 42.76 | 54.29 | 60.03 Mbytes
Step Temp E_pair E_vdwl TotEng Press PotEng KinEng Volume 
       0    0.8096768   -3.7997869   -3.7997869   -2.7560978  0.050875954   -3.7997869    1.0436891      8192000 
    1000   0.81010478   -3.8005086   -3.8005086   -2.7562627  0.031604989   -3.8005086    1.0442458      8192000 
    2000   0.81025807   -3.8005311   -3.8005311   -2.7560827  0.033148171   -3.8005311    1.0444484      8192000 
    3000   0.81024128   -3.8000482   -3.8000482   -2.7556164  0.033449249   -3.8000482    1.0444318      8192000 
    4000   0.81007288   -3.8001487   -3.8001487   -2.7559289  0.031457144   -3.8001487    1.0442198      8192000 
    5000   0.81027696   -3.8005773   -3.8005773   -2.7560894   0.03112766   -3.8005773    1.0444879      8192000 
    6000   0.80957141   -3.8000249   -3.8000249   -2.7564415  0.031075641   -3.8000249    1.0435834      8192000 
    7000   0.81008107   -3.8001146   -3.8001146   -2.7558692  0.031754979   -3.8001146    1.0442454      8192000 
    8000   0.80971861   -3.7996275   -3.7996275   -2.7558443   0.03129941   -3.7996275    1.0437832      8192000 
    9000   0.80992664   -3.8000623   -3.8000623   -2.7560059  0.031415976   -3.8000623    1.0440564      8192000 
   10000   0.80992596   -3.8000455   -3.8000455   -2.7559849  0.030059974   -3.8000455    1.0440606      8192000 
   11000   0.81004036   -3.8000518   -3.8000518   -2.7558388  0.031799528   -3.8000518    1.0442131      8192000 
   12000   0.81033298   -3.8002805   -3.8002805   -2.7556852  0.029311393   -3.8002805    1.0445953      8192000 
   13000    0.8106166   -3.8006751   -3.8006751   -2.7557092  0.026597676   -3.8006751    1.0449659      8192000 
   14000   0.80989645   -3.7997322   -3.7997322   -2.7556895  0.030718838   -3.7997322    1.0440426      8192000 
   15000   0.81020622   -3.8000085   -3.8000085   -2.7555616  0.029906652   -3.8000085     1.044447      8192000 
   16000   0.81044316   -3.8000207   -3.8000207   -2.7552633  0.033454766   -3.8000207    1.0447575      8192000 
   17000   0.80991329    -3.799633    -3.799633   -2.7555535  0.032334247    -3.799633    1.0440794      8192000 
   18000   0.81004735   -3.8002433   -3.8002433    -2.755986  0.028658945   -3.8002433    1.0442573      8192000 
   19000   0.81022535   -3.8001105   -3.8001105   -2.7556188  0.031117484   -3.8001105    1.0444918      8192000 
   20000   0.81057525   -3.8006117   -3.8006117   -2.7556638  0.029622434   -3.8006117    1.0449479      8192000 
   21000   0.81032168   -3.7997605   -3.7997605   -2.7551345   0.03107381   -3.7997605     1.044626      8192000 
   22000   0.81023677   -3.7998993   -3.7998993   -2.7553777  0.030180298   -3.7998993    1.0445216      8192000 
   23000   0.80994492   -3.7995513   -3.7995513   -2.7554009  0.028783293   -3.7995513    1.0441504      8192000 
   24000   0.81021323   -3.7994781   -3.7994781   -2.7549768  0.032958167   -3.7994781    1.0445013      8192000 
   25000    0.8103535   -3.7998957   -3.7998957   -2.7552086  0.030451414   -3.7998957    1.0446872      8192000 
   26000   0.81003079    -3.799882    -3.799882   -2.7556058  0.031381003    -3.799882    1.0442762      8192000 
   27000   0.81013282   -3.7996971   -3.7996971   -2.7552844  0.032863781   -3.7996971    1.0444127      8192000 
   28000   0.81034191   -3.8000017   -3.8000017   -2.7553144  0.032784712   -3.8000017    1.0446873      8192000 
   29000   0.81019134    -3.799726    -3.799726   -2.7552277  0.032261547    -3.799726    1.0444982      8192000 
   30000   0.81006561   -3.7995221   -3.7995221   -2.7551809  0.031428015   -3.7995221    1.0443412      8192000 
   31000   0.80993884    -3.799665    -3.799665   -2.7554822  0.029205027    -3.799665    1.0441828      8192000 
   32000   0.81025053    -3.799794    -3.799794   -2.7552044   0.02809643    -3.799794    1.0445896      8192000 
   33000   0.81005778   -3.7995681   -3.7995681    -2.755222   0.02732541   -3.7995681    1.0443462      8192000 
   34000   0.81003852   -3.7990766   -3.7990766   -2.7547503   0.02975903   -3.7990766    1.0443264      8192000 
   35000   0.80977989   -3.7990127   -3.7990127   -2.7550148  0.029800924   -3.7990127     1.043998      8192000 
   36000   0.81016486   -3.7998928   -3.7998928   -2.7553935  0.027028176   -3.7998928    1.0444993      8192000 
   37000    0.8099501   -3.7994742   -3.7994742   -2.7552467  0.030056423   -3.7994742    1.0442275      8192000 
   38000   0.80945666   -3.7985696   -3.7985696   -2.7549733  0.032682746   -3.7985696    1.0435963      8192000 
   39000    0.8099991   -3.7995108   -3.7995108   -2.7552101  0.029171177   -3.7995108    1.0443007      8192000 
   40000   0.80988868   -3.7994574   -3.7994574    -2.755294  0.029661149   -3.7994574    1.0441634      8192000 
   41000   0.80981749   -3.7991268   -3.7991268   -2.7550503  0.032186217   -3.7991268    1.0440766      8192000 
   42000   0.81016553   -3.7997365   -3.7997365   -2.7552062   0.02877582   -3.7997365    1.0445303      8192000 
   43000   0.81016128   -3.7995021   -3.7995021   -2.7549722  0.032775194   -3.7995021    1.0445299      8192000 
   44000    0.8096241   -3.7988086   -3.7988086   -2.7549662  0.033675452   -3.7988086    1.0438423      8192000 
   45000   0.81000288   -3.7990014   -3.7990014   -2.7546657   0.03367705   -3.7990014    1.0443357      8192000 
   46000   0.81027651   -3.7989915   -3.7989915   -2.7542979  0.033982576   -3.7989915    1.0446936      8192000 
   47000    0.8101095   -3.7994533   -3.7994533     -2.75497  0.031447111   -3.7994533    1.0444833      8192000 
   48000   0.80990454   -3.7993497   -3.7993497   -2.7551257  0.029622193   -3.7993497     1.044224      8192000 
   49000   0.81007275   -3.7995608   -3.7995608   -2.7551149  0.032523441   -3.7995608    1.0444459      8192000 
   50000   0.81023854   -3.7999312   -3.7999312   -2.7552665  0.032759367   -3.7999312    1.0446647      8192000 
   51000   0.81017414   -3.7996057   -3.7996057   -2.7550189  0.034126049   -3.7996057    1.0445867      8192000 
   52000   0.81023162   -3.7993222   -3.7993222   -2.7546563  0.033635887   -3.7993222    1.0446659      8192000 
   53000   0.80996737   -3.7995242   -3.7995242    -2.755194  0.031128453   -3.7995242    1.0443302      8192000 
   54000   0.80982709   -3.7990628   -3.7990628   -2.7549085  0.033067178   -3.7990628    1.0441543      8192000 
   55000   0.81012902    -3.799613    -3.799613   -2.7550644  0.029317815    -3.799613    1.0445487      8192000 
   56000    0.8102706   -3.7994842   -3.7994842   -2.7547479  0.032007486   -3.7994842    1.0447363      8192000 
   57000   0.81026656   -3.7994064   -3.7994064   -2.7546703  0.032257178   -3.7994064    1.0447361      8192000 
   58000    0.8097414   -3.7991316   -3.7991316   -2.7550677  0.032031824   -3.7991316     1.044064      8192000 
   59000   0.80978738    -3.799269    -3.799269   -2.7551407  0.033021605    -3.799269    1.0441283      8192000 
   60000    0.8099004   -3.7990725   -3.7990725   -2.7547934  0.031427263   -3.7990725    1.0442791      8192000 
   61000   0.80991369   -3.7992819   -3.7992819   -2.7549806  0.032529109   -3.7992819    1.0443012      8192000 
   62000   0.81006114   -3.7991203   -3.7991203    -2.754624   0.02770815   -3.7991203    1.0444964      8192000 
   63000   0.81032127   -3.7995341   -3.7995341   -2.7546973   0.02848567   -3.7995341    1.0448368      8192000 
   64000   0.81029308   -3.7992561   -3.7992561   -2.7544506  0.030117002   -3.7992561    1.0448055      8192000 
   65000   0.80993212   -3.7991739   -3.7991739   -2.7548288  0.032177574   -3.7991739    1.0443451      8192000 
   66000   0.81015197   -3.7993364   -3.7993364   -2.7547028  0.031756152   -3.7993364    1.0446336      8192000 
   67000   0.81010749   -3.7991462   -3.7991462   -2.7545649  0.032149193   -3.7991462    1.0445813      8192000 
   68000   0.80998928   -3.7986895   -3.7986895   -2.7542556  0.033631566   -3.7986895    1.0444339      8192000 
   69000    0.8096809   -3.7985555   -3.7985555   -2.7545143  0.032631727   -3.7985555    1.0440413      8192000 
   70000   0.81003276   -3.7993647   -3.7993647   -2.7548647   0.03029186   -3.7993647       1.0445      8192000 
   71000   0.81020836   -3.7994678   -3.7994678   -2.7547363  0.032518378   -3.7994678    1.0447315      8192000 
   72000   0.81006992   -3.7989303   -3.7989303   -2.7543723  0.032434049   -3.7989303     1.044558      8192000 
   73000   0.81039612    -3.799604    -3.799604   -2.7546204  0.029600584    -3.799604    1.0449837      8192000 
   74000   0.81022703   -3.7989599   -3.7989599   -2.7541892   0.03142319   -3.7989599    1.0447707      8192000 
   75000    0.8100635   -3.7992565   -3.7992565   -2.7546917  0.030705631   -3.7992565    1.0445648      8192000 
   76000   0.80988897   -3.7989079   -3.7989079   -2.7545631  0.033478817   -3.7989079    1.0443448      8192000 
   77000   0.80953866   -3.7989214   -3.7989214   -2.7550233  0.031492956   -3.7989214    1.0438981      8192000 
   78000   0.80980715   -3.7990733   -3.7990733   -2.7548239  0.029470086   -3.7990733    1.0442493      8192000 
   79000   0.80987135   -3.7996011   -3.7996011   -2.7552639   0.02886666   -3.7996011    1.0443372      8192000 
   80000   0.80948283   -3.7987837   -3.7987837   -2.7549425  0.031832886   -3.7987837    1.0438412      8192000 
   81000   0.80984336   -3.7993482   -3.7993482   -2.7550371  0.031427299   -3.7993482    1.0443111      8192000 
   82000   0.80974836   -3.7990397   -3.7990397   -2.7548461  0.030017481   -3.7990397    1.0441937      8192000 
   83000   0.80984563   -3.7994806   -3.7994806   -2.7551564  0.033417697   -3.7994806    1.0443241      8192000 
   84000     0.809949   -3.7995026   -3.7995026   -2.7550402  0.031873392   -3.7995026    1.0444625      8192000 
   85000   0.81057015   -3.8000035   -3.8000035    -2.754735  0.032929568   -3.8000035    1.0452685      8192000 
   86000   0.81034078   -3.7996812   -3.7996812   -2.7547035  0.034304738   -3.7996812    1.0449777      8192000 
   87000   0.81004549   -3.7994677   -3.7994677   -2.7548657  0.031741672   -3.7994677     1.044602      8192000 
   88000   0.81028351    -3.799662    -3.799662    -2.754748  0.032572774    -3.799662     1.044914      8192000 
   89000   0.81005764   -3.7994533   -3.7994533   -2.7548256  0.032346967   -3.7994533    1.0446277      8192000 
   90000   0.81022117   -3.7995576   -3.7995576    -2.754714  0.033626199   -3.7995576    1.0448436      8192000 
   91000   0.80986738    -3.799036    -3.799036   -2.7546436  0.036735423    -3.799036    1.0443924      8192000 
   92000   0.81043815   -3.7997372   -3.7997372   -2.7546036  0.033803411   -3.7997372    1.0451335      8192000 
   93000   0.81000051   -3.7990595   -3.7990595   -2.7544853  0.032752294   -3.7990595    1.0445742      8192000 
   94000   0.81006459      -3.7991      -3.7991   -2.7544382  0.033864536      -3.7991    1.0446618      8192000 
   95000   0.80990345   -3.7990655   -3.7990655   -2.7546064  0.032537747   -3.7990655    1.0444591      8192000 
   96000    0.8100865   -3.7989158   -3.7989158   -2.7542156  0.033260115   -3.7989158    1.0447002      8192000 
   97000   0.81025457    -3.799005    -3.799005   -2.7540831  0.034176235    -3.799005    1.0449219      8192000 
   98000   0.81020005   -3.7991167   -3.7991167     -2.75426  0.034399298   -3.7991167    1.0448567      8192000 
   99000    0.8102225   -3.7988725   -3.7988725   -2.7539819   0.03206244   -3.7988725    1.0448906      8192000 
  100000   0.81002949   -3.7983574   -3.7983574   -2.7537106  0.035576746   -3.7983574    1.0446468      8192000 
  101000   0.80982476   -3.7986904   -3.7986904   -2.7543026  0.031744974   -3.7986904    1.0443878      8192000 
  102000   0.80980272   -3.7983391   -3.7983391   -2.7539747  0.031067611   -3.7983391    1.0443644      8192000 
  103000   0.80957263   -3.7983233   -3.7983233   -2.7542506   0.03190771   -3.7983233    1.0440727      8192000 
  104000   0.80948848   -3.7979656   -3.7979656   -2.7539964  0.029863468   -3.7979656    1.0439692      8192000 
  105000   0.80952143   -3.7978961   -3.7978961   -2.7538794  0.029791483   -3.7978961    1.0440167      8192000 
  106000   0.80933623   -3.7976322   -3.7976322   -2.7538493  0.031073419   -3.7976322    1.0437829      8192000 
  107000   0.80974772   -3.7980284   -3.7980284   -2.7537097  0.029868914   -3.7980284    1.0443186      8192000 
  108000    0.8099611   -3.7982689   -3.7982689   -2.7536701   0.02882602   -3.7982689    1.0445988      8192000 
  109000   0.80956576   -3.7977273   -3.7977273   -2.7536333  0.028778936   -3.7977273     1.044094      8192000 
  110000   0.80945124   -3.7975638   -3.7975638   -2.7536125  0.031544695   -3.7975638    1.0439513      8192000 
  111000   0.80939174   -3.7980431   -3.7980431   -2.7541634  0.032374035   -3.7980431    1.0438796      8192000 
  112000   0.81042974   -3.7988372   -3.7988372   -2.7536138  0.030416024   -3.7988372    1.0452234      8192000 
  113000   0.80999146   -3.7986927   -3.7986927   -2.7540296  0.028752967   -3.7986927    1.0446632      8192000 
  114000   0.80995229   -3.7980653   -3.7980653   -2.7534476  0.031174775   -3.7980653    1.0446177      8192000 
  115000   0.80962338   -3.7979229   -3.7979229   -2.7537244  0.032628632   -3.7979229    1.0441985      8192000 
  116000   0.80970328   -3.7978183   -3.7978183   -2.7535117  0.029564167   -3.7978183    1.0443066      8192000 
  117000    0.8104561   -3.7986666   -3.7986666   -2.7533841  0.028796222   -3.7986666    1.0452825      8192000 
  118000    0.8096369   -3.7978492   -3.7978492   -2.7536181  0.029232941   -3.7978492     1.044231      8192000 
  119000   0.81006704    -3.798662    -3.798662   -2.7538711  0.030101856    -3.798662    1.0447908      8192000 
  120000   0.80985124   -3.7986968   -3.7986968   -2.7541793  0.031953907   -3.7986968    1.0445175      8192000 
  121000   0.81010022   -3.7984291   -3.7984291   -2.7535854  0.032369791   -3.7984291    1.0448437      8192000 
  122000   0.80998029   -3.7983987   -3.7983987   -2.7537047  0.034090909   -3.7983987     1.044694      8192000 
  123000   0.80973943   -3.7978029   -3.7978029   -2.7534145  0.034062924   -3.7978029    1.0443884      8192000 
  124000   0.80995274   -3.7986674   -3.7986674   -2.7539988  0.029077385   -3.7986674    1.0446686      8192000 
  125000   0.80986192   -3.7982625   -3.7982625   -2.7537061  0.030521859   -3.7982625    1.0445565      8192000 
  126000   0.80964826   -3.7984773   -3.7984773   -2.7541914  0.033824858   -3.7984773    1.0442859      8192000 
  127000   0.81017684    -3.798874    -3.798874   -2.7539013  0.034673944    -3.798874    1.0449727      8192000 
  128000   0.81007244   -3.7982043   -3.7982043   -2.7533611  0.031702113   -3.7982043    1.0448431      8192000 
  129000   0.81023661   -3.7988599   -3.7988599   -2.7538001  0.028497736   -3.7988599    1.0450599      8192000 
  130000   0.80946305   -3.7976706   -3.7976706   -2.7536034  0.031758247   -3.7976706    1.0440672      8192000 
  131000   0.80980216   -3.7983365   -3.7983365   -2.7538269  0.031706786   -3.7983365    1.0445096      8192000 
  132000   0.81064487   -3.7986091   -3.7986091   -2.7530075  0.033971386   -3.7986091    1.0456016      8192000 
  133000   0.81014983   -3.7985491   -3.7985491    -2.753581  0.032848739   -3.7985491    1.0449681      8192000 
  134000   0.81006224   -3.7982422   -3.7982422    -2.753382  0.034886663   -3.7982422    1.0448602      8192000 
  135000   0.81007944   -3.7984554   -3.7984554    -2.753568  0.032276879   -3.7984554    1.0448874      8192000 
  136000   0.80950975   -3.7979129   -3.7979129   -2.7537554   0.03292935   -3.7979129    1.0441576      8192000 
  137000   0.81019135   -3.7987408   -3.7987408    -2.753699  0.030191761   -3.7987408    1.0450418      8192000 
  138000   0.81002355   -3.7982561   -3.7982561   -2.7534257   0.02936239   -3.7982561    1.0448304      8192000 
  139000   0.81030501   -3.7987249   -3.7987249   -2.7535265  0.031231496   -3.7987249    1.0451985      8192000 
  140000   0.80975835   -3.7978581   -3.7978581   -2.7533597  0.032178975   -3.7978581    1.0444984      8192000 
  141000   0.80979801   -3.7979331   -3.7979331   -2.7533785   0.03029585   -3.7979331    1.0445546      8192000 
  142000    0.8098111    -3.798131    -3.798131   -2.7535546  0.029012714    -3.798131    1.0445765      8192000 
  143000   0.80969419    -3.797832    -3.797832   -2.7534012  0.031068228    -3.797832    1.0444307      8192000 
  144000   0.80962614   -3.7977782   -3.7977782   -2.7534303  0.029755805   -3.7977782     1.044348      8192000 
  145000   0.80951333   -3.7977482   -3.7977482   -2.7535407  0.028475912   -3.7977482    1.0442075      8192000 
  146000    0.8097549   -3.7978729   -3.7978729   -2.7533488  0.029332122   -3.7978729    1.0445241      8192000 
  147000   0.80980483   -3.7973974   -3.7973974   -2.7528038  0.027864898   -3.7973974    1.0445936      8192000 
  148000   0.80970857   -3.7975039   -3.7975039   -2.7530295  0.027658404   -3.7975039    1.0444744      8192000 
  149000   0.80908671   -3.7966193   -3.7966193    -2.752942  0.033162844   -3.7966193    1.0436773      8192000 
  150000   0.80948284   -3.7971532   -3.7971532   -2.7529599   0.02981878   -3.7971532    1.0441933      8192000 
  151000   0.80979746    -3.797555    -3.797555   -2.7529508  0.030486507    -3.797555    1.0446042      8192000 
  152000   0.81005347   -3.7974657   -3.7974657   -2.7525262  0.032149384   -3.7974657    1.0449395      8192000 
  153000   0.80970432   -3.7976043   -3.7976043   -2.7531102  0.030383847   -3.7976043    1.0444941      8192000 
  154000   0.80947338   -3.7970502   -3.7970502    -2.752849  0.030971787   -3.7970502    1.0442012      8192000 
  155000   0.80996018   -3.7972726   -3.7972726   -2.7524384  0.033550736   -3.7972726    1.0448342      8192000 
  156000   0.81007086   -3.7974938   -3.7974938   -2.7525117  0.032898271   -3.7974938     1.044982      8192000 
  157000   0.80939356   -3.7974866   -3.7974866   -2.7533732  0.028778563   -3.7974866    1.0441134      8192000 
  158000   0.80946597   -3.7972303   -3.7972303   -2.7530185   0.03249198   -3.7972303    1.0442118      8192000 
  159000   0.80969109   -3.7976149   -3.7976149   -2.7531076  0.030616522   -3.7976149    1.0445072      8192000 
  160000    0.8094905   -3.7975275   -3.7975275    -2.753274  0.029517945   -3.7975275    1.0442535      8192000 
  161000     0.809266   -3.7976107   -3.7976107   -2.7536417  0.031125764   -3.7976107    1.0439689      8192000 
  162000   0.80967616   -3.7974681   -3.7974681    -2.752965  0.032123324   -3.7974681    1.0445031      8192000 
  163000   0.80926225   -3.7975781   -3.7975781    -2.753604  0.029088338   -3.7975781    1.0439742      8192000 
  164000   0.80902671   -3.7974242   -3.7974242   -2.7537489  0.030551324   -3.7974242    1.0436753      8192000 
  165000   0.80943996   -3.7978369   -3.7978369   -2.7536234  0.033256769   -3.7978369    1.0442135      8192000 
  166000   0.80994139   -3.7980933   -3.7980933    -2.753228  0.032412576   -3.7980933    1.0448654      8192000 
  167000   0.81011847   -3.7983851   -3.7983851   -2.7532862  0.034601667   -3.7983851    1.0450989      8192000 
  168000   0.81051313   -3.7987915   -3.7987915   -2.7531785  0.030476085   -3.7987915     1.045613      8192000 
  169000   0.81041703   -3.7985181   -3.7985181    -2.753024  0.033472836   -3.7985181    1.0454941      8192000 
  170000   0.80943097   -3.7979078   -3.7979078   -2.7536807  0.037422846   -3.7979078     1.044227      8192000 
  171000   0.81002393   -3.7985511   -3.7985511    -2.753554  0.034635592   -3.7985511     1.044997      8192000 
  172000   0.80998956    -3.798262    -3.798262   -2.7533042  0.033903333    -3.798262    1.0449577      8192000 
  173000   0.80953655    -3.798474    -3.798474   -2.7540956  0.033337639    -3.798474    1.0443784      8192000 
  174000   0.80993818   -3.7984007   -3.7984007   -2.7534992  0.034155142   -3.7984007    1.0449015      8192000 
  175000   0.80967376   -3.7984476   -3.7984476   -2.7538822  0.034944185   -3.7984476    1.0445654      8192000 
  176000   0.80953064   -3.7986404   -3.7986404   -2.7542546  0.032434983   -3.7986404    1.0443858      8192000 
  177000   0.81006295   -3.7988922   -3.7988922   -2.7538146  0.027858693   -3.7988922    1.0450776      8192000 
  178000   0.80961251   -3.7985198   -3.7985198   -2.7540183  0.031461373   -3.7985198    1.0445015      8192000 
  179000   0.80958017   -3.7980494   -3.7980494   -2.7535845  0.031287926   -3.7980494    1.0444648      8192000 
  180000   0.80987521   -3.7985304   -3.7985304   -2.7536799  0.032606865   -3.7985304    1.0448505      8192000 
  181000   0.80991715   -3.7983469   -3.7983469   -2.7534373  0.031629979   -3.7983469    1.0449096      8192000 
  182000   0.80921619   -3.7977904   -3.7977904   -2.7537801  0.030290324   -3.7977904    1.0440103      8192000 
  183000   0.80957062   -3.7982421   -3.7982421   -2.7537694  0.028931459   -3.7982421    1.0444726      8192000 
  184000   0.80908657   -3.7973171   -3.7973171    -2.753464  0.034733851   -3.7973171    1.0438532      8192000 
  185000   0.80914871   -3.7980112   -3.7980112   -2.7540728  0.031416847   -3.7980112    1.0439384      8192000 
  186000   0.80903833   -3.7973903   -3.7973903   -2.7535893  0.033643704   -3.7973903     1.043801      8192000 
  187000   0.80912086   -3.7975051   -3.7975051   -2.7535926  0.032605803   -3.7975051    1.0439125      8192000 
  188000   0.80879199   -3.7972188   -3.7972188   -2.7537255  0.033200775   -3.7972188    1.0434932      8192000 
  189000    0.8095813   -3.7984156   -3.7984156   -2.7538989  0.031103281   -3.7984156    1.0445166      8192000 
  190000   0.80926112   -3.7976256   -3.7976256    -2.753517  0.032182044   -3.7976256    1.0441086      8192000 
  191000   0.80987011   -3.7979485   -3.7979485   -2.7530492  0.033375994   -3.7979485    1.0448993      8192000 
  192000    0.8094537   -3.7977823   -3.7977823   -2.7534152  0.032142301   -3.7977823    1.0443671      8192000 
  193000   0.80957962   -3.7977361   -3.7977361   -2.7532015   0.03052534   -3.7977361    1.0445346      8192000 
  194000   0.80998752    -3.798267    -3.798267   -2.7532011  0.032185465    -3.798267    1.0450659      8192000 
  195000   0.80971923    -3.797847    -3.797847   -2.7531223  0.030452764    -3.797847    1.0447248      8192000 
  196000   0.80964128   -3.7978646   -3.7978646   -2.7532353   0.03289699   -3.7978646    1.0446292      8192000 
  197000   0.80952415   -3.7974701   -3.7974701    -2.752987   0.03108616   -3.7974701    1.0444832      8192000 
  198000   0.80976168   -3.7978657   -3.7978657   -2.7530711  0.030534788   -3.7978657    1.0447947      8192000 
  199000    0.8092778   -3.7974102   -3.7974102   -2.7532348  0.030884856   -3.7974102    1.0441754      8192000 
  200000   0.80951881   -3.7975131   -3.7975131   -2.7530217  0.033033427   -3.7975131    1.0444914      8192000 
  201000   0.80932046   -3.7971712   -3.7971712   -2.7529307  0.033436521   -3.7971712    1.0442405      8192000 
  202000   0.80994469   -3.7982249   -3.7982249    -2.753174  0.031088363   -3.7982249    1.0450509      8192000 
  203000   0.80930041   -3.7970549   -3.7970549   -2.7528303  0.032415312   -3.7970549    1.0442247      8192000 
  204000   0.80994034   -3.7979337   -3.7979337   -2.7528783  0.034050229   -3.7979337    1.0450554      8192000 
  205000   0.80961198   -3.7974767   -3.7974767     -2.75284  0.031176531   -3.7974767    1.0446368      8192000 
  206000   0.80966312   -3.7974579   -3.7974579   -2.7527501  0.032559888   -3.7974579    1.0447078      8192000 
  207000   0.80990679   -3.7978569   -3.7978569   -2.7528297   0.03097237   -3.7978569    1.0450272      8192000 
  208000   0.80981237   -3.7976706   -3.7976706   -2.7527602  0.032655307   -3.7976706    1.0449104      8192000 
  209000   0.80987394   -3.7978195   -3.7978195   -2.7528246  0.030770481   -3.7978195    1.0449949      8192000 
  210000    0.8096017   -3.7972228   -3.7972228   -2.7525741  0.032971314   -3.7972228    1.0446487      8192000 
  211000   0.81007729   -3.7980201   -3.7980201   -2.7527527  0.032783107   -3.7980201    1.0452674      8192000 
  212000   0.80977543   -3.7976763   -3.7976763   -2.7527934  0.031317472   -3.7976763    1.0448829      8192000 
  213000   0.80946686   -3.7974379   -3.7974379   -2.7529481  0.029671439   -3.7974379    1.0444898      8192000 
  214000   0.80961726   -3.7974112   -3.7974112   -2.7527223  0.032763062   -3.7974112    1.0446889      8192000 
  215000   0.80993518   -3.7978295   -3.7978295   -2.7527253  0.031162888   -3.7978295    1.0451042      8192000 
  216000   0.80987475   -3.7976642   -3.7976642    -2.752633  0.033124782   -3.7976642    1.0450312      8192000 
  217000   0.80967015   -3.7977916   -3.7977916   -2.7530194  0.030851136   -3.7977916    1.0447723      8192000 
  218000   0.80997638   -3.7978482   -3.7978482   -2.7526757  0.031058217   -3.7978482    1.0451724      8192000 
  219000   0.80930096   -3.7967988   -3.7967988   -2.7524929  0.031182351   -3.7967988    1.0443059      8192000 
  220000    0.8091857   -3.7970049   -3.7970049   -2.7528426  0.032591228   -3.7970049    1.0441622      8192000 
  221000   0.80952298   -3.7972304   -3.7972304   -2.7526279   0.03389257   -3.7972304    1.0446025      8192000 
  222000   0.80948781   -3.7971016   -3.7971016   -2.7525395  0.033152231   -3.7971016    1.0445621      8192000 
  223000    0.8092566   -3.7971983   -3.7971983   -2.7529295   0.03136999   -3.7971983    1.0442688      8192000 
  224000   0.80958299   -3.7973871   -3.7973871   -2.7526921   0.03143644   -3.7973871     1.044695      8192000 
  225000    0.8096028   -3.7973176   -3.7973176   -2.7525919  0.032679896   -3.7973176    1.0447256      8192000 
  226000   0.80981128   -3.7974376   -3.7974376   -2.7524379  0.031017785   -3.7974376    1.0449997      8192000 
  227000    0.8103048   -3.7979344   -3.7979344   -2.7522928  0.028577346   -3.7979344    1.0456416      8192000 
  228000   0.80965908   -3.7973987   -3.7973987   -2.7525853  0.029731128   -3.7973987    1.0448134      8192000 
  229000   0.80977462   -3.7974308   -3.7974308   -2.7524633   0.03075437   -3.7974308    1.0449675      8192000 
  230000   0.80969248   -3.7971496   -3.7971496   -2.7522831  0.032964386   -3.7971496    1.0448665      8192000 
  231000   0.80999205   -3.7974957   -3.7974957   -2.7522375  0.032088004   -3.7974957    1.0452582      8192000 
  232000   0.80970842   -3.7972057   -3.7972057   -2.7523085  0.031996096   -3.7972057    1.0448972      8192000 
  233000   0.80951222   -3.7970094   -3.7970094   -2.7523603  0.032274964   -3.7970094     1.044649      8192000 
  234000   0.80992515   -3.7971317   -3.7971317   -2.7519447  0.030957329   -3.7971317    1.0451869      8192000 
  235000   0.80980117   -3.7972171   -3.7972171   -2.7521851  0.031673305   -3.7972171     1.045032      8192000 
  236000   0.81002271   -3.7973414   -3.7973414   -2.7520185   0.03182212   -3.7973414    1.0453229      8192000 
  237000   0.80942927   -3.7968025   -3.7968025   -2.7522404  0.030817874   -3.7968025    1.0445621      8192000 
  238000   0.80957964   -3.7969075   -3.7969075   -2.7521463    0.0319853   -3.7969075    1.0447612      8192000 
  239000   0.80985322   -3.7971964   -3.7971964   -2.7520771  0.033162411   -3.7971964    1.0451193      8192000 
  240000   0.81004309   -3.7971877   -3.7971877   -2.7518183  0.030289755   -3.7971877    1.0453694      8192000 
  241000   0.80964502   -3.7963006   -3.7963006   -2.7514399  0.034524905   -3.7963006    1.0448607      8192000 
  242000   0.80969319   -3.7969629   -3.7969629    -2.752035  0.030822713   -3.7969629    1.0449279      8192000 
  243000   0.80981803   -3.7969755   -3.7969755   -2.7518814  0.029775527   -3.7969755     1.045094      8192000 
  244000   0.80997152    -3.796962    -3.796962   -2.7516648  0.030611934    -3.796962    1.0452972      8192000 
  245000   0.80954737   -3.7964443   -3.7964443   -2.7516895  0.033082015   -3.7964443    1.0447548      8192000 
  246000   0.80959152   -3.7967044   -3.7967044   -2.7518875  0.030763346   -3.7967044    1.0448168      8192000 
  247000   0.80911694   -3.7962952   -3.7962952   -2.7520858  0.029402424   -3.7962952    1.0442094      8192000 
  248000   0.80925925   -3.7967487   -3.7967487   -2.7523506  0.028124881   -3.7967487    1.0443981      8192000 
  249000   0.80905526   -3.7967912   -3.7967912   -2.7526513  0.028693089   -3.7967912    1.0441399      8192000 
  250000   0.80918705   -3.7966405   -3.7966405   -2.7523255  0.031289219   -3.7966405     1.044315      8192000 
  251000   0.80936922   -3.7969186   -3.7969186   -2.7523635  0.028894421   -3.7969186    1.0445551      8192000 
  252000    0.8092416   -3.7969007   -3.7969007   -2.7525052  0.029667839   -3.7969007    1.0443955      8192000 
  253000   0.80948337   -3.7965441   -3.7965441   -2.7518315  0.031768643   -3.7965441    1.0447125      8192000 
  254000   0.80958047   -3.7967788   -3.7967788   -2.7519359  0.030986233   -3.7967788    1.0448429      8192000 
  255000   0.80944058   -3.7969631   -3.7969631   -2.7522957  0.031818346   -3.7969631    1.0446674      8192000 
  256000   0.80964121   -3.7968812   -3.7968812   -2.7519498  0.032716122   -3.7968812    1.0449314      8192000 
  257000   0.80980505   -3.7969265   -3.7969265   -2.7517787  0.031021055   -3.7969265    1.0451478      8192000 
  258000   0.80967173   -3.7972255   -3.7972255   -2.7522447  0.031683039   -3.7972255    1.0449808      8192000 
  259000   0.80938504   -3.7969536   -3.7969536   -2.7523378  0.033476665   -3.7969536    1.0446158      8192000 
  260000   0.80957106   -3.7970855   -3.7970855   -2.7522246  0.033113601   -3.7970855     1.044861      8192000 
  261000   0.80994759   -3.7975453   -3.7975453   -2.7521933  0.031194116   -3.7975453     1.045352      8192000 
  262000   0.80956038   -3.7968824   -3.7968824   -2.7520251  0.033440057   -3.7968824    1.0448573      8192000 
  263000   0.81009156   -3.7974344   -3.7974344   -2.7518865  0.035093777   -3.7974344    1.0455479      8192000 
  264000   0.80972414   -3.7972061   -3.7972061   -2.7521274  0.032605367   -3.7972061    1.0450787      8192000 
  265000   0.80986322   -3.7970025   -3.7970025   -2.7517392  0.035155965   -3.7970025    1.0452632      8192000 
  266000   0.80997763    -3.797019    -3.797019   -2.7516031  0.034378584    -3.797019    1.0454159      8192000 
  267000   0.80997085   -3.7970239   -3.7970239   -2.7516117  0.035422248   -3.7970239    1.0454122      8192000 
  268000   0.81032939   -3.7978086   -3.7978086   -2.7519285   0.03090556   -3.7978086      1.04588      8192000 
  269000    0.8100754   -3.7973713   -3.7973713    -2.751814  0.034320268   -3.7973713    1.0455573      8192000 
  270000   0.81030878   -3.7975645   -3.7975645    -2.751701  0.031682019   -3.7975645    1.0458635      8192000 
  271000   0.80981297   -3.7972077   -3.7972077    -2.751979  0.034997991   -3.7972077    1.0452286      8192000 
  272000   0.81005105    -3.797193    -3.797193   -2.7516521  0.031926476    -3.797193    1.0455409      8192000 
  273000   0.80965301     -3.79675     -3.79675   -2.7517178  0.034658791     -3.79675    1.0450322      8192000 
  274000   0.80960703   -3.7965656   -3.7965656   -2.7515877  0.033019343   -3.7965656    1.0449779      8192000 
  275000   0.80941408   -3.7963692   -3.7963692   -2.7516353  0.032013893   -3.7963692    1.0447339      8192000 
  276000   0.80925659   -3.7966279   -3.7966279   -2.7520922  0.032261032   -3.7966279    1.0445357      8192000 
  277000   0.80874763   -3.7963894   -3.7963894   -2.7525056  0.031102394   -3.7963894    1.0438838      8192000 
  278000   0.80923425   -3.7965091   -3.7965091   -2.7519921  0.029373045   -3.7965091    1.0445169      8192000 
  279000   0.80880355   -3.7957684   -3.7957684   -2.7518024    0.0332582   -3.7957684     1.043966      8192000 
  280000   0.80905191   -3.7965403   -3.7965403   -2.7522487   0.02933747   -3.7965403    1.0442916      8192000 
  281000   0.80919428     -3.79628     -3.79628   -2.7517996  0.031159552     -3.79628    1.0444804      8192000 
  282000   0.80914989   -3.7960212   -3.7960212    -2.751593  0.029677643   -3.7960212    1.0444282      8192000 
  283000   0.80915767   -3.7960746   -3.7960746   -2.7516314   0.03060063   -3.7960746    1.0444432      8192000 
  284000   0.80914181    -3.796013    -3.796013   -2.7515852  0.028607804    -3.796013    1.0444278      8192000 
  285000   0.80887761   -3.7958422   -3.7958422   -2.7517504  0.030699905   -3.7958422    1.0440918      8192000 
  286000   0.80926174   -3.7962444   -3.7962444   -2.7516517  0.030539064   -3.7962444    1.0445927      8192000 
  287000   0.80939956   -3.7955617   -3.7955617   -2.7507861  0.031111603   -3.7955617    1.0447756      8192000 
  288000   0.80949715   -3.7963266   -3.7963266   -2.7514199  0.029158534   -3.7963266    1.0449066      8192000 
  289000   0.80887033   -3.7955069   -3.7955069   -2.7514043  0.032562291   -3.7955069    1.0441026      8192000 
  290000   0.80900219   -3.7960403   -3.7960403   -2.7517625  0.033060623   -3.7960403    1.0442778      8192000 
  291000   0.80929738   -3.7963434   -3.7963434   -2.7516795  0.029544898   -3.7963434    1.0446639      8192000 
  292000   0.80946779   -3.7961171   -3.7961171   -2.7512283  0.030119332   -3.7961171    1.0448889      8192000 
  293000   0.80969955   -3.7965319   -3.7965319   -2.7513388  0.029777782   -3.7965319    1.0451931      8192000 
  294000   0.80925551   -3.7961531   -3.7961531   -2.7515282  0.031341644   -3.7961531     1.044625      8192000 
  295000   0.80959475   -3.7961643   -3.7961643   -2.7510964  0.031320032   -3.7961643    1.0450679      8192000 
  296000   0.80953321   -3.7964577   -3.7964577   -2.7514643  0.031052569   -3.7964577    1.0449935      8192000 
  297000   0.80962298   -3.7964624   -3.7964624    -2.751348  0.028939383   -3.7964624    1.0451144      8192000 
  298000    0.8096191   -3.7964126   -3.7964126   -2.7512981   0.03309413   -3.7964126    1.0451144      8192000 
  299000   0.80945837   -3.7968811   -3.7968811   -2.7519691  0.032510442   -3.7968811     1.044912      8192000 
  300000   0.80920961   -3.7965878   -3.7965878   -2.7519919  0.034428181   -3.7965878    1.0445959      8192000 
  301000   0.80945806   -3.7970119   -3.7970119   -2.7520902  0.031450686   -3.7970119    1.0449217      8192000 
  302000   0.80945977   -3.7969863   -3.7969863   -2.7520574  0.031851195   -3.7969863    1.0449289      8192000 
  303000   0.80958707   -3.7967747   -3.7967747   -2.7516764  0.032661033   -3.7967747    1.0450983      8192000 
  304000   0.80939413   -3.7966651   -3.7966651   -2.7518109  0.032008111   -3.7966651    1.0448543      8192000 
  305000   0.80978765   -3.7967177   -3.7967177   -2.7513504  0.032310772   -3.7967177    1.0453673      8192000 
  306000   0.80969384   -3.7967701   -3.7967701   -2.7515188  0.033622229   -3.7967701    1.0452512      8192000 
  307000   0.81009734    -3.797142    -3.797142   -2.7513648   0.03394057    -3.797142    1.0457772      8192000 
  308000   0.81024936   -3.7975004   -3.7975004    -2.751522  0.034948595   -3.7975004    1.0459785      8192000 
  309000   0.80930559    -3.796818    -3.796818   -2.7520528  0.032786768    -3.796818    1.0447652      8192000 
  310000   0.80953801   -3.7968985   -3.7968985   -2.7518283  0.032584783   -3.7968985    1.0450702      8192000 
  311000     0.809727   -3.7967333   -3.7967333   -2.7514141  0.036076421   -3.7967333    1.0453193      8192000 
  312000   0.80953128    -3.796511    -3.796511   -2.7514394  0.033783163    -3.796511    1.0450716      8192000 
  313000    0.8093875   -3.7965834   -3.7965834   -2.7516924  0.032211752   -3.7965834    1.0448911      8192000 
  314000   0.80933314   -3.7961361   -3.7961361   -2.7513101  0.028953718   -3.7961361    1.0448259      8192000 
  315000   0.80888144   -3.7957113   -3.7957113   -2.7514635  0.031992526   -3.7957113    1.0442478      8192000 
  316000   0.80927029   -3.7959956   -3.7959956   -2.7512408  0.031183774   -3.7959956    1.0447549      8192000 
  317000   0.80934868   -3.7961449   -3.7961449   -2.7512838  0.031517873   -3.7961449    1.0448611      8192000 
  318000   0.80924679   -3.7962313   -3.7962313   -2.7514967  0.032475874   -3.7962313    1.0447346      8192000 
  319000   0.80919827   -3.7957892   -3.7957892   -2.7511122  0.033641498   -3.7957892     1.044677      8192000 
  320000   0.80943749   -3.7962171   -3.7962171   -2.7512262  0.028133776   -3.7962171    1.0449909      8192000 
  321000   0.80954331   -3.7960417   -3.7960417   -2.7509092  0.030174934   -3.7960417    1.0451325      8192000 
  322000   0.80930098   -3.7956352   -3.7956352   -2.7508105  0.030977587   -3.7956352    1.0448247      8192000 
  323000    0.8095352   -3.7963347   -3.7963347   -2.7512025  0.029321044   -3.7963347    1.0451321      8192000 
  324000   0.80956153    -3.795962    -3.795962   -2.7507908  0.028398394    -3.795962    1.0451712      8192000 
  325000   0.80937911   -3.7954342   -3.7954342   -2.7504935  0.030242461   -3.7954342    1.0449407      8192000 
  326000   0.80910334   -3.7950341   -3.7950341   -2.7504443  0.033124932   -3.7950341    1.0445897      8192000 
  327000   0.80911474   -3.7955214   -3.7955214    -2.750912  0.029280593   -3.7955214    1.0446095      8192000 
  328000   0.80873638   -3.7952882   -3.7952882   -2.7511622  0.030659148   -3.7952882     1.044126      8192000 
  329000   0.80894402   -3.7956732   -3.7956732    -2.751274  0.029255481   -3.7956732    1.0443991      8192000 
  330000   0.80964101   -3.7960256   -3.7960256   -2.7507216  0.032510773   -3.7960256     1.045304      8192000 
  331000   0.80939599   -3.7958975   -3.7958975   -2.7509048  0.032423085   -3.7958975    1.0449927      8192000 
  332000   0.80958805   -3.7957196   -3.7957196   -2.7504739  0.032592398   -3.7957196    1.0452457      8192000 
  333000   0.80963335    -3.795625    -3.795625   -2.7503157  0.033343384    -3.795625    1.0453093      8192000 
  334000   0.80963575   -3.7955325   -3.7955325   -2.7502151  0.031955031   -3.7955325    1.0453174      8192000 
  335000   0.80969654    -3.795746    -3.795746   -2.7503451  0.031546255    -3.795746    1.0454009      8192000 
  336000   0.80964069   -3.7960038   -3.7960038     -2.75067  0.031310549   -3.7960038    1.0453339      8192000 
  337000   0.80952896   -3.7957386   -3.7957386    -2.750544  0.031272531   -3.7957386    1.0451947      8192000 
  338000   0.80952549   -3.7955734   -3.7955734   -2.7503782  0.033201094   -3.7955734    1.0451952      8192000 
  339000   0.80870358   -3.7950572   -3.7950572   -2.7509181   0.03277151   -3.7950572    1.0441391      8192000 
  340000   0.80907706   -3.7953248   -3.7953248   -2.7506985  0.029237297   -3.7953248    1.0446263      8192000 
  341000   0.80925542   -3.7959444   -3.7959444   -2.7510828  0.030299792   -3.7959444    1.0448616      8192000 
  342000   0.80946827   -3.7956642   -3.7956642   -2.7505227  0.029226324   -3.7956642    1.0451415      8192000 
  343000   0.80958959   -3.7958849   -3.7958849   -2.7505817  0.030439273   -3.7958849    1.0453032      8192000 
  344000    0.8092406   -3.7959039   -3.7959039   -2.7510462  0.029338441   -3.7959039    1.0448576      8192000 
  345000   0.80894258   -3.7952385   -3.7952385   -2.7507606  0.031524893   -3.7952385    1.0444779      8192000 
  346000   0.80937444   -3.7957956   -3.7957956   -2.7507551  0.033443777   -3.7957956    1.0450405      8192000 
  347000   0.80928146    -3.795887    -3.795887   -2.7509615  0.030727477    -3.795887    1.0449255      8192000 
  348000   0.80891777   -3.7956932   -3.7956932   -2.7512323   0.03113504   -3.7956932     1.044461      8192000 
  349000   0.80943361   -3.7957234   -3.7957234   -2.7505914  0.032468042   -3.7957234     1.045132      8192000 
  350000   0.80919752   -3.7956564   -3.7956564   -2.7508242  0.030581845   -3.7956564    1.0448322      8192000 
  351000   0.80852502    -3.795288    -3.795288   -2.7513191  0.030883214    -3.795288    1.0439689      8192000 
  352000   0.80924673   -3.7960757   -3.7960757   -2.7511699  0.031654115   -3.7960757    1.0449058      8192000 
  353000   0.80932701   -3.7960401   -3.7960401   -2.7510255  0.033104797   -3.7960401    1.0450146      8192000 
  354000   0.80926182   -3.7960265   -3.7960265   -2.7510911  0.031551057   -3.7960265    1.0449354      8192000 
  355000   0.80934034   -3.7962116   -3.7962116   -2.7511698   0.03316169   -3.7962116    1.0450418      8192000 
  356000   0.80920994   -3.7958277   -3.7958277   -2.7509491  0.031805664   -3.7958277    1.0448785      8192000 
  357000   0.80961527   -3.7962474   -3.7962474   -2.7508404  0.031708797   -3.7962474    1.0454069      8192000 
  358000   0.80930118   -3.7960381   -3.7960381   -2.7510317  0.031201513   -3.7960381    1.0450064      8192000 
  359000   0.80987769   -3.7968058   -3.7968058   -2.7510499  0.030479781   -3.7968058    1.0457559      8192000 
  360000   0.80877954   -3.7958586   -3.7958586   -2.7515157  0.032808434   -3.7958586    1.0443429      8192000 
  361000   0.80960698   -3.7963361   -3.7963361   -2.7509197  0.029659692   -3.7963361    1.0454164      8192000 
  362000   0.80891739    -3.795982    -3.795982   -2.7514511  0.032115032    -3.795982     1.044531      8192000 
  363000   0.80894458   -3.7963212   -3.7963212   -2.7517501  0.031531295   -3.7963212    1.0445711      8192000 
  364000   0.80898407   -3.7957276   -3.7957276   -2.7511005  0.032658479   -3.7957276    1.0446272      8192000 
  365000   0.80906854   -3.7961262   -3.7961262   -2.7513849  0.030788896   -3.7961262    1.0447413      8192000 
  366000    0.8090767   -3.7960584   -3.7960584   -2.7513016    0.0332579   -3.7960584    1.0447569      8192000 
  367000   0.80948783   -3.7965174   -3.7965174   -2.7512246  0.033580274   -3.7965174    1.0452928      8192000 
  368000   0.80925496   -3.7965293   -3.7965293   -2.7515322  0.030929089   -3.7965293    1.0449971      8192000 
  369000   0.80901926   -3.7960756   -3.7960756   -2.7513777  0.033929256   -3.7960756    1.0446978      8192000 
  370000   0.80945877   -3.7969399   -3.7969399   -2.7516695  0.032106841   -3.7969399    1.0452704      8192000 
  371000   0.80875927   -3.7958877   -3.7958877   -2.7515155  0.033486282   -3.7958877    1.0443722      8192000 
  372000   0.80871744   -3.7959425   -3.7959425   -2.7516194  0.030361919   -3.7959425    1.0443232      8192000 
  373000   0.80898283   -3.7960297   -3.7960297   -2.7513588  0.031124803   -3.7960297    1.0446709      8192000 
  374000   0.80933544   -3.7962142   -3.7962142   -2.7510829   0.03240595   -3.7962142    1.0451313      8192000 
  375000   0.80899215   -3.7959431   -3.7959431   -2.7512501  0.033305783   -3.7959431     1.044693      8192000 
  376000   0.80954665   -3.7964423   -3.7964423   -2.7510281   0.03235163   -3.7964423    1.0454141      8192000 
  377000     0.809516   -3.7965135   -3.7965135   -2.7511339   0.03215119   -3.7965135    1.0453796      8192000 
  378000   0.80942922   -3.7962279   -3.7962279   -2.7509553  0.032053421   -3.7962279    1.0452726      8192000 
  379000   0.80883305   -3.7956678   -3.7956678   -2.7511601  0.030289024   -3.7956678    1.0445077      8192000 
  380000   0.80932437   -3.7960446   -3.7960446   -2.7508973  0.030159494   -3.7960446    1.0451473      8192000 
  381000   0.80910423   -3.7957798   -3.7957798   -2.7509118  0.029439318   -3.7957798     1.044868      8192000 
  382000   0.80899467   -3.7956646   -3.7956646   -2.7509331  0.029959579   -3.7956646    1.0447316      8192000 
  383000   0.80861423   -3.7951507   -3.7951507   -2.7509054   0.02842507   -3.7951507    1.0442453      8192000 
  384000    0.8093981   -3.7956916   -3.7956916    -2.750429  0.032692986   -3.7956916    1.0452626      8192000 
  385000   0.80902187   -3.7953707   -3.7953707   -2.7505889  0.029238715   -3.7953707    1.0447818      8192000 
  386000   0.80866773   -3.7948524   -3.7948524   -2.7505229  0.030723648   -3.7948524    1.0443295      8192000 
  387000   0.80867267   -3.7950045   -3.7950045   -2.7506635  0.032730203   -3.7950045    1.0443409      8192000 
  388000   0.80871469   -3.7955152   -3.7955152    -2.751115   0.02801206   -3.7955152    1.0444002      8192000 
  389000   0.80851532   -3.7953172   -3.7953172   -2.7511694  0.031364737   -3.7953172    1.0441478      8192000 
  390000   0.80891366   -3.7957946   -3.7957946   -2.7511273   0.03011972   -3.7957946    1.0446673      8192000 
  391000   0.80920222   -3.7956708   -3.7956708   -2.7506259  0.031077392   -3.7956708     1.045045      8192000 
  392000   0.80907217   -3.7960984   -3.7960984   -2.7512163  0.030012084   -3.7960984    1.0448821      8192000 
  393000   0.80917593   -3.7957366   -3.7957366   -2.7507155  0.030288241   -3.7957366    1.0450211      8192000 
  394000   0.80874392     -3.79515     -3.79515   -2.7506817  0.030396252     -3.79515    1.0444682      8192000 
  395000   0.80894362   -3.7957363   -3.7957363   -2.7510052  0.030225471   -3.7957363    1.0447312      8192000 
  396000   0.80898926   -3.7957059   -3.7957059   -2.7509107  0.030364506   -3.7957059    1.0447951      8192000 
  397000   0.80893468   -3.7955711   -3.7955711   -2.7508414  0.030627295   -3.7955711    1.0447297      8192000 
  398000   0.80929453    -3.795492    -3.795492   -2.7502925  0.030637289    -3.795492    1.0451995      8192000 
  399000   0.80905992   -3.7953173   -3.7953173   -2.7504157  0.031918958   -3.7953173    1.0449015      8192000 
  400000   0.80972542   -3.7959446   -3.7959446   -2.7501786  0.032072321   -3.7959446    1.0457661      8192000 
  401000   0.80899278   -3.7953676   -3.7953676   -2.7505427  0.036184478   -3.7953676    1.0448249      8192000 
  402000   0.80944964   -3.7959351   -3.7959351   -2.7505151  0.031378756   -3.7959351      1.04542      8192000 
  403000   0.80952503   -3.7958195   -3.7958195   -2.7502971  0.033199326   -3.7958195    1.0455224      8192000 
  404000   0.80961684   -3.7960025   -3.7960025   -2.7503565  0.033124579   -3.7960025     1.045646      8192000 
  405000    0.8096203   -3.7959708   -3.7959708   -2.7503152  0.033840678   -3.7959708    1.0456555      8192000 
  406000   0.80947153   -3.7957083   -3.7957083   -2.7502399  0.032379553   -3.7957083    1.0454684      8192000 
  407000   0.80921793   -3.7953162   -3.7953162   -2.7501702  0.034221035   -3.7953162    1.0451459      8192000 
  408000   0.80941952   -3.7953349   -3.7953349   -2.7499236  0.030748255   -3.7953349    1.0454113      8192000 
  409000   0.80908149   -3.7956537   -3.7956537   -2.7506739  0.032563897   -3.7956537    1.0449798      8192000 
  410000   0.80931368     -3.79573     -3.79573   -2.7504452  0.032520684     -3.79573    1.0452847      8192000 
  411000   0.80902132   -3.7953088   -3.7953088   -2.7503967  0.032836706   -3.7953088    1.0449122      8192000 
  412000   0.80910383   -3.7953472   -3.7953472   -2.7503234  0.033040899   -3.7953472    1.0450238      8192000 
  413000   0.80921134   -3.7957078   -3.7957078   -2.7505401  0.027853314   -3.7957078    1.0451677      8192000 
  414000   0.80873866   -3.7954029   -3.7954029   -2.7508407  0.030172319   -3.7954029    1.0445622      8192000 
  415000   0.80844658    -3.794917    -3.794917    -2.750727    0.0283791    -3.794917      1.04419      8192000 
  416000   0.80870753   -3.7949246   -3.7949246   -2.7503925  0.030544377   -3.7949246    1.0445321      8192000 
  417000     0.808939   -3.7948642   -3.7948642   -2.7500281  0.030435097   -3.7948642    1.0448361      8192000 
  418000   0.80905035    -3.795352    -3.795352    -2.750367  0.030628668    -3.795352     1.044985      8192000 
  419000   0.80898149    -3.795076    -3.795076    -2.750175  0.029813926    -3.795076    1.0449011      8192000 
  420000   0.80882204   -3.7946273   -3.7946273   -2.7499272   0.03335285   -3.7946273    1.0447001      8192000 
  421000   0.80894739    -3.795052    -3.795052   -2.7501849   0.03515822    -3.795052    1.0448671      8192000 
  422000   0.80903024   -3.7950549   -3.7950549   -2.7500758  0.031568983   -3.7950549    1.0449792      8192000 
  423000   0.80874237    -3.794504    -3.794504   -2.7498917  0.031777251    -3.794504    1.0446124      8192000 
  424000   0.80890747   -3.7946043   -3.7946043   -2.7497737   0.03331676   -3.7946043    1.0448307      8192000 
  425000    0.8090039   -3.7948433   -3.7948433    -2.749883  0.031321187   -3.7948433    1.0449603      8192000 
  426000   0.80933473   -3.7950256   -3.7950256    -2.749633   0.03193205   -3.7950256    1.0453926      8192000 
  427000    0.8090129   -3.7944504   -3.7944504   -2.7494685  0.033129592   -3.7944504     1.044982      8192000 
  428000   0.80924092   -3.7950177   -3.7950177   -2.7497362  0.031440407   -3.7950177    1.0452815      8192000 
  429000   0.80924436   -3.7950141   -3.7950141   -2.7497231  0.031083316   -3.7950141     1.045291      8192000 
  430000   0.80911492   -3.7946575   -3.7946575   -2.7495287  0.029599686   -3.7946575    1.0451289      8192000 
  431000   0.80939012   -3.7953317   -3.7953317   -2.7498423  0.031799226   -3.7953317    1.0454894      8192000 
  432000   0.80911767   -3.7949213   -3.7949213   -2.7497788  0.035311553   -3.7949213    1.0451425      8192000 
  433000   0.80944128    -3.795137    -3.795137   -2.7495714   0.02915116    -3.795137    1.0455656      8192000 
  434000   0.80869593   -3.7947464   -3.7947464   -2.7501386  0.032693315   -3.7947464    1.0446078      8192000 
  435000   0.80901618    -3.794822    -3.794822   -2.7497954  0.032409177    -3.794822    1.0450265      8192000 
  436000   0.80902025   -3.7949291   -3.7949291   -2.7498922  0.031559617   -3.7949291    1.0450368      8192000 
  437000   0.80910628   -3.7950024   -3.7950024   -2.7498494  0.029524262   -3.7950024     1.045153      8192000 
  438000   0.80893377   -3.7948102   -3.7948102   -2.7498749  0.032306775   -3.7948102    1.0449352      8192000 
  439000   0.80869597   -3.7945292   -3.7945292   -2.7498961  0.029654858   -3.7945292    1.0446331      8192000 
  440000   0.80860211   -3.7946354   -3.7946354   -2.7501185  0.031195547   -3.7946354    1.0445169      8192000 
  441000   0.80918631   -3.7949722   -3.7949722   -2.7496956  0.027825018   -3.7949722    1.0452766      8192000 
  442000   0.80886161   -3.7946741   -3.7946741   -2.7498119  0.031428722   -3.7946741    1.0448622      8192000 
  443000   0.80908725   -3.7948762   -3.7948762   -2.7497175   0.03288778   -3.7948762    1.0451587      8192000 
  444000   0.80901622   -3.7948751   -3.7948751   -2.7498031  0.029791673   -3.7948751     1.045072      8192000 
  445000   0.80899584   -3.7946011   -3.7946011   -2.7495504  0.032318541   -3.7946011    1.0450507      8192000 
  446000   0.80874189   -3.7942935   -3.7942935   -2.7495659  0.033635532   -3.7942935    1.0447277      8192000 
  447000   0.80872966   -3.7946606   -3.7946606   -2.7499437  0.034816602   -3.7946606    1.0447169      8192000 
  448000   0.80902783   -3.7948929   -3.7948929   -2.7497857  0.032566985   -3.7948929    1.0451071      8192000 
  449000   0.80946324   -3.7953246   -3.7953246     -2.74965  0.031440625   -3.7953246    1.0456747      8192000 
  450000   0.80870404   -3.7945012   -3.7945012   -2.7498023  0.031554283   -3.7945012     1.044699      8192000 
  451000   0.80917756   -3.7948049   -3.7948049   -2.7494892  0.031907682   -3.7948049    1.0453157      8192000 
  452000   0.80907731   -3.7952716   -3.7952716   -2.7500803  0.032351438   -3.7952716    1.0451912      8192000 
  453000    0.8090887   -3.7952715   -3.7952715   -2.7500605  0.029220059   -3.7952715     1.045211      8192000 
  454000   0.80892261   -3.7946806   -3.7946806   -2.7496791  0.031469893   -3.7946806    1.0450015      8192000 
  455000   0.80914795    -3.795041    -3.795041   -2.7497434  0.032150474    -3.795041    1.0452976      8192000 
  456000   0.80902598   -3.7950944   -3.7950944   -2.7499493   0.02974575   -3.7950944    1.0451451      8192000 
  457000   0.80904227   -3.7952504   -3.7952504   -2.7500792  0.033513769   -3.7952504    1.0451712      8192000 
  458000   0.80883159   -3.7948331   -3.7948331   -2.7499291  0.030013081   -3.7948331    1.0449041      8192000 
  459000   0.80905022   -3.7954037   -3.7954037   -2.7502122  0.032300028   -3.7954037    1.0451916      8192000 
  460000   0.80869334   -3.7948823   -3.7948823   -2.7501467  0.032452498   -3.7948823    1.0447356      8192000 
  461000   0.80862239   -3.7954389   -3.7954389     -2.75079  0.028650771   -3.7954389    1.0446489      8192000 
  462000   0.80895625   -3.7951878   -3.7951878   -2.7501026  0.032094351   -3.7951878    1.0450853      8192000 
  463000   0.80877796   -3.7945426   -3.7945426   -2.7496826  0.033511506   -3.7945426      1.04486      8192000 
  464000   0.80894476   -3.7950109   -3.7950109   -2.7499303  0.030322508   -3.7950109    1.0450805      8192000 
  465000   0.80909402   -3.7955873   -3.7955873   -2.7503089  0.030428931   -3.7955873    1.0452784      8192000 
  466000   0.80933301   -3.7953106   -3.7953106   -2.7497184  0.031839598   -3.7953106    1.0455922      8192000 
  467000   0.80928875   -3.7953202   -3.7953202   -2.7497801  0.032819536   -3.7953202    1.0455401      8192000 
  468000   0.80929284   -3.7953432   -3.7953432   -2.7497928  0.031580427   -3.7953432    1.0455504      8192000 
  469000    0.8091433   -3.7952703   -3.7952703    -2.749908  0.030820673   -3.7952703    1.0453622      8192000 
  470000   0.80887093   -3.7947575   -3.7947575   -2.7497421  0.036080191   -3.7947575    1.0450154      8192000 
  471000   0.80922576   -3.7951227   -3.7951227   -2.7496438  0.031991088   -3.7951227    1.0454789      8192000 
  472000   0.80879887   -3.7947681   -3.7947681   -2.7498357   0.03081003   -3.7947681    1.0449324      8192000 
  473000   0.80867661   -3.7944878   -3.7944878   -2.7497083  0.031851177   -3.7944878    1.0447795      8192000 
  474000   0.80873794   -3.7942769   -3.7942769   -2.7494131  0.031412457   -3.7942769    1.0448638      8192000 
  475000   0.80883917   -3.7945572   -3.7945572   -2.7495576  0.031420965   -3.7945572    1.0449996      8192000 
  476000   0.80874237   -3.7946443   -3.7946443   -2.7497647  0.031364072   -3.7946443    1.0448796      8192000 
  477000   0.80865035   -3.7946609   -3.7946609   -2.7498952  0.031908143   -3.7946609    1.0447657      8192000 
  478000   0.80885718    -3.794632    -3.794632    -2.749594   0.03347454    -3.794632     1.045038      8192000 
  479000   0.80901743   -3.7946645   -3.7946645   -2.7494144  0.031951657   -3.7946645    1.0452501      8192000 
  480000   0.80914813   -3.7943758   -3.7943758   -2.7489519  0.032127432   -3.7943758     1.045424      8192000 
  481000   0.80911449   -3.7946319   -3.7946319   -2.7492463  0.032827816   -3.7946319    1.0453856      8192000 
  482000   0.80917173   -3.7946301   -3.7946301   -2.7491655  0.030294417   -3.7946301    1.0454646      8192000 
  483000   0.80891365   -3.7943623   -3.7943623   -2.7492261  0.031153468   -3.7943623    1.0451362      8192000 
  484000   0.80900118   -3.7949071   -3.7949071   -2.7496528  0.030780821   -3.7949071    1.0452543      8192000 
  485000   0.80866004   -3.7941481   -3.7941481   -2.7493295  0.031921362   -3.7941481    1.0448186      8192000 
  486000   0.80865016   -3.7937875   -3.7937875   -2.7489766  0.031935723   -3.7937875    1.0448109      8192000 
  487000   0.80885374    -3.794234    -3.794234   -2.7491551  0.030773641    -3.794234    1.0450789      8192000 
  488000   0.80873623   -3.7941963   -3.7941963   -2.7492642  0.030785407   -3.7941963    1.0449322      8192000 
  489000   0.80872862   -3.7941572   -3.7941572   -2.7492298   0.03420269   -3.7941572    1.0449274      8192000 
  490000   0.80885792   -3.7945589   -3.7945589   -2.7494595  0.031864504   -3.7945589    1.0450995      8192000 
  491000   0.80892988   -3.7947836   -3.7947836   -2.7495861  0.031653182   -3.7947836    1.0451975      8192000 
  492000   0.80923138   -3.7948658   -3.7948658   -2.7492737  0.031202134   -3.7948658    1.0455921      8192000 
  493000   0.80904157   -3.7947069   -3.7947069    -2.749355   0.03188518   -3.7947069    1.0453519      8192000 
  494000    0.8090878   -3.7945632   -3.7945632   -2.7491465  0.031710673   -3.7945632    1.0454167      8192000 
  495000   0.80926421    -3.794545    -3.794545   -2.7488954  0.029551757    -3.794545    1.0456497      8192000 
  496000   0.80892832   -3.7947284   -3.7947284   -2.7495077  0.030398069   -3.7947284    1.0452207      8192000 
  497000   0.80887582   -3.7946468   -3.7946468   -2.7494889  0.033258601   -3.7946468    1.0451579      8192000 
  498000   0.80893617   -3.7946479   -3.7946479    -2.749407  0.031086607   -3.7946479    1.0452409      8192000 
  499000   0.80879515   -3.7943138   -3.7943138     -2.74925  0.030956009   -3.7943138    1.0450638      8192000 
  500000   0.80892722   -3.7942415   -3.7942415    -2.749002  0.031653154   -3.7942415    1.0452395      8192000 
  501000   0.80894501   -3.7946601   -3.7946601   -2.7493925  0.030782812   -3.7946601    1.0452675      8192000 
  502000   0.80893824    -3.794678    -3.794678   -2.7494142  0.031580925    -3.794678    1.0452638      8192000 
  503000   0.80882546   -3.7944401   -3.7944401    -2.749317  0.031968764   -3.7944401    1.0451231      8192000 
  504000   0.80889391   -3.7944708   -3.7944708   -2.7492542  0.032321041   -3.7944708    1.0452166      8192000 
  505000   0.80927053   -3.7947811   -3.7947811   -2.7490728  0.032302493   -3.7947811    1.0457083      8192000 
  506000   0.80895632   -3.7946686   -3.7946686   -2.7493612  0.034735065   -3.7946686    1.0453074      8192000 
  507000   0.80887517   -3.7943744   -3.7943744   -2.7491668  0.033784972   -3.7943744    1.0452075      8192000 
  508000    0.8091367   -3.7948785   -3.7948785    -2.749328  0.034432761   -3.7948785    1.0455505      8192000 
  509000   0.80922732   -3.7947682   -3.7947682   -2.7490956  0.033241609   -3.7947682    1.0456727      8192000 
  510000   0.80915417   -3.7949742   -3.7949742    -2.749391  0.029215287   -3.7949742    1.0455832      8192000 
  511000   0.80871382   -3.7946246   -3.7946246   -2.7496054  0.032793682   -3.7946246    1.0450192      8192000 
  512000   0.80815156   -3.7939182   -3.7939182   -2.7496205  0.035348587   -3.7939182    1.0442977      8192000 
  513000   0.80902988   -3.7950031   -3.7950031   -2.7495654  0.030035681   -3.7950031    1.0454377      8192000 
  514000   0.80887404   -3.7942674   -3.7942674    -2.749026  0.034165347   -3.7942674    1.0452414      8192000 
  515000   0.80836729   -3.7941602   -3.7941602   -2.7495685  0.030869012   -3.7941602    1.0445916      8192000 
  516000   0.80864065   -3.7940967   -3.7940967   -2.7491468  0.032904541   -3.7940967    1.0449499      8192000 
  517000    0.8082386   -3.7940116   -3.7940116   -2.7495762  0.033755156   -3.7940116    1.0444354      8192000 
  518000   0.80867508   -3.7941837   -3.7941837   -2.7491792   0.03244705   -3.7941837    1.0450045      8192000 
  519000   0.80883942   -3.7944326   -3.7944326   -2.7492107  0.030872417   -3.7944326    1.0452219      8192000 
  520000   0.80888085    -3.794375    -3.794375   -2.7490946  0.031641776    -3.794375    1.0452805      8192000 
  521000   0.80815675   -3.7932655   -3.7932655   -2.7489157   0.03241188   -3.7932655    1.0443498      8192000 
  522000   0.80886718   -3.7942562   -3.7942562   -2.7489833  0.031179912   -3.7942562    1.0452729      8192000 
  523000   0.80895537   -3.7941487   -3.7941487   -2.7487568  0.030779311   -3.7941487    1.0453919      8192000 
  524000   0.80871742   -3.7939434   -3.7939434    -2.748854   0.03418674   -3.7939434    1.0450895      8192000 
  525000   0.80945516   -3.7950345   -3.7950345   -2.7489866  0.030228423   -3.7950345    1.0460479      8192000 
  526000   0.80875023   -3.7947077   -3.7947077   -2.7495658  0.029279175   -3.7947077    1.0451419      8192000 
  527000   0.80870589   -3.7942442   -3.7942442   -2.7491545  0.033224756   -3.7942442    1.0450897      8192000 
  528000   0.80864411   -3.7940214   -3.7940214   -2.7490065  0.030823089   -3.7940214    1.0450149      8192000 
  529000   0.80850317    -3.793791    -3.793791   -2.7489532  0.030478059    -3.793791    1.0448378      8192000 
  530000   0.80864294   -3.7939248   -3.7939248   -2.7489014  0.031764031   -3.7939248    1.0450235      8192000 
  531000   0.80919913   -3.7944764   -3.7944764   -2.7487291  0.029238196   -3.7944764    1.0457473      8192000 
  532000   0.80871079   -3.7941799   -3.7941799   -2.7490587  0.031705779   -3.7941799    1.0451212      8192000 
  533000   0.80843446   -3.7940314   -3.7940314   -2.7492622   0.03263568   -3.7940314    1.0447692      8192000 
  534000   0.80842493   -3.7940921   -3.7940921   -2.7493302   0.03080152   -3.7940921    1.0447619      8192000 
  535000   0.80862262    -3.794039    -3.794039   -2.7490166  0.035198114    -3.794039    1.0450224      8192000 
  536000   0.80847702   -3.7940427   -3.7940427   -2.7492034  0.030674761   -3.7940427    1.0448393      8192000 
  537000   0.80872618   -3.7943277   -3.7943277   -2.7491613   0.03236133   -3.7943277    1.0451664      8192000 
  538000   0.80864044   -3.7940043   -3.7940043   -2.7489437  0.032743996   -3.7940043    1.0450606      8192000 
  539000   0.80857961    -3.794116    -3.794116    -2.749129  0.030595876    -3.794116     1.044987      8192000 
  540000   0.80891209   -3.7944382   -3.7944382   -2.7490164  0.029560565   -3.7944382    1.0454218      8192000 
  541000   0.80849854   -3.7936448   -3.7936448   -2.7487525  0.033260971   -3.7936448    1.0448923      8192000 
  542000   0.80822943   -3.7936489   -3.7936489   -2.7490993  0.034644768   -3.7936489    1.0445496      8192000 
  543000   0.80890291   -3.7942669   -3.7942669   -2.7488419  0.030848811   -3.7942669    1.0454251      8192000 
  544000   0.80828865   -3.7936498   -3.7936498   -2.7490136  0.030711258   -3.7936498    1.0446362      8192000 
  545000   0.80834624   -3.7937342   -3.7937342   -2.7490185  0.033265044   -3.7937342    1.0447157      8192000 
  546000   0.80888419   -3.7941583   -3.7941583   -2.7487423  0.028291083   -3.7941583     1.045416      8192000 
  547000   0.80858798   -3.7939787   -3.7939787   -2.7489405  0.032233859   -3.7939787    1.0450382      8192000 
  548000   0.80889898   -3.7943589   -3.7943589   -2.7489137  0.031430782   -3.7943589    1.0454452      8192000 
  549000   0.80850275   -3.7938361   -3.7938361    -2.748898   0.02969339   -3.7938361    1.0449381      8192000 
  550000   0.80834104   -3.7941441   -3.7941441   -2.7494099  0.026091733   -3.7941441    1.0447342      8192000 
  551000   0.80851575   -3.7937656   -3.7937656   -2.7488005  0.031321424   -3.7937656     1.044965      8192000 
  552000   0.80828922   -3.7938371   -3.7938371   -2.7491598  0.030307144   -3.7938371    1.0446773      8192000 
  553000   0.80832975   -3.7938563   -3.7938563   -2.7491216  0.030686609   -3.7938563    1.0447347      8192000 
  554000   0.80823445   -3.7937359   -3.7937359   -2.7491193  0.030587679   -3.7937359    1.0446166      8192000 
  555000   0.80832621   -3.7937704   -3.7937704   -2.7490301  0.030646371   -3.7937704    1.0447402      8192000 
  556000   0.80834347   -3.7937105   -3.7937105   -2.7489429  0.029505831   -3.7937105    1.0447676      8192000 
  557000   0.80825455   -3.7940043   -3.7940043   -2.7493466  0.032024134   -3.7940043    1.0446577      8192000 
  558000   0.80850481   -3.7938054   -3.7938054   -2.7488192  0.031235174   -3.7938054    1.0449862      8192000 
  559000   0.80834625   -3.7937089   -3.7937089   -2.7489225  0.033041158   -3.7937089    1.0447863      8192000 
  560000   0.80839412   -3.7937318   -3.7937318   -2.7488786  0.034269222   -3.7937318    1.0448532      8192000 
  561000   0.80891284   -3.7943005   -3.7943005   -2.7487718   0.03110392   -3.7943005    1.0455287      8192000 
  562000    0.8087752   -3.7939368   -3.7939368    -2.748581  0.033508142   -3.7939368    1.0453559      8192000 
  563000    0.8084347   -3.7942945   -3.7942945   -2.7493737  0.032352007   -3.7942945    1.0449208      8192000 
  564000   0.80833327   -3.7941934   -3.7941934   -2.7493986  0.032338779   -3.7941934    1.0447948      8192000 
  565000   0.80831048   -3.7940282   -3.7940282   -2.7492578  0.031180354   -3.7940282    1.0447704      8192000 
  566000   0.80834218   -3.7942923   -3.7942923    -2.749476  0.032086262   -3.7942923    1.0448164      8192000 
  567000   0.80852524   -3.7942746   -3.7942746   -2.7492165  0.031303069   -3.7942746     1.045058      8192000 
  568000   0.80805343   -3.7937914   -3.7937914   -2.7493381  0.031093253   -3.7937914    1.0444532      8192000 
  569000   0.80800677   -3.7939074   -3.7939074   -2.7495094  0.031711308   -3.7939074     1.044398      8192000 
  570000   0.80827389   -3.7941745   -3.7941745   -2.7494262  0.030380292   -3.7941745    1.0447483      8192000 
  571000   0.80866976   -3.7944491   -3.7944491   -2.7491841  0.032956465   -3.7944491     1.045265      8192000 
  572000   0.80889838   -3.7946408   -3.7946408   -2.7490752  0.032318574   -3.7946408    1.0455656      8192000 
  573000   0.80810446   -3.7933237   -3.7933237   -2.7487793  0.035639372   -3.7933237    1.0445444      8192000 
  574000   0.80863053   -3.7940054   -3.7940054    -2.748776  0.034682145   -3.7940054    1.0452295      8192000 
  575000   0.80891936   -3.7945596   -3.7945596   -2.7489518  0.032270744   -3.7945596    1.0456078      8192000 
  576000   0.80880722   -3.7943161   -3.7943161   -2.7488481  0.032917965   -3.7943161    1.0454679      8192000 
  577000   0.80883179   -3.7942868   -3.7942868    -2.748782  0.033237851   -3.7942868    1.0455048      8192000 
  578000   0.80861944   -3.7941955   -3.7941955   -2.7489601  0.033601585   -3.7941955    1.0452353      8192000 
  579000   0.80844892   -3.7938345   -3.7938345   -2.7488145  0.031395393   -3.7938345    1.0450199      8192000 
  580000    0.8088248   -3.7942526   -3.7942526   -2.7487417  0.030667467   -3.7942526    1.0455109      8192000 
  581000   0.80789208    -3.793121    -3.793121   -2.7488107  0.032414184    -3.793121    1.0443102      8192000 
  582000   0.80837021   -3.7939665   -3.7939665   -2.7490332  0.029479786   -3.7939665    1.0449333      8192000 
  583000   0.80853446    -3.794232    -3.794232   -2.7490813  0.029004649    -3.794232    1.0451507      8192000 
  584000   0.80838597   -3.7938315   -3.7938315   -2.7488677   0.03359768   -3.7938315    1.0449638      8192000 
  585000   0.80857291    -3.793805    -3.793805   -2.7485945  0.030392169    -3.793805    1.0452105      8192000 
  586000   0.80817328   -3.7932607   -3.7932607   -2.7485617  0.031552314   -3.7932607     1.044699      8192000 
  587000   0.80798105   -3.7929669   -3.7929669   -2.7485114  0.031495454   -3.7929669    1.0444555      8192000 
  588000   0.80864516   -3.7935569   -3.7935569   -2.7482378  0.029772071   -3.7935569     1.045319      8192000 
  589000   0.80861022   -3.7933287   -3.7933287   -2.7480498  0.028900286   -3.7933287    1.0452789      8192000 
  590000   0.80810922   -3.7929812   -3.7929812   -2.7483449  0.029757373   -3.7929812    1.0446363      8192000 
  591000   0.80782534   -3.7928608   -3.7928608   -2.7485864  0.030651965   -3.7928608    1.0442744      8192000 
  592000   0.80829722   -3.7933029   -3.7933029   -2.7484135  0.030304462   -3.7933029    1.0448894      8192000 
  593000   0.80823986   -3.7930888   -3.7930888   -2.7482685  0.032413928   -3.7930888    1.0448203      8192000 
  594000    0.8080325   -3.7932611   -3.7932611   -2.7487038  0.030026445   -3.7932611    1.0445573      8192000 
  595000   0.80802769   -3.7931941   -3.7931941   -2.7486379  0.029518263   -3.7931941    1.0445562      8192000 
  596000   0.80812252   -3.7932831   -3.7932831   -2.7485993  0.031310794   -3.7932831    1.0446838      8192000 
  597000   0.80792133    -3.793007    -3.793007   -2.7485783  0.033542054    -3.793007    1.0444288      8192000 
  598000   0.80829031    -3.793279    -3.793279   -2.7483683  0.030345624    -3.793279    1.0449108      8192000 
  599000   0.80821108   -3.7930837   -3.7930837   -2.7482703  0.030552543   -3.7930837    1.0448134      8192000 
  600000   0.80839309   -3.7931469   -3.7931469   -2.7480931  0.030836399   -3.7931469    1.0450537      8192000 
  601000   0.80875849   -3.7938061   -3.7938061   -2.7482749  0.029743317   -3.7938061    1.0455312      8192000 
  602000   0.80803938   -3.7931188   -3.7931188   -2.7485122  0.032341275   -3.7931188    1.0446066      8192000 
  603000   0.80859798   -3.7935192   -3.7935192   -2.7481854  0.030517686   -3.7935192    1.0453338      8192000 
  604000   0.80844907   -3.7937131   -3.7937131   -2.7485668  0.036803495   -3.7937131    1.0451463      8192000 
  605000   0.80893881   -3.7938698   -3.7938698   -2.7480853  0.033466705   -3.7938698    1.0457845      8192000 
  606000   0.80876091   -3.7938612   -3.7938612   -2.7483016  0.030967621   -3.7938612    1.0455595      8192000 
  607000   0.80877493   -3.7937464   -3.7937464   -2.7481637   0.03257967   -3.7937464    1.0455827      8192000 
  608000   0.80866602   -3.7937693   -3.7937693   -2.7483223  0.030928339   -3.7937693     1.045447      8192000 
  609000   0.80796594   -3.7929797   -3.7929797   -2.7484328  0.035300997   -3.7929797    1.0445469      8192000 
  610000   0.80867466   -3.7935702   -3.7935702   -2.7481019  0.029002001   -3.7935702    1.0454682      8192000 
  611000   0.80907556   -3.7942066   -3.7942066    -2.748215  0.028172223   -3.7942066    1.0459916      8192000 
  612000   0.80861657   -3.7935686   -3.7935686   -2.7481654  0.030109897   -3.7935686    1.0454032      8192000 
  613000   0.80889148   -3.7940639   -3.7940639   -2.7483002  0.030841414   -3.7940639    1.0457637      8192000 
  614000   0.80897357   -3.7940308   -3.7940308    -2.748156   0.02891456   -3.7940308    1.0458749      8192000 
  615000   0.80912235   -3.7939726   -3.7939726   -2.7479003  0.032873155   -3.7939726    1.0460723      8192000 
  616000   0.80851765   -3.7935408   -3.7935408   -2.7482453  0.032659578   -3.7935408    1.0452955      8192000 
  617000   0.80913762   -3.7940278   -3.7940278   -2.7479257  0.029255218   -3.7940278    1.0461021      8192000 
  618000   0.80861664   -3.7935466   -3.7935466    -2.748113  0.034825534   -3.7935466    1.0454336      8192000 
  619000   0.80844307   -3.7933675   -3.7933675   -2.7481533  0.034596887   -3.7933675    1.0452143      8192000 
  620000    0.8087128   -3.7938665   -3.7938665   -2.7482985  0.032099434   -3.7938665     1.045568      8192000 
  621000   0.80801042   -3.7929481   -3.7929481   -2.7482832  0.033480317   -3.7929481     1.044665      8192000 
  622000   0.80873026   -3.7937705   -3.7937705   -2.7481698  0.026696668   -3.7937705    1.0456007      8192000 
  623000   0.80799451    -3.792907    -3.792907   -2.7482525  0.030410433    -3.792907    1.0446545      8192000 
  624000   0.80826901   -3.7931779   -3.7931779   -2.7481634  0.029532462   -3.7931779    1.0450145      8192000 
  625000   0.80783738   -3.7927844   -3.7927844    -2.748323  0.030500654   -3.7927844    1.0444615      8192000 
  626000   0.80827046   -3.7930766   -3.7930766   -2.7480501  0.032332988   -3.7930766    1.0450264      8192000 
  627000   0.80816106   -3.7930097   -3.7930097   -2.7481196  0.031914719   -3.7930097      1.04489      8192000 
  628000   0.80849225   -3.7932015   -3.7932015   -2.7478782  0.032700491   -3.7932015    1.0453233      8192000 
  629000   0.80856396   -3.7933394   -3.7933394   -2.7479183  0.032214329   -3.7933394     1.045421      8192000 
  630000   0.80811379   -3.7926423   -3.7926423   -2.7477982  0.032608428   -3.7926423    1.0448441      8192000 
  631000   0.80866676    -3.792959    -3.792959   -2.7473949  0.033374779    -3.792959    1.0455641      8192000 
  632000   0.80824983   -3.7929221   -3.7929221   -2.7478921  0.029243095   -3.7929221      1.04503      8192000 
  633000   0.80820457   -3.7930061   -3.7930061   -2.7480295   0.03220506   -3.7930061    1.0449766      8192000 
  634000   0.80840061   -3.7931674   -3.7931674   -2.7479323  0.032652139   -3.7931674    1.0452351      8192000 
  635000   0.80795734   -3.7928452   -3.7928452   -2.7481782  0.033079999   -3.7928452     1.044667      8192000 
  636000    0.8081814   -3.7932485   -3.7932485   -2.7482867  0.031453532   -3.7932485    1.0449618      8192000 
  637000   0.80813898   -3.7932269   -3.7932269    -2.748315  0.032533866   -3.7932269     1.044912      8192000 
  638000   0.80824148   -3.7932355   -3.7932355    -2.748186  0.031049824   -3.7932355    1.0450495      8192000 
  639000   0.80840813   -3.7934546   -3.7934546   -2.7481845  0.030760428   -3.7934546    1.0452701      8192000 
  640000   0.80826608   -3.7935714   -3.7935714   -2.7484799  0.029394006   -3.7935714    1.0450914      8192000 
  641000   0.80813295   -3.7932972   -3.7932972   -2.7483729  0.032433725   -3.7932972    1.0449243      8192000 
  642000   0.80838457    -3.793493    -3.793493   -2.7482383  0.030409852    -3.793493    1.0452547      8192000 
  643000   0.80812881   -3.7932249   -3.7932249   -2.7482958  0.032165447   -3.7932249    1.0449291      8192000 
  644000   0.80787778   -3.7928511   -3.7928511   -2.7482415     0.030145   -3.7928511    1.0446095      8192000 
  645000   0.80815167     -3.79336     -3.79336   -2.7483912   0.03327603     -3.79336    1.0449687      8192000 
  646000   0.80799143   -3.7929335   -3.7929335    -2.748167  0.031471094   -3.7929335    1.0447666      8192000 
  647000    0.8084711   -3.7933719   -3.7933719   -2.7479801  0.030681933   -3.7933719    1.0453919      8192000 
  648000   0.80851912   -3.7933056   -3.7933056   -2.7478466  0.035262004   -3.7933056     1.045459      8192000 
  649000   0.80832164   -3.7932953   -3.7932953   -2.7480865  0.030595181   -3.7932953    1.0452087      8192000 
  650000   0.80842143   -3.7929881   -3.7929881   -2.7476453  0.032495965   -3.7929881    1.0453428      8192000 
  651000   0.80863627   -3.7933436   -3.7933436   -2.7477179  0.032458196   -3.7933436    1.0456257      8192000 
[...]
 3800000   0.79682463   -3.7690294   -3.7690294   -2.7227622  0.033073601   -3.7690294    1.0462672      8192000 
 3801000   0.79675086   -3.7692815   -3.7692815    -2.723106  0.031665986   -3.7692815    1.0461755      8192000 
 3802000   0.79685697   -3.7688483   -3.7688483   -2.7225283  0.031190836   -3.7688483      1.04632      8192000 
 3803000   0.79680237   -3.7692275   -3.7692275   -2.7229741  0.029828209   -3.7692275    1.0462534      8192000 
 3804000   0.79639227   -3.7688032   -3.7688032   -2.7230832  0.031946287   -3.7688032      1.04572      8192000 
 3805000   0.79665667   -3.7691531   -3.7691531   -2.7230807  0.031437361   -3.7691531    1.0460724      8192000 
 3806000   0.79652489   -3.7689435   -3.7689435    -2.723039  0.029866347   -3.7689435    1.0459044      8192000 
 3807000    0.7961588   -3.7684834   -3.7684834   -2.7230546  0.031708291   -3.7684834    1.0454289      8192000 
 3808000   0.79639382   -3.7687343   -3.7687343   -2.7229918  0.029791464   -3.7687343    1.0457426      8192000 
 3809000   0.79667341   -3.7688727   -3.7688727   -2.7227579  0.032709132   -3.7688727    1.0461149      8192000 
 3810000   0.79670155   -3.7691138   -3.7691138   -2.7229569   0.03108641   -3.7691138    1.0461569      8192000 
 3811000   0.79658123   -3.7693498   -3.7693498   -2.7233458   0.02815298   -3.7693498    1.0460041      8192000 
 3812000   0.79632194   -3.7687121   -3.7687121   -2.7230434  0.031092036   -3.7687121    1.0456687      8192000 
 3813000   0.79641438   -3.7689291   -3.7689291   -2.7231338  0.031262987   -3.7689291    1.0457952      8192000 
 3814000   0.79627935   -3.7691998   -3.7691998   -2.7235768  0.030410595   -3.7691998    1.0456231      8192000 
 3815000   0.79648068   -3.7692897   -3.7692897   -2.7233971  0.031802474   -3.7692897    1.0458926      8192000 
 3816000   0.79653902   -3.7692795   -3.7692795   -2.7233052  0.030097795   -3.7692795    1.0459743      8192000 
 3817000   0.79620726   -3.7689319   -3.7689319   -2.7233881  0.033180811   -3.7689319    1.0455438      8192000 
 3818000   0.79631967   -3.7692989   -3.7692989   -2.7236024  0.030379038   -3.7692989    1.0456965      8192000 
 3819000   0.79650427     -3.76879     -3.76879   -2.7228459  0.033279793     -3.76879    1.0459441      8192000 
 3820000   0.79641999   -3.7690452   -3.7690452   -2.7232067  0.033374357   -3.7690452    1.0458385      8192000 
 3821000   0.79656963   -3.7694044   -3.7694044   -2.7233643   0.03355469   -3.7694044    1.0460402      8192000 
 3822000    0.7968137   -3.7693439   -3.7693439   -2.7229781  0.033679167   -3.7693439    1.0463658      8192000 
 3823000   0.79683515   -3.7695608   -3.7695608   -2.7231617  0.035196349   -3.7695608    1.0463991      8192000 
 3824000   0.79688805   -3.7695533   -3.7695533   -2.7230796  0.034130954   -3.7695533    1.0464737      8192000 
 3825000   0.79675785   -3.7695245   -3.7695245   -2.7232167  0.034335212   -3.7695245    1.0463079      8192000 
 3826000   0.79646463   -3.7692483   -3.7692483   -2.7233203  0.035998738   -3.7692483    1.0459279      8192000 
 3827000   0.79697713   -3.7699768   -3.7699768   -2.7233707  0.029637362   -3.7699768    1.0466061      8192000 
 3828000   0.79696141   -3.7697509   -3.7697509   -2.7231603  0.034919744   -3.7697509    1.0465906      8192000 
 3829000   0.79634135   -3.7691776   -3.7691776   -2.7233962  0.034449272   -3.7691776    1.0457814      8192000 
 3830000   0.79656217   -3.7694359   -3.7694359   -2.7233593  0.029896663   -3.7694359    1.0460765      8192000 
 3831000    0.7969549    -3.769405    -3.769405   -2.7228075  0.031337181    -3.769405    1.0465974      8192000 
 3832000   0.79702883    -3.769416    -3.769416   -2.7227163  0.032932625    -3.769416    1.0466997      8192000 
 3833000    0.7966046     -3.76911     -3.76911   -2.7229624   0.02985698     -3.76911    1.0461477      8192000 
 3834000    0.7970031   -3.7697081   -3.7697081   -2.7230319  0.029609961   -3.7697081    1.0466761      8192000 
 3835000   0.79670033   -3.7691829   -3.7691829   -2.7228992  0.032968459   -3.7691829    1.0462836      8192000 
 3836000   0.79710926   -3.7698869   -3.7698869   -2.7230611  0.031442617   -3.7698869    1.0468258      8192000 
 3837000   0.79683191   -3.7692854   -3.7692854   -2.7228187   0.03256984   -3.7692854    1.0464667      8192000 
 3838000   0.79670022   -3.7688708   -3.7688708   -2.7225719  0.032908694   -3.7688708    1.0462989      8192000 
 3839000   0.79634573   -3.7687083   -3.7687083   -2.7228699  0.031403686   -3.7687083    1.0458385      8192000 
 3840000   0.79678122   -3.7692349   -3.7692349   -2.7228194  0.029391261   -3.7692349    1.0464155      8192000 
 3841000   0.79654123   -3.7689661   -3.7689661   -2.7228606  0.031379516   -3.7689661    1.0461055      8192000 
 3842000   0.79647291   -3.7687924   -3.7687924   -2.7227715  0.031174552   -3.7687924    1.0460209      8192000 
 3843000   0.79652987   -3.7689766   -3.7689766   -2.7228758   0.02940157   -3.7689766    1.0461008      8192000 
 3844000   0.79621929   -3.7685194   -3.7685194   -2.7228213  0.031177113   -3.7685194    1.0456981      8192000 
 3845000   0.79626899   -3.7687211   -3.7687211   -2.7229526  0.029530885   -3.7687211    1.0457685      8192000 
 3846000   0.79662312   -3.7687403   -3.7687403   -2.7225016  0.033234851   -3.7687403    1.0462387      8192000 
 3847000   0.79641373    -3.768519    -3.768519   -2.7225501  0.031138263    -3.768519    1.0459688      8192000 
 3848000   0.79641241   -3.7683143   -3.7683143   -2.7223421  0.033905893   -3.7683143    1.0459722      8192000 
 3849000   0.79700437   -3.7688248   -3.7688248     -2.72207  0.030929663   -3.7688248    1.0467548      8192000 
 3850000   0.79664524   -3.7684177   -3.7684177   -2.7221295  0.031325993   -3.7684177    1.0462883      8192000 
 3851000   0.79684991   -3.7687549   -3.7687549   -2.7221927  0.030641072   -3.7687549    1.0465622      8192000 
 3852000   0.79682912   -3.7687806   -3.7687806   -2.7222405  0.032307781   -3.7687806    1.0465401      8192000 
 3853000   0.79647909   -3.7686175   -3.7686175   -2.7225321  0.031182022   -3.7686175    1.0460855      8192000 
 3854000   0.79647214   -3.7685088   -3.7685088   -2.7224274  0.034432156   -3.7685088    1.0460815      8192000 
 3855000   0.79640278   -3.7685767   -3.7685767   -2.7225812  0.033250053   -3.7685767    1.0459955      8192000 
 3856000   0.79643478   -3.7683713   -3.7683713   -2.7223286  0.031811252   -3.7683713    1.0460427      8192000 
 3857000   0.79654938   -3.7681463   -3.7681463    -2.721948  0.034590814   -3.7681463    1.0461983      8192000 
 3858000    0.7966204   -3.7685439   -3.7685439   -2.7222472  0.033104635   -3.7685439    1.0462967      8192000 
 3859000   0.79718755   -3.7695249   -3.7695249   -2.7224781  0.028155334   -3.7695249    1.0470468      8192000 
 3860000   0.79688727   -3.7686739   -3.7686739   -2.7220164  0.033979081   -3.7686739    1.0466575      8192000 
 3861000   0.79672968   -3.7688797   -3.7688797    -2.722424  0.031833484   -3.7688797    1.0464557      8192000 
 3862000    0.7961848   -3.7683305   -3.7683305   -2.7225854  0.033410573   -3.7683305    1.0457451      8192000 
 3863000   0.79704734   -3.7690097   -3.7690097   -2.7221265     0.032026   -3.7690097    1.0468832      8192000 
 3864000   0.79663115   -3.7684138   -3.7684138   -2.7220722  0.034018882   -3.7684138    1.0463417      8192000 
 3865000   0.79628631   -3.7682679   -3.7682679    -2.722374  0.033462574   -3.7682679    1.0458939      8192000 
 3866000   0.79657512    -3.769173    -3.769173   -2.7228946  0.030825213    -3.769173    1.0462783      8192000 
 3867000   0.79667484   -3.7683348   -3.7683348   -2.7219204  0.033178277   -3.7683348    1.0464144      8192000 
 3868000   0.79604646   -3.7676832   -3.7676832    -2.722089  0.033609719   -3.7676832    1.0455942      8192000 
 3869000   0.79636419   -3.7680734   -3.7680734   -2.7220568  0.032121972   -3.7680734    1.0460167      8192000 
 3870000   0.79643624   -3.7682219   -3.7682219   -2.7221055  0.030867295   -3.7682219    1.0461164      8192000 
 3871000   0.79661106   -3.7684511   -3.7684511   -2.7220999  0.033369228   -3.7684511    1.0463512      8192000 
 3872000   0.79589932   -3.7679126   -3.7679126   -2.7224912  0.031440976   -3.7679126    1.0454215      8192000 
 3873000   0.79625427   -3.7682574   -3.7682574   -2.7223646  0.031310752   -3.7682574    1.0458928      8192000 
 3874000   0.79624473   -3.7679318   -3.7679318   -2.7220464  0.032515033   -3.7679318    1.0458854      8192000 
 3875000   0.79633239   -3.7680556   -3.7680556   -2.7220499  0.032674714   -3.7680556    1.0460057      8192000 
 3876000   0.79571511   -3.7674018   -3.7674018   -2.7222018  0.031884582   -3.7674018       1.0452      8192000 
 3877000   0.79592216   -3.7674432   -3.7674432   -2.7219661  0.030061193   -3.7674432    1.0454771      8192000 
 3878000   0.79568548   -3.7678672   -3.7678672   -2.7226958  0.031063333   -3.7678672    1.0451714      8192000 
 3879000   0.79588603   -3.7677704   -3.7677704   -2.7223304  0.031502191   -3.7677704    1.0454399      8192000 
 3880000   0.79651783   -3.7683166   -3.7683166   -2.7220416  0.029700483   -3.7683166     1.046275      8192000 
 3881000   0.79598806   -3.7677147   -3.7677147   -2.7221305  0.030906721   -3.7677147    1.0455842      8192000 
 3882000   0.79634387   -3.7680833   -3.7680833   -2.7220266  0.033012543   -3.7680833    1.0460567      8192000 
 3883000    0.7959404   -3.7676092   -3.7676092   -2.7220773  0.031640527   -3.7676092    1.0455319      8192000 
 3884000   0.79651055   -3.7679666   -3.7679666   -2.7216807  0.035195647   -3.7679666    1.0462859      8192000 
 3885000    0.7961749   -3.7677869   -3.7677869   -2.7219368  0.035077328   -3.7677869    1.0458502      8192000 
 3886000   0.79662577   -3.7687396   -3.7687396    -2.722292  0.029967088   -3.7687396    1.0464475      8192000 
 3887000   0.79624871   -3.7679093   -3.7679093   -2.7219519   0.03295735   -3.7679093    1.0459574      8192000 
 3888000   0.79622515   -3.7680724   -3.7680724   -2.7221408  0.034706705   -3.7680724    1.0459316      8192000 
 3889000   0.79655413   -3.7689094   -3.7689094   -2.7225405  0.031349067   -3.7689094    1.0463688      8192000 
 3890000   0.79618523   -3.7681995   -3.7681995   -2.7223101  0.032869426   -3.7681995    1.0458894      8192000 
 3891000   0.79642366   -3.7683459   -3.7683459   -2.7221381  0.036579082   -3.7683459    1.0462077      8192000 
 3892000   0.79664985   -3.7684833   -3.7684833   -2.7219733  0.033541456   -3.7684833      1.04651      8192000 
 3893000   0.79679686   -3.7686308   -3.7686308   -2.7219226  0.033936986   -3.7686308    1.0467083      8192000 
 3894000    0.7967617   -3.7685132   -3.7685132    -2.721846  0.032835586   -3.7685132    1.0466672      8192000 
 3895000   0.79673399   -3.7686132   -3.7686132   -2.7219773  0.033012297   -3.7686132    1.0466359      8192000 
 3896000   0.79658574   -3.7686525   -3.7686525   -2.7222062  0.035638047   -3.7686525    1.0464463      8192000 
 3897000   0.79640458   -3.7684958   -3.7684958   -2.7222823   0.03545802   -3.7684958    1.0462135      8192000 
 3898000   0.79618443   -3.7680959   -3.7680959   -2.7221665  0.036260443   -3.7680959    1.0459294      8192000 
 3899000   0.79657357   -3.7684588   -3.7684588   -2.7220131  0.032430516   -3.7684588    1.0464457      8192000 
 3900000   0.79638107    -3.768634    -3.768634    -2.722436  0.031112574    -3.768634     1.046198      8192000 
 3901000   0.79655678   -3.7687444   -3.7687444   -2.7223105  0.030928104   -3.7687444    1.0464339      8192000 
 3902000   0.79646969   -3.7685613   -3.7685613   -2.7222366  0.032065626   -3.7685613    1.0463247      8192000 
 3903000   0.79620326   -3.7680188   -3.7680188    -2.722039  0.031451674   -3.7680188    1.0459798      8192000 
 3904000   0.79583568   -3.7679544   -3.7679544   -2.7224524  0.031440643   -3.7679544     1.045502      8192000 
 3905000   0.79637161   -3.7683311   -3.7683311   -2.7221198  0.031850052   -3.7683311    1.0462112      8192000 
 3906000   0.79678106   -3.7686838   -3.7686838   -2.7219295  0.030086035   -3.7686838    1.0467543      8192000 
 3907000   0.79662729   -3.7684508   -3.7684508   -2.7218934  0.030627955   -3.7684508    1.0465574      8192000 
 3908000   0.79647654   -3.7686823   -3.7686823   -2.7223178  0.030545434   -3.7686823    1.0463645      8192000 
 3909000   0.79613489   -3.7680396   -3.7680396   -2.7221188  0.035546217   -3.7680396    1.0459208      8192000 
 3910000   0.79649404   -3.7685016   -3.7685016   -2.7221038  0.031903425   -3.7685016    1.0463977      8192000 
 3911000   0.79650025   -3.7680627   -3.7680627   -2.7216517  0.032586471   -3.7680627     1.046411      8192000 
 3912000   0.79644001   -3.7676882   -3.7676882   -2.7213512  0.033666711   -3.7676882     1.046337      8192000 
 3913000   0.79641715   -3.7678938   -3.7678938   -2.7215817  0.032135625   -3.7678938    1.0463121      8192000 
 3914000   0.79625388    -3.767836    -3.767836   -2.7217333  0.031360113    -3.767836    1.0461028      8192000 
 3915000   0.79609899   -3.7678629   -3.7678629   -2.7219585  0.029357658   -3.7678629    1.0459044      8192000 
 3916000   0.79657539   -3.7678991   -3.7678991   -2.7213637   0.02797245   -3.7678991    1.0465354      8192000 
 3917000   0.79643815   -3.7678567   -3.7678567   -2.7214965  0.032145258   -3.7678567    1.0463603      8192000 
 3918000   0.79637255   -3.7677368   -3.7677368   -2.7214576  0.031336622   -3.7677368    1.0462792      8192000 
 3919000   0.79618978    -3.767767    -3.767767   -2.7217228  0.030274196    -3.767767    1.0460442      8192000 
 3920000   0.79615617   -3.7678201   -3.7678201   -2.7218149  0.028768708   -3.7678201    1.0460052      8192000 
 3921000   0.79628734   -3.7681461   -3.7681461   -2.7219634  0.031364794   -3.7681461    1.0461827      8192000 
 3922000   0.79601708   -3.7675906   -3.7675906   -2.7217578  0.034359398   -3.7675906    1.0458327      8192000 
 3923000   0.79660523    -3.768076    -3.768076   -2.7214654  0.031159515    -3.768076    1.0466106      8192000 
 3924000   0.79646368   -3.7678504   -3.7678504   -2.7214206  0.032483349   -3.7678504    1.0464298      8192000 
 3925000   0.79595748   -3.7674245   -3.7674245   -2.7216547  0.035582268   -3.7674245    1.0457698      8192000 
 3926000   0.79608477    -3.767446    -3.767446   -2.7215038  0.032802318    -3.767446    1.0459422      8192000 
 3927000   0.79613826   -3.7676817   -3.7676817   -2.7216641  0.029395846   -3.7676817    1.0460176      8192000 
 3928000   0.79656814   -3.7678495   -3.7678495   -2.7212619   0.03213497   -3.7678495    1.0465876      8192000 
 3929000    0.7956739     -3.76715     -3.76715   -2.7217322  0.032156952     -3.76715    1.0454178      8192000 
 3930000    0.7956743   -3.7666111   -3.7666111   -2.7211876  0.034563446   -3.7666111    1.0454234      8192000 
 3931000   0.79637216   -3.7677216   -3.7677216   -2.7213761  0.029075158   -3.7677216    1.0463455      8192000 
 3932000   0.79637891   -3.7675802   -3.7675802   -2.7212207   0.02920734   -3.7675802    1.0463595      8192000 
 3933000   0.79651045   -3.7681721   -3.7681721   -2.7216346  0.031153534   -3.7681721    1.0465374      8192000 
 3934000   0.79602904   -3.7675655   -3.7675655   -2.7216554  0.031500535   -3.7675655      1.04591      8192000 
 3935000   0.79594546    -3.767358    -3.767358   -2.7215526   0.03555162    -3.767358    1.0458054      8192000 
 3936000   0.79654054   -3.7677443   -3.7677443   -2.7211519  0.033049329   -3.7677443    1.0465924      8192000 
 3937000   0.79657003   -3.7678822   -3.7678822   -2.7212459  0.032991004   -3.7678822    1.0466363      8192000 
 3938000    0.7965901   -3.7676723   -3.7676723   -2.7210045  0.035458932   -3.7676723    1.0466678      8192000 
 3939000   0.79640248   -3.7680165   -3.7680165   -2.7215901  0.032538633   -3.7680165    1.0464264      8192000 
 3940000   0.79673725   -3.7680503   -3.7680503   -2.7211789  0.033988381   -3.7680503    1.0468714      8192000 
 3941000   0.79655222   -3.7681283   -3.7681283   -2.7214949  0.032397148   -3.7681283    1.0466334      8192000 
 3942000   0.79611473   -3.7682369   -3.7682369   -2.7221732  0.032265662   -3.7682369    1.0460637      8192000 
 3943000   0.79616905   -3.7680547   -3.7680547   -2.7219145  0.032003722   -3.7680547    1.0461402      8192000 
 3944000   0.79601583   -3.7677118   -3.7677118   -2.7217678    0.0344719   -3.7677118     1.045944      8192000 
 3945000   0.79665269   -3.7682225   -3.7682225   -2.7214365   0.03114447   -3.7682225     1.046786      8192000 
 3946000   0.79645042   -3.7681336   -3.7681336   -2.7216082   0.03347692   -3.7681336    1.0465253      8192000 
 3947000   0.79613688   -3.7678842   -3.7678842   -2.7217657  0.033636731   -3.7678842    1.0461185      8192000 
 3948000   0.79637578   -3.7677881   -3.7677881   -2.7213506  0.033251743   -3.7677881    1.0464375      8192000 
 3949000   0.79664892   -3.7683907   -3.7683907   -2.7215891  0.032570091   -3.7683907    1.0468016      8192000 
 3950000   0.79637722    -3.767841    -3.767841   -2.7213913  0.034870002    -3.767841    1.0464497      8192000 
 3951000   0.79621449     -3.76853     -3.76853   -2.7222889  0.031100734     -3.76853     1.046241      8192000 
 3952000   0.79636214   -3.7679163   -3.7679163   -2.7214761  0.030966775   -3.7679163    1.0464402      8192000 
 3953000   0.79655071   -3.7681512   -3.7681512   -2.7214581   0.03304091   -3.7681512    1.0466931      8192000 
 3954000   0.79621721    -3.767631    -3.767631    -2.721371  0.032854905    -3.767631      1.04626      8192000 
 3955000   0.79571744   -3.7672071   -3.7672071   -2.7215987  0.031408122   -3.7672071    1.0456084      8192000 
 3956000   0.79548363   -3.7670868   -3.7670868   -2.7217805  0.033570409   -3.7670868    1.0453063      8192000 
 3957000   0.79610594   -3.7679221   -3.7679221   -2.7217929  0.033069841   -3.7679221    1.0461292      8192000 
 3958000   0.79606484   -3.7678118   -3.7678118   -2.7217315   0.03230697   -3.7678118    1.0460803      8192000 
 3959000   0.79640859   -3.7680774   -3.7680774   -2.7215402   0.03235264   -3.7680774    1.0465372      8192000 
 3960000   0.79600116   -3.7673983   -3.7673983   -2.7213914  0.033829422   -3.7673983    1.0460069      8192000 
 3961000   0.79653712   -3.7683741   -3.7683741   -2.7216578  0.031885188   -3.7683741    1.0467163      8192000 
 3962000   0.79602639   -3.7675387   -3.7675387   -2.7214884  0.031981472   -3.7675387    1.0460503      8192000 
 3963000   0.79617723   -3.7681693   -3.7681693   -2.7219156  0.030659525   -3.7681693    1.0462537      8192000 
 3964000   0.79613795   -3.7681454   -3.7681454   -2.7219382  0.035674281   -3.7681454    1.0462072      8192000 
 3965000   0.79645888   -3.7680264   -3.7680264   -2.7213924  0.031818775   -3.7680264    1.0466341      8192000 
 3966000   0.79633562   -3.7681589   -3.7681589   -2.7216817  0.034631549   -3.7681589    1.0464772      8192000 
 3967000   0.79612106   -3.7680514   -3.7680514    -2.721851  0.032815524   -3.7680514    1.0462004      8192000 
 3968000   0.79582093   -3.7677638   -3.7677638   -2.7219527  0.032779911   -3.7677638    1.0458111      8192000 
 3969000   0.79564844   -3.7676843   -3.7676843   -2.7220947  0.034626783   -3.7676843    1.0455896      8192000 
 3970000   0.79600192   -3.7679608   -3.7679608   -2.7219016  0.032980839   -3.7679608    1.0460592      8192000 
 3971000   0.79608816   -3.7680682   -3.7680682   -2.7218905  0.033578003   -3.7680682    1.0461777      8192000 
 3972000   0.79574171   -3.7676588   -3.7676588   -2.7219313  0.033740784   -3.7676588    1.0457276      8192000 
 3973000   0.79616103   -3.7679547   -3.7679547   -2.7216709  0.031025894   -3.7679547    1.0462838      8192000 
 3974000   0.79624738   -3.7681361   -3.7681361   -2.7217338  0.030468669   -3.768