LAMMPS (24 Dec 2020)
OMP_NUM_THREADS environment is not set. Defaulting to 1 thread. (src/comm.cpp:94)
  using 1 OpenMP thread(s) per MPI task
# Simple rigid body system
# needed variables:

#variable	startTemp equal 0.5
#variable 	temp 	  equal 0.8

units		lj
atom_style	full
dimension 	3
boundary	p p f
pair_style	lj/smooth ${cutin} ${cutout}
pair_style	lj/smooth 2.00 ${cutout}
pair_style	lj/smooth 2.00 3.00


variable 	sigma		equal 1.0
variable 	epsilon 	equal 1.0

region		box block 0 80 0 80 0 160
create_box 	3 box
Created orthogonal box = (0.0000000 0.0000000 0.0000000) to (80.000000 80.000000 160.00000)
  3 by 4 by 8 MPI processor grid



lattice 	sc 0.66
Lattice spacing in x,y,z = 1.1485556 1.1485556 1.1485556
region		fluid block EDGE EDGE EDGE EDGE 2 100 units box
create_atoms 	1 region fluid
Created 421400 atoms
  create_atoms CPU = 0.104 seconds

lattice 	sc 0.045
Lattice spacing in x,y,z = 2.8114422 2.8114422 2.8114422
region		gas block EDGE EDGE EDGE EDGE 101 158 units box
create_atoms    1 region gas
Created 17661 atoms
  create_atoms CPU = 0.004 seconds

group		solvent type 1
439061 atoms in group solvent

mass		1 1.0
mass		2 1.0
mass		3 1.0



neighbor 	0.4 bin

pair_coeff	1 1 1.0 1.0
pair_coeff	2 2 0.0 0.0
pair_coeff	3 3 0.0 0.0
pair_coeff	2 3 0.0 0.0
pair_coeff	1 2*3 0.0 0.0

pair_modify 	shift yes

delete_atoms	overlap 0.5 solvent solvent
System init for delete_atoms ...
Neighbor list info ...
  update every 1 steps, delay 10 steps, check yes
  max neighbors/atom: 2000, page size: 100000
  master list distance cutoff = 3.4
  ghost atom cutoff = 3.4
  binsize = 1.7, bins = 48 48 95
  2 neighbor lists, perpetual/occasional/extra = 1 1 0
  (1) command delete_atoms, occasional
      attributes: full, newton on
      pair build: full/bin
      stencil: full/bin/3d
      bin: standard
  (2) pair lj/smooth, perpetual
      attributes: half, newton on
      pair build: half/bin/newton
      stencil: half/bin/3d/newton
      bin: standard
WARNING: Ignoring 'compress yes' for molecular system (src/delete_atoms.cpp:125)
Deleted 0 atoms, new total = 439061

velocity 	solvent create ${startTemp} 563435 loop geom
velocity 	solvent create 1.0 563435 loop geom

balance 	1.05 shift z 10 1.05
Balancing ...
Neighbor list info ...
  update every 1 steps, delay 10 steps, check yes
  max neighbors/atom: 2000, page size: 100000
  master list distance cutoff = 3.4
  ghost atom cutoff = 3.4
  binsize = 1.7, bins = 48 48 95
  1 neighbor lists, perpetual/occasional/extra = 1 0 0
  (1) pair lj/smooth, perpetual
      attributes: half, newton on
      pair build: half/bin/newton
      stencil: half/bin/3d/newton
      bin: standard
 rebalancing time: 0.012 seconds
  iteration count = 5
  initial/final maximal load/proc = 7776.0000 5616.0000
  initial/final imbalance factor  = 1.7002102 1.2279296
  x cuts: 0.0000000 0.33333333 0.66666667 1.0000000
  y cuts: 0.0000000 0.25000000 0.50000000 0.75000000 1.0000000
  z cuts: 0.0000000 0.089843750 0.17578125 0.25390625 0.33593750 0.41406250 0.50390625 0.58203125 1.0000000


####################### WALLS ###########################


variable       epsilonWall equal 2*${epsilon}
variable       epsilonWall equal 2*1

variable       cutoffTop   equal   0.7147*${sigma}
variable       cutoffTop   equal   0.7147*1

variable       cutoffLow   equal   3*${sigma}
variable       cutoffLow   equal   3*1


fix            topWall all wall/lj93 zhi EDGE                ${epsilonWall} ${sigma} ${cutoffTop} units box
fix            topWall all wall/lj93 zhi EDGE                2 ${sigma} ${cutoffTop} units box
fix            topWall all wall/lj93 zhi EDGE                2 1 ${cutoffTop} units box
fix            topWall all wall/lj93 zhi EDGE                2 1 0.7147 units box

fix            lowWall all wall/lj93 zlo EDGE                ${epsilonWall} ${sigma} ${cutoffLow} units box
fix            lowWall all wall/lj93 zlo EDGE                2 ${sigma} ${cutoffLow} units box
fix            lowWall all wall/lj93 zlo EDGE                2 1 ${cutoffLow} units box
fix            lowWall all wall/lj93 zlo EDGE                2 1 3 units box


###################### COMPUTES ##########################

compute        bin1 solvent chunk/atom bin/1d z upper 1.0


######################	FIXES ############################


fix 		peclet solvent ave/chunk 1000 1 1000 bin1 density/number norm 		 none ave one file density.profile

fix 		 temp solvent ave/chunk 1000 1 1000 bin1 temp norm 		 none ave one file temp.profile

fix 		2 solvent nve


## Thermostat


region		regthermo block EDGE EDGE EDGE EDGE 0 20 units box

group 		thermo dynamic solvent region regthermo every 1000
dynamic group thermo defined

fix 		3 thermo langevin ${startTemp} ${temp} 10 156453
fix 		3 thermo langevin 1.0 ${temp} 10 156453
fix 		3 thermo langevin 1.0 1.0 10 156453



#### Load balancing


fix 		bal all balance 1000 1.05 shift z 10 1.05


############### Diagnostics and computes ###################
#compute 	com cube	  rigid/local	1 mol x y z
#compute 	quat cube	  rigid/local	1 mol quatw quati quatj quatk

thermo 		1000
thermo_style 	custom step temp epair evdwl etotal press pe ke atoms

dump		1 all custom 100000 dump.lammpstrj id mol type x y z
dump 		2 all image 10000 image.*.png type type
dump 		3 all movie 1000 movie.avi type type

#dump 		com cube local 1000 dump.*.xyz c_com[*]
#dump		quat cube      local 1000 dump.*.quat c_quat[*]


restart 	1000000 restart.dat
timestep 	0.005
timer 		full
New timer settings: style=full  mode=nosync  timeout=off

run		3000000
Per MPI rank memory allocation (min/avg/max) = 10.71 | 11.93 | 17.63 Mbytes
Step Temp E_pair E_vdwl TotEng Press PotEng KinEng Atoms 
       0            1   -1.1445448   -1.1445448   0.35545175     4.056778   -1.1445448    1.4999966   439061 
    1000    2.0022901   -3.1242699   -3.1242699   -0.1208416      2.09073   -3.1242699    3.0034283   439061 
    2000    1.8758852   -3.1152926   -3.1152926  -0.30147113     1.229161   -3.1152926    2.8138214   439061 
    3000    1.6946978    -3.001347    -3.001347  -0.45930606   0.88709824    -3.001347    2.5420409   439061 
    4000     1.602662   -2.9646762   -2.9646762  -0.56068866   0.69171476   -2.9646762    2.4039875   439061 
    5000    1.5514811   -2.9249494   -2.9249494  -0.59773297    0.5528988   -2.9249494    2.3272164   439061 
    6000    1.5127767   -2.8671517   -2.8671517  -0.59799188   0.45255446   -2.8671517    2.2691599   439061 
    7000    1.4892251   -2.8163577   -2.8163577  -0.58252509   0.43119371   -2.8163577    2.2338326   439061 
    8000    1.4751411    -2.776819    -2.776819  -0.56411244   0.45861906    -2.776819    2.2127066   439061 
    9000    1.4808035   -2.7658765   -2.7658765  -0.54467628   0.50559854   -2.7658765    2.2212002   439061 
   10000    1.4955077   -2.7699936   -2.7699936  -0.52673717   0.56283483   -2.7699936    2.2432565   439061 
   11000    1.5071465   -2.7732426   -2.7732426  -0.51252796   0.58837098   -2.7732426    2.2607146   439061 
   12000    1.5105485   -2.7682215   -2.7682215  -0.50240391    0.6038766   -2.7682215    2.2658176   439061 
   13000    1.5039676   -2.7497409   -2.7497409  -0.49379463   0.57751407   -2.7497409    2.2559462   439061 
   14000    1.4844271   -2.7121146   -2.7121146  -0.48547899    0.5258029   -2.7121146    2.2266356   439061 
   15000     1.462189   -2.6723921   -2.6723921  -0.47911366   0.48157011   -2.6723921    2.1932784   439061 
   16000    1.4464704   -2.6421485   -2.6421485  -0.47244786   0.45318919   -2.6421485    2.1697007   439061 
   17000     1.436558    -2.623607    -2.623607  -0.46877497   0.44387523    -2.623607    2.1548321   439061 
   18000    1.4325384   -2.6252389   -2.6252389  -0.47643623   0.46031092   -2.6252389    2.1488027   439061 
   19000    1.4213953   -2.6417406   -2.6417406  -0.50965252   0.47268964   -2.6417406    2.1320881   439061 
   20000    1.4023214   -2.6664097   -2.6664097  -0.56293233   0.48724256   -2.6664097    2.1034774   439061 
   21000    1.3814771   -2.6885001   -2.6885001  -0.61628914   0.49742327   -2.6885001     2.072211   439061 
   22000    1.3676522   -2.7101249   -2.7101249  -0.65865123   0.49393549   -2.7101249    2.0514736   439061 
   23000    1.3597583   -2.7326455   -2.7326455   -0.6930127   0.49952147   -2.7326455    2.0396328   439061 
   24000    1.3503159   -2.7481723   -2.7481723  -0.72270303   0.49800196   -2.7481723    2.0254693   439061 
   25000     1.343344   -2.7616867   -2.7616867  -0.74667538   0.49958832   -2.7616867    2.0150114   439061 
   26000    1.3340237   -2.7653725   -2.7653725  -0.76434147   0.48832016   -2.7653725    2.0010311   439061 
   27000    1.3230126   -2.7629425   -2.7629425  -0.77842812   0.46948378   -2.7629425    1.9845143   439061 
   28000    1.3134712   -2.7597739   -2.7597739  -0.78957154    0.4454659   -2.7597739    1.9702024   439061 
   29000    1.3008954   -2.7487709   -2.7487709  -0.79743224   0.41784591   -2.7487709    1.9513387   439061 
   30000    1.2876289   -2.7359984   -2.7359984  -0.80455951   0.39100596   -2.7359984    1.9314389   439061 
   31000    1.2745602   -2.7204387   -2.7204387  -0.80860272   0.36442811   -2.7204387     1.911836   439061 
   32000    1.2594289   -2.7014959   -2.7014959  -0.81235687   0.33598489   -2.7014959     1.889139   439061 
   33000    1.2469705   -2.6825692   -2.6825692  -0.81211771    0.3177563   -2.6825692    1.8704515   439061 
   34000    1.2381484   -2.6669119   -2.6669119  -0.80969343   0.30876598   -2.6669119    1.8572184   439061 
   35000     1.234244   -2.6581836   -2.6581836  -0.80682182   0.29145624   -2.6581836    1.8513617   439061 
   36000    1.2325784   -2.6524798   -2.6524798  -0.80361638   0.28642749   -2.6524798    1.8488634   439061 
   37000    1.2308901   -2.6453832   -2.6453832  -0.79905229   0.27836233   -2.6453832    1.8463309   439061 
   38000    1.2315543   -2.6413006   -2.6413006  -0.79397335   0.28543339   -2.6413006    1.8473273   439061 
   39000    1.2322011   -2.6374251   -2.6374251  -0.78912777   0.28642214   -2.6374251    1.8482974   439061 
   40000    1.2339389   -2.6350127   -2.6350127  -0.78410858   0.28998428   -2.6350127    1.8509042   439061 
   41000    1.2346989   -2.6323102   -2.6323102  -0.78026608    0.2901777   -2.6323102    1.8520441   439061 
   42000    1.2364195   -2.6296131   -2.6296131  -0.77498805   0.28398264   -2.6296131     1.854625   439061 
   43000    1.2361726   -2.6232414   -2.6232414   -0.7689867    0.2890302   -2.6232414    1.8542547   439061 
   44000    1.2323987   -2.6135716   -2.6135716  -0.76497779   0.28315841   -2.6135716    1.8485938   439061 
   45000     1.231747   -2.6080295   -2.6080295  -0.76041318   0.27211207   -2.6080295    1.8476163   439061 
   46000    1.2312499   -2.6036123   -2.6036123  -0.75674155   0.27012726   -2.6036123    1.8468707   439061 
   47000    1.2317594   -2.6027587   -2.6027587  -0.75512381   0.27035881   -2.6027587    1.8476349   439061 
   48000    1.2324341   -2.6046726   -2.6046726  -0.75602569   0.27969796   -2.6046726     1.848647   439061 
   49000      1.23335   -2.6137317   -2.6137317  -0.76371092   0.29177252   -2.6137317    1.8500208   439061 
   50000    1.2329689    -2.625499    -2.625499  -0.77604992   0.29741208    -2.625499    1.8494491   439061 
   51000    1.2298455   -2.6370993   -2.6370993  -0.79233533   0.30609183   -2.6370993     1.844764   439061 
   52000    1.2266559   -2.6485924   -2.6485924  -0.80861275   0.30622022   -2.6485924    1.8399796   439061 
   53000    1.2234168   -2.6566222   -2.6566222  -0.82150119   0.30309572   -2.6566222     1.835121   439061 
   54000    1.2192755   -2.6632924   -2.6632924   -0.8343833   0.30838334   -2.6632924    1.8289091   439061 
   55000    1.2192866   -2.6723354   -2.6723354  -0.84340968   0.30731872   -2.6723354    1.8289257   439061 
   56000    1.2159018   -2.6772781   -2.6772781  -0.85342948   0.30874318   -2.6772781    1.8238486   439061 
   57000    1.2151988   -2.6837815   -2.6837815  -0.86098744   0.30714069   -2.6837815     1.822794   439061 
   58000     1.213684   -2.6891405   -2.6891405  -0.86861863   0.30641268   -2.6891405    1.8205219   439061 
   59000    1.2103909   -2.6898348   -2.6898348   -0.8742526   0.30397008   -2.6898348    1.8155822   439061 
   60000    1.2050482   -2.6865324   -2.6865324   -0.8789642   0.30031186   -2.6865324    1.8075682   439061 
   61000    1.2022774   -2.6854549   -2.6854549    -0.882043   0.28890132   -2.6854549    1.8034119   439061 
   62000    1.1963761   -2.6785386   -2.6785386  -0.88397849    0.2847261   -2.6785386    1.7945601   439061 
   63000    1.1916487   -2.6742737   -2.6742737   -0.8868048   0.27157949   -2.6742737    1.7874689   439061 
   64000    1.1863875   -2.6672107   -2.6672107  -0.88763358   0.26335198   -2.6672107    1.7795772   439061 
   65000    1.1808988   -2.6598341   -2.6598341     -0.88849   0.25874821   -2.6598341    1.7713441   439061 
   66000    1.1780829   -2.6545913   -2.6545913  -0.88747094   0.24731776   -2.6545913    1.7671204   439061 
   67000    1.1760108   -2.6511024   -2.6511024  -0.88709015   0.23801438   -2.6511024    1.7640122   439061 
   68000    1.1715436   -2.6430674   -2.6430674  -0.88575597   0.23617496   -2.6430674    1.7573114   439061 
   69000    1.1725163    -2.642433    -2.642433  -0.88366257   0.23341742    -2.642433    1.7587705   439061 
   70000    1.1710375   -2.6381435   -2.6381435  -0.88159133   0.23010578   -2.6381435    1.7565522   439061 
   71000     1.169951   -2.6334621   -2.6334621  -0.87853969   0.22597617   -2.6334621    1.7549224   439061 
   72000    1.1685156   -2.6298405   -2.6298405  -0.87707107   0.22327806   -2.6298405    1.7527694   439061 
   73000    1.1712021   -2.6294872   -2.6294872  -0.87268797   0.22328098   -2.6294872    1.7567992   439061 
   74000    1.1710859   -2.6250344   -2.6250344  -0.86840951     0.223895   -2.6250344    1.7566249   439061 
   75000     1.172628   -2.6257684   -2.6257684  -0.86683038    0.2251614   -2.6257684     1.758938   439061 
   76000     1.170295   -2.6206349   -2.6206349  -0.86519637   0.22615062   -2.6206349    1.7554385   439061 
   77000    1.1720687   -2.6209768   -2.6209768  -0.86287769   0.22236784   -2.6209768    1.7580991   439061 
   78000    1.1723296   -2.6182641   -2.6182641  -0.85977374   0.22304609   -2.6182641    1.7584903   439061 
   79000    1.1719661   -2.6177022   -2.6177022  -0.85975706   0.22150018   -2.6177022    1.7579452   439061 
   80000     1.174258   -2.6192398   -2.6192398  -0.85785684   0.22858008   -2.6192398    1.7613829   439061 
   81000    1.1770464   -2.6246334   -2.6246334  -0.85906788   0.23394161   -2.6246334    1.7655655   439061 
   82000    1.1764515    -2.630304    -2.630304  -0.86563085   0.23909009    -2.630304    1.7646732   439061 
   83000    1.1762219   -2.6360482   -2.6360482  -0.87171935   0.23913267   -2.6360482    1.7643289   439061 
   84000    1.1754268    -2.641681    -2.641681   -0.8785448   0.24363668    -2.641681    1.7631362   439061 
   85000    1.1764235   -2.6476775   -2.6476775  -0.88304624   0.24779163   -2.6476775    1.7646313   439061 
   86000    1.1752551   -2.6524977   -2.6524977  -0.88961908   0.24824284   -2.6524977    1.7628787   439061 
   87000    1.1742519   -2.6563128   -2.6563128  -0.89493902   0.24981275   -2.6563128    1.7613738   439061 
   88000    1.1737327   -2.6619085   -2.6619085  -0.90131338   0.25229741   -2.6619085    1.7605951   439061 
   89000    1.1738446   -2.6669915   -2.6669915  -0.90622864   0.25299981   -2.6669915    1.7607628   439061 
   90000    1.1741518   -2.6714585   -2.6714585  -0.91023477   0.24528197   -2.6714585    1.7612237   439061 
   91000    1.1728369    -2.673513    -2.673513  -0.91426173   0.24844279    -2.673513    1.7592513   439061 
   92000    1.1692371   -2.6717411   -2.6717411  -0.91788945   0.24831781   -2.6717411    1.7538516   439061 
   93000    1.1666842   -2.6720416   -2.6720416   -0.9220192   0.24655564   -2.6720416    1.7500224   439061 
   94000    1.1651506   -2.6727628   -2.6727628  -0.92504084   0.24594158   -2.6727628     1.747722   439061 
   95000    1.1638364   -2.6721184   -2.6721184  -0.92636779   0.23471364   -2.6721184    1.7457506   439061 
   96000    1.1620573   -2.6704107   -2.6704107  -0.92732866   0.23466307   -2.6704107     1.743082   439061 
   97000    1.1584329   -2.6664715   -2.6664715  -0.92882606   0.23136329   -2.6664715    1.7376454   439061 
   98000    1.1580027   -2.6661808   -2.6661808   -0.9291807    0.2292099   -2.6661808    1.7370001   439061 
   99000    1.1551044   -2.6644358   -2.6644358  -0.93178311   0.22229679   -2.6644358    1.7326526   439061 
  100000    1.1521612   -2.6611033   -2.6611033  -0.93286537   0.21812501   -2.6611033    1.7282379   439061 
  101000    1.1516187   -2.6600202   -2.6600202  -0.93259615    0.2140905   -2.6600202    1.7274241   439061 
  102000    1.1491621   -2.6544325   -2.6544325  -0.93069325   0.21085663   -2.6544325    1.7237393   439061 
  103000    1.1474721   -2.6512258   -2.6512258  -0.93002157   0.20505524   -2.6512258    1.7212042   439061 
  104000    1.1468262   -2.6485696   -2.6485696   -0.9283343    0.2081941   -2.6485696    1.7202353   439061 
  105000    1.1466113    -2.646524    -2.646524  -0.92661098   0.20754814    -2.646524     1.719913   439061 
  106000    1.1474712   -2.6456298   -2.6456298  -0.92442702   0.20526329   -2.6456298    1.7212028   439061 
  107000    1.1468457   -2.6417586   -2.6417586  -0.92149402   0.20440678   -2.6417586    1.7202646   439061 
  108000    1.1486035   -2.6426756   -2.6426756  -0.91977431   0.20481449   -2.6426756    1.7229013   439061 
  109000    1.1479483   -2.6417609   -2.6417609  -0.91984232   0.20167831   -2.6417609    1.7219185   439061 
  110000    1.1478879   -2.6391164   -2.6391164  -0.91728842   0.20481422   -2.6391164    1.7218279   439061 
  111000    1.1475056   -2.6389982   -2.6389982  -0.91774363   0.20755921   -2.6389982    1.7212545   439061 
  112000    1.1476934   -2.6398288   -2.6398288  -0.91829256   0.20225847   -2.6398288    1.7215362   439061 
  113000    1.1505248   -2.6450254   -2.6450254  -0.91924215   0.20631095   -2.6450254    1.7257833   439061 
  114000    1.1487073   -2.6431931   -2.6431931  -0.92013601     0.205485   -2.6431931    1.7230571   439061 
  115000    1.1494681   -2.6456134   -2.6456134  -0.92141516   0.21266514   -2.6456134    1.7241982   439061 
  116000    1.1487935   -2.6477351   -2.6477351  -0.92454876   0.20984829   -2.6477351    1.7231864   439061 
  117000    1.1485004   -2.6500302   -2.6500302  -0.92728362   0.21924662   -2.6500302    1.7227466   439061 
  118000    1.1504238   -2.6558034   -2.6558034  -0.93017157   0.21966242   -2.6558034    1.7256318   439061 
  119000    1.1501805   -2.6585657   -2.6585657  -0.93329886   0.22174631   -2.6585657    1.7252668   439061 
  120000    1.1496555   -2.6609905   -2.6609905  -0.93651127    0.2211364   -2.6609905    1.7244793   439061 
  121000    1.1501375   -2.6648781   -2.6648781  -0.93967585   0.21894222   -2.6648781    1.7252023   439061 
  122000    1.1484682   -2.6649204   -2.6649204  -0.94222209   0.21865932   -2.6649204    1.7226983   439061 
  123000    1.1485951   -2.6684418   -2.6684418  -0.94555308   0.22302749   -2.6684418    1.7228887   439061 
  124000    1.1466975   -2.6683967   -2.6683967  -0.94835431   0.22546173   -2.6683967    1.7200423   439061 
  125000    1.1479599   -2.6732293   -2.6732293  -0.95129342   0.22194499   -2.6732293    1.7219359   439061 
  126000    1.1458044   -2.6725034   -2.6725034   -0.9538008   0.21982712   -2.6725034    1.7187026   439061 
  127000    1.1450528   -2.6720507   -2.6720507  -0.95447539    0.2224829   -2.6720507    1.7175753   439061 
  128000    1.1415407   -2.6686975   -2.6686975  -0.95639023   0.21742427   -2.6686975    1.7123072   439061 
  129000    1.1441948   -2.6746105   -2.6746105  -0.95832227   0.21048776   -2.6746105    1.7162883   439061 
  130000    1.1430528   -2.6733789   -2.6733789  -0.95880358   0.20771372   -2.6733789    1.7145753   439061 
  131000    1.1406445   -2.6682396   -2.6682396  -0.95727674   0.21501171   -2.6682396    1.7109629   439061 
  132000    1.1385031   -2.6668382   -2.6668382  -0.95908752   0.21167834   -2.6668382    1.7077507   439061 
  133000    1.1384993   -2.6642623   -2.6642623  -0.95651713   0.20434241   -2.6642623    1.7077451   439061 
  134000    1.1369656   -2.6629518   -2.6629518   -0.9575072   0.20408813   -2.6629518    1.7054446   439061 
  135000    1.1367085   -2.6620478   -2.6620478  -0.95698901   0.20183313   -2.6620478    1.7050588   439061 
  136000    1.1347193   -2.6600744   -2.6600744  -0.95799933   0.20142221   -2.6600744    1.7020751   439061 
  137000    1.1365949   -2.6619533   -2.6619533  -0.95706482   0.19569937   -2.6619533    1.7048885   439061 
  138000    1.1332247   -2.6574588   -2.6574588  -0.95762563   0.19786533   -2.6574588    1.6998332   439061 
  139000    1.1339362   -2.6591052   -2.6591052  -0.95820477   0.20036591   -2.6591052    1.7009004   439061 
  140000    1.1316066   -2.6556248   -2.6556248  -0.95821874    0.1948714   -2.6556248    1.6974061   439061 
  141000    1.1308014   -2.6551899   -2.6551899  -0.95899162   0.19257856   -2.6551899    1.6961983   439061 
  142000    1.1301272    -2.654399    -2.654399  -0.95921204   0.19544498    -2.654399     1.695187   439061 
  143000    1.1329713   -2.6576621   -2.6576621   -0.9582089   0.18850062   -2.6576621    1.6994532   439061 
  144000    1.1325079   -2.6572756   -2.6572756  -0.95851765     0.191589   -2.6572756     1.698758   439061 
  145000    1.1325877   -2.6567705   -2.6567705  -0.95789277   0.19774473   -2.6567705    1.6988777   439061 
  146000    1.1326622   -2.6578832   -2.6578832  -0.95889375   0.19423463   -2.6578832    1.6989895   439061 
  147000    1.1320514   -2.6586259   -2.6586259  -0.96055271    0.1968586   -2.6586259    1.6980732   439061 
  148000    1.1331361   -2.6614156   -2.6614156  -0.96171526   0.19363288   -2.6614156    1.6997003   439061 
  149000    1.1324832   -2.6617301   -2.6617301  -0.96300911   0.19549503   -2.6617301     1.698721   439061 
  150000    1.1325242   -2.6627554   -2.6627554  -0.96397294   0.19655324   -2.6627554    1.6987825   439061 
  151000    1.1311203   -2.6627437   -2.6627437  -0.96606708    0.1949408   -2.6627437    1.6966766   439061 
  152000    1.1336583   -2.6669922   -2.6669922  -0.96650862   0.19968535   -2.6669922    1.7004836   439061 
  153000    1.1332802   -2.6686512   -2.6686512  -0.96873485   0.20065174   -2.6686512    1.6999164   439061 
  154000    1.1347276   -2.6725417   -2.6725417  -0.97045421   0.20024121   -2.6725417    1.7020875   439061 
  155000    1.1341666   -2.6729258   -2.6729258  -0.97167973   0.20259879   -2.6729258    1.7012461   439061 
  156000    1.1334876    -2.673098    -2.673098  -0.97287049   0.20771289    -2.673098    1.7002275   439061 
  157000    1.1317358   -2.6736546   -2.6736546  -0.97605467   0.20627563   -2.6736546    1.6975999   439061 
  158000    1.1316846   -2.6769196   -2.6769196  -0.97939655   0.20155978   -2.6769196    1.6975231   439061 
  159000     1.132166   -2.6789137   -2.6789137  -0.98066859   0.20030974   -2.6789137    1.6982451   439061 
  160000    1.1311147     -2.68016     -2.68016   -0.9834919   0.20164768     -2.68016    1.6966681   439061 
  161000    1.1298762   -2.6792559   -2.6792559  -0.98444549   0.19603185   -2.6792559    1.6948104   439061 
  162000    1.1280855   -2.6767153   -2.6767153  -0.98459081   0.19920343   -2.6767153    1.6921244   439061 
  163000    1.1282358   -2.6787139   -2.6787139  -0.98636404   0.19662811   -2.6787139    1.6923499   439061 
  164000    1.1260321   -2.6774846   -2.6774846  -0.98844025   0.19245338   -2.6774846    1.6890443   439061 
  165000    1.1256705   -2.6774144   -2.6774144  -0.98891246    0.1920912   -2.6774144    1.6885019   439061 
  166000    1.1256446   -2.6771222   -2.6771222  -0.98865911   0.19316503   -2.6771222    1.6884631   439061 
  167000    1.1257494    -2.676799    -2.676799  -0.98817868   0.19056786    -2.676799    1.6886203   439061 
  168000    1.1246436   -2.6750161   -2.6750161   -0.9880545   0.19248698   -2.6750161    1.6869616   439061 
  169000    1.1237737   -2.6743473   -2.6743473  -0.98869058   0.18925374   -2.6743473    1.6856567   439061 
  170000    1.1223002   -2.6730759   -2.6730759  -0.98962941   0.19058939   -2.6730759    1.6834464   439061 
  171000    1.1209655   -2.6730322   -2.6730322   -0.9915877   0.18696325   -2.6730322    1.6814445   439061 
  172000    1.1204998   -2.6730038   -2.6730038  -0.99225794    0.1903464   -2.6730038    1.6807459   439061 
  173000    1.1206497   -2.6719647   -2.6719647  -0.99099399   0.18622922   -2.6719647    1.6809707   439061 
  174000    1.1212006   -2.6729079   -2.6729079  -0.99111089    0.1885415   -2.6729079    1.6817971   439061 
  175000    1.1202341   -2.6701371   -2.6701371  -0.98978969   0.18706468   -2.6701371    1.6803474   439061 
  176000    1.1220007   -2.6722697   -2.6722697  -0.98927249   0.18274711   -2.6722697    1.6829972   439061 
  177000    1.1231987   -2.6744981   -2.6744981  -0.98970391   0.18682101   -2.6744981    1.6847942   439061 
  178000    1.1213933   -2.6721393   -2.6721393  -0.99005326   0.18640962   -2.6721393    1.6820861   439061 
  179000    1.1228662   -2.6741972   -2.6741972  -0.98990171    0.1898967   -2.6741972    1.6842955   439061 
  180000    1.1229288   -2.6740806   -2.6740806   -0.9896912   0.18100238   -2.6740806    1.6843894   439061 
  181000     1.119888   -2.6705556   -2.6705556  -0.99072741   0.19108772   -2.6705556    1.6798282   439061 
  182000    1.1231914   -2.6750652   -2.6750652  -0.99028201   0.19121256   -2.6750652    1.6847832   439061 
  183000     1.122029   -2.6752826   -2.6752826    -0.992243   0.18902803   -2.6752826    1.6830396   439061 
  184000    1.1209181    -2.675289    -2.675289  -0.99391566   0.18765922    -2.675289    1.6813733   439061 
  185000    1.1220437   -2.6774344   -2.6774344   -0.9943727   0.18872988   -2.6774344    1.6830617   439061 
  186000    1.1213154   -2.6783278   -2.6783278  -0.99635853   0.19023248   -2.6783278    1.6819692   439061 
  187000    1.1189207   -2.6770472   -2.6770472  -0.99867001   0.19312068   -2.6770472    1.6783772   439061 
  188000    1.1204946   -2.6812697   -2.6812697   -1.0005315   0.18438837   -2.6812697    1.6807381   439061 
  189000    1.1214133   -2.6810294   -2.6810294  -0.99891321   0.18900909   -2.6810294    1.6821161   439061 
  190000    1.1210629   -2.6809919   -2.6809919  -0.99940144    0.1875128   -2.6809919    1.6815905   439061 
  191000    1.1213929   -2.6827114   -2.6827114   -1.0006258   0.19004903   -2.6827114    1.6820856   439061 
  192000    1.1209343   -2.6826685   -2.6826685   -1.0012709   0.19131075   -2.6826685    1.6813976   439061 
  193000    1.1201131   -2.6823802   -2.6823802   -1.0022144   0.18843516   -2.6823802    1.6801658   439061 
  194000    1.1191887   -2.6818702   -2.6818702   -1.0030909   0.19361665   -2.6818702    1.6787793   439061 
  195000    1.1187559       -2.682       -2.682   -1.0038699    0.1878455       -2.682    1.6781301   439061 
  196000    1.1176532   -2.6834356   -2.6834356   -1.0069595   0.18825998   -2.6834356     1.676476   439061 
  197000    1.1177201   -2.6844979   -2.6844979   -1.0079215   0.18265869   -2.6844979    1.6765764   439061 
  198000    1.1176688   -2.6847818   -2.6847818   -1.0082824   0.18324228   -2.6847818    1.6764994   439061 
  199000      1.11779   -2.6855995   -2.6855995   -1.0089184   0.18234754   -2.6855995    1.6766811   439061 
  200000     1.115872   -2.6840089   -2.6840089   -1.0102046   0.18924297   -2.6840089    1.6738043   439061 
  201000    1.1153492   -2.6847771   -2.6847771   -1.0117571   0.17815167   -2.6847771      1.67302   439061 
  202000     1.114989   -2.6842174   -2.6842174   -1.0117376    0.1855702   -2.6842174    1.6724798   439061 
  203000    1.1138063   -2.6833689   -2.6833689   -1.0126633   0.18508223   -2.6833689    1.6707056   439061 
  204000    1.1154625   -2.6853691   -2.6853691   -1.0121792   0.18024104   -2.6853691    1.6731899   439061 
  205000    1.1139361   -2.6845396   -2.6845396   -1.0136394   0.17673801   -2.6845396    1.6709003   439061 
  206000    1.1136379   -2.6841909   -2.6841909   -1.0137379    0.1794497   -2.6841909     1.670453   439061 
  207000    1.1133551   -2.6832345   -2.6832345   -1.0132057   0.17794216   -2.6832345    1.6700289   439061 
  208000    1.1130392   -2.6848056   -2.6848056   -1.0152507   0.18331863   -2.6848056    1.6695549   439061 
  209000    1.1141021   -2.6852552   -2.6852552   -1.0141059   0.18262926   -2.6852552    1.6711493   439061 
  210000    1.1120519   -2.6841589   -2.6841589    -1.016085   0.17958377   -2.6841589     1.668074   439061 
  211000    1.1108162   -2.6822127   -2.6822127   -1.0159922   0.18201664   -2.6822127    1.6662205   439061 
  212000    1.1127696   -2.6861015   -2.6861015    -1.016951   0.17633062   -2.6861015    1.6691505   439061 
  213000    1.1128102   -2.6862099   -2.6862099   -1.0169985   0.17679949   -2.6862099    1.6692114   439061 
  214000    1.1122886   -2.6858402   -2.6858402   -1.0174111   0.18035134   -2.6858402    1.6684291   439061 
  215000    1.1120589   -2.6862775   -2.6862775    -1.018193   0.17577224   -2.6862775    1.6680846   439061 
  216000    1.1121992   -2.6879024   -2.6879024   -1.0196074   0.18108468   -2.6879024     1.668295   439061 
  217000    1.1103833   -2.6849169   -2.6849169   -1.0193457   0.17941325   -2.6849169    1.6655712   439061 
  218000    1.1114852   -2.6871398   -2.6871398   -1.0199159   0.17588599   -2.6871398    1.6672239   439061 
  219000    1.1108488   -2.6870528   -2.6870528   -1.0207835   0.18017554   -2.6870528    1.6662693   439061 
  220000    1.1116489   -2.6880833   -2.6880833   -1.0206137   0.18157188   -2.6880833    1.6674696   439061 
  221000    1.1104825   -2.6873139   -2.6873139   -1.0215939   0.17928902   -2.6873139    1.6657199   439061 
  222000     1.111159   -2.6901908   -2.6901908   -1.0234562   0.17609681   -2.6901908    1.6667346   439061 
  223000    1.1089127   -2.6876389   -2.6876389   -1.0242736   0.17883664   -2.6876389    1.6633653   439061 
  224000    1.1102154   -2.6897043   -2.6897043    -1.024385   0.18151434   -2.6897043    1.6653193   439061 
  225000    1.1094564   -2.6889538   -2.6889538   -1.0247729   0.18293693   -2.6889538    1.6641809   439061 
  226000    1.1092775   -2.6889971   -2.6889971   -1.0250847   0.18075501   -2.6889971    1.6639125   439061 
  227000    1.1116437   -2.6925644   -2.6925644   -1.0251026   0.18177738   -2.6925644    1.6674618   439061 
  228000     1.108974   -2.6896861   -2.6896861   -1.0262289   0.18153437   -2.6896861    1.6634572   439061 
  229000    1.1103327    -2.692813    -2.692813   -1.0273177   0.18208659    -2.692813    1.6654953   439061 
  230000    1.1105522   -2.6935312   -2.6935312   -1.0277066    0.1753847   -2.6935312    1.6658246   439061 
  231000    1.1098722   -2.6935906   -2.6935906    -1.028786   0.17526853   -2.6935906    1.6648046   439061 
  232000    1.1074171   -2.6912845   -2.6912845   -1.0301626   0.17573983   -2.6912845    1.6611219   439061 
  233000    1.1074613   -2.6914185   -2.6914185   -1.0302304   0.17523526   -2.6914185    1.6611881   439061 
  234000    1.1090784   -2.6939531   -2.6939531   -1.0303392   0.17603023   -2.6939531    1.6636138   439061 
  235000     1.107168   -2.6922941   -2.6922941   -1.0315459   0.17254601   -2.6922941    1.6607482   439061 
  236000    1.1078315   -2.6918938   -2.6918938   -1.0301504   0.17878366   -2.6918938    1.6617435   439061 
  237000     1.106891   -2.6920175   -2.6920175   -1.0316848   0.17688261   -2.6920175    1.6603327   439061 
  238000    1.1061308   -2.6931751   -2.6931751   -1.0339827   0.17195806   -2.6931751    1.6591924   439061 
  239000    1.1068211   -2.6918863   -2.6918863   -1.0316584   0.17706344   -2.6918863    1.6602279   439061 
  240000    1.1070817   -2.6924308   -2.6924308   -1.0318121   0.17575911   -2.6924308    1.6606187   439061 
  241000    1.1058961   -2.6927305   -2.6927305   -1.0338901   0.16815054   -2.6927305    1.6588404   439061 
  242000    1.1049848   -2.6926268   -2.6926268   -1.0351534   0.17474614   -2.6926268    1.6574734   439061 
  243000     1.105721   -2.6928151   -2.6928151   -1.0342373   0.17553901   -2.6928151    1.6585778   439061 
  244000    1.1057449   -2.6935939   -2.6935939   -1.0349803   0.17452208   -2.6935939    1.6586136   439061 
  245000    1.1052988   -2.6931603   -2.6931603   -1.0352159   0.17615231   -2.6931603    1.6579444   439061 
  246000    1.1044247   -2.6920084   -2.6920084   -1.0353752   0.17774657   -2.6920084    1.6566332   439061 
  247000    1.1052587   -2.6934028   -2.6934028   -1.0355184    0.1704761   -2.6934028    1.6578843   439061 
  248000    1.1050548    -2.693138    -2.693138   -1.0355596   0.17169846    -2.693138    1.6575785   439061 
  249000    1.1055234   -2.6936379   -2.6936379   -1.0353566   0.17242243   -2.6936379    1.6582813   439061 
  250000    1.1060758   -2.6936191   -2.6936191   -1.0345091   0.17518057   -2.6936191      1.65911   439061 
  251000    1.1055834   -2.6936293   -2.6936293    -1.035258   0.17279745   -2.6936293    1.6583714   439061 
  252000    1.1052571   -2.6950079   -2.6950079    -1.037126   0.17809194   -2.6950079    1.6578819   439061 
  253000    1.1039245   -2.6936275   -2.6936275   -1.0377445    0.1731314   -2.6936275     1.655883   439061 
  254000    1.1046799   -2.6948347   -2.6948347   -1.0378187    0.1725646   -2.6948347     1.657016   439061 
  255000    1.1043657   -2.6962841   -2.6962841   -1.0397393    0.1757235   -2.6962841    1.6565448   439061 
  256000    1.1035412   -2.6963069   -2.6963069   -1.0409988   0.17366129   -2.6963069    1.6553081   439061 
  257000    1.1041371   -2.6970824   -2.6970824   -1.0408804   0.17733546   -2.6970824    1.6562019   439061 
  258000    1.1031883   -2.6969572   -2.6969572   -1.0421786   0.16885314   -2.6969572    1.6547786   439061 
  259000    1.1017706   -2.6946118   -2.6946118   -1.0419597   0.17774351   -2.6946118    1.6526521   439061 
  260000     1.104773   -2.6978763   -2.6978763   -1.0407205   0.17378931   -2.6978763    1.6571558   439061 
  261000    1.1044788   -2.6985008   -2.6985008   -1.0417863   0.17474673   -2.6985008    1.6567145   439061 
  262000    1.1036325   -2.6986719   -2.6986719   -1.0432269   0.16854649   -2.6986719    1.6554449   439061 
  263000    1.1026359    -2.697347    -2.697347   -1.0433969   0.17158257    -2.697347      1.65395   439061 
  264000    1.1018572   -2.6975147   -2.6975147   -1.0447327   0.17005626   -2.6975147     1.652782   439061 
  265000    1.1036183   -2.7007965   -2.7007965   -1.0453728   0.16945535   -2.7007965    1.6554238   439061 
  266000     1.101575   -2.6977558   -2.6977558   -1.0453971   0.16742501   -2.6977558    1.6523587   439061 
  267000    1.1009812   -2.6981531   -2.6981531    -1.046685     0.170239   -2.6981531    1.6514681   439061 
  268000    1.1034973   -2.7025681   -2.7025681    -1.047326   0.16583486   -2.7025681    1.6552421   439061 
  269000    1.1021515    -2.700642    -2.700642   -1.0474186   0.17019011    -2.700642    1.6532234   439061 
  270000    1.1018479   -2.7008581   -2.7008581   -1.0480901   0.16756234   -2.7008581     1.652768   439061 
  271000    1.1027091   -2.7028923   -2.7028923   -1.0488323    0.1642201   -2.7028923    1.6540599   439061 
  272000    1.1020952   -2.7011704   -2.7011704   -1.0480313   0.17033075   -2.7011704     1.653139   439061 
  273000    1.1006255   -2.6998243   -2.6998243   -1.0488898   0.16777544   -2.6998243    1.6509345   439061 
  274000    1.0994748   -2.6991854   -2.6991854   -1.0499769   0.17415354   -2.6991854    1.6492085   439061 
  275000    1.0992475    -2.699535    -2.699535   -1.0506675   0.16790453    -2.699535    1.6488675   439061 
  276000    1.0980551   -2.6985644   -2.6985644   -1.0514855   0.17127547   -2.6985644    1.6470789   439061 
  277000    1.0991794   -2.7007824   -2.7007824    -1.052017   0.16877103   -2.7007824    1.6487654   439061 
  278000    1.1001957   -2.7016477   -2.7016477    -1.051358   0.17179234   -2.7016477    1.6502898   439061 
  279000     1.100014    -2.701515    -2.701515   -1.0514977   0.16695426    -2.701515    1.6500173   439061 
  280000    1.1004775   -2.7034131   -2.7034131   -1.0527007   0.16929458   -2.7034131    1.6507124   439061 
  281000    1.0997439   -2.7017382   -2.7017382   -1.0521262   0.16604161   -2.7017382    1.6496121   439061 
  282000    1.1002139   -2.7033384   -2.7033384   -1.0530213   0.16991387   -2.7033384    1.6503171   439061 
  283000    1.0991472   -2.7041365   -2.7041365   -1.0554195   0.16670701   -2.7041365     1.648717   439061 
  284000    1.0978059   -2.7020014   -2.7020014   -1.0552963   0.17269133   -2.7020014    1.6467051   439061 
  285000    1.0987061   -2.7041976   -2.7041976   -1.0561422   0.16456433   -2.7041976    1.6480554   439061 
  286000    1.0968144   -2.7022215   -2.7022215   -1.0570037   0.16851355   -2.7022215    1.6452178   439061 
  287000    1.0982675   -2.7065157   -2.7065157   -1.0591182   0.16250342   -2.7065157    1.6473974   439061 
  288000    1.0970564   -2.7039783   -2.7039783   -1.0583975   0.16799339   -2.7039783    1.6455808   439061 
  289000    1.0978167   -2.7060531   -2.7060531   -1.0593318   0.16252736   -2.7060531    1.6467212   439061 
  290000    1.0967503   -2.7038482   -2.7038482   -1.0587265   0.16802115   -2.7038482    1.6451217   439061 
  291000    1.0968215   -2.7052512   -2.7052512   -1.0600228   0.16308605   -2.7052512    1.6452285   439061 
  292000    1.0963006   -2.7039284   -2.7039284   -1.0594812   0.16604442   -2.7039284    1.6444472   439061 
  293000    1.0973129   -2.7053071   -2.7053071   -1.0593415   0.16287416   -2.7053071    1.6459656   439061 
  294000    1.0968376   -2.7045045   -2.7045045   -1.0592519   0.16244036   -2.7045045    1.6452526   439061 
  295000    1.0963654   -2.7038138   -2.7038138   -1.0592695    0.1624417   -2.7038138    1.6445444   439061 
  296000    1.0961392   -2.7042237   -2.7042237   -1.0600187    0.1636577   -2.7042237     1.644205   439061 
  297000    1.0964688   -2.7037565   -2.7037565    -1.059057    0.1614564   -2.7037565    1.6446995   439061 
  298000      1.09706   -2.7041141   -2.7041141   -1.0585278    0.1623027   -2.7041141    1.6455863   439061 
  299000     1.097289   -2.7036803   -2.7036803   -1.0577506   0.16894246   -2.7036803    1.6459297   439061 
  300000    1.0971645   -2.7045549   -2.7045549   -1.0588119   0.16097503   -2.7045549     1.645743   439061 
  301000    1.0967925   -2.7052521   -2.7052521   -1.0600671   0.16481023   -2.7052521     1.645185   439061 
  302000     1.094832   -2.7053211   -2.7053211   -1.0630769   0.16234082   -2.7053211    1.6422442   439061 
  303000    1.0953914    -2.706524    -2.706524   -1.0634407   0.16093292    -2.706524    1.6430833   439061 
  304000    1.0958128    -2.706707    -2.706707   -1.0629915    0.1635864    -2.706707    1.6437155   439061 
  305000    1.0953047   -2.7078707   -2.7078707   -1.0649174   0.16473457   -2.7078707    1.6429533   439061 
  306000    1.0938441   -2.7072123   -2.7072123   -1.0664499   0.16495134   -2.7072123    1.6407624   439061 
  307000     1.095002    -2.709679    -2.709679   -1.0671798   0.16222051    -2.709679    1.6424992   439061 
  308000    1.0930237   -2.7071365   -2.7071365   -1.0676047   0.16316332   -2.7071365    1.6395318   439061 
  309000    1.0954504   -2.7110665   -2.7110665   -1.0678946   0.16493628   -2.7110665    1.6431719   439061 
  310000    1.0927759   -2.7082726   -2.7082726   -1.0691125   0.16118413   -2.7082726    1.6391601   439061 
  311000    1.0932265   -2.7079999   -2.7079999   -1.0681639   0.16440019   -2.7079999     1.639836   439061 
  312000    1.0929247   -2.7095676   -2.7095676   -1.0701843    0.1626828   -2.7095676    1.6393833   439061 
  313000    1.0921113   -2.7092864   -2.7092864   -1.0711232   0.15765828   -2.7092864    1.6381632   439061 
  314000    1.0910825   -2.7075921   -2.7075921   -1.0709721   0.16174996   -2.7075921      1.63662   439061 
  315000    1.0936372   -2.7101623   -2.7101623   -1.0697102   0.16467072   -2.7101623    1.6404521   439061 
  316000     1.094288   -2.7106466   -2.7106466   -1.0692183   0.16355502   -2.7106466    1.6414283   439061 
  317000    1.0937089   -2.7099172   -2.7099172   -1.0693576   0.16222125   -2.7099172    1.6405596   439061 
  318000    1.0933283   -2.7099707   -2.7099707    -1.069982   0.16083545   -2.7099707    1.6399888   439061 
  319000     1.091736   -2.7094426   -2.7094426   -1.0718424   0.16239574   -2.7094426    1.6376002   439061 
  320000    1.0922958   -2.7107818   -2.7107818   -1.0723419   0.15842339   -2.7107818    1.6384399   439061 
  321000    1.0921187    -2.710695    -2.710695   -1.0725207   0.16666671    -2.710695    1.6381743   439061 
  322000    1.0933339   -2.7115536   -2.7115536   -1.0715565   0.17007669   -2.7115536    1.6399971   439061 
  323000    1.0936149   -2.7124107   -2.7124107   -1.0719922   0.16065852   -2.7124107    1.6404185   439061 
  324000    1.0942075   -2.7132788   -2.7132788   -1.0719713   0.15895149   -2.7132788    1.6413075   439061 
  325000    1.0923597   -2.7118228   -2.7118228   -1.0732871   0.16647592   -2.7118228    1.6385358   439061 
  326000    1.0930077   -2.7138943   -2.7138943   -1.0743865   0.15912838   -2.7138943    1.6395078   439061 
  327000    1.0918768   -2.7121727   -2.7121727   -1.0743613   0.15826926   -2.7121727    1.6378114   439061 
  328000    1.0918861   -2.7120109   -2.7120109   -1.0741855   0.16172904   -2.7120109    1.6378253   439061 
  329000    1.0900426   -2.7106025   -2.7106025   -1.0755422   0.16410955   -2.7106025    1.6350602   439061 
  330000    1.0920404    -2.712905    -2.712905   -1.0748482   0.15885475    -2.712905    1.6380569   439061 
  331000    1.0906989   -2.7122473   -2.7122473   -1.0762027   0.15888234   -2.7122473    1.6360446   439061 
  332000    1.0887086    -2.709844    -2.709844   -1.0767848   0.16227217    -2.709844    1.6330592   439061 
  333000    1.0887295   -2.7101706   -2.7101706     -1.07708   0.15900044   -2.7101706    1.6330906   439061 
  334000    1.0897179   -2.7107248   -2.7107248   -1.0761516   0.15888161   -2.7107248    1.6345732   439061 
  335000    1.0905282   -2.7117862   -2.7117862   -1.0759975   0.16013282   -2.7117862    1.6357886   439061 
  336000    1.0906503   -2.7115182   -2.7115182   -1.0755464   0.15904126   -2.7115182    1.6359717   439061 
  337000    1.0907445   -2.7103911   -2.7103911    -1.074278   0.16547045   -2.7103911     1.636113   439061 
  338000    1.0908123   -2.7112195   -2.7112195   -1.0750048   0.15575449   -2.7112195    1.6362147   439061 
  339000    1.0888514   -2.7092062   -2.7092062   -1.0759329   0.16219828   -2.7092062    1.6332733   439061 
  340000    1.0890014    -2.709495    -2.709495   -1.0759967   0.16370273    -2.709495    1.6334983   439061 
  341000    1.0888759   -2.7109238   -2.7109238   -1.0776138   0.15832875   -2.7109238    1.6333101   439061 
  342000    1.0886768   -2.7112121   -2.7112121   -1.0782006    0.1555823   -2.7112121    1.6330115   439061 
  343000    1.0900927   -2.7122274   -2.7122274   -1.0770922    0.1581533   -2.7122274    1.6351353   439061 
  344000    1.0892425   -2.7125812   -2.7125812   -1.0787212   0.15363896   -2.7125812      1.63386   439061 
  345000    1.0897052   -2.7132469   -2.7132469   -1.0786928    0.1588341   -2.7132469    1.6345541   439061 
  346000    1.0887383   -2.7116692   -2.7116692   -1.0785655   0.15741721   -2.7116692    1.6331037   439061 
  347000    1.0898692   -2.7139156   -2.7139156   -1.0791156   0.15828423   -2.7139156       1.6348   439061 
  348000    1.0899234   -2.7132746   -2.7132746   -1.0783932   0.16351292   -2.7132746    1.6348813   439061 
  349000    1.0904063   -2.7153419   -2.7153419   -1.0797362   0.15837926   -2.7153419    1.6356057   439061 
  350000    1.0903265   -2.7158582   -2.7158582   -1.0803723    0.1593203   -2.7158582     1.635486   439061 
  351000    1.0882908   -2.7134365   -2.7134365    -1.081004   0.15357446   -2.7134365    1.6324324   439061 
  352000    1.0884034   -2.7146115   -2.7146115   -1.0820102    0.1603449   -2.7146115    1.6326013   439061 
  353000    1.0887981   -2.7171939   -2.7171939   -1.0840005   0.15300772   -2.7171939    1.6331934   439061 
  354000    1.0878809   -2.7143486   -2.7143486   -1.0825309   0.15989098   -2.7143486    1.6318176   439061 
  355000    1.0883111   -2.7150701   -2.7150701   -1.0826071    0.1567764   -2.7150701     1.632463   439061 
  356000    1.0875925   -2.7133657   -2.7133657   -1.0819807   0.15686528   -2.7133657     1.631385   439061 
  357000    1.0872701    -2.714573    -2.714573   -1.0836715   0.15662454    -2.714573    1.6309015   439061 
  358000     1.088317   -2.7155112   -2.7155112   -1.0830393   0.16030125   -2.7155112    1.6324718   439061 
  359000    1.0869029   -2.7142968   -2.7142968   -1.0839462    0.1583791   -2.7142968    1.6303507   439061 
  360000    1.0873685   -2.7160522   -2.7160522   -1.0850032   0.15448201   -2.7160522     1.631049   439061 
  361000     1.087153   -2.7160159   -2.7160159   -1.0852901    0.1597934   -2.7160159    1.6307258   439061 
  362000    1.0861268   -2.7139696   -2.7139696   -1.0847831   0.15871627   -2.7139696    1.6291865   439061 
  363000    1.0870381   -2.7164704   -2.7164704    -1.085917   0.15780168   -2.7164704    1.6305535   439061 
  364000    1.0862599   -2.7147477   -2.7147477   -1.0853616   0.15290104   -2.7147477    1.6293861   439061 
  365000    1.0873386   -2.7169738   -2.7169738   -1.0859695   0.15418125   -2.7169738    1.6310042   439061 
  366000    1.0848587   -2.7130509   -2.7130509   -1.0857665   0.15930189   -2.7130509    1.6272844   439061 
  367000    1.0861117   -2.7168818   -2.7168818    -1.087718   0.15411499   -2.7168818    1.6291638   439061 
  368000    1.0844507   -2.7145126   -2.7145126   -1.0878402   0.15293174   -2.7145126    1.6266724   439061 
  369000    1.0853237   -2.7171863   -2.7171863   -1.0892044   0.15046421   -2.7171863    1.6279818   439061 
  370000    1.0864793   -2.7173167   -2.7173167   -1.0876014   0.15263077   -2.7173167    1.6297153   439061 
  371000    1.0858598   -2.7169241   -2.7169241   -1.0881381   0.15498121   -2.7169241    1.6287861   439061 
  372000    1.0870524   -2.7186649   -2.7186649   -1.0880901   0.15556008   -2.7186649    1.6305749   439061 
  373000     1.086408   -2.7177227   -2.7177227   -1.0881144    0.1569735   -2.7177227    1.6296083   439061 
  374000    1.0855081   -2.7167575   -2.7167575   -1.0884991   0.15352473   -2.7167575    1.6282584   439061 
  375000    1.0859116   -2.7178443   -2.7178443   -1.0889806    0.1500711   -2.7178443    1.6288637   439061 
  376000    1.0859157   -2.7191627   -2.7191627   -1.0902929   0.15091746   -2.7191627    1.6288698   439061 
  377000    1.0840305   -2.7159193   -2.7159193   -1.0898774   0.15211198   -2.7159193     1.626042   439061 
  378000    1.0850612    -2.716617    -2.716617    -1.089029   0.15424294    -2.716617    1.6275881   439061 
  379000    1.0866386   -2.7199545   -2.7199545   -1.0900003    0.1484316   -2.7199545    1.6299542   439061 
  380000    1.0850575   -2.7182031   -2.7182031   -1.0906205   0.15847126   -2.7182031    1.6275826   439061 
  381000    1.0852939   -2.7196335   -2.7196335   -1.0916964    0.1521973   -2.7196335    1.6279371   439061 
  382000    1.0856766   -2.7207496   -2.7207496   -1.0922384   0.15708946   -2.7207496    1.6285111   439061 
  383000    1.0847102   -2.7189721   -2.7189721   -1.0919105   0.15393892   -2.7189721    1.6270616   439061 
  384000    1.0842706   -2.7195263   -2.7195263   -1.0931241    0.1548863   -2.7195263    1.6264021   439061 
  385000    1.0838352   -2.7200664   -2.7200664   -1.0943172    0.1525031   -2.7200664    1.6257492   439061 
  386000    1.0834754   -2.7198224   -2.7198224    -1.094613   0.15885812   -2.7198224    1.6252094   439061 
  387000    1.0847132   -2.7221284   -2.7221284   -1.0950623   0.15171326   -2.7221284    1.6270661   439061 
  388000    1.0830642   -2.7188608   -2.7188608   -1.0942682   0.15235718   -2.7188608    1.6245926   439061 
  389000    1.0824885   -2.7181457   -2.7181457   -1.0944167   0.15857198   -2.7181457     1.623729   439061 
  390000    1.0835308   -2.7201835   -2.7201835   -1.0948911   0.15354098   -2.7201835    1.6252925   439061 
  391000     1.082922   -2.7194218   -2.7194218   -1.0950426   0.15200159   -2.7194218    1.6243793   439061 
  392000    1.0838782   -2.7191592   -2.7191592   -1.0933456   0.15259175   -2.7191592    1.6258136   439061 
  393000    1.0829052   -2.7188075   -2.7188075   -1.0944534   0.15581643   -2.7188075    1.6243541   439061 
  394000    1.0829945   -2.7190787   -2.7190787   -1.0945906    0.1533051   -2.7190787    1.6244881   439061 
  395000    1.0837922   -2.7207481   -2.7207481   -1.0950635   0.14985644   -2.7207481    1.6256845   439061 
  396000    1.0801318   -2.7163811   -2.7163811   -1.0961872   0.15286759   -2.7163811     1.620194   439061 
  397000    1.0827323   -2.7212746   -2.7212746   -1.0971799   0.15395405   -2.7212746    1.6240947   439061 
  398000    1.0817647   -2.7201261   -2.7201261   -1.0974828   0.15486048   -2.7201261    1.6226433   439061 
  399000    1.0812609   -2.7206895   -2.7206895   -1.0988018   0.14577138   -2.7206895    1.6218876   439061 
  400000    1.0806951    -2.720297    -2.720297   -1.0992581   0.15242782    -2.720297    1.6210389   439061 
  401000    1.0813355   -2.7215067   -2.7215067   -1.0995071   0.15456406   -2.7215067    1.6219996   439061 
  402000    1.0815555    -2.724005    -2.724005   -1.1016754   0.15097255    -2.724005    1.6223296   439061 
  403000    1.0809409   -2.7220943   -2.7220943   -1.1006866    0.1492447   -2.7220943    1.6214077   439061 
  404000    1.0814199   -2.7233213   -2.7233213   -1.1011951   0.15118459   -2.7233213    1.6221262   439061 
  405000    1.0809755   -2.7229653   -2.7229653   -1.1015058    0.1499248   -2.7229653    1.6214595   439061 
  406000    1.0820435   -2.7240966   -2.7240966   -1.1010351   0.14898736   -2.7240966    1.6230615   439061 
  407000    1.0817812   -2.7241934   -2.7241934   -1.1015253   0.15208952   -2.7241934    1.6226681   439061 
  408000    1.0815593    -2.724221    -2.724221   -1.1018858   0.15173392    -2.724221    1.6223352   439061 
  409000    1.0802328   -2.7216032   -2.7216032   -1.1012577   0.15315854   -2.7216032    1.6203455   439061 
  410000    1.0810632   -2.7242609   -2.7242609   -1.1026697     0.149991   -2.7242609    1.6215911   439061 
  411000    1.0816754   -2.7260942   -2.7260942   -1.1035848   0.14263967   -2.7260942    1.6225094   439061 
  412000    1.0801009   -2.7242293   -2.7242293   -1.1040816   0.15645065   -2.7242293    1.6201477   439061 
  413000    1.0794993   -2.7242974   -2.7242974   -1.1050521   0.15226668   -2.7242974    1.6192453   439061 
  414000    1.0808977   -2.7268837   -2.7268837   -1.1055408   0.14966154   -2.7268837    1.6213429   439061 
  415000    1.0813833   -2.7264504   -2.7264504   -1.1043791   0.14542296   -2.7264504    1.6220713   439061 
  416000    1.0776371   -2.7224978   -2.7224978   -1.1060459    0.1521394   -2.7224978    1.6164519   439061 
  417000    1.0797193    -2.725388    -2.725388   -1.1058127   0.14943006    -2.725388    1.6195753   439061 
  418000    1.0796224   -2.7251024   -2.7251024   -1.1056725     0.150042   -2.7251024    1.6194299   439061 
  419000    1.0791973   -2.7242629   -2.7242629   -1.1054706   0.15065779   -2.7242629    1.6187923   439061 
  420000    1.0813978   -2.7272778   -2.7272778   -1.1051848     0.149222   -2.7272778    1.6220931   439061 
  421000    1.0789105   -2.7251257   -2.7251257   -1.1067636   0.14830064   -2.7251257     1.618362   439061 
  422000    1.0784828   -2.7240754   -2.7240754   -1.1063549   0.14863974   -2.7240754    1.6177205   439061 
  423000    1.0797309   -2.7259202   -2.7259202   -1.1063275   0.14577532   -2.7259202    1.6195927   439061 
  424000    1.0788798   -2.7258812   -2.7258812   -1.1075652   0.14368503   -2.7258812     1.618316   439061 
  425000     1.078952   -2.7256366   -2.7256366   -1.1072124   0.14885774   -2.7256366    1.6184243   439061 
  426000    1.0798503   -2.7259208   -2.7259208    -1.106149   0.15038931   -2.7259208    1.6197718   439061 
  427000    1.0786746   -2.7257988   -2.7257988   -1.1077906   0.14906359   -2.7257988    1.6180082   439061 
  428000    1.0795773   -2.7275937   -2.7275937   -1.1082315   0.15176508   -2.7275937    1.6193622   439061 
  429000    1.0778977   -2.7256652   -2.7256652   -1.1088224   0.15057038   -2.7256652    1.6168428   439061 
  430000    1.0786593   -2.7289199   -2.7289199   -1.1109347   0.14848395   -2.7289199    1.6179852   439061 
  431000    1.0765013   -2.7273197   -2.7273197   -1.1125714   0.14357956   -2.7273197    1.6147483   439061 
  432000    1.0774154   -2.7280508   -2.7280508   -1.1119314   0.15544661   -2.7280508    1.6161195   439061 
  433000    1.0785045    -2.730266    -2.730266   -1.1125129   0.14838201    -2.730266    1.6177531   439061 
  434000    1.0790015   -2.7292074   -2.7292074   -1.1107089   0.15142056   -2.7292074    1.6184985   439061 
  435000    1.0781232   -2.7285223   -2.7285223   -1.1113412   0.14508742   -2.7285223    1.6171811   439061 
  436000    1.0775451   -2.7286847   -2.7286847   -1.1123707    0.1522711   -2.7286847     1.616314   439061 
  437000    1.0778914   -2.7308795   -2.7308795    -1.114046   0.14859473   -2.7308795    1.6168335   439061 
  438000    1.0745268   -2.7259716   -2.7259716   -1.1141852   0.15049966   -2.7259716    1.6117865   439061 
  439000    1.0776448    -2.731272    -2.731272   -1.1148085   0.14806798    -2.731272    1.6164634   439061 
  440000    1.0777323   -2.7310084   -2.7310084   -1.1144136   0.14630957   -2.7310084    1.6165948   439061 
  441000    1.0766504   -2.7292807   -2.7292807   -1.1143088    0.1468336   -2.7292807    1.6149719   439061 
  442000     1.077224   -2.7317637   -2.7317637   -1.1159313   0.14797653   -2.7317637    1.6158323   439061 
  443000    1.0757873   -2.7313426   -2.7313426   -1.1176653   0.14623073   -2.7313426    1.6136772   439061 
  444000    1.0769916   -2.7316046   -2.7316046   -1.1161209   0.14395548   -2.7316046    1.6154837   439061 
  445000    1.0770703   -2.7318882   -2.7318882   -1.1162864   0.14530328   -2.7318882    1.6156018   439061 
  446000    1.0753212   -2.7307552   -2.7307552   -1.1177771   0.14815421   -2.7307552    1.6129781   439061 
  447000    1.0767089   -2.7314362   -2.7314362   -1.1163765   0.15267075   -2.7314362    1.6150596   439061 
  448000    1.0755932   -2.7304755   -2.7304755   -1.1170894   0.14610333   -2.7304755    1.6133861   439061 
  449000    1.0759673   -2.7304571   -2.7304571   -1.1165099   0.14558925   -2.7304571    1.6139473   439061 
  450000    1.0755533   -2.7309151   -2.7309151   -1.1175888   0.14528223   -2.7309151    1.6133263   439061 
  451000    1.0768335   -2.7323302   -2.7323302   -1.1170836   0.14645393   -2.7323302    1.6152466   439061 
  452000    1.0754109   -2.7301773   -2.7301773   -1.1170647   0.14278433   -2.7301773    1.6131126   439061 
  453000     1.076127   -2.7318943   -2.7318943   -1.1177074   0.14564342   -2.7318943    1.6141868   439061 
  454000    1.0749922   -2.7312338   -2.7312338   -1.1187492   0.14888155   -2.7312338    1.6124846   439061 
  455000    1.0733828   -2.7286302   -2.7286302   -1.1185596   0.14591071   -2.7286302    1.6100706   439061 
  456000    1.0757482   -2.7322737   -2.7322737   -1.1186551    0.1471896   -2.7322737    1.6136186   439061 
  457000    1.0763842   -2.7330134   -2.7330134   -1.1184409   0.14730435   -2.7330134    1.6145726   439061 
  458000    1.0762203   -2.7326965   -2.7326965   -1.1183698   0.14256291   -2.7326965    1.6143267   439061 
  459000    1.0740298    -2.731553    -2.731553    -1.120512   0.14018785    -2.731553     1.611041   439061 
  460000    1.0740392   -2.7316576   -2.7316576   -1.1206024   0.14760503   -2.7316576    1.6110551   439061 
  461000    1.0747025    -2.732532    -2.732532   -1.1204818   0.14522473    -2.732532    1.6120501   439061 
  462000    1.0754905   -2.7343901   -2.7343901    -1.121158     0.143966   -2.7343901    1.6132321   439061 
  463000    1.0750409   -2.7349112   -2.7349112   -1.1223535     0.147285   -2.7349112    1.6125577   439061 
  464000     1.074036   -2.7339999   -2.7339999   -1.1229495   0.14426458   -2.7339999    1.6110504   439061 
  465000    1.0728152   -2.7327422   -2.7327422    -1.123523   0.14426123   -2.7327422    1.6092192   439061 
  466000    1.0752469   -2.7350964   -2.7350964   -1.1222298     0.141954   -2.7350964    1.6128666   439061 
  467000    1.0740759   -2.7332763   -2.7332763   -1.1221661   0.14371076   -2.7332763    1.6111102   439061 
  468000    1.0750699   -2.7351498   -2.7351498   -1.1225486   0.14384422   -2.7351498    1.6126012   439061 
  469000    1.0745166   -2.7352715   -2.7352715   -1.1235003   0.14601598   -2.7352715    1.6117712   439061 
  470000     1.071822   -2.7320918   -2.7320918   -1.1243624   0.14417073   -2.7320918    1.6077294   439061 
  471000    1.0740152   -2.7356426   -2.7356426   -1.1246234   0.14062371   -2.7356426    1.6110192   439061 
  472000    1.0728253   -2.7352533   -2.7352533   -1.1260189   0.13832395   -2.7352533    1.6092344   439061 
  473000    1.0728398   -2.7353109   -2.7353109   -1.1260549   0.14231828   -2.7353109    1.6092561   439061 
  474000    1.0717401   -2.7331173   -2.7331173   -1.1255109   0.14452565   -2.7331173    1.6076064   439061 
  475000    1.0727482   -2.7346134   -2.7346134   -1.1254948    0.1378645   -2.7346134    1.6091186   439061 
  476000    1.0732763   -2.7348625   -2.7348625   -1.1249518   0.14298743   -2.7348625    1.6099107   439061 
  477000    1.0722649   -2.7338945   -2.7338945   -1.1255008   0.14228801   -2.7338945    1.6083937   439061 
  478000     1.069557    -2.730112    -2.730112   -1.1257801   0.14079635    -2.730112    1.6043318   439061 
  479000    1.0719274    -2.733194    -2.733194   -1.1253066   0.14384651    -2.733194    1.6078874   439061 
  480000    1.0726717   -2.7345653   -2.7345653   -1.1255614   0.14493782   -2.7345653    1.6090039   439061 
  481000    1.0731816   -2.7354645   -2.7354645   -1.1256957   0.14137378   -2.7354645    1.6097688   439061 
  482000    1.0736162   -2.7368153   -2.7368153   -1.1263948   0.14274289   -2.7368153    1.6104206   439061 
  483000    1.0723279   -2.7352727   -2.7352727   -1.1267846   0.14749435   -2.7352727    1.6084881   439061 
  484000    1.0735238   -2.7371906   -2.7371906   -1.1269086    0.1418817   -2.7371906     1.610282   439061 
  485000    1.0725033   -2.7365683   -2.7365683    -1.127817   0.14293437   -2.7365683    1.6087513   439061 
  486000    1.0721517   -2.7368677   -2.7368677   -1.1286439   0.14220946   -2.7368677    1.6082238   439061 
  487000    1.0724213   -2.7378386   -2.7378386   -1.1292103   0.14626925   -2.7378386    1.6086283   439061 
  488000    1.0723161   -2.7392225   -2.7392225    -1.130752   0.13999857   -2.7392225    1.6084705   439061 
  489000    1.0726898   -2.7391655   -2.7391655   -1.1301345   0.14763911   -2.7391655     1.609031   439061 
  490000    1.0705524   -2.7365687   -2.7365687   -1.1307437    0.1421945   -2.7365687    1.6058249   439061 
  491000    1.0705422   -2.7362291   -2.7362291   -1.1304194   0.14295103   -2.7362291    1.6058097   439061 
  492000    1.0718288   -2.7387998   -2.7387998   -1.1310603   0.14404976   -2.7387998    1.6077395   439061 
  493000    1.0718995   -2.7390815   -2.7390815    -1.131236   0.14218468   -2.7390815    1.6078455   439061 
  494000    1.0706086   -2.7380402   -2.7380402   -1.1321309   0.14047709   -2.7380402    1.6059093   439061 
  495000    1.0699797   -2.7370744   -2.7370744   -1.1321084   0.14625168   -2.7370744     1.604966   439061 
  496000    1.0711541   -2.7379546   -2.7379546    -1.131227   0.14047588   -2.7379546    1.6067275   439061 
  497000    1.0697697   -2.7382774   -2.7382774   -1.1336265   0.13897304   -2.7382774    1.6046509   439061 
  498000    1.0694828   -2.7391363   -2.7391363   -1.1349159   0.14084022   -2.7391363    1.6042205   439061 
  499000    1.0683995   -2.7378748   -2.7378748   -1.1352793   0.14158418   -2.7378748    1.6025955   439061 
  500000    1.0702883   -2.7403134   -2.7403134   -1.1348845   0.14076613   -2.7403134    1.6054289   439061 
  501000    1.0693925   -2.7393287   -2.7393287   -1.1352436    0.1382082   -2.7393287    1.6040851   439061 
  502000    1.0696021    -2.739494    -2.739494   -1.1350946   0.14199324    -2.739494    1.6043994   439061 
  503000    1.0691113   -2.7387223   -2.7387223    -1.135059   0.14112887   -2.7387223    1.6036633   439061 
  504000     1.068809      -2.7378      -2.7378   -1.1345901      0.14489      -2.7378    1.6032099   439061 
  505000    1.0703247   -2.7397227   -2.7397227   -1.1342392   0.14105327   -2.7397227    1.6054834   439061 
  506000     1.068886   -2.7382081   -2.7382081   -1.1348827   0.13766303   -2.7382081    1.6033253   439061 
  507000    1.0681663   -2.7385156   -2.7385156   -1.1362698   0.14150763   -2.7385156    1.6022458   439061 
  508000    1.0688913   -2.7392811   -2.7392811   -1.1359479   0.14299005   -2.7392811    1.6033333   439061 
  509000    1.0688973   -2.7393034   -2.7393034   -1.1359611   0.14260229   -2.7393034    1.6033423   439061 
  510000    1.0696923   -2.7398302   -2.7398302   -1.1352954   0.13815838   -2.7398302    1.6045348   439061 
  511000    1.0688058    -2.738736    -2.738736   -1.1355309   0.13802389    -2.738736    1.6032051   439061 
  512000    1.0687898   -2.7386466   -2.7386466   -1.1354655    0.1347921   -2.7386466    1.6031811   439061 
  513000     1.071426   -2.7417595   -2.7417595   -1.1346242   0.14060295   -2.7417595    1.6071353   439061 
  514000    1.0688606   -2.7385432   -2.7385432    -1.135256   0.13852561   -2.7385432    1.6032873   439061 
  515000    1.0684937   -2.7382438   -2.7382438   -1.1355069   0.14027609   -2.7382438    1.6027369   439061 
  516000    1.0683526   -2.7395191   -2.7395191   -1.1369938   0.13898597   -2.7395191    1.6025252   439061 
  517000     1.068347   -2.7387553   -2.7387553   -1.1362385   0.14534958   -2.7387553    1.6025168   439061 
  518000    1.0690676   -2.7395656   -2.7395656   -1.1359679   0.14306544   -2.7395656    1.6035977   439061 
  519000    1.0677476   -2.7373731   -2.7373731   -1.1357554   0.14510156   -2.7373731    1.6016177   439061 
  520000     1.069758   -2.7413231   -2.7413231   -1.1366897   0.13398576   -2.7413231    1.6046334   439061 
  521000    1.0681418   -2.7393286   -2.7393286   -1.1371196   0.14059112   -2.7393286     1.602209   439061 
  522000    1.0687221   -2.7395815   -2.7395815    -1.136502   0.13666931   -2.7395815    1.6030795   439061 
  523000     1.066749   -2.7381131   -2.7381131   -1.1379933   0.13846468   -2.7381131    1.6001199   439061 
  524000    1.0682036    -2.738673    -2.738673   -1.1363712   0.14068321    -2.738673    1.6023018   439061 
  525000    1.0686778   -2.7393736   -2.7393736   -1.1363605   0.14281222   -2.7393736    1.6030131   439061 
  526000    1.0690201   -2.7402309   -2.7402309   -1.1367044   0.13839118   -2.7402309    1.6035265   439061 
  527000    1.0684588   -2.7403812   -2.7403812   -1.1376967   0.13952112   -2.7403812    1.6026845   439061 
  528000    1.0691062   -2.7403062   -2.7403062   -1.1366505   0.14550347   -2.7403062    1.6036557   439061 
  529000    1.0696512   -2.7416891   -2.7416891    -1.137216   0.13555987   -2.7416891    1.6044731   439061 
  530000    1.0693726   -2.7411958   -2.7411958   -1.1371405   0.13825521   -2.7411958    1.6040553   439061 
  531000    1.0680646   -2.7401485   -2.7401485   -1.1380552   0.13430805   -2.7401485    1.6020933   439061 
  532000    1.0675921   -2.7392504   -2.7392504   -1.1378659   0.13709163   -2.7392504    1.6013845   439061 
  533000    1.0681186   -2.7411224   -2.7411224    -1.138948   0.13528345   -2.7411224    1.6021743   439061 
  534000    1.0677512   -2.7396416   -2.7396416   -1.1380185   0.13741755   -2.7396416    1.6016231   439061 
  535000    1.0682978   -2.7410103   -2.7410103   -1.1385672   0.14111189   -2.7410103    1.6024431   439061 
  536000    1.0689928   -2.7407305   -2.7407305   -1.1372449   0.13802695   -2.7407305    1.6034856   439061 
  537000    1.0668401   -2.7383384   -2.7383384   -1.1380819   0.13779061   -2.7383384    1.6002565   439061 
  538000     1.068149   -2.7407346   -2.7407346   -1.1385147   0.13805001   -2.7407346    1.6022199   439061 
  539000     1.067541   -2.7412119   -2.7412119   -1.1399041   0.14042672   -2.7412119    1.6013078   439061 
  540000    1.0655161   -2.7393165   -2.7393165   -1.1410461   0.13952228   -2.7393165    1.5982705   439061 
  541000    1.0659383   -2.7395555   -2.7395555   -1.1406518   0.13685405   -2.7395555    1.5989037   439061 
  542000    1.0683444    -2.744185    -2.744185   -1.1416721   0.13904515    -2.744185     1.602513   439061 
  543000    1.0668998   -2.7418166   -2.7418166   -1.1414705   0.13702681   -2.7418166    1.6003461   439061 
  544000    1.0664629   -2.7410422   -2.7410422   -1.1413514   0.14268739   -2.7410422    1.5996907   439061 
  545000    1.0668743   -2.7425148   -2.7425148    -1.142207   0.13054877   -2.7425148    1.6003078   439061 
  546000    1.0691754   -2.7460747   -2.7460747   -1.1423153   0.13512005   -2.7460747    1.6037595   439061 
  547000    1.0662564   -2.7425102   -2.7425102   -1.1431292   0.13633349   -2.7425102     1.599381   439061 
  548000    1.0649461   -2.7398839   -2.7398839   -1.1424685   0.13743156   -2.7398839    1.5974155   439061 
  549000    1.0670233   -2.7427618   -2.7427618   -1.1422305   0.13453258   -2.7427618    1.6005313   439061 
  550000     1.066911   -2.7439958   -2.7439958    -1.143633   0.13942496   -2.7439958    1.6003628   439061 
  551000    1.0660563   -2.7435088   -2.7435088   -1.1444279   0.13318756   -2.7435088    1.5990808   439061 
  552000    1.0661581   -2.7441259   -2.7441259   -1.1448924   0.14077353   -2.7441259    1.5992335   439061 
  553000    1.0663623   -2.7441668   -2.7441668    -1.144627   0.13344149   -2.7441668    1.5995398   439061 
  554000    1.0661185    -2.743355    -2.743355   -1.1441809   0.14034407    -2.743355    1.5991741   439061 
  555000    1.0649835   -2.7429533   -2.7429533   -1.1454818   0.14207508   -2.7429533    1.5974716   439061 
  556000    1.0655729   -2.7450571   -2.7450571   -1.1467014    0.1383567   -2.7450571    1.5983557   439061 
  557000    1.0655037   -2.7442081   -2.7442081   -1.1459562   0.13723134   -2.7442081    1.5982519   439061 
  558000    1.0654405   -2.7447497   -2.7447497   -1.1465925   0.13930656   -2.7447497    1.5981571   439061 
  559000    1.0654494   -2.7448524   -2.7448524   -1.1466819   0.13528088   -2.7448524    1.5981705   439061 
  560000    1.0661228   -2.7462008   -2.7462008   -1.1470202   0.13668403   -2.7462008    1.5991806   439061 
  561000    1.0669366   -2.7473772   -2.7473772   -1.1469759   0.14059977   -2.7473772    1.6004013   439061 
  562000    1.0658584   -2.7476462   -2.7476462   -1.1488622   0.13375363   -2.7476462     1.598784   439061 
  563000    1.0642634   -2.7469087   -2.7469087   -1.1505172   0.13757121   -2.7469087    1.5963914   439061 
  564000    1.0657728   -2.7482475   -2.7482475   -1.1495919   0.13254886   -2.7482475    1.5986556   439061 
  565000    1.0667002   -2.7488345   -2.7488345    -1.148788   0.13896184   -2.7488345    1.6000466   439061 
  566000    1.0653965   -2.7479687   -2.7479687   -1.1498776   0.13830954   -2.7479687    1.5980911   439061 
  567000    1.0653856   -2.7476921   -2.7476921   -1.1496173   0.13352777   -2.7476921    1.5980748   439061 
  568000    1.0643116   -2.7463953   -2.7463953   -1.1499315   0.13976056   -2.7463953    1.5964638   439061 
  569000    1.0658646   -2.7489519   -2.7489519   -1.1501587   0.13605455   -2.7489519    1.5987932   439061 
  570000    1.0636578   -2.7458915   -2.7458915   -1.1504083   0.13706571   -2.7458915    1.5954831   439061 
  571000    1.0635631   -2.7454676   -2.7454676   -1.1501265   0.13427095   -2.7454676    1.5953411   439061 
  572000    1.0634517   -2.7443215   -2.7443215   -1.1491475   0.13349408   -2.7443215    1.5951739   439061 
  573000    1.0643282   -2.7452378   -2.7452378   -1.1487492    0.1343051   -2.7452378    1.5964887   439061 
  574000    1.0653249   -2.7457262   -2.7457262   -1.1477424   0.13648751   -2.7457262    1.5979837   439061 
  575000    1.0650733    -2.744512    -2.744512   -1.1469056   0.13639909    -2.744512    1.5976063   439061 
  576000    1.0636987   -2.7431169   -2.7431169   -1.1475725   0.13476547   -2.7431169    1.5955444   439061 
  577000    1.0640088   -2.7448376   -2.7448376    -1.148828   0.13210664   -2.7448376    1.5960096   439061 
  578000     1.064119   -2.7455921   -2.7455921   -1.1494172    0.1323259   -2.7455921    1.5961749   439061 
  579000    1.0628533   -2.7438212   -2.7438212   -1.1495449   0.13136172   -2.7438212    1.5942763   439061 
  580000    1.0628005    -2.743782    -2.743782   -1.1495848   0.13809355    -2.743782    1.5941972   439061 
  581000     1.062765   -2.7446516   -2.7446516   -1.1505077   0.13198934   -2.7446516    1.5941439   439061 
  582000    1.0647289   -2.7460321   -2.7460321   -1.1489424   0.13264084   -2.7460321    1.5970897   439061 
  583000    1.0653598   -2.7476364   -2.7476364   -1.1496003   0.12613392   -2.7476364    1.5980361   439061 
  584000    1.0620408   -2.7440931   -2.7440931   -1.1510355   0.13290104   -2.7440931    1.5930575   439061 
  585000    1.0622358   -2.7460474   -2.7460474   -1.1526973   0.13030357   -2.7460474    1.5933501   439061 
  586000    1.0625286   -2.7462983   -2.7462983    -1.152509    0.1329002   -2.7462983    1.5937892   439061 
  587000    1.0637154   -2.7466627   -2.7466627   -1.1510933   0.13537155   -2.7466627    1.5955694   439061 
  588000    1.0643547   -2.7478451   -2.7478451   -1.1513167   0.13588456   -2.7478451    1.5965284   439061 
  589000    1.0638531   -2.7474366   -2.7474366   -1.1516606   0.13947159   -2.7474366    1.5957759   439061 
  590000    1.0634078   -2.7480327   -2.7480327   -1.1529247   0.13202215   -2.7480327     1.595108   439061 
  591000    1.0618918   -2.7474458   -2.7474458   -1.1546117   0.13608273   -2.7474458     1.592834   439061 
  592000    1.0616061   -2.7451724   -2.7451724   -1.1527669   0.13472149   -2.7451724    1.5924055   439061 
  593000    1.0638866   -2.7490823   -2.7490823   -1.1532561   0.13263595   -2.7490823    1.5958263   439061 
  594000    1.0632679   -2.7483975   -2.7483975   -1.1534993    0.1320636   -2.7483975    1.5948982   439061 
  595000    1.0626692   -2.7486773   -2.7486773   -1.1546771   0.13075416   -2.7486773    1.5940002   439061 
  596000    1.0630711   -2.7487658   -2.7487658   -1.1541628   0.13360613   -2.7487658    1.5946031   439061 
  597000    1.0633127   -2.7493418   -2.7493418   -1.1543764   0.12935723   -2.7493418    1.5949655   439061 
  598000    1.0633302   -2.7480964   -2.7480964   -1.1531046   0.13373228   -2.7480964    1.5949917   439061 
  599000     1.064363   -2.7500201   -2.7500201   -1.1534792   0.13911544   -2.7500201    1.5965409   439061 
  600000    1.0630906   -2.7484096   -2.7484096   -1.1537773   0.13382709   -2.7484096    1.5946322   439061 
  601000    1.0623183   -2.7474043   -2.7474043   -1.1539305   0.13629791   -2.7474043    1.5934739   439061 
  602000     1.062673   -2.7502939   -2.7502939    -1.156288   0.12768399   -2.7502939    1.5940059   439061 
  603000    1.0616379   -2.7492895   -2.7492895   -1.1568363   0.13158536   -2.7492895    1.5924532   439061 
  604000    1.0622608   -2.7510599   -2.7510599   -1.1576723   0.13229242   -2.7510599    1.5933876   439061 
  605000     1.062838   -2.7522189   -2.7522189   -1.1579655   0.13078884   -2.7522189    1.5942534   439061 
  606000    1.0609384   -2.7492423   -2.7492423   -1.1578384   0.13297701   -2.7492423    1.5914039   439061 
  607000    1.0612271   -2.7499514   -2.7499514   -1.1581144   0.13085423   -2.7499514     1.591837   439061 
  608000    1.0606415   -2.7512993   -2.7512993   -1.1603407    0.1303294   -2.7512993    1.5909587   439061 
  609000    1.0621515   -2.7521807   -2.7521807   -1.1589571   0.13419239   -2.7521807    1.5932236   439061 
  610000    1.0610951   -2.7520936   -2.7520936   -1.1604545   0.13191855   -2.7520936     1.591639   439061 
  611000    1.0611581   -2.7526006   -2.7526006   -1.1608671   0.13071828   -2.7526006    1.5917335   439061 
  612000    1.0611226   -2.7523867   -2.7523867   -1.1607065    0.1284692   -2.7523867    1.5916802   439061 
  613000    1.0607993   -2.7524253   -2.7524253     -1.16123   0.12450324   -2.7524253    1.5911953   439061 
  614000    1.0596578   -2.7491314   -2.7491314   -1.1596482   0.12886574   -2.7491314    1.5894831   439061 
  615000    1.0588985   -2.7492963   -2.7492963   -1.1609522   0.13031378   -2.7492963    1.5883441   439061 
  616000    1.0605935   -2.7503382   -2.7503382   -1.1594516    0.1299917   -2.7503382    1.5908867   439061 
  617000    1.0606366   -2.7495461   -2.7495461   -1.1585948   0.13009056   -2.7495461    1.5909512   439061 
  618000    1.0637144   -2.7532511   -2.7532511   -1.1576831   0.13438571   -2.7532511    1.5955679   439061 
  619000    1.0592998   -2.7483989   -2.7483989   -1.1594528   0.13273202   -2.7483989    1.5889461   439061 
  620000    1.0592856   -2.7507583   -2.7507583   -1.1618335   0.13286388   -2.7507583    1.5889248   439061 
  621000    1.0611474   -2.7518327   -2.7518327   -1.1601153   0.12835795   -2.7518327    1.5917174   439061 
  622000    1.0590202   -2.7492511   -2.7492511   -1.1607244   0.13399279   -2.7492511    1.5885267   439061 
  623000    1.0604457   -2.7502737   -2.7502737   -1.1596087    0.1313503   -2.7502737     1.590665   439061 
  624000    1.0602287   -2.7508075   -2.7508075   -1.1604682   0.13043122   -2.7508075    1.5903394   439061 
  625000    1.0610096   -2.7524683   -2.7524683   -1.1609575   0.13119131   -2.7524683    1.5915108   439061 
  626000    1.0589227   -2.7499461   -2.7499461   -1.1615657   0.13113425   -2.7499461    1.5883804   439061 
  627000    1.0598445   -2.7504731   -2.7504731     -1.16071    0.1282793   -2.7504731    1.5897631   439061 
  628000    1.0596805    -2.751381    -2.751381   -1.1618638   0.13079667    -2.751381    1.5895172   439061 
  629000    1.0606933   -2.7526569   -2.7526569   -1.1616206   0.13505364   -2.7526569    1.5910363   439061 
  630000    1.0610259    -2.753675    -2.753675   -1.1621398   0.12928809    -2.753675    1.5915352   439061 
  631000     1.061785   -2.7548201   -2.7548201   -1.1621463   0.12301759   -2.7548201    1.5926739   439061 
  632000    1.0595495   -2.7531376   -2.7531376    -1.163817   0.13114573   -2.7531376    1.5893206   439061 
  633000    1.0604198   -2.7523267   -2.7523267   -1.1617006   0.13161384   -2.7523267    1.5906261   439061 
  634000     1.061168   -2.7548046   -2.7548046   -1.1630562   0.13251795   -2.7548046    1.5917484   439061 
  635000    1.0587306   -2.7525014   -2.7525014   -1.1644092   0.13241479   -2.7525014    1.5880922   439061 
  636000    1.0593535   -2.7545357   -2.7545357    -1.165509   0.13158187   -2.7545357    1.5890267   439061 
  637000    1.0594044   -2.7558768   -2.7558768   -1.1667738   0.13076943   -2.7558768     1.589103   439061 
  638000    1.0594257   -2.7546516   -2.7546516   -1.1655166   0.12890686   -2.7546516    1.5891349   439061 
  639000    1.0588071   -2.7537662   -2.7537662   -1.1655592   0.13054215   -2.7537662     1.588207   439061 
  640000    1.0591711   -2.7545205   -2.7545205   -1.1657674   0.12993825   -2.7545205    1.5887531   439061 
  641000     1.058845   -2.7549402   -2.7549402   -1.1666764   0.12720239   -2.7549402    1.5882638   439061 
  642000    1.0592808   -2.7546847   -2.7546847   -1.1657672    0.1315775   -2.7546847    1.5889176   439061 
  643000    1.0589963   -2.7535399   -2.7535399   -1.1650491   0.13483731   -2.7535399    1.5884908   439061 
  644000    1.0597829   -2.7552101   -2.7552101   -1.1655394   0.12954786   -2.7552101    1.5896707   439061 
  645000    1.0578002   -2.7525023   -2.7525023   -1.1658056   0.12760797   -2.7525023    1.5866967   439061 
  646000    1.0579503    -2.753043    -2.753043   -1.1661212   0.12938595    -2.753043    1.5869218   439061 
  647000     1.057595   -2.7525513   -2.7525513   -1.1661624   0.12818406   -2.7525513    1.5863889   439061 
  648000    1.0585634   -2.7531565   -2.7531565   -1.1653151    0.1260306   -2.7531565    1.5878415   439061 
  649000    1.0586069    -2.753199    -2.753199   -1.1652923   0.13062503    -2.753199    1.5879068   439061 
  650000    1.0582307   -2.7528826   -2.7528826   -1.1655401   0.12753043   -2.7528826    1.5873424   439061 
  651000    1.0575971   -2.7514447   -2.7514447   -1.1650527   0.12550525   -2.7514447     1.586392   439061 
  652000      1.05951   -2.7539214   -2.7539214     -1.16466   0.12707528   -2.7539214    1.5892614   439061 
  653000    1.0581336   -2.7519426   -2.7519426   -1.1647458   0.13011667   -2.7519426    1.5871969   439061 
  654000    1.0594902   -2.7548834   -2.7548834   -1.1656518   0.12660346   -2.7548834    1.5892317   439061 
  655000    1.0574284   -2.7524367   -2.7524367   -1.1662977   0.12882022   -2.7524367     1.586139   439061 
  656000    1.0569207   -2.7530763   -2.7530763   -1.1676988   0.12478396   -2.7530763    1.5853774   439061 
  657000    1.0572536   -2.7542564   -2.7542564   -1.1683795   0.12691112   -2.7542564    1.5858768   439061 
  658000    1.0578944   -2.7534409   -2.7534409    -1.166603   0.12706172   -2.7534409    1.5868379   439061 
  659000    1.0581147   -2.7539266   -2.7539266   -1.1667581   0.12890937   -2.7539266    1.5871685   439061 
  660000    1.0586883    -2.756207    -2.756207   -1.1681782   0.13136366    -2.756207    1.5880288   439061 
  661000    1.0581471   -2.7568194   -2.7568194   -1.1696024   0.13259133   -2.7568194     1.587217   439061 
  662000    1.0577003   -2.7572515   -2.7572515   -1.1707047   0.12824121   -2.7572515    1.5865468   439061 
  663000    1.0569637   -2.7579293   -2.7579293   -1.1724874   0.12807386   -2.7579293     1.585442   439061 
  664000    1.0581079   -2.7578259   -2.7578259   -1.1706677    0.1265631   -2.7578259    1.5871582   439061 
  665000    1.0578137   -2.7583003   -2.7583003   -1.1715834   0.12645932   -2.7583003    1.5867169   439061 
  666000    1.0570276   -2.7569299   -2.7569299   -1.1713921   0.12827084   -2.7569299    1.5855378   439061 
  667000    1.0566114     -2.75794     -2.75794   -1.1730265   0.12330822     -2.75794    1.5849135   439061 
  668000    1.0582785   -2.7595324   -2.7595324   -1.1721182   0.13004451   -2.7595324    1.5874141   439061 
  669000    1.0568101   -2.7579921   -2.7579921   -1.1727806   0.13449895   -2.7579921    1.5852115   439061 
  670000    1.0572742   -2.7595651   -2.7595651   -1.1736574   0.13374681   -2.7595651    1.5859077   439061 
  671000    1.0566901   -2.7583546   -2.7583546   -1.1733231   0.13001914   -2.7583546    1.5850315   439061 
  672000    1.0586064   -2.7596871   -2.7596871   -1.1717811   0.13042815   -2.7596871     1.587906   439061 
  673000    1.0583526   -2.7576576   -2.7576576   -1.1701323   0.13210904   -2.7576576    1.5875253   439061 
  674000    1.0591157   -2.7581026   -2.7581026   -1.1694326   0.12922888   -2.7581026      1.58867   439061 
[...]
 2833000    1.0157617   -2.8888343   -2.8888343   -1.3651952  0.082036318   -2.8888343    1.5236391   439061 
 2834000    1.0136942   -2.8867745   -2.8867745   -1.3662367  0.087573944   -2.8867745    1.5205378   439061 
 2835000    1.0153682   -2.8887392   -2.8887392   -1.3656904  0.087616075   -2.8887392    1.5230488   439061 
 2836000    1.0139882   -2.8870447   -2.8870447   -1.3660658  0.088209325   -2.8870447    1.5209789   439061 
 2837000    1.0157448   -2.8894876   -2.8894876   -1.3658738  0.083354428   -2.8894876    1.5236138   439061 
 2838000    1.0149991   -2.8877728   -2.8877728   -1.3652776  0.090894128   -2.8877728    1.5224952   439061 
 2839000    1.0165889   -2.8882949   -2.8882949    -1.363415   0.09009233   -2.8882949    1.5248798   439061 
 2840000    1.0164442   -2.8890104   -2.8890104   -1.3643477  0.088675976   -2.8890104    1.5246628   439061 
 2841000    1.0155113   -2.8870984   -2.8870984    -1.363835  0.091204638   -2.8870984    1.5232634   439061 
 2842000    1.0151129   -2.8866644   -2.8866644   -1.3639986  0.086547114   -2.8866644    1.5226658   439061 
 2843000    1.0163102   -2.8893575   -2.8893575   -1.3648956  0.086267248   -2.8893575    1.5244619   439061 
 2844000    1.0172293   -2.8904205   -2.8904205     -1.36458  0.086037326   -2.8904205    1.5258405   439061 
 2845000    1.0166795    -2.890095    -2.890095   -1.3650792   0.08651215    -2.890095    1.5250158   439061 
 2846000    1.0165662   -2.8906419   -2.8906419    -1.365796  0.084831774   -2.8906419    1.5248459   439061 
 2847000    1.0165415   -2.8899973   -2.8899973   -1.3651885  0.085584468   -2.8899973    1.5248088   439061 
 2848000    1.0171235    -2.890887    -2.890887   -1.3652051   0.08793122    -2.890887    1.5256818   439061 
 2849000    1.0169928   -2.8902761   -2.8902761   -1.3647905  0.087061769   -2.8902761    1.5254857   439061 
 2850000    1.0170428   -2.8885596   -2.8885596   -1.3629988  0.087941011   -2.8885596    1.5255607   439061 
 2851000    1.0150618   -2.8866993   -2.8866993   -1.3641101  0.086333109   -2.8866993    1.5225892   439061 
 2852000     1.016495    -2.887981    -2.887981   -1.3632419  0.090986286    -2.887981    1.5247391   439061 
 2853000     1.017023   -2.8879809   -2.8879809   -1.3624499  0.085661848   -2.8879809     1.525531   439061 
 2854000    1.0161299   -2.8884802   -2.8884802   -1.3642887  0.089628203   -2.8884802    1.5241914   439061 
 2855000    1.0150702    -2.885995    -2.885995   -1.3633933  0.080746058    -2.885995    1.5226018   439061 
 2856000    1.0159454   -2.8876197   -2.8876197    -1.363705  0.089204692   -2.8876197    1.5239147   439061 
 2857000    1.0149642   -2.8859236   -2.8859236   -1.3634808  0.083584872   -2.8859236    1.5224429   439061 
 2858000    1.0144385   -2.8843352   -2.8843352   -1.3626809  0.086219376   -2.8843352    1.5216543   439061 
 2859000    1.0153488   -2.8859108   -2.8859108   -1.3628912  0.080647021   -2.8859108    1.5230197   439061 
 2860000    1.0151174   -2.8847452   -2.8847452   -1.3620726  0.083683507   -2.8847452    1.5226726   439061 
 2861000    1.0164712   -2.8846029   -2.8846029   -1.3598996  0.088931039   -2.8846029    1.5247033   439061 
 2862000    1.0147673   -2.8829502   -2.8829502   -1.3608026   0.08751746   -2.8829502    1.5221476   439061 
 2863000    1.0157007   -2.8832305   -2.8832305   -1.3596829    0.0871254   -2.8832305    1.5235475   439061 
 2864000    1.0152932   -2.8824215   -2.8824215   -1.3594851  0.087320056   -2.8824215    1.5229364   439061 
 2865000    1.0153338   -2.8836173   -2.8836173   -1.3606201   0.08162827   -2.8836173    1.5229973   439061 
 2866000    1.0163884   -2.8855939   -2.8855939   -1.3610148  0.087817799   -2.8855939    1.5245791   439061 
 2867000    1.0163102   -2.8848274   -2.8848274   -1.3603655  0.083542766   -2.8848274    1.5244619   439061 
 2868000    1.0178162   -2.8869499   -2.8869499   -1.3602291  0.090034046   -2.8869499    1.5267208   439061 
 2869000    1.0160086   -2.8839474   -2.8839474    -1.359938  0.086458285   -2.8839474    1.5240094   439061 
 2870000    1.0144037   -2.8835965   -2.8835965   -1.3619944  0.088168966   -2.8835965    1.5216021   439061 
 2871000    1.0142797   -2.8838047   -2.8838047   -1.3623887  0.086216963   -2.8838047     1.521416   439061 
 2872000    1.0143973   -2.8840979   -2.8840979   -1.3625054  0.086703958   -2.8840979    1.5215925   439061 
 2873000    1.0148506   -2.8849205   -2.8849205    -1.362648  0.084198357   -2.8849205    1.5222725   439061 
 2874000    1.0152815    -2.884829    -2.884829   -1.3619102  0.086373118    -2.884829    1.5229188   439061 
 2875000    1.0144973    -2.884901    -2.884901   -1.3631586  0.082778748    -2.884901    1.5217424   439061 
 2876000     1.014816   -2.8848806   -2.8848806   -1.3626601  0.081297982   -2.8848806    1.5222206   439061 
 2877000    1.0145471   -2.8840829   -2.8840829   -1.3622657   0.08628069   -2.8840829    1.5218172   439061 
 2878000    1.0149553   -2.8844676   -2.8844676   -1.3620381    0.0827323   -2.8844676    1.5224295   439061 
 2879000    1.0154469   -2.8849793   -2.8849793   -1.3618125  0.083945456   -2.8849793    1.5231668   439061 
 2880000    1.0156434   -2.8855853   -2.8855853   -1.3621238  0.089166894   -2.8855853    1.5234616   439061 
 2881000    1.0164804   -2.8858726   -2.8858726   -1.3611554  0.085867491   -2.8858726    1.5247172   439061 
 2882000    1.0157004   -2.8847905   -2.8847905   -1.3612434  0.084953054   -2.8847905    1.5235471   439061 
 2883000    1.0152817   -2.8833626   -2.8833626   -1.3604434  0.089562107   -2.8833626    1.5229191   439061 
 2884000    1.0173054   -2.8860624   -2.8860624   -1.3601077  0.087715407   -2.8860624    1.5259546   439061 
 2885000    1.0171041   -2.8871006   -2.8871006   -1.3614479  0.090080646   -2.8871006    1.5256527   439061 
 2886000    1.0157377   -2.8858299   -2.8858299   -1.3622269  0.091049154   -2.8858299     1.523603   439061 
 2887000     1.016622   -2.8872134   -2.8872134   -1.3622839  0.085533306   -2.8872134    1.5249295   439061 
 2888000    1.0168237   -2.8876744   -2.8876744   -1.3624424  0.088446193   -2.8876744     1.525232   439061 
 2889000    1.0157172   -2.8866587   -2.8866587   -1.3630864  0.089522513   -2.8866587    1.5235723   439061 
 2890000    1.0160449   -2.8879398   -2.8879398   -1.3638759  0.087551919   -2.8879398    1.5240639   439061 
 2891000    1.0154828   -2.8872767   -2.8872767    -1.364056  0.089805506   -2.8872767    1.5232207   439061 
 2892000    1.0163754   -2.8877953   -2.8877953   -1.3632357  0.089300409   -2.8877953    1.5245597   439061 
 2893000     1.016542   -2.8878498   -2.8878498   -1.3630403  0.082584571   -2.8878498    1.5248095   439061 
 2894000    1.0166855   -2.8883542   -2.8883542   -1.3633293  0.090020898   -2.8883542    1.5250248   439061 
 2895000    1.0137744   -2.8846979   -2.8846979   -1.3640397  0.090660616   -2.8846979    1.5206582   439061 
 2896000    1.0146742    -2.886093    -2.886093   -1.3640852  0.091013758    -2.886093    1.5220078   439061 
 2897000    1.0161208   -2.8876966   -2.8876966   -1.3635189  0.087621667   -2.8876966    1.5241777   439061 
 2898000    1.0152012   -2.8864674   -2.8864674   -1.3636691  0.091976193   -2.8864674    1.5227984   439061 
 2899000    1.0149477   -2.8850554   -2.8850554   -1.3626374  0.084078125   -2.8850554     1.522418   439061 
 2900000    1.0168727   -2.8876383   -2.8876383   -1.3623327  0.085125983   -2.8876383    1.5253056   439061 
 2901000     1.015869   -2.8865628   -2.8865628   -1.3627628  0.088035718   -2.8865628       1.5238   439061 
 2902000    1.0155328   -2.8853803   -2.8853803   -1.3620847  0.089066642   -2.8853803    1.5232957   439061 
 2903000    1.0161851   -2.8878754   -2.8878754   -1.3636012  0.083474761   -2.8878754    1.5242742   439061 
 2904000    1.0143381   -2.8852826   -2.8852826   -1.3637789  0.086589823   -2.8852826    1.5215037   439061 
 2905000    1.0159264   -2.8872751   -2.8872751    -1.363389  0.089340567   -2.8872751    1.5238862   439061 
 2906000    1.0156902   -2.8867908   -2.8867908    -1.363259  0.085070878   -2.8867908    1.5235318   439061 
 2907000    1.0163211   -2.8880514   -2.8880514   -1.3635731  0.088912928   -2.8880514    1.5244783   439061 
 2908000    1.0158211   -2.8880084   -2.8880084   -1.3642802  0.085637863   -2.8880084    1.5237281   439061 
 2909000    1.0144723   -2.8850968   -2.8850968   -1.3633918  0.084635162   -2.8850968     1.521705   439061 
 2910000    1.0159949   -2.8861226   -2.8861226   -1.3621337  0.082445646   -2.8861226    1.5239889   439061 
 2911000     1.017046   -2.8871004   -2.8871004   -1.3615349  0.081550855   -2.8871004    1.5255655   439061 
 2912000    1.0141254   -2.8841174   -2.8841174   -1.3629328  0.085344103   -2.8841174    1.5211847   439061 
 2913000    1.0154983   -2.8868128   -2.8868128   -1.3635688  0.086881629   -2.8868128     1.523244   439061 
 2914000    1.0145702   -2.8859707   -2.8859707   -1.3641188  0.083483591   -2.8859707    1.5218519   439061 
 2915000    1.0142604   -2.8852401   -2.8852401    -1.363853  0.085323137   -2.8852401    1.5213871   439061 
 2916000     1.015358   -2.8864578   -2.8864578   -1.3634243  0.080998229   -2.8864578    1.5230335   439061 
 2917000    1.0148604   -2.8855435   -2.8855435   -1.3632564  0.082483649   -2.8855435    1.5222871   439061 
 2918000    1.0148733   -2.8840782   -2.8840782   -1.3617718  0.086014285   -2.8840782    1.5223064   439061 
 2919000    1.0152813   -2.8833412   -2.8833412   -1.3604228  0.084737735   -2.8833412    1.5229184   439061 
 2920000    1.0160106   -2.8865723   -2.8865723   -1.3625599  0.087172738   -2.8865723    1.5240125   439061 
 2921000    1.0160307   -2.8872269   -2.8872269   -1.3631843  0.087296372   -2.8872269    1.5240426   439061 
 2922000    1.0138694   -2.8853688   -2.8853688   -1.3645681  0.082247565   -2.8853688    1.5208007   439061 
 2923000    1.0161633   -2.8885585   -2.8885585   -1.3643171  0.086786323   -2.8885585    1.5242415   439061 
 2924000    1.0156743   -2.8883649   -2.8883649    -1.364857  0.083285893   -2.8883649    1.5235079   439061 
 2925000    1.0173358   -2.8900528   -2.8900528   -1.3640526  0.087315492   -2.8900528    1.5260002   439061 
 2926000    1.0165958   -2.8885731   -2.8885731    -1.363683  0.091590803   -2.8885731    1.5248902   439061 
 2927000    1.0166376   -2.8906561   -2.8906561   -1.3657032  0.090351998   -2.8906561    1.5249529   439061 
 2928000    1.0169847   -2.8911905   -2.8911905   -1.3657169  0.090716785   -2.8911905    1.5254736   439061 
 2929000    1.0166558   -2.8893185   -2.8893185   -1.3643382  0.090505888   -2.8893185    1.5249803   439061 
 2930000    1.0168266   -2.8912717   -2.8912717   -1.3660353  0.090849268   -2.8912717    1.5252364   439061 
 2931000    1.0176824   -2.8917014   -2.8917014   -1.3651813  0.090794272   -2.8917014    1.5265201   439061 
 2932000    1.0191445   -2.8940978   -2.8940978   -1.3653846  0.093805244   -2.8940978    1.5287132   439061 
 2933000    1.0158553   -2.8885064   -2.8885064   -1.3647269  0.087852015   -2.8885064    1.5237795   439061 
 2934000    1.0174726   -2.8926693   -2.8926693   -1.3664639  0.089121629   -2.8926693    1.5262054   439061 
 2935000     1.017133   -2.8916907   -2.8916907   -1.3659947  0.087424288   -2.8916907     1.525696   439061 
 2936000    1.0180789   -2.8940087   -2.8940087   -1.3668938  0.090676028   -2.8940087    1.5271149   439061 
 2937000    1.0178276   -2.8922107   -2.8922107   -1.3654727  0.091103469   -2.8922107     1.526738   439061 
 2938000    1.0172835   -2.8907594   -2.8907594   -1.3648375  0.092139937   -2.8907594    1.5259218   439061 
 2939000     1.016627   -2.8908167   -2.8908167   -1.3658797  0.089356679   -2.8908167     1.524937   439061 
 2940000    1.0156742   -2.8897589   -2.8897589   -1.3662512  0.088699622   -2.8897589    1.5235078   439061 
 2941000    1.0147099   -2.8874012   -2.8874012   -1.3653399    0.0869385   -2.8874012    1.5220613   439061 
 2942000    1.0142893   -2.8881977   -2.8881977   -1.3667671  0.086768703   -2.8881977    1.5214305   439061 
 2943000    1.0145068   -2.8884416   -2.8884416    -1.366685  0.086260209   -2.8884416    1.5217567   439061 
 2944000     1.015482   -2.8886019   -2.8886019   -1.3653823  0.086546564   -2.8886019    1.5232195   439061 
 2945000    1.0152884   -2.8882888   -2.8882888   -1.3653596  0.090677141   -2.8882888    1.5229292   439061 
 2946000    1.0150845   -2.8871612   -2.8871612   -1.3645379   0.08814094   -2.8871612    1.5226233   439061 
 2947000    1.0136201   -2.8863241   -2.8863241   -1.3658975   0.08559825   -2.8863241    1.5204267   439061 
 2948000    1.0151354   -2.8874563   -2.8874563   -1.3647567  0.088708614   -2.8874563    1.5226996   439061 
 2949000    1.0145054   -2.8865622   -2.8865622   -1.3648075  0.089318618   -2.8865622    1.5217547   439061 
 2950000    1.0154628   -2.8861427   -2.8861427   -1.3629519  0.086137095   -2.8861427    1.5231908   439061 
 2951000    1.0148802   -2.8858817   -2.8858817   -1.3635649  0.083840669   -2.8858817    1.5223168   439061 
 2952000    1.0149446   -2.8856433   -2.8856433   -1.3632299  0.082707169   -2.8856433    1.5224134   439061 
 2953000    1.0148854   -2.8844692   -2.8844692   -1.3621447  0.082709289   -2.8844692    1.5223246   439061 
 2954000    1.0144692     -2.88398     -2.88398   -1.3622797  0.089292214     -2.88398    1.5217003   439061 
 2955000    1.0154728   -2.8851922   -2.8851922   -1.3619866  0.086808273   -2.8851922    1.5232057   439061 
 2956000    1.0168658   -2.8867923   -2.8867923    -1.361497  0.083780449   -2.8867923    1.5252952   439061 
 2957000    1.0151119   -2.8846635   -2.8846635   -1.3619991  0.084569297   -2.8846635    1.5226644   439061 
 2958000    1.0160859   -2.8846567   -2.8846567   -1.3605313  0.086118183   -2.8846567    1.5241254   439061 
 2959000    1.0156001   -2.8848119   -2.8848119   -1.3614153  0.085398495   -2.8848119    1.5233966   439061 
 2960000    1.0158139   -2.8857077   -2.8857077   -1.3619904   0.08392109   -2.8857077    1.5237173   439061 
 2961000    1.0135564   -2.8827769   -2.8827769   -1.3624458  0.091617852   -2.8827769    1.5203311   439061 
 2962000    1.0154117   -2.8863001   -2.8863001   -1.3631861  0.087197772   -2.8863001    1.5231141   439061 
 2963000    1.0158118   -2.8884776   -2.8884776   -1.3647634  0.088623009   -2.8884776    1.5237142   439061 
 2964000    1.0137138   -2.8866785   -2.8866785   -1.3661113  0.084596991   -2.8866785    1.5205672   439061 
 2965000    1.0142911   -2.8872773   -2.8872773   -1.3658442  0.088998313   -2.8872773    1.5214332   439061 
 2966000    1.0151657   -2.8891205   -2.8891205   -1.3663754  0.086001596   -2.8891205     1.522745   439061 
 2967000    1.0152211   -2.8907401   -2.8907401   -1.3679119  0.088360562   -2.8907401    1.5228282   439061 
 2968000    1.0144822   -2.8886667   -2.8886667   -1.3669469  0.089093532   -2.8886667    1.5217198   439061 
 2969000    1.0159964   -2.8890518   -2.8890518   -1.3650607  0.088988454   -2.8890518    1.5239911   439061 
 2970000    1.0160444   -2.8899525   -2.8899525   -1.3658893  0.084544967   -2.8899525    1.5240632   439061 
 2971000    1.0148875   -2.8890914   -2.8890914   -1.3667637  0.089476091   -2.8890914    1.5223277   439061 
 2972000    1.0164965   -2.8917704   -2.8917704   -1.3670291  0.086220314   -2.8917704    1.5247413   439061 
 2973000    1.0168679   -2.8924032   -2.8924032   -1.3671049  0.088186333   -2.8924032    1.5252983   439061 
 2974000    1.0158901   -2.8899875   -2.8899875   -1.3661557  0.088258767   -2.8899875    1.5238317   439061 
 2975000    1.0153517   -2.8908711   -2.8908711   -1.3678469  0.087132227   -2.8908711    1.5230241   439061 
 2976000    1.0160136   -2.8901533   -2.8901533   -1.3661364  0.088494723   -2.8901533    1.5240169   439061 
 2977000     1.016003   -2.8914396   -2.8914396   -1.3674385  0.087773611   -2.8914396     1.524001   439061 
 2978000    1.0163037   -2.8926246   -2.8926246   -1.3681726  0.091756521   -2.8926246     1.524452   439061 
 2979000    1.0146449    -2.890121    -2.890121   -1.3681572  0.090752846    -2.890121    1.5219639   439061 
 2980000    1.0139563   -2.8909919   -2.8909919   -1.3700609  0.086755529   -2.8909919     1.520931   439061 
 2981000     1.014303   -2.8931582   -2.8931582   -1.3717071  0.082230061   -2.8931582    1.5214511   439061 
 2982000    1.0143632   -2.8918437   -2.8918437   -1.3703023  0.083559895   -2.8918437    1.5215414   439061 
 2983000     1.015287   -2.8925059   -2.8925059   -1.3695788  0.085333255   -2.8925059     1.522927   439061 
 2984000     1.013872    -2.890909    -2.890909   -1.3701045  0.081163139    -2.890909    1.5208045   439061 
 2985000     1.012674   -2.8891888   -2.8891888   -1.3701813  0.087567181   -2.8891888    1.5190075   439061 
 2986000    1.0133366   -2.8905718   -2.8905718   -1.3705703  0.084357188   -2.8905718    1.5200014   439061 
 2987000    1.0126341   -2.8906035   -2.8906035   -1.3716557  0.085549572   -2.8906035    1.5189477   439061 
 2988000    1.0132313   -2.8901642   -2.8901642   -1.3703208  0.089677571   -2.8901642    1.5198434   439061 
 2989000    1.0156548     -2.89234     -2.89234   -1.3688612   0.09016569     -2.89234    1.5234788   439061 
 2990000    1.0151514   -2.8913946   -2.8913946    -1.368671  0.090924892   -2.8913946    1.5227236   439061 
 2991000    1.0166997   -2.8939752   -2.8939752   -1.3689291   0.08524208   -2.8939752    1.5250461   439061 
 2992000    1.0154641   -2.8912515   -2.8912515   -1.3680588  0.090554989   -2.8912515    1.5231927   439061 
 2993000    1.0164074   -2.8930283   -2.8930283   -1.3684206  0.084031535   -2.8930283    1.5246077   439061 
 2994000    1.0153814   -2.8915135   -2.8915135   -1.3684448  0.088277948   -2.8915135    1.5230686   439061 
 2995000    1.0168707   -2.8920227   -2.8920227   -1.3667202  0.083779101   -2.8920227    1.5253026   439061 
 2996000    1.0158899   -2.8903017   -2.8903017   -1.3664702  0.090259629   -2.8903017    1.5238314   439061 
 2997000    1.0168119    -2.893042    -2.893042   -1.3678277  0.090392829    -2.893042    1.5252143   439061 
 2998000    1.0162498   -2.8910905   -2.8910905   -1.3667194   0.08276516   -2.8910905    1.5243712   439061 
 2999000    1.0145296   -2.8883838   -2.8883838   -1.3665929  0.090476685   -2.8883838    1.5217909   439061 
 3000000    1.0172545   -2.8922525   -2.8922525   -1.3663742  0.084998415   -2.8922525    1.5258782   439061 
Loop time of 15805.7 on 96 procs for 3000000 steps with 439061 atoms

Performance: 81995.481 tau/day, 189.804 timesteps/s
90.5% CPU use with 96 MPI tasks x 1 OpenMP threads

MPI task timing breakdown:
Section |  min time  |  avg time  |  max time  |%varavg|  %CPU | %total
-----------------------------------------------------------------------
Pair    | 4890.9     | 8996.1     | 10987      |1848.8 |  97.6 | 56.92
Bond    | 2.1256     | 2.2756     | 2.4586     |   4.3 | 100.0 |  0.01
Neigh   | 1641.9     | 2296.9     | 2573.7     | 536.1 |  99.4 | 14.53
Comm    | 1297.3     | 3832.6     | 8342.1     |3121.6 |  75.6 | 24.25
Output  | 112.63     | 112.85     | 112.86     |   0.2 |  67.8 |  0.71
Modify  | 168.35     | 280.02     | 788.53     |1148.4 |  83.6 |  1.77
Other   |            | 285        |            |       |       |  1.80

Nlocal:        4573.55 ave        5213 max        4018 min
Histogram: 3 3 2 16 39 21 7 3 1 1
Nghost:        5802.54 ave        6567 max        3591 min
Histogram: 3 1 2 7 11 3 2 6 20 41
Neighs:        183261.0 ave      217322 max       63465 min
Histogram: 5 2 4 1 0 3 3 7 37 34

Total # of neighbors = 17593040
Ave neighs/atom = 40.069694
Ave special neighs/atom = 0.0000000
Neighbor list builds = 300000
Dangerous builds = 297000

write_data	data.lj
System init for write_data ...
WARNING: Not all mixed pair coeffs generated from mixing. Use write_data with 'pair ij' option to store all pair coeffs. (src/write_data.cpp:312)
Total wall time: 4:23:28
