LAMMPS (24 Dec 2020)
OMP_NUM_THREADS environment is not set. Defaulting to 1 thread. (src/comm.cpp:94)
  using 1 OpenMP thread(s) per MPI task
#Read the equilibrated lj fluid and add nanocubes

units           lj
atom_style      full
atom_modify     map array first cubes
dimension       3
boundary        p p f
pair_style      lj/cut/opt 2.5

variable        sigma           equal 1.0
variable        epsilon         equal 1.0
read_restart	restart.dat.10000000
Reading restart file ...
  restart file = 24 Dec 2020, LAMMPS = 24 Dec 2020
WARNING: Restart file used different # of processors: 288 vs. 1048 (src/read_restart.cpp:697)
  restoring atom style full from restart
  orthogonal box = (0.0000000 0.0000000 0.0000000) to (120.00000 120.00000 240.00000)
  2 by 4 by 131 MPI processor grid
  restoring pair style lj/cut/opt from restart
  1553347 atoms
Finding 1-2 1-3 1-4 neighbors ...
  special bond factors lj:    0        0        0       
  special bond factors coul:  0        0        0       
     0 = max # of 1-2 neighbors
     0 = max # of 1-3 neighbors
     0 = max # of 1-4 neighbors
     1 = max # of special neighbors
  special bonds CPU = 10.707 seconds
  read_restart CPU = 12.060 seconds

group		solvent type 1
1553347 atoms in group solvent

read_data	data3_450.cubes group cubes add append
Reading data file ...
  orthogonal box = (0.0000000 0.0000000 0.0000000) to (120.00000 120.00000 240.00000)
  2 by 4 by 131 MPI processor grid
  reading atoms ...
  560070 atoms
  reading velocities ...
  560070 velocities
Finding 1-2 1-3 1-4 neighbors ...
  special bond factors lj:    0        0        0       
  special bond factors coul:  0        0        0       
     0 = max # of 1-2 neighbors
     0 = max # of 1-3 neighbors
     0 = max # of 1-4 neighbors
     1 = max # of special neighbors
  special bonds CPU = 0.678 seconds
  read_data CPU = 4.822 seconds

group 		hull  type 2
218540 atoms in group hull
group 		dummy type 3
341530 atoms in group dummy

neighbor      0.4 bin
neigh_modify  exclude molecule/intra cubes


pair_modify   shift yes

pair_coeff    1 1 1.0 1.0 #solvent
pair_coeff    2 2 1.0 1.0 1.12 #np
pair_coeff    3 3 0.0 0.0 0.0 #dummy
pair_coeff    2 3 0.0 0.0 0.0 #np dummy
pair_coeff    1 2 ${sol} 1.0  #np solvent
pair_coeff    1 2 .675 1.0  
pair_coeff    1 3 0.0 0.0 2.5 #dummy solvent

# delete solvent where the cubes are
delete_atoms  overlap 1.0 solvent cubes
System init for delete_atoms ...
Unused restart file peratom fix info:
  fix style: STORE, fix ID: bin1_COMPUTE_STORE
Neighbor list info ...
  update every 1 steps, delay 10 steps, check yes
  max neighbors/atom: 2000, page size: 100000
  master list distance cutoff = 2.9
  ghost atom cutoff = 2.9
  binsize = 1.45, bins = 83 83 166
  2 neighbor lists, perpetual/occasional/extra = 1 1 0
  (1) command delete_atoms, occasional
      attributes: full, newton on
      pair build: full/bin
      stencil: full/bin/3d
      bin: standard
  (2) pair lj/cut/opt, perpetual
      attributes: half, newton on
      pair build: half/bin/newton
      stencil: half/bin/3d/newton
      bin: standard
WARNING: Delete_atoms cutoff > minimum neighbor cutoff (src/delete_atoms.cpp:307)
WARNING: Ignoring 'compress yes' for molecular system (src/delete_atoms.cpp:125)
Deleted 398981 atoms, new total = 1714436

pair_coeff    1 1 1.0 1.0 #solvent
pair_coeff    2 2 1.0 1.0 1.12 #np
pair_coeff    3 3 0.0 0.0 0.0 #dummy
pair_coeff    2 3 0.0 0.0 0.0 #np dummy
pair_coeff    1 2 ${sol} 1.0  #np solvent
pair_coeff    1 2 .675 1.0  
pair_coeff    1 3 0.0 0.0 0.0 #dummy solvent


comm_modify   mode multi cutoff/multi 1 2.5 cutoff/multi 2 2.5 cutoff/multi 3 6.96

reset_timestep 	0

balance 	1.05 shift z 10 1.05
Balancing ...
Neighbor list info ...
  update every 1 steps, delay 10 steps, check yes
  max neighbors/atom: 2000, page size: 100000
  master list distance cutoff = 2.9
  ghost atom cutoff = 6.96
  binsize = 1.45, bins = 83 83 166
  1 neighbor lists, perpetual/occasional/extra = 1 0 0
  (1) pair lj/cut/opt, perpetual
      attributes: half, newton on
      pair build: half/bin/newton
      stencil: half/bin/3d/newton
      bin: standard
 rebalancing time: 0.051 seconds
  iteration count = 4
  initial/final maximal load/proc = 2390.0000 2353.0000
  initial/final imbalance factor  = 1.4609586 1.4383412
  x cuts: 0.0000000 0.50000000 1.0000000
  y cuts: 0.0000000 0.25000000 0.50000000 0.75000000 1.0000000
  z cuts: 0.0000000 0.0090648855 0.015744275 0.021469466 0.027194656 0.032919847 0.038645038 0.044847328 0.050572519 0.056297710 0.062022901 0.068225191 0.072996183 0.080629771 0.085400763 0.093034351 0.097328244 0.10496183 0.10877863 0.11641221 0.12166031 0.12929389 0.13215649 0.13979008 0.14599237 0.14790076 0.15553435 0.16316794 0.17020591 0.17187424 0.17891221 0.18654580 0.19358377 0.19525211 0.20229008 0.20992366 0.21696163 0.21862997 0.22566794 0.23330153 0.24093511 0.24797309 0.24964142 0.25667939 0.26431298 0.27135095 0.27301928 0.28005725 0.28769084 0.29472881 0.29639714 0.30343511 0.31106870 0.31810667 0.31977501 0.32681298 0.33444656 0.34208015 0.34911812 0.35078646 0.35782443 0.36545802 0.37249599 0.37416432 0.38120229 0.38883588 0.39587385 0.39754218 0.40458015 0.41221374 0.41925171 0.42092004 0.42795802 0.43559160 0.44322519 0.45026316 0.45193149 0.45896947 0.46660305 0.47364102 0.47530936 0.48234733 0.48998092 0.49761450 0.50465247 0.50632081 0.51335878 0.52099237 0.52803034 0.52969867 0.53673664 0.54437023 0.55140820 0.55307653 0.56011450 0.56774809 0.57478606 0.57645440 0.58349237 0.59112595 0.59875954 0.60579751 0.60746585 0.61450382 0.62213740 0.62917538 0.63084371 0.63788168 0.64551527 0.65255324 0.65422157 0.66125954 0.66889313 0.67652672 0.68416031 0.69179389 0.69883186 0.70050020 0.70753817 0.71517176 0.72280534 0.73043893 0.73807252 0.74570611 0.75333969 0.76812977 0.80438931 0.84064885 0.87690840 0.91316794 0.95658397 1.0000000

####################### WALLS ###########################

variable       epsilonWall equal 2*${epsilon}
variable       epsilonWall equal 2*1
variable       repulsive   equal   0.7147*${sigma}
variable       repulsive   equal   0.7147*1
variable       full	   equal   3*${sigma}
variable       full	   equal   3*1
region         lowWall block EDGE EDGE EDGE EDGE EDGE 2

fix            topWall all wall/lj93 zhi EDGE 	       ${epsilonWall} ${sigma} ${repulsive} units box
fix            topWall all wall/lj93 zhi EDGE 	       2 ${sigma} ${repulsive} units box
fix            topWall all wall/lj93 zhi EDGE 	       2 1 ${repulsive} units box
fix            topWall all wall/lj93 zhi EDGE 	       2 1 0.7147 units box
fix            lowSol solvent wall/lj93 zlo EDGE                ${epsilonWall} ${sigma} ${full} units box
fix            lowSol solvent wall/lj93 zlo EDGE                2 ${sigma} ${full} units box
fix            lowSol solvent wall/lj93 zlo EDGE                2 1 ${full} units box
fix            lowSol solvent wall/lj93 zlo EDGE                2 1 3 units box
fix 	       lowCub cubes wall/lj93 zlo EDGE                ${epsilonWall} ${sigma} ${repulsive} units box
fix 	       lowCub cubes wall/lj93 zlo EDGE                2 ${sigma} ${repulsive} units box
fix 	       lowCub cubes wall/lj93 zlo EDGE                2 1 ${repulsive} units box
fix 	       lowCub cubes wall/lj93 zlo EDGE                2 1 0.7147 units box


###################### COMPUTES ##########################

compute        bin1 solvent chunk/atom bin/1d z lower 1.0 units box
compute        bin3 solvent chunk/atom bin/3d x lower 5.0 y lower 5.0 z lower 5.0 units box

compute 	pe solvent 	   pe/atom
compute 	pe2 all 	   pe/atom

######################  FIXES ############################


fix             peclet solvent ave/chunk 10 10 100000 bin1 density/number norm                  none ave one file density.profile

fix              temp solvent ave/chunk 10 10 100000 bin1 temp norm                  none ave one file temp.profile

fix 		 dens solvent ave/chunk 10 10 500000 bin3 density/number norm 		 none ave one file dens3.profile

fix 		pe solvent ave/chunk 1 1 500000 bin3 c_pe norm none ave one file pe3.profile
fix             1 cubes rigid/nve/small molecule
  create bodies CPU = 0.115 seconds
  490 rigid bodies with 560070 atoms
  6.9542847 = max distance from body owner to body atom

fix             2 solvent nve# temp ${temp} ${temp} 10


## Thermostat
region          regthermo block EDGE EDGE EDGE EDGE 0 15
group           thermo dynamic solvent region regthermo every 1000
dynamic group thermo defined
fix             3 thermo langevin ${temp} ${temp} 10 156453
fix             3 thermo langevin 1.0 ${temp} 10 156453
fix             3 thermo langevin 1.0 1.0 10 156453


#### Load balancing

fix             bal all balance 1000 1.05 shift z 10 1.05

############### Diagnostics and computes ###################


compute        	com cubes          rigid/local   1 mol x y z
compute        	quat cubes         rigid/local   1 mol quatw quati quatj quatk

compute 	cc2 cubes 	   chunk/atom 	 molecule
compute 	msd cubes 	   msd/chunk 	 cc2

fix 		msd all ave/time  1 1 10000 c_msd[*] file dump.msd ave one mode vector

dump            1 all custom 500000 dump.lammpstrj id mol type x y z vx vy vz c_pe2
dump		sol  solvent custom 500000 dump.soltrj id x y z vx vy vz c_pe
dump		cubetrj cubes custom 500000 cubes.lammpstrj id mol type x y z vx vy vz
#dump            com cubes local 100000 dump.*.xyz c_com[*]
#dump	        xyz hull xyz 100000 cubes.xyz
#dump            quat cubes      local 100000 dump.*.quat c_quat[*]
dump		order cubes 	local 500000 dump.*.order c_com[*] c_quat[*]
#dump		mol cubes molfile 10000 mol.xyz xyz


dump            2 all image 500000 image.*.png type type zoom 1.5 size 1280 720
dump_modify     2 pad 8
dump		image cubes image 500000 image_cubes.*.png type type zoom 1.5 size 1280 720
dump_modify	image pad 8
dump            3 all movie 10000 movie.avi type type zoom 1.5 size 1280 720
dump		4 cubes movie 10000 movie_cubes.avi type type size 1280 720


thermo          1000
thermo_style    custom step temp epair evdwl etotal press pe ke atoms

restart         1000000 restart.dat
timestep        0.005
timer           full
New timer settings: style=full  mode=nosync  timeout=off

run 		10000000
Per MPI rank memory allocation (min/avg/max) = 15.66 | 24.49 | 34.41 Mbytes
Step Temp E_pair E_vdwl TotEng Press PotEng KinEng Atoms 
       0    1.0089585   -2.1411737   -2.1411737   -1.1212799  -0.12335661   -2.1411737    1.0198938  1714436 
    1000    1.0095787   -2.1424424   -2.1424424   -1.1219216  0.060037961   -2.1424424    1.0205208  1714436 
    2000    1.0089574   -2.1422328   -2.1422328   -1.1223401   0.06482836   -2.1422328    1.0198927  1714436 
    3000    1.0090416    -2.142404    -2.142404   -1.1224261  0.064053671    -2.142404    1.0199779  1714436 
    4000    1.0097412   -2.1433812   -2.1433812   -1.1226962  0.060189739   -2.1433812     1.020685  1714436 
    5000     1.008573    -2.142556    -2.142556   -1.1230519  0.066915251    -2.142556    1.0195041  1714436 
    6000    1.0074228   -2.1414686   -2.1414686    -1.123127  0.061011003   -2.1414686    1.0183415  1714436 
    7000    1.0075263   -2.1420149   -2.1420149   -1.1235688  0.058209964   -2.1420149    1.0184461  1714436 
    8000    1.0072172   -2.1418532   -2.1418532   -1.1237196  0.063690938   -2.1418532    1.0181336  1714436 
    9000    1.0072793   -2.1423756   -2.1423756   -1.1241792  0.061900417   -2.1423756    1.0181964  1714436 
   10000    1.0075861   -2.1426576   -2.1426576    -1.124151  0.062252482   -2.1426576    1.0185066  1714436 
   11000     1.007027   -2.1422773   -2.1422773   -1.1243358  0.063856376   -2.1422773    1.0179414  1714436 
   12000     1.006193   -2.1417109   -2.1417109   -1.1246125  0.065537378   -2.1417109    1.0170984  1714436 
   13000    1.0065624   -2.1423187   -2.1423187   -1.1248469  0.064886487   -2.1423187    1.0174717  1714436 
   14000    1.0070941   -2.1432225   -2.1432225   -1.1252133  0.060591627   -2.1432225    1.0180092  1714436 
   15000    1.0065838   -2.1431314   -2.1431314    -1.125638  0.063098729   -2.1431314    1.0174934  1714436 
   16000    1.0066315    -2.143272    -2.143272   -1.1257304  0.056773343    -2.143272    1.0175417  1714436 
   17000    1.0063053   -2.1430801   -2.1430801   -1.1258682  0.061723035   -2.1430801    1.0172119  1714436 
   18000    1.0062681   -2.1431955   -2.1431955   -1.1260212  0.062357625   -2.1431955    1.0171743  1714436 
   19000    1.0066742   -2.1434119   -2.1434119   -1.1258271  0.064815535   -2.1434119    1.0175848  1714436 
   20000    1.0076182   -2.1439656   -2.1439656   -1.1254265   0.06587897   -2.1439656     1.018539  1714436 
   21000    1.0077044   -2.1442403   -2.1442403   -1.1256141  0.064786676   -2.1442403    1.0186262  1714436 
   22000    1.0074299   -2.1439623   -2.1439623   -1.1256136  0.065275058   -2.1439623    1.0183487  1714436 
   23000    1.0081326   -2.1449757   -2.1449757   -1.1259167  0.065108862   -2.1449757     1.019059  1714436 
   24000    1.0076401   -2.1448234   -2.1448234   -1.1262622  0.061478709   -2.1448234    1.0185612  1714436 
   25000    1.0079757   -2.1450607   -2.1450607   -1.1261603  0.062444824   -2.1450607    1.0189004  1714436 
   26000     1.009183   -2.1463555   -2.1463555   -1.1262347  0.062289285   -2.1463555    1.0201208  1714436 
   27000    1.0083368   -2.1457622   -2.1457622   -1.1264969  0.061151594   -2.1457622    1.0192654  1714436 
   28000     1.009056   -2.1465832   -2.1465832   -1.1265908  0.061571304   -2.1465832    1.0199924  1714436 
   29000    1.0085168   -2.1462058   -2.1462058   -1.1267583  0.063603645   -2.1462058    1.0194474  1714436 
   30000    1.0086395   -2.1460705   -2.1460705   -1.1264991  0.065728447   -2.1460705    1.0195714  1714436 
   31000    1.0093763   -2.1468012   -2.1468012   -1.1264851  0.060527356   -2.1468012    1.0203161  1714436 
   32000    1.0090544   -2.1464046   -2.1464046   -1.1264139  0.064784423   -2.1464046    1.0199907  1714436 
   33000    1.0093555   -2.1468907   -2.1468907   -1.1265955  0.064472032   -2.1468907    1.0202952  1714436 
   34000    1.0093562   -2.1473448   -2.1473448    -1.127049  0.066229008   -2.1473448    1.0202959  1714436 
   35000    1.0088619   -2.1470693   -2.1470693   -1.1272731  0.062248734   -2.1470693    1.0197962  1714436 
   36000    1.0088761   -2.1472739   -2.1472739   -1.1274633  0.062096001   -2.1472739    1.0198106  1714436 
   37000    1.0075456   -2.1458359   -2.1458359   -1.1273703  0.069947668   -2.1458359    1.0184656  1714436 
   38000    1.0094496   -2.1481448   -2.1481448   -1.1277545  0.064708268   -2.1481448    1.0203903  1714436 
   39000    1.0086221   -2.1478226   -2.1478226   -1.1282687  0.066315184   -2.1478226    1.0195539  1714436 
   40000      1.01032   -2.1495686   -2.1495686   -1.1282985  0.064101508   -2.1495686    1.0212701  1714436 
   41000    1.0086896   -2.1477071   -2.1477071    -1.128085  0.069329949   -2.1477071    1.0196221  1714436 
   42000    1.0092963   -2.1485782   -2.1485782   -1.1283429  0.067558113   -2.1485782    1.0202353  1714436 
   43000    1.0089916   -2.1483851   -2.1483851   -1.1284578  0.066420813   -2.1483851    1.0199273  1714436 
   44000    1.0085652   -2.1482577   -2.1482577   -1.1287614  0.063561948   -2.1482577    1.0194963  1714436 
   45000    1.0085148   -2.1479473   -2.1479473    -1.128502  0.064829441   -2.1479473    1.0194454  1714436 
   46000    1.0089991   -2.1484708   -2.1484708   -1.1285358  0.063306387   -2.1484708    1.0199349  1714436 
   47000    1.0078646   -2.1473702   -2.1473702   -1.1285821  0.065060811   -2.1473702    1.0187881  1714436 
   48000    1.0080005   -2.1476493   -2.1476493   -1.1287238  0.062541682   -2.1476493    1.0189255  1714436 
   49000    1.0083114   -2.1477136   -2.1477136   -1.1284738  0.067326679   -2.1477136    1.0192397  1714436 
   50000    1.0076977   -2.1473431   -2.1473431   -1.1287237  0.068459719   -2.1473431    1.0186194  1714436 
   51000    1.0088487   -2.1485209   -2.1485209   -1.1287381  0.065295779   -2.1485209    1.0197829  1714436 
   52000    1.0085746   -2.1478982   -2.1478982   -1.1283924  0.067971773   -2.1478982    1.0195058  1714436 
   53000    1.0089838   -2.1486908   -2.1486908   -1.1287714  0.066110626   -2.1486908    1.0199194  1714436 
   54000    1.0080256   -2.1481644   -2.1481644   -1.1292135  0.066263401   -2.1481644    1.0189509  1714436 
   55000    1.0093512   -2.1495451   -2.1495451   -1.1292543  0.065728428   -2.1495451    1.0202908  1714436 
   56000    1.0094717   -2.1487379   -2.1487379   -1.1283253  0.065659584   -2.1487379    1.0204126  1714436 
   57000    1.0093376   -2.1484428   -2.1484428   -1.1281657  0.067655598   -2.1484428    1.0202771  1714436 
   58000    1.0089976   -2.1481375   -2.1481375   -1.1282041  0.062840126   -2.1481375    1.0199334  1714436 
   59000    1.0077882   -2.1474839   -2.1474839    -1.128773  0.062889568   -2.1474839    1.0187109  1714436 
   60000    1.0077136   -2.1473667   -2.1473667   -1.1287312  0.061132082   -2.1473667    1.0186355  1714436 
   61000    1.0077785   -2.1470704   -2.1470704   -1.1283693  0.059813115   -2.1470704    1.0187011  1714436 
   62000    1.0074869   -2.1470006   -2.1470006   -1.1285943  0.066243776   -2.1470006    1.0184063  1714436 
   63000    1.0078856   -2.1472188   -2.1472188   -1.1284095  0.062877871   -2.1472188    1.0188094  1714436 
   64000    1.0075191   -2.1468713   -2.1468713   -1.1284324    0.0629373   -2.1468713    1.0184389  1714436 
   65000     1.007631   -2.1468901   -2.1468901   -1.1283381  0.061438784   -2.1468901     1.018552  1714436 
   66000    1.0074893   -2.1466833   -2.1466833   -1.1282745  0.059363332   -2.1466833    1.0184088  1714436 
   67000    1.0073417   -2.1469329   -2.1469329   -1.1286734  0.061343828   -2.1469329    1.0182595  1714436 
   68000    1.0069413   -2.1467283   -2.1467283   -1.1288735  0.060712004   -2.1467283    1.0178548  1714436 
   69000    1.0069922    -2.146458    -2.146458   -1.1285517  0.061307731    -2.146458    1.0179062  1714436 
   70000    1.0066356   -2.1460557   -2.1460557     -1.12851  0.061466269   -2.1460557    1.0175458  1714436 
   71000    1.0067216   -2.1465268   -2.1465268    -1.128894  0.063313717   -2.1465268    1.0176327  1714436 
   72000    1.0069716   -2.1465541   -2.1465541   -1.1286687  0.060547319   -2.1465541    1.0178854  1714436 
   73000    1.0072554   -2.1468408   -2.1468408   -1.1286686  0.058591621   -2.1468408    1.0181723  1714436 
   74000    1.0064808   -2.1457352   -2.1457352   -1.1283459  0.064451009   -2.1457352    1.0173893  1714436 
   75000    1.0066357   -2.1461407   -2.1461407   -1.1285948  0.055304797   -2.1461407    1.0175459  1714436 
   76000     1.006021   -2.1456194   -2.1456194   -1.1286948  0.061473146   -2.1456194    1.0169246  1714436 
   77000    1.0069362   -2.1464776   -2.1464776    -1.128628  0.057666617   -2.1464776    1.0178496  1714436 
   78000    1.0067001   -2.1463576   -2.1463576   -1.1287467  0.061773598   -2.1463576    1.0176109  1714436 
   79000    1.0070158    -2.146471    -2.146471   -1.1285409  0.061341738    -2.146471    1.0179301  1714436 
   80000    1.0063101    -2.145827    -2.145827   -1.1286103   0.06268789    -2.145827    1.0172167  1714436 
   81000     1.007222    -2.146044    -2.146044   -1.1279054  0.061581813    -2.146044    1.0181385  1714436 
   82000    1.0066304   -2.1456601   -2.1456601   -1.1281195  0.060489223   -2.1456601    1.0175406  1714436 
   83000    1.0074303   -2.1462956   -2.1462956   -1.1279466  0.065081867   -2.1462956    1.0183491  1714436 
   84000    1.0074358    -2.146496    -2.146496   -1.1281413  0.063750704    -2.146496    1.0183547  1714436 
   85000    1.0075199   -2.1465514   -2.1465514   -1.1281117  0.062454378   -2.1465514    1.0184397  1714436 
   86000    1.0076041   -2.1463394   -2.1463394   -1.1278147  0.063561649   -2.1463394    1.0185247  1714436 
   87000    1.0088355   -2.1475013   -2.1475013   -1.1277317  0.067035088   -2.1475013    1.0197696  1714436 
   88000    1.0084424   -2.1471718   -2.1471718   -1.1277996   0.06089869   -2.1471718    1.0193721  1714436 
   89000    1.0079476   -2.1468675   -2.1468675   -1.1279955  0.064612253   -2.1468675     1.018872  1714436 
   90000    1.0076878    -2.146881    -2.146881   -1.1282716  0.066346817    -2.146881    1.0186094  1714436 
   91000    1.0075789   -2.1474007   -2.1474007   -1.1289014  0.060443434   -2.1474007    1.0184993  1714436 
   92000    1.0078589   -2.1473399   -2.1473399   -1.1285575  0.059891695   -2.1473399    1.0187824  1714436 
   93000    1.0073048   -2.1470936   -2.1470936   -1.1288714  0.062253447   -2.1470936    1.0182222  1714436 
   94000    1.0087895   -2.1484613   -2.1484613   -1.1287383  0.059840069   -2.1484613     1.019723  1714436 
   95000    1.0073119   -2.1470958   -2.1470958   -1.1288664  0.061067563   -2.1470958    1.0182294  1714436 
   96000    1.0083287   -2.1478646   -2.1478646   -1.1286074  0.060352001   -2.1478646    1.0192572  1714436 
   97000    1.0081214    -2.147938    -2.147938   -1.1288903    0.0649609    -2.147938    1.0190477  1714436 
   98000     1.008413   -2.1481825   -2.1481825     -1.12884  0.063905934   -2.1481825    1.0193424  1714436 
   99000    1.0089226   -2.1487782   -2.1487782   -1.1289207  0.063515133   -2.1487782    1.0198575  1714436 
  100000    1.0082053   -2.1485341   -2.1485341   -1.1294016  0.067225814   -2.1485341    1.0191325  1714436 
  101000    1.0076851   -2.1481053   -2.1481053   -1.1294987  0.066501662   -2.1481053    1.0186067  1714436 
  102000    1.0083799   -2.1490991   -2.1490991   -1.1297901  0.060075954   -2.1490991    1.0193089  1714436 
  103000    1.0073748   -2.1483936   -2.1483936   -1.1301006  0.063181964   -2.1483936     1.018293  1714436 
  104000    1.0076734   -2.1484873   -2.1484873   -1.1298925  0.059468759   -2.1484873    1.0185948  1714436 
  105000    1.0085036   -2.1490205   -2.1490205   -1.1295864  0.064212055   -2.1490205    1.0194341  1714436 
  106000    1.0087649   -2.1491867   -2.1491867   -1.1294885  0.063458157   -2.1491867    1.0196982  1714436 
  107000    1.0078509   -2.1483835   -2.1483835   -1.1296092  0.062854342   -2.1483835    1.0187743  1714436 
  108000    1.0088754   -2.1489663   -2.1489663   -1.1291564  0.061100266   -2.1489663    1.0198099  1714436 
  109000    1.0076413   -2.1481625   -2.1481625   -1.1296001  0.062873763   -2.1481625    1.0185624  1714436 
  110000    1.0079268   -2.1485234   -2.1485234   -1.1296725   0.06203925   -2.1485234    1.0188509  1714436 
  111000    1.0081582   -2.1484299   -2.1484299    -1.129345  0.060262658   -2.1484299    1.0190849  1714436 
  112000    1.0088306    -2.149156    -2.149156   -1.1293915    0.0644934    -2.149156    1.0197645  1714436 
  113000    1.0089493   -2.1494404   -2.1494404   -1.1295559  0.063657721   -2.1494404    1.0198845  1714436 
  114000     1.008085   -2.1487589   -2.1487589    -1.129748  0.062853606   -2.1487589    1.0190109  1714436 
  115000    1.0082366   -2.1490966   -2.1490966   -1.1299325  0.070090193   -2.1490966    1.0191641  1714436 
  116000    1.0082301    -2.149019    -2.149019   -1.1298614  0.062119823    -2.149019    1.0191576  1714436 
  117000    1.0082682   -2.1490901   -2.1490901    -1.129894  0.066962741   -2.1490901    1.0191961  1714436 
  118000    1.0080864   -2.1488243   -2.1488243    -1.129812  0.062227293   -2.1488243    1.0190123  1714436 
  119000    1.0081321   -2.1491158   -2.1491158   -1.1300573  0.067540177   -2.1491158    1.0190585  1714436 
  120000    1.0075222   -2.1483393   -2.1483393   -1.1298973  0.067423142   -2.1483393     1.018442  1714436 
  121000    1.0089115   -2.1497961   -2.1497961   -1.1299497  0.063515631   -2.1497961    1.0198464  1714436 
  122000      1.00795   -2.1491051   -2.1491051   -1.1302307  0.058508819   -2.1491051    1.0188744  1714436 
  123000    1.0079357   -2.1490775   -2.1490775   -1.1302176  0.062482317   -2.1490775    1.0188599  1714436 
  124000    1.0070935   -2.1478717   -2.1478717   -1.1298631  0.064162982   -2.1478717    1.0180086  1714436 
  125000    1.0068026   -2.1475728   -2.1475728   -1.1298583    0.0658264   -2.1475728    1.0177145  1714436 
  126000    1.0071919   -2.1481077   -2.1481077   -1.1299996  0.068612747   -2.1481077    1.0181081  1714436 
  127000    1.0071057   -2.1483005   -2.1483005   -1.1302796  0.065300245   -2.1483005    1.0180209  1714436 
  128000     1.007545   -2.1488767   -2.1488767   -1.1304116  0.069220755   -2.1488767    1.0184651  1714436 
  129000    1.0066218   -2.1486188   -2.1486188    -1.131087  0.064168601   -2.1486188    1.0175318  1714436 
  130000    1.0070752   -2.1489322   -2.1489322   -1.1309421  0.064604647   -2.1489322    1.0179901  1714436 
  131000    1.0064637   -2.1479449   -2.1479449   -1.1305729  0.063714381   -2.1479449     1.017372  1714436 
  132000    1.0082016   -2.1493784   -2.1493784   -1.1302496   0.06565223   -2.1493784    1.0191288  1714436 
  133000    1.0073842   -2.1487408   -2.1487408   -1.1304383  0.061207343   -2.1487408    1.0183025  1714436 
  134000    1.0078857   -2.1490982   -2.1490982   -1.1302887  0.061605343   -2.1490982    1.0188095  1714436 
  135000    1.0083408   -2.1492776   -2.1492776   -1.1300081  0.061691086   -2.1492776    1.0192694  1714436 
  136000    1.0078609   -2.1483953   -2.1483953    -1.129611  0.063622657   -2.1483953    1.0187843  1714436 
  137000    1.0090695    -2.149685    -2.149685   -1.1296789  0.070372528    -2.149685     1.020006  1714436 
  138000    1.0077352   -2.1488126   -2.1488126   -1.1301552  0.061953782   -2.1488126    1.0186573  1714436 
  139000    1.0076259   -2.1488258   -2.1488258   -1.1302791  0.064999605   -2.1488258    1.0185468  1714436 
  140000     1.007013   -2.1485953   -2.1485953    -1.130668  0.064681486   -2.1485953    1.0179272  1714436 
  141000     1.007035   -2.1483234   -2.1483234   -1.1303739  0.059608751   -2.1483234    1.0179495  1714436 
  142000    1.0070894    -2.148785    -2.148785   -1.1307805  0.062373347    -2.148785    1.0180045  1714436 
  143000     1.007671   -2.1491568   -2.1491568   -1.1305644  0.065209917   -2.1491568    1.0185924  1714436 
  144000    1.0079997   -2.1489233   -2.1489233   -1.1299986  0.064474325   -2.1489233    1.0189246  1714436 
  145000      1.00777   -2.1489038   -2.1489038   -1.1302114  0.062351272   -2.1489038    1.0186925  1714436 
  146000    1.0076152   -2.1490942   -2.1490942   -1.1305582  0.063208717   -2.1490942     1.018536  1714436 
  147000    1.0076137    -2.149416    -2.149416   -1.1308815  0.063202024    -2.149416    1.0185345  1714436 
  148000    1.0070699   -2.1483672   -2.1483672   -1.1303824  0.069045614   -2.1483672    1.0179848  1714436 
  149000    1.0074591   -2.1487876   -2.1487876   -1.1304095  0.062716521   -2.1487876    1.0183782  1714436 
  150000    1.0078179   -2.1494058   -2.1494058   -1.1306649  0.058564433   -2.1494058    1.0187409  1714436 
  151000    1.0075083   -2.1493892   -2.1493892   -1.1309612  0.062547867   -2.1493892     1.018428  1714436 
  152000    1.0077732   -2.1492822   -2.1492822   -1.1305865  0.059542359   -2.1492822    1.0186957  1714436 
  153000    1.0075161    -2.148887    -2.148887   -1.1304512  0.064029654    -2.148887    1.0184358  1714436 
  154000    1.0080688   -2.1493148   -2.1493148   -1.1303202  0.066737736   -2.1493148    1.0189945  1714436 
  155000    1.0079707   -2.1491921   -2.1491921   -1.1302967  0.066192134   -2.1491921    1.0188953  1714436 
  156000    1.0086381   -2.1500105   -2.1500105   -1.1304405  0.066766807   -2.1500105    1.0195699  1714436 
  157000    1.0081882   -2.1496768   -2.1496768   -1.1305615  0.062850661   -2.1496768    1.0191152  1714436 
  158000    1.0073304   -2.1492926   -2.1492926   -1.1310445  0.061063889   -2.1492926    1.0182481  1714436 
  159000    1.0068732    -2.149104    -2.149104   -1.1313181  0.061185397    -2.149104    1.0177859  1714436 
  160000    1.0083664   -2.1501324   -2.1501324    -1.130837  0.060588756   -2.1501324    1.0192954  1714436 
  161000    1.0067511   -2.1489658   -2.1489658   -1.1313032  0.060768902   -2.1489658    1.0176626  1714436 
  162000    1.0080067   -2.1494874   -2.1494874   -1.1305557  0.058294785   -2.1494874    1.0189317  1714436 
  163000    1.0079448    -2.149342    -2.149342   -1.1304728  0.065520006    -2.149342    1.0188692  1714436 
  164000    1.0081242   -2.1499703   -2.1499703   -1.1309198  0.066378422   -2.1499703    1.0190505  1714436 
  165000    1.0081786   -2.1498212   -2.1498212   -1.1307157  0.065083445   -2.1498212    1.0191055  1714436 
  166000    1.0081545   -2.1501345   -2.1501345   -1.1310534  0.062684898   -2.1501345    1.0190811  1714436 
  167000    1.0082175   -2.1502306   -2.1502306   -1.1310858  0.065410478   -2.1502306    1.0191448  1714436 
  168000    1.0084018   -2.1505432   -2.1505432    -1.131212   0.06330986   -2.1505432    1.0193311  1714436 
  169000    1.0077997   -2.1497411   -2.1497411   -1.1310186  0.063576539   -2.1497411    1.0187225  1714436 
  170000    1.0080093   -2.1497411   -2.1497411   -1.1308067  0.060654577   -2.1497411    1.0189344  1714436 
  171000    1.0081187   -2.1497301   -2.1497301   -1.1306852  0.061296499   -2.1497301     1.019045  1714436 
  172000    1.0082683   -2.1499897   -2.1499897   -1.1307936  0.066269122   -2.1499897    1.0191962  1714436 
  173000    1.0083305   -2.1502954   -2.1502954   -1.1310364  0.064124528   -2.1502954     1.019259  1714436 
  174000    1.0069937   -2.1492156   -2.1492156   -1.1313078  0.066342851   -2.1492156    1.0179078  1714436 
  175000    1.0080106   -2.1501634   -2.1501634   -1.1312278  0.065774691   -2.1501634    1.0189357  1714436 
  176000    1.0069807   -2.1495557   -2.1495557   -1.1316611  0.063202812   -2.1495557    1.0178946  1714436 
  177000    1.0073751   -2.1500229   -2.1500229   -1.1317296  0.064277357   -2.1500229    1.0182933  1714436 
  178000    1.0071608   -2.1496081   -2.1496081   -1.1315315  0.065256165   -2.1496081    1.0180766  1714436 
  179000    1.0086241   -2.1508983   -2.1508983   -1.1313425   0.06306789   -2.1508983    1.0195559  1714436 
  180000    1.0092231   -2.1512459   -2.1512459   -1.1310846  0.064365826   -2.1512459    1.0201614  1714436 
  181000    1.0087674   -2.1510156   -2.1510156   -1.1313149  0.066271485   -2.1510156    1.0197007  1714436 
  182000    1.0078382   -2.1502329   -2.1502329   -1.1314715  0.061142946   -2.1502329    1.0187614  1714436 
  183000    1.0080168   -2.1506164   -2.1506164   -1.1316745  0.063709468   -2.1506164    1.0189419  1714436 
  184000    1.0084525    -2.150999    -2.150999   -1.1316166   0.06541057    -2.150999    1.0193824  1714436 
  185000    1.0081746    -2.150806    -2.150806   -1.1317045  0.064281242    -2.150806    1.0191015  1714436 
  186000    1.0077803   -2.1501134   -2.1501134   -1.1314104  0.065530258   -2.1501134    1.0187029  1714436 
  187000    1.0084492   -2.1507386   -2.1507386   -1.1313596  0.065750972   -2.1507386     1.019379  1714436 
  188000    1.0079665   -2.1502141   -2.1502141    -1.131323  0.066028375   -2.1502141    1.0188911  1714436 
  189000    1.0079191   -2.1505635   -2.1505635   -1.1317203  0.069638948   -2.1505635    1.0188432  1714436 
  190000    1.0080851   -2.1507837   -2.1507837   -1.1317727  0.064467917   -2.1507837     1.019011  1714436 
  191000    1.0082881   -2.1514993   -2.1514993   -1.1322831  0.061403919   -2.1514993    1.0192162  1714436 
  192000    1.0078716   -2.1512503   -2.1512503   -1.1324551  0.059300896   -2.1512503    1.0187952  1714436 
  193000    1.0075333   -2.1507316   -2.1507316   -1.1322784  0.064691939   -2.1507316    1.0184532  1714436 
  194000    1.0075582   -2.1511954   -2.1511954   -1.1327171  0.063739323   -2.1511954    1.0184784  1714436 
  195000    1.0074258   -2.1510342   -2.1510342   -1.1326896  0.065712807   -2.1510342    1.0183445  1714436 
  196000    1.0075088   -2.1510059   -2.1510059   -1.1325775  0.069347147   -2.1510059    1.0184284  1714436 
  197000    1.0076163   -2.1512847   -2.1512847   -1.1327476  0.061995711   -2.1512847    1.0185371  1714436 
  198000    1.0074392   -2.1507993   -2.1507993   -1.1324412  0.066647385   -2.1507993    1.0183581  1714436 
  199000     1.007806   -2.1514997   -2.1514997   -1.1327709  0.064051838   -2.1514997    1.0187288  1714436 
  200000    1.0084356    -2.152377    -2.152377   -1.1330117  0.065398139    -2.152377    1.0193653  1714436 
  201000    1.0086789   -2.1527006   -2.1527006   -1.1330894  0.063466722   -2.1527006    1.0196113  1714436 
  202000    1.0087894   -2.1525961   -2.1525961   -1.1328732  0.060304837   -2.1525961    1.0197229  1714436 
  203000    1.0075186   -2.1514622   -2.1514622   -1.1330238  0.064668952   -2.1514622    1.0184384  1714436 
  204000    1.0077375   -2.1519152   -2.1519152   -1.1332555  0.062008117   -2.1519152    1.0186596  1714436 
  205000    1.0074461   -2.1515706   -2.1515706   -1.1332056  0.065230675   -2.1515706    1.0183651  1714436 
  206000    1.0079874    -2.152165    -2.152165   -1.1332528  0.064661942    -2.152165    1.0189122  1714436 
  207000    1.0083561   -2.1519308   -2.1519308   -1.1326459  0.068120014   -2.1519308    1.0192849  1714436 
  208000    1.0074696   -2.1513963   -2.1513963   -1.1330075  0.064516092   -2.1513963    1.0183888  1714436 
  209000    1.0081373   -2.1523094   -2.1523094   -1.1332456  0.063953873   -2.1523094    1.0190638  1714436 
  210000    1.0077235   -2.1515797   -2.1515797   -1.1329342  0.068127502   -2.1515797    1.0186455  1714436 
  211000    1.0075144   -2.1515806   -2.1515806   -1.1331465  0.066114742   -2.1515806    1.0184341  1714436 
  212000    1.0086771   -2.1525727   -2.1525727   -1.1329633  0.062462721   -2.1525727    1.0196094  1714436 
  213000    1.0087158   -2.1526777   -2.1526777   -1.1330292  0.063500655   -2.1526777    1.0196485  1714436 
  214000     1.008599   -2.1524988   -2.1524988   -1.1329684  0.066235598   -2.1524988    1.0195304  1714436 
  215000    1.0092977   -2.1532586   -2.1532586   -1.1330219  0.064481829   -2.1532586    1.0202367  1714436 
  216000    1.0080925   -2.1525305   -2.1525305    -1.133512  0.065131231   -2.1525305    1.0190185  1714436 
  217000    1.0077866   -2.1523598   -2.1523598   -1.1336506  0.065644536   -2.1523598    1.0187092  1714436 
  218000    1.0092239   -2.1537301   -2.1537301    -1.133568  0.063983595   -2.1537301    1.0201621  1714436 
  219000    1.0080933   -2.1525031   -2.1525031   -1.1334838  0.063696161   -2.1525031    1.0190193  1714436 
  220000    1.0084283   -2.1524917   -2.1524917   -1.1331338  0.065085715   -2.1524917    1.0193579  1714436 
  221000    1.0093181   -2.1535369   -2.1535369   -1.1332795  0.056114276   -2.1535369    1.0202574  1714436 
  222000     1.008663   -2.1529946   -2.1529946   -1.1333994  0.063654582   -2.1529946    1.0195952  1714436 
  223000    1.0084356   -2.1530717   -2.1530717   -1.1337064  0.064973763   -2.1530717    1.0193653  1714436 
  224000    1.0078756   -2.1526092   -2.1526092   -1.1338099  0.063484792   -2.1526092    1.0187993  1714436 
  225000    1.0084664    -2.153039    -2.153039   -1.1336426  0.064287631    -2.153039    1.0193964  1714436 
  226000    1.0089113   -2.1538516   -2.1538516   -1.1340054  0.064200502   -2.1538516    1.0198462  1714436 
  227000    1.0085592    -2.153272    -2.153272   -1.1337817  0.060915649    -2.153272    1.0194902  1714436 
  228000    1.0083497   -2.1529875   -2.1529875   -1.1337091  0.059898635   -2.1529875    1.0192785  1714436 
  229000    1.0084955   -2.1529264   -2.1529264   -1.1335007  0.063312448   -2.1529264    1.0194258  1714436 
  230000    1.0076198     -2.15253     -2.15253   -1.1339894  0.062712132     -2.15253    1.0185407  1714436 
  231000    1.0082084   -2.1529996   -2.1529996   -1.1338639  0.062491106   -2.1529996    1.0191357  1714436 
  232000    1.0074046   -2.1521864   -2.1521864   -1.1338633   0.06374992   -2.1521864    1.0183231  1714436 
  233000    1.0074185   -2.1521043   -2.1521043   -1.1337672  0.063055201   -2.1521043    1.0183372  1714436 
  234000    1.0078551   -2.1524314   -2.1524314    -1.133653  0.063221002   -2.1524314    1.0187785  1714436 
  235000    1.0081461   -2.1529221   -2.1529221   -1.1338495  0.063934598   -2.1529221    1.0190726  1714436 
  236000    1.0075363   -2.1523136   -2.1523136   -1.1338574   0.06059099   -2.1523136    1.0184562  1714436 
  237000    1.0075387   -2.1520555   -2.1520555   -1.1335969  0.065916258   -2.1520555    1.0184587  1714436 
  238000    1.0089777   -2.1532891   -2.1532891   -1.1333759  0.066563208   -2.1532891    1.0199132  1714436 
  239000     1.008795   -2.1532005   -2.1532005   -1.1334719  0.064922396   -2.1532005    1.0197286  1714436 
  240000    1.0069909   -2.1519443   -2.1519443   -1.1340393  0.057756503   -2.1519443    1.0179049  1714436 
  241000    1.0077882   -2.1523889   -2.1523889   -1.1336781  0.063658945   -2.1523889    1.0187108  1714436 
  242000    1.0078429   -2.1521537   -2.1521537   -1.1333875  0.064176725   -2.1521537    1.0187661  1714436 
  243000    1.0069696   -2.1512441   -2.1512441   -1.1333607  0.063483183   -2.1512441    1.0178834  1714436 
  244000    1.0070842   -2.1515961   -2.1515961   -1.1335969  0.067201742   -2.1515961    1.0179992  1714436 
  245000     1.007857   -2.1525219   -2.1525219   -1.1337416  0.067766688   -2.1525219    1.0187804  1714436 
  246000    1.0089707   -2.1535118   -2.1535118   -1.1336056  0.064989421   -2.1535118    1.0199061  1714436 
  247000    1.0075106   -2.1525486   -2.1525486   -1.1341184  0.061264032   -2.1525486    1.0184302  1714436 
  248000    1.0074737   -2.1519315   -2.1519315   -1.1335386  0.065937409   -2.1519315     1.018393  1714436 
  249000    1.0087851    -2.153238    -2.153238   -1.1335194  0.062960663    -2.153238    1.0197186  1714436 
  250000    1.0076508   -2.1521332   -2.1521332   -1.1335613  0.068839068   -2.1521332    1.0185719  1714436 
  251000    1.0071791   -2.1518788   -2.1518788   -1.1337836  0.067732046   -2.1518788    1.0180952  1714436 
  252000    1.0079564   -2.1525578   -2.1525578    -1.133677  0.066796202   -2.1525578    1.0188808  1714436 
  253000    1.0090996   -2.1536499   -2.1536499   -1.1336135  0.062638009   -2.1536499    1.0200365  1714436 
  254000    1.0067659   -2.1512461   -2.1512461   -1.1335686  0.071239701   -2.1512461    1.0176774  1714436 
  255000    1.0068127   -2.1511271   -2.1511271   -1.1334023  0.066391781   -2.1511271    1.0177248  1714436 
  256000    1.0075403   -2.1520016   -2.1520016   -1.1335413  0.061798957   -2.1520016    1.0184603  1714436 
  257000    1.0078191   -2.1525018   -2.1525018   -1.1337597  0.062297181   -2.1525018    1.0187421  1714436 
  258000    1.0074935   -2.1526401   -2.1526401   -1.1342272  0.059793449   -2.1526401     1.018413  1714436 
  259000     1.007898   -2.1529652   -2.1529652   -1.1341434  0.062553265   -2.1529652    1.0188218  1714436 
  260000     1.007685   -2.1524895   -2.1524895    -1.133883  0.064001993   -2.1524895    1.0186065  1714436 
  261000    1.0088713   -2.1532185   -2.1532185   -1.1334129  0.067683863   -2.1532185    1.0198057  1714436 
  262000    1.0088767   -2.1534017   -2.1534017   -1.1335905  0.065657416   -2.1534017    1.0198112  1714436 
  263000    1.0079527   -2.1527296   -2.1527296   -1.1338524  0.064741877   -2.1527296    1.0188772  1714436 
  264000    1.0086877   -2.1535466   -2.1535466   -1.1339265  0.069409187   -2.1535466    1.0196201  1714436 
  265000    1.0085583   -2.1539072   -2.1539072   -1.1344179   0.06049073   -2.1539072    1.0194893  1714436 
  266000    1.0082955   -2.1532689   -2.1532689   -1.1340452  0.063177571   -2.1532689    1.0192237  1714436 
  267000    1.0070187   -2.1522823   -2.1522823   -1.1343492  0.064156824   -2.1522823    1.0179331  1714436 
  268000    1.0067375   -2.1516997   -2.1516997    -1.134051  0.067681553   -2.1516997    1.0176488  1714436 
  269000    1.0069209   -2.1517908   -2.1517908   -1.1339567  0.067568583   -2.1517908    1.0178341  1714436 
  270000    1.0075919   -2.1524992   -2.1524992   -1.1339867  0.066029682   -2.1524992    1.0185125  1714436 
  271000    1.0083203   -2.1533998   -2.1533998    -1.134151  0.065134828   -2.1533998    1.0192488  1714436 
  272000    1.0082652   -2.1533583   -2.1533583   -1.1341652  0.064167787   -2.1533583    1.0191931  1714436 
  273000    1.0081459   -2.1533803   -2.1533803   -1.1343078  0.065042839   -2.1533803    1.0190724  1714436 
  274000    1.0071225   -2.1524089   -2.1524089   -1.1343709  0.068393618   -2.1524089     1.018038  1714436 
  275000    1.0079078   -2.1534946   -2.1534946   -1.1346629  0.059649953   -2.1534946    1.0188318  1714436 
  276000    1.0074318   -2.1531241   -2.1531241   -1.1347735  0.069348638   -2.1531241    1.0183506  1714436 
  277000     1.006887   -2.1527094   -2.1527094   -1.1349095  0.065061503   -2.1527094    1.0177999  1714436 
  278000    1.0071228   -2.1531266   -2.1531266   -1.1350884   0.06265058   -2.1531266    1.0180383  1714436 
  279000    1.0070292   -2.1530587   -2.1530587   -1.1351151  0.064634711   -2.1530587    1.0179436  1714436 
  280000     1.007616   -2.1539198   -2.1539198   -1.1353831  0.062233617   -2.1539198    1.0185368  1714436 
  281000    1.0079599   -2.1541066   -2.1541066   -1.1352222  0.063616511   -2.1541066    1.0188844  1714436 
  282000    1.0084425   -2.1540959   -2.1540959   -1.1347237  0.062860881   -2.1540959    1.0193722  1714436 
  283000    1.0083492   -2.1539886   -2.1539886   -1.1347106  0.066012343   -2.1539886     1.019278  1714436 
  284000    1.0081487   -2.1540835   -2.1540835   -1.1350082  0.062570885   -2.1540835    1.0190753  1714436 
  285000    1.0085035    -2.154004    -2.154004   -1.1345701  0.069310626    -2.154004     1.019434  1714436 
  286000    1.0090285   -2.1543674   -2.1543674   -1.1344028  0.063809174   -2.1543674    1.0199646  1714436 
  287000    1.0073783   -2.1530944   -2.1530944   -1.1347979  0.067896677   -2.1530944    1.0182965  1714436 
  288000    1.0083483   -2.1537114   -2.1537114   -1.1344344  0.063650979   -2.1537114     1.019277  1714436 
  289000    1.0086913   -2.1541492   -2.1541492   -1.1345255  0.060770023   -2.1541492    1.0196237  1714436 
  290000    1.0088987   -2.1539748   -2.1539748   -1.1341415  0.063032518   -2.1539748    1.0198334  1714436 
  291000     1.008752   -2.1538064   -2.1538064   -1.1341213  0.067071905   -2.1538064    1.0196851  1714436 
  292000    1.0091681   -2.1541288   -2.1541288    -1.134023  0.068959086   -2.1541288    1.0201057  1714436 
  293000    1.0089857   -2.1541125   -2.1541125   -1.1341912  0.063827758   -2.1541125    1.0199214  1714436 
  294000    1.0082451    -2.153263    -2.153263   -1.1340904  0.068191466    -2.153263    1.0191727  1714436 
  295000    1.0083693   -2.1533876   -2.1533876   -1.1340893  0.065039379   -2.1533876    1.0192983  1714436 
  296000    1.0085351   -2.1533425   -2.1533425   -1.1338767  0.065493113   -2.1533425    1.0194659  1714436 
  297000    1.0088032   -2.1536549   -2.1536549    -1.133918  0.066267334   -2.1536549    1.0197369  1714436 
  298000    1.0084089    -2.153383    -2.153383   -1.1340447  0.063683815    -2.153383    1.0193383  1714436 
  299000     1.009079   -2.1541678   -2.1541678   -1.1341521  0.062865073   -2.1541678    1.0200157  1714436 
  300000    1.0092257   -2.1545451   -2.1545451   -1.1343812  0.065368575   -2.1545451     1.020164  1714436 
  301000    1.0070583    -2.152823    -2.152823   -1.1348499  0.066580885    -2.152823    1.0179731  1714436 
  302000    1.0076004   -2.1533432   -2.1533432   -1.1348222  0.060858133   -2.1533432     1.018521  1714436 
  303000    1.0073753   -2.1532682   -2.1532682   -1.1349746  0.057687568   -2.1532682    1.0182935  1714436 
  304000    1.0068352   -2.1525221   -2.1525221   -1.1347745  0.061484845   -2.1525221    1.0177475  1714436 
  305000     1.006841   -2.1528636   -2.1528636   -1.1351102  0.059956833   -2.1528636    1.0177534  1714436 
  306000    1.0072966   -2.1534393   -2.1534393   -1.1352254  0.063160548   -2.1534393     1.018214  1714436 
  307000    1.0068808   -2.1530034   -2.1530034   -1.1352098  0.058801722   -2.1530034    1.0177936  1714436 
  308000    1.0074705   -2.1530443   -2.1530443   -1.1346546  0.060799583   -2.1530443    1.0183898  1714436 
  309000    1.0073673   -2.1526652   -2.1526652   -1.1343798   0.06179548   -2.1526652    1.0182854  1714436 
  310000    1.0074298    -2.153044    -2.153044   -1.1346954  0.065234516    -2.153044    1.0183486  1714436 
  311000    1.0071078   -2.1529142   -2.1529142   -1.1348911   0.06284062   -2.1529142    1.0180231  1714436 
  312000    1.0077719    -2.153806    -2.153806   -1.1351116  0.058639334    -2.153806    1.0186944  1714436 
  313000    1.0074934   -2.1539446   -2.1539446   -1.1355318  0.062600323   -2.1539446    1.0184129  1714436 
  314000     1.007306   -2.1533415   -2.1533415   -1.1351181  0.064023256   -2.1533415    1.0182235  1714436 
  315000     1.007857   -2.1535852   -2.1535852   -1.1348048  0.063515144   -2.1535852    1.0187804  1714436 
  316000    1.0078933   -2.1535001   -2.1535001   -1.1346829  0.063657794   -2.1535001    1.0188171  1714436 
  317000    1.0071973   -2.1528517   -2.1528517   -1.1347381  0.066722284   -2.1528517    1.0181136  1714436 
  318000    1.0081451   -2.1538679   -2.1538679   -1.1347963  0.063414078   -2.1538679    1.0190717  1714436 
  319000    1.0081326   -2.1543302   -2.1543302   -1.1352712  0.065684313   -2.1543302     1.019059  1714436 
  320000    1.0072589   -2.1531806   -2.1531806   -1.1350047  0.068302659   -2.1531806    1.0181759  1714436 
  321000    1.0081319   -2.1541189   -2.1541189   -1.1350606  0.066140856   -2.1541189    1.0190583  1714436 
  322000    1.0088562    -2.154743    -2.154743   -1.1349525  0.067957503    -2.154743    1.0197904  1714436 
  323000    1.0092338   -2.1551523   -2.1551523   -1.1349801  0.066102656   -2.1551523    1.0201721  1714436 
  324000     1.008518   -2.1543246   -2.1543246    -1.134876  0.068641707   -2.1543246    1.0194486  1714436 
  325000    1.0083669   -2.1541622   -2.1541622   -1.1348664  0.067649504   -2.1541622    1.0192958  1714436 
  326000    1.0077816   -2.1539092   -2.1539092   -1.1352051  0.063616077   -2.1539092    1.0187042  1714436 
  327000    1.0087093   -2.1550166   -2.1550166   -1.1353747   0.06542574   -2.1550166    1.0196419  1714436 
  328000    1.0086185   -2.1546179   -2.1546179   -1.1350677  0.065039113   -2.1546179    1.0195502  1714436 
  329000    1.0081697   -2.1539776   -2.1539776   -1.1348811  0.070913588   -2.1539776    1.0190965  1714436 
  330000    1.0091072   -2.1549672   -2.1549672   -1.1349231  0.065117763   -2.1549672    1.0200442  1714436 
  331000    1.0089799    -2.154828    -2.154828   -1.1349125  0.065135038    -2.154828    1.0199155  1714436 
  332000    1.0090957   -2.1552235   -2.1552235    -1.135191  0.068858282   -2.1552235    1.0200325  1714436 
  333000    1.0088259   -2.1553183   -2.1553183   -1.1355585  0.062665235   -2.1553183    1.0197598  1714436 
  334000    1.0081075   -2.1543689   -2.1543689   -1.1353353  0.067434611   -2.1543689    1.0190336  1714436 
  335000    1.0085354   -2.1550103   -2.1550103   -1.1355441  0.064330258   -2.1550103    1.0194662  1714436 
  336000    1.0080769   -2.1549961   -2.1549961   -1.1359934  0.070608032   -2.1549961    1.0190027  1714436 
  337000    1.0081256   -2.1549134   -2.1549134   -1.1358615  0.063301581   -2.1549134    1.0190519  1714436 
  338000     1.008708   -2.1554488   -2.1554488   -1.1358082  0.063642595   -2.1554488    1.0196407  1714436 
  339000    1.0085712   -2.1556959   -2.1556959   -1.1361935  0.065513495   -2.1556959    1.0195023  1714436 
  340000    1.0085433   -2.1555399   -2.1555399   -1.1360657  0.066966112   -2.1555399    1.0194742  1714436 
  341000    1.0087432   -2.1557126   -2.1557126   -1.1360364  0.064378211   -2.1557126    1.0196762  1714436 
  342000    1.0083745    -2.155344    -2.155344   -1.1360405  0.067858214    -2.155344    1.0193035  1714436 
  343000    1.0074166   -2.1551525   -2.1551525   -1.1368173  0.066369394   -2.1551525    1.0183352  1714436 
  344000    1.0082536   -2.1558053   -2.1558053   -1.1366239  0.066268742   -2.1558053    1.0191813  1714436 
  345000    1.0082531   -2.1553938   -2.1553938    -1.136213  0.063331592   -2.1553938    1.0191808  1714436 
  346000    1.0078282   -2.1550476   -2.1550476   -1.1362962  0.065083013   -2.1550476    1.0187513  1714436 
  347000    1.0087246   -2.1561546   -2.1561546   -1.1364972  0.059012381   -2.1561546    1.0196574  1714436 
  348000    1.0093484   -2.1566527   -2.1566527   -1.1363647   0.06035988   -2.1566527     1.020288  1714436 
  349000    1.0091331   -2.1564344   -2.1564344    -1.136364  0.065084239   -2.1564344    1.0200704  1714436 
  350000     1.007271    -2.154845    -2.154845   -1.1366569  0.065020728    -2.154845    1.0181881  1714436 
  351000    1.0089444   -2.1562449   -2.1562449   -1.1363653  0.064979221   -2.1562449    1.0198796  1714436 
  352000    1.0077184   -2.1550343   -2.1550343    -1.136394  0.067836916   -2.1550343    1.0186403  1714436 
  353000    1.0080775   -2.1554498   -2.1554498   -1.1364465  0.068280127   -2.1554498    1.0190034  1714436 
  354000    1.0078802   -2.1554233   -2.1554233   -1.1366194  0.065562748   -2.1554233    1.0188039  1714436 
  355000    1.0085564   -2.1559894   -2.1559894    -1.136502  0.069009079   -2.1559894    1.0194874  1714436 
  356000    1.0078918   -2.1553805   -2.1553805   -1.1365649  0.063873887   -2.1553805    1.0188156  1714436 
  357000    1.0086417   -2.1565191   -2.1565191   -1.1369455  0.065179177   -2.1565191    1.0195736  1714436 
  358000    1.0089712   -2.1563543   -2.1563543   -1.1364475  0.065376986   -2.1563543    1.0199067  1714436 
  359000    1.0088659   -2.1564104   -2.1564104   -1.1366101  0.067205706   -2.1564104    1.0198002  1714436 
  360000     1.009247   -2.1568594   -2.1568594    -1.136674  0.067550484   -2.1568594    1.0201854  1714436 
  361000    1.0086937   -2.1561939   -2.1561939   -1.1365677  0.063300097   -2.1561939    1.0196262  1714436 
  362000    1.0076512   -2.1555214   -2.1555214    -1.136949  0.068663168   -2.1555214    1.0185724  1714436 
  363000    1.0082318   -2.1560399   -2.1560399   -1.1368807  0.064253926   -2.1560399    1.0191592  1714436 
  364000    1.0075947   -2.1553156   -2.1553156   -1.1368003  0.064839547   -2.1553156    1.0185153  1714436 
  365000    1.0077928   -2.1554853   -2.1554853   -1.1367698  0.065554193   -2.1554853    1.0187155  1714436 
  366000    1.0083246   -2.1556828   -2.1556828   -1.1364297  0.063458205   -2.1556828    1.0192531  1714436 
  367000    1.0080287   -2.1554299   -2.1554299    -1.136476   0.06159314   -2.1554299     1.018954  1714436 
  368000    1.0083481   -2.1556273   -2.1556273   -1.1363505  0.063249219   -2.1556273    1.0192768  1714436 
  369000    1.0081077   -2.1552409   -2.1552409    -1.136207  0.063386852   -2.1552409    1.0190339  1714436 
  370000    1.0090046   -2.1565478   -2.1565478   -1.1366073  0.062673255   -2.1565478    1.0199404  1714436 
  371000    1.0078917    -2.155577    -2.155577   -1.1367615  0.068601716    -2.155577    1.0188155  1714436 
  372000    1.0087438     -2.15628     -2.15628   -1.1366032  0.062869637     -2.15628    1.0196769  1714436 
  373000    1.0081302   -2.1556091   -2.1556091   -1.1365526  0.062664286   -2.1556091    1.0190565  1714436 
  374000    1.0087473   -2.1563076   -2.1563076   -1.1366272  0.061670287   -2.1563076    1.0196804  1714436 
  375000    1.0082449   -2.1557995   -2.1557995    -1.136627  0.061177516   -2.1557995    1.0191725  1714436 
  376000    1.0070053   -2.1544091   -2.1544091   -1.1364896  0.066402386   -2.1544091    1.0179195  1714436 
  377000    1.0075997   -2.1549088   -2.1549088   -1.1363884  0.068539282   -2.1549088    1.0185203  1714436 
  378000    1.0075341    -2.154927    -2.154927    -1.136473  0.062107626    -2.154927     1.018454  1714436 
  379000    1.0082129   -2.1556698   -2.1556698   -1.1365297  0.065186523   -2.1556698    1.0191401  1714436 
  380000    1.0085794   -2.1560692   -2.1560692   -1.1365586  0.064704806   -2.1560692    1.0195106  1714436 
  381000    1.0072346   -2.1546689   -2.1546689   -1.1365176  0.064379113   -2.1546689    1.0181512  1714436 
  382000    1.0080175   -2.1553669   -2.1553669   -1.1364243  0.063407173   -2.1553669    1.0189427  1714436 
  383000     1.007702   -2.1551493   -2.1551493   -1.1365256  0.067429931   -2.1551493    1.0186237  1714436 
  384000     1.007712    -2.155209    -2.155209   -1.1365752  0.061357188    -2.155209    1.0186338  1714436 
  385000    1.0086383   -2.1561905   -2.1561905   -1.1366203  0.063866113   -2.1561905    1.0195702  1714436 
  386000    1.0076538   -2.1555995   -2.1555995   -1.1370245  0.060866446   -2.1555995     1.018575  1714436 
  387000    1.0074952   -2.1549928   -2.1549928   -1.1365781  0.064949757   -2.1549928    1.0184147  1714436 
  388000    1.0082492   -2.1558195   -2.1558195   -1.1366426  0.067400043   -2.1558195    1.0191769  1714436 
  389000    1.0083614   -2.1555847   -2.1555847   -1.1362944  0.064195128   -2.1555847    1.0192902  1714436 
  390000    1.0084357   -2.1554657   -2.1554657   -1.1361003  0.065330523   -2.1554657    1.0193654  1714436 
  391000      1.00805   -2.1553787   -2.1553787   -1.1364032  0.067438475   -2.1553787    1.0189755  1714436 
  392000    1.0079923    -2.154909    -2.154909   -1.1359919  0.067094077    -2.154909    1.0189172  1714436 
  393000    1.0091815   -2.1559016   -2.1559016   -1.1357823  0.067533143   -2.1559016    1.0201193  1714436 
  394000    1.0087012    -2.155565    -2.155565   -1.1359312  0.065856326    -2.155565    1.0196338  1714436 
  395000    1.0081056    -2.155072    -2.155072   -1.1360403  0.069250548    -2.155072    1.0190317  1714436 
  396000    1.0086915   -2.1555294   -2.1555294   -1.1359055  0.066616151   -2.1555294    1.0196239  1714436 
  397000     1.008573   -2.1553135   -2.1553135   -1.1358093   0.07058353   -2.1553135    1.0195042  1714436 
  398000      1.00898   -2.1557372   -2.1557372   -1.1358215  0.063127639   -2.1557372    1.0199156  1714436 
  399000    1.0084253   -2.1556406   -2.1556406   -1.1362858   0.06686277   -2.1556406    1.0193548  1714436 
  400000    1.0082679   -2.1555028   -2.1555028    -1.136307  0.066828297   -2.1555028    1.0191958  1714436 
  401000    1.0084921   -2.1553919   -2.1553919   -1.1359695  0.068602133   -2.1553919    1.0194224  1714436 
  402000    1.0080245   -2.1549075   -2.1549075   -1.1359577  0.068231761   -2.1549075    1.0189497  1714436 
  403000    1.0079985   -2.1545713   -2.1545713   -1.1356478  0.064600391   -2.1545713    1.0189235  1714436 
  404000    1.0086726   -2.1555061   -2.1555061   -1.1359012  0.069062276   -2.1555061    1.0196049  1714436 
  405000    1.0087809   -2.1555423   -2.1555423   -1.1358279  0.064072973   -2.1555423    1.0197143  1714436 
  406000    1.0080379   -2.1549713   -2.1549713    -1.136008  0.063186972   -2.1549713    1.0189632  1714436 
  407000    1.0067304   -2.1541033   -2.1541033   -1.1364617  0.066442852   -2.1541033    1.0176416  1714436 
  408000    1.0081294   -2.1552972   -2.1552972   -1.1362414  0.062092937   -2.1552972    1.0190558  1714436 
  409000    1.0083404   -2.1552793   -2.1552793   -1.1360103  0.064046523   -2.1552793     1.019269  1714436 
  410000    1.0073188   -2.1547767   -2.1547767   -1.1365402  0.065166624   -2.1547767    1.0182364  1714436 
  411000    1.0077182   -2.1552898   -2.1552898   -1.1366497  0.062756112   -2.1552898    1.0186401  1714436 
  412000    1.0081898   -2.1554875   -2.1554875   -1.1363707  0.066411521   -2.1554875    1.0191168  1714436 
  413000    1.0078732   -2.1552933   -2.1552933   -1.1364965  0.067744378   -2.1552933    1.0187968  1714436 
  414000    1.0076378   -2.1549968   -2.1549968    -1.136438  0.061777675   -2.1549968    1.0185588  1714436 
  415000    1.0074663   -2.1544233   -2.1544233   -1.1360378  0.065724472   -2.1544233    1.0183855  1714436 
  416000    1.0072982   -2.1548526   -2.1548526    -1.136637  0.065220244   -2.1548526    1.0182155  1714436 
  417000     1.006392   -2.1537809   -2.1537809   -1.1364814  0.064226893   -2.1537809    1.0172995  1714436 
  418000    1.0064013   -2.1539703   -2.1539703   -1.1366614  0.064850457   -2.1539703    1.0173089  1714436 
  419000    1.0062204   -2.1538278   -2.1538278   -1.1367017  0.063871306   -2.1538278    1.0171261  1714436 
  420000    1.0072251   -2.1543267   -2.1543267    -1.136185  0.064198626   -2.1543267    1.0181417  1714436 
  421000    1.0073928   -2.1541476   -2.1541476   -1.1358364  0.066115606   -2.1541476    1.0183112  1714436 
  422000    1.0072821   -2.1541237   -2.1541237   -1.1359244  0.067392141   -2.1541237    1.0181993  1714436 
  423000    1.0070352   -2.1544382   -2.1544382   -1.1364886  0.069499661   -2.1544382    1.0179497  1714436 
  424000    1.0078868   -2.1547894   -2.1547894   -1.1359788   0.06494283   -2.1547894    1.0188105  1714436 
  425000    1.0077583   -2.1545598   -2.1545598   -1.1358791  0.065367093   -2.1545598    1.0186807  1714436 
  426000    1.0079959   -2.1547735   -2.1547735   -1.1358527  0.062361221   -2.1547735    1.0189208  1714436 
  427000    1.0082354   -2.1551511   -2.1551511   -1.1359882  0.061868966   -2.1551511    1.0191629  1714436 
  428000    1.0071688   -2.1539604   -2.1539604   -1.1358756  0.063179538   -2.1539604    1.0180847  1714436 
  429000    1.0072952   -2.1543489   -2.1543489   -1.1361364  0.061280722   -2.1543489    1.0182125  1714436 
  430000    1.0070829   -2.1542067   -2.1542067   -1.1362088  0.065078412   -2.1542067    1.0179979  1714436 
  431000    1.0065687   -2.1538236   -2.1538236   -1.1363454  0.063754745   -2.1538236    1.0174781  1714436 
  432000    1.0065241   -2.1540349   -2.1540349   -1.1366019  0.066086747   -2.1540349     1.017433  1714436 
  433000    1.0070431   -2.1545999   -2.1545999   -1.1366422  0.064660321   -2.1545999    1.0179577  1714436 
  434000    1.0075433    -2.155218    -2.155218   -1.1367547  0.064298968    -2.155218    1.0184633  1714436 
  435000    1.0072952   -2.1550393   -2.1550393   -1.1368268  0.065448184   -2.1550393    1.0182125  1714436 
  436000    1.0076035   -2.1551152   -2.1551152    -1.136591  0.066120892   -2.1551152    1.0185242  1714436 
  437000    1.0072442   -2.1548397   -2.1548397   -1.1366788  0.063254943   -2.1548397     1.018161  1714436 
  438000    1.0073764   -2.1552782   -2.1552782   -1.1369836  0.063996333   -2.1552782    1.0182946  1714436 
  439000    1.0074429   -2.1548667   -2.1548667   -1.1365049  0.065564676   -2.1548667    1.0183619  1714436 
  440000    1.0071505   -2.1548802   -2.1548802    -1.136814  0.068067046   -2.1548802    1.0180662  1714436 
  441000    1.0083286   -2.1560255   -2.1560255   -1.1367684  0.067523944   -2.1560255    1.0192571  1714436 
  442000    1.0079383   -2.1554201   -2.1554201   -1.1365576  0.065143288   -2.1554201    1.0188626  1714436 
  443000    1.0070335   -2.1544072   -2.1544072   -1.1364592  0.065409457   -2.1544072     1.017948  1714436 
  444000    1.0072218   -2.1545377   -2.1545377   -1.1363994  0.065810085   -2.1545377    1.0181383  1714436 
  445000    1.0083936   -2.1552834   -2.1552834   -1.1359606  0.061474169   -2.1552834    1.0193228  1714436 
  446000    1.0093634   -2.1566207   -2.1566207   -1.1363175  0.063184952   -2.1566207    1.0203031  1714436 
  447000    1.0087134   -2.1558075   -2.1558075   -1.1361614  0.064189007   -2.1558075    1.0196461  1714436 
  448000    1.0082184   -2.1552436   -2.1552436   -1.1360979   0.06515617   -2.1552436    1.0191457  1714436 
  449000    1.0084787   -2.1551251   -2.1551251   -1.1357162  0.066541495   -2.1551251    1.0194089  1714436 
  450000    1.0093024   -2.1557465   -2.1557465   -1.1355051  0.066570364   -2.1557465    1.0202414  1714436 
  451000    1.0082594   -2.1549998   -2.1549998   -1.1358127  0.067865762   -2.1549998    1.0191871  1714436 
  452000    1.0088803   -2.1555749   -2.1555749   -1.1357601  0.067149508   -2.1555749    1.0198148  1714436 
  453000    1.0091863   -2.1557575   -2.1557575   -1.1356333  0.065376089   -2.1557575    1.0201242  1714436 
  454000    1.0086105   -2.1552114   -2.1552114   -1.1356693   0.06517882   -2.1552114    1.0195421  1714436 
  455000    1.0079899   -2.1547978   -2.1547978   -1.1358831  0.069200968   -2.1547978    1.0189147  1714436 
  456000    1.0082216   -2.1550191   -2.1550191   -1.1358701  0.067641368   -2.1550191     1.019149  1714436 
  457000     1.007638   -2.1549906   -2.1549906   -1.1364315  0.067212615   -2.1549906     1.018559  1714436 
  458000    1.0072799   -2.1545603   -2.1545603   -1.1363633  0.066464829   -2.1545603     1.018197  1714436 
  459000    1.0076465    -2.155306    -2.155306   -1.1367384  0.067358106    -2.155306    1.0185676  1714436 
  460000    1.0080625   -2.1558224   -2.1558224   -1.1368342  0.064171316   -2.1558224    1.0189882  1714436 
  461000    1.0075102   -2.1550914   -2.1550914   -1.1366616  0.063322467   -2.1550914    1.0184298  1714436 
  462000    1.0059908   -2.1538115   -2.1538115   -1.1369175  0.067678987   -2.1538115     1.016894  1714436 
  463000    1.0080331   -2.1559077   -2.1559077   -1.1369493  0.069383956   -2.1559077    1.0189584  1714436 
  464000    1.0082718   -2.1558925   -2.1558925   -1.1366928  0.066768305   -2.1558925    1.0191997  1714436 
  465000    1.0079235   -2.1559717   -2.1559717   -1.1371241  0.063254683   -2.1559717    1.0188477  1714436 
  466000    1.0079842   -2.1560547   -2.1560547   -1.1371457  0.067288339   -2.1560547     1.018909  1714436 
  467000     1.007898   -2.1556558   -2.1556558    -1.136834  0.063125631   -2.1556558    1.0188219  1714436 
  468000    1.0074386   -2.1554346   -2.1554346   -1.1370771  0.065483264   -2.1554346    1.0183575  1714436 
  469000     1.007776    -2.155677    -2.155677   -1.1369784  0.068461783    -2.155677    1.0186985  1714436 
  470000    1.0069657   -2.1547557   -2.1547557   -1.1368762  0.062570442   -2.1547557    1.0178795  1714436 
  471000    1.0072682   -2.1548597   -2.1548597   -1.1366745  0.066333373   -2.1548597    1.0181852  1714436 
  472000    1.0085425   -2.1560048   -2.1560048   -1.1365314  0.064223388   -2.1560048    1.0194734  1714436 
  473000    1.0080349   -2.1555777   -2.1555777   -1.1366174  0.060255894   -2.1555777    1.0189603  1714436 
  474000    1.0077377   -2.1554156   -2.1554156   -1.1367557  0.061731856   -2.1554156    1.0186599  1714436 
  475000    1.0076076   -2.1551227   -2.1551227   -1.1365944  0.061647709   -2.1551227    1.0185283  1714436 
  476000     1.007312   -2.1543706   -2.1543706    -1.136141  0.065084109   -2.1543706    1.0182295  1714436 
  477000    1.0082715   -2.1553907   -2.1553907   -1.1361913  0.062827629   -2.1553907    1.0191994  1714436 
  478000    1.0079283   -2.1552376   -2.1552376   -1.1363852  0.063707651   -2.1552376    1.0188525  1714436 
  479000    1.0079585   -2.1552045   -2.1552045   -1.1363215  0.064616441   -2.1552045     1.018883  1714436 
  480000     1.006721   -2.1537535   -2.1537535   -1.1361214  0.065934436   -2.1537535    1.0176321  1714436 
  481000    1.0072915    -2.154319    -2.154319   -1.1361103  0.063947397    -2.154319    1.0182088  1714436 
  482000    1.0073003    -2.154603    -2.154603   -1.1363852  0.066352888    -2.154603    1.0182177  1714436 
  483000    1.0079443   -2.1552893   -2.1552893   -1.1364207  0.066926918   -2.1552893    1.0188686  1714436 
  484000    1.0079175   -2.1550064   -2.1550064   -1.1361649   0.06556302   -2.1550064    1.0188415  1714436 
  485000     1.008039   -2.1548449   -2.1548449   -1.1358805  0.065585859   -2.1548449    1.0189644  1714436 
  486000    1.0079473   -2.1547977   -2.1547977    -1.135926  0.064534197   -2.1547977    1.0188717  1714436 
  487000     1.007103   -2.1541613   -2.1541613    -1.136143  0.065911147   -2.1541613    1.0180183  1714436 
  488000    1.0075985   -2.1550063   -2.1550063   -1.1364871   0.06661911   -2.1550063    1.0185192  1714436 
  489000    1.0079692   -2.1552997   -2.1552997   -1.1364059  0.062465307   -2.1552997    1.0188939  1714436 
  490000    1.0075752   -2.1548922   -2.1548922   -1.1363966  0.064462092   -2.1548922    1.0184955  1714436 
  491000    1.0070577   -2.1544789   -2.1544789   -1.1365064  0.065798295   -2.1544789    1.0179725  1714436 
  492000    1.0077227   -2.1551701   -2.1551701   -1.1365254  0.063551467   -2.1551701    1.0186447  1714436 
  493000    1.0061201   -2.1537597   -2.1537597   -1.1367351  0.063112724   -2.1537597    1.0170247  1714436 
  494000     1.007227    -2.154714    -2.154714   -1.1365704  0.065292153    -2.154714    1.0181436  1714436 
  495000    1.0076977   -2.1551985   -2.1551985   -1.1365791  0.061794127   -2.1551985    1.0186194  1714436 
  496000    1.0078984   -2.1553068   -2.1553068   -1.1364846  0.064138267   -2.1553068    1.0188222  1714436 
  497000     1.007554   -2.1546362   -2.1546362    -1.136162  0.065248162   -2.1546362    1.0184741  1714436 
  498000    1.0083913   -2.1552295   -2.1552295    -1.135909  0.060055944   -2.1552295    1.0193205  1714436 
  499000    1.0077999   -2.1549268   -2.1549268   -1.1362041  0.066661046   -2.1549268    1.0187227  1714436 
  500000    1.0083544   -2.1549794   -2.1549794   -1.1356962  0.065215441   -2.1549794    1.0192832  1714436 
  501000    1.0076114   -2.1544369   -2.1544369   -1.1359048  0.066079066   -2.1544369    1.0185322  1714436 
  502000    1.0074454   -2.1548439   -2.1548439   -1.1364796  0.066057546   -2.1548439    1.0183643  1714436 
  503000    1.0077608   -2.1553736   -2.1553736   -1.1366904  0.058931651   -2.1553736    1.0186832  1714436 
  504000    1.0072435   -2.1547672   -2.1547672   -1.1366069   0.06581636   -2.1547672    1.0181602  1714436 
  505000    1.0082323   -2.1552566   -2.1552566   -1.1360969  0.065172589   -2.1552566    1.0191597  1714436 
  506000    1.0070459    -2.154566    -2.154566   -1.1366054  0.061902391    -2.154566    1.0179605  1714436 
  507000    1.0071348   -2.1549707   -2.1549707   -1.1369203  0.064754157   -2.1549707    1.0180504  1714436 
  508000    1.0065926      -2.1544      -2.1544   -1.1368977  0.066636266      -2.1544    1.0175024  1714436 
  509000    1.0066243    -2.154766    -2.154766   -1.1372316  0.065794074    -2.154766    1.0175344  1714436 
  510000    1.0073833   -2.1555167   -2.1555167   -1.1372151   0.06624835   -2.1555167    1.0183015  1714436 
  511000    1.0079675   -2.1553127   -2.1553127   -1.1364206  0.064643865   -2.1553127    1.0188921  1714436 
  512000    1.0065941   -2.1539799   -2.1539799   -1.1364761  0.066363364   -2.1539799    1.0175038  1714436 
  513000    1.0074714   -2.1550662   -2.1550662   -1.1366756  0.064118151   -2.1550662    1.0183907  1714436 
  514000    1.0080207   -2.1554036   -2.1554036   -1.1364577  0.063700383   -2.1554036    1.0189458  1714436 
  515000    1.0081236   -2.1554072   -2.1554072   -1.1363574  0.064990052   -2.1554072    1.0190499  1714436 
  516000    1.0075881   -2.1551577   -2.1551577   -1.1366492  0.062143984   -2.1551577    1.0185086  1714436 
  517000    1.0076708   -2.1553669   -2.1553669   -1.1367747  0.070543828   -2.1553669    1.0185922  1714436 
  518000    1.0072511   -2.1552803   -2.1552803   -1.1371123  0.068260352   -2.1552803     1.018168  1714436 
  519000    1.0075478   -2.1555882   -2.1555882   -1.1371204  0.062301276   -2.1555882    1.0184678  1714436 
  520000    1.0071826   -2.1550937   -2.1550937   -1.1369949  0.069550592   -2.1550937    1.0180987  1714436 
  521000    1.0081251   -2.1558481   -2.1558481   -1.1367967  0.066850589   -2.1558481    1.0190514  1714436 
  522000    1.0079182   -2.1554724   -2.1554724   -1.1366301  0.066901692   -2.1554724    1.0188423  1714436 
  523000    1.0078197   -2.1551505   -2.1551505   -1.1364078  0.060764007   -2.1551505    1.0187427  1714436 
  524000    1.0079656   -2.1555944   -2.1555944   -1.1367042  0.060599246   -2.1555944    1.0188902  1714436 
  525000    1.0088867   -2.1566468   -2.1566468   -1.1368255  0.062422611   -2.1566468    1.0198213  1714436 
  526000     1.008041   -2.1555901   -2.1555901   -1.1366236  0.066060289   -2.1555901    1.0189665  1714436 
  527000    1.0079252   -2.1555684   -2.1555684    -1.136719  0.067916429   -2.1555684    1.0188494  1714436 
  528000     1.007766   -2.1553619   -2.1553619   -1.1366734  0.063888363   -2.1553619    1.0186884  1714436 
  529000     1.007617   -2.1553231   -2.1553231   -1.1367853  0.066771439   -2.1553231    1.0185378  1714436 
  530000    1.0077895   -2.1555549   -2.1555549   -1.1368427  0.065853421   -2.1555549    1.0187122  1714436 
  531000    1.0080155   -2.1557162   -2.1557162   -1.1367756  0.063511047   -2.1557162    1.0189406  1714436 
  532000    1.0078548   -2.1555743   -2.1555743   -1.1367961   0.06072709   -2.1555743    1.0187782  1714436 
  533000    1.0079123   -2.1552406   -2.1552406   -1.1364043  0.066137048   -2.1552406    1.0188363  1714436 
  534000    1.0080216   -2.1554862   -2.1554862   -1.1365395  0.065200022   -2.1554862    1.0189468  1714436 
  535000    1.0074304   -2.1553153   -2.1553153   -1.1369661  0.063265513   -2.1553153    1.0183492  1714436 
  536000    1.0065507   -2.1548875   -2.1548875   -1.1374276  0.067681709   -2.1548875    1.0174599  1714436 
  537000    1.0074972   -2.1558894   -2.1558894   -1.1374726  0.066029893   -2.1558894    1.0184167  1714436 
  538000     1.006588   -2.1548807   -2.1548807    -1.137383   0.06159021   -2.1548807    1.0174976  1714436 
  539000    1.0071293   -2.1554926   -2.1554926   -1.1374478  0.064067418   -2.1554926    1.0180448  1714436 
  540000    1.0064075     -2.15455     -2.15455   -1.1372348  0.066877191     -2.15455    1.0173152  1714436 
  541000    1.0074768   -2.1554152   -2.1554152   -1.1370192  0.066824835   -2.1554152     1.018396  1714436 
  542000    1.0060667   -2.1542693   -2.1542693   -1.1372986  0.068074741   -2.1542693    1.0169707  1714436 
  543000    1.0064187   -2.1551948   -2.1551948   -1.1378683  0.065658743   -2.1551948    1.0173265  1714436 
  544000    1.0061169   -2.1553861   -2.1553861   -1.1383647    0.0615818   -2.1553861    1.0170214  1714436 
  545000     1.006722   -2.1556136   -2.1556136   -1.1379805  0.063483995   -2.1556136    1.0176331  1714436 
  546000    1.0055817   -2.1552483   -2.1552483   -1.1387679   0.06752717   -2.1552483    1.0164804  1714436 
  547000    1.0060646   -2.1553431   -2.1553431   -1.1383745  0.060721479   -2.1553431    1.0169686  1714436 
  548000    1.0060399   -2.1550532   -2.1550532   -1.1381096  0.064745679   -2.1550532    1.0169436  1714436 
  549000     1.005876   -2.1551687   -2.1551687   -1.1383908  0.065540839   -2.1551687     1.016778  1714436 
  550000    1.0068284   -2.1557048   -2.1557048   -1.1379641  0.069009512   -2.1557048    1.0177407  1714436 
  551000    1.0065838   -2.1554247   -2.1554247   -1.1379313  0.070178512   -2.1554247    1.0174935  1714436 
  552000     1.007898   -2.1568457   -2.1568457   -1.1380239  0.066264878   -2.1568457    1.0188218  1714436 
  553000    1.0072637   -2.1560503   -2.1560503   -1.1378697  0.066475967   -2.1560503    1.0181807  1714436 
  554000    1.0075853   -2.1565467   -2.1565467   -1.1380409  0.068402177   -2.1565467    1.0185057  1714436 
  555000    1.0080215   -2.1572789   -2.1572789   -1.1383322  0.064816229   -2.1572789    1.0189466  1714436 
  556000    1.0078599   -2.1567566   -2.1567566   -1.1379733  0.067077323   -2.1567566    1.0187833  1714436 
  557000     1.007656   -2.1563971   -2.1563971   -1.1378198  0.066460129   -2.1563971    1.0185772  1714436 
  558000    1.0076424   -2.1565533   -2.1565533   -1.1379898  0.065038335   -2.1565533    1.0185635  1714436 
  559000    1.0078515   -2.1563785   -2.1563785   -1.1376037  0.070086613   -2.1563785    1.0187749  1714436 
  560000    1.0076781   -2.1563692   -2.1563692   -1.1377697  0.067272776   -2.1563692    1.0185995  1714436 
  561000     1.008221   -2.1565342   -2.1565342   -1.1373859  0.067659266   -2.1565342    1.0191483  1714436 
  562000    1.0082828   -2.1564438   -2.1564438    -1.137233  0.069916327   -2.1564438    1.0192108  1714436 
  563000    1.0094236   -2.1574669   -2.1574669   -1.1371029  0.067139411   -2.1574669     1.020364  1714436 
  564000     1.008454   -2.1564934   -2.1564934   -1.1371095  0.066167692   -2.1564934    1.0193839  1714436 
  565000    1.0079401    -2.155798    -2.155798   -1.1369336  0.068164943    -2.155798    1.0188644  1714436 
  566000    1.0079701   -2.1559043   -2.1559043   -1.1370095  0.068990651   -2.1559043    1.0188947  1714436 
  567000    1.0074292    -2.155614    -2.155614   -1.1372661  0.066283072    -2.155614    1.0183479  1714436 
  568000    1.0082473   -2.1564123   -2.1564123   -1.1372374  0.064731496   -2.1564123    1.0191749  1714436 
  569000    1.0086053   -2.1567903   -2.1567903   -1.1372535  0.064046692   -2.1567903    1.0195368  1714436 
  570000    1.0084392    -2.156239    -2.156239   -1.1368701  0.065655714    -2.156239     1.019369  1714436 
  571000    1.0083263   -2.1561154   -2.1561154   -1.1368606  0.062943578   -2.1561154    1.0192548  1714436 
  572000    1.0079372   -2.1556844   -2.1556844   -1.1368229  0.070376546   -2.1556844    1.0188615  1714436 
  573000    1.0088578   -2.1565461   -2.1565461    -1.136754  0.068845203   -2.1565461    1.0197921  1714436 
  574000     1.007043   -2.1549714   -2.1549714   -1.1370138  0.063429458   -2.1549714    1.0179576  1714436 
  575000    1.0076161   -2.1559365   -2.1559365   -1.1373997  0.062954441   -2.1559365    1.0185369  1714436 
  576000    1.0065168   -2.1549279   -2.1549279   -1.1375022  0.062119471   -2.1549279    1.0174257  1714436 
  577000    1.0067977   -2.1552048   -2.1552048   -1.1374952  0.064167168   -2.1552048    1.0177096  1714436 
  578000    1.0067256   -2.1550958   -2.1550958   -1.1374591  0.064310195   -2.1550958    1.0176367  1714436 
  579000    1.0069948    -2.155169    -2.155169   -1.1372602  0.063435935    -2.155169    1.0179088  1714436 
  580000    1.0066557   -2.1548256   -2.1548256   -1.1372596  0.064848341   -2.1548256    1.0175661  1714436 
  581000    1.0067381   -2.1546017   -2.1546017   -1.1369524  0.063512603   -2.1546017    1.0176493  1714436 
  582000     1.008028   -2.1560785   -2.1560785   -1.1371251  0.064440262   -2.1560785    1.0189533  1714436 
  583000    1.0068508   -2.1545488   -2.1545488   -1.1367854  0.064763403   -2.1545488    1.0177633  1714436 
  584000    1.0065385   -2.1540733   -2.1540733   -1.1366257  0.063226221   -2.1540733    1.0174476  1714436 
  585000    1.0076753   -2.1549778   -2.1549778   -1.1363811  0.061238314   -2.1549778    1.0185967  1714436 
  586000    1.0072083   -2.1543598   -2.1543598   -1.1362351  0.063914986   -2.1543598    1.0181247  1714436 
  587000     1.007762   -2.1550294   -2.1550294    -1.136345  0.065258033   -2.1550294    1.0186844  1714436 
  588000     1.006815   -2.1545994   -2.1545994   -1.1368722  0.063966818   -2.1545994    1.0177272  1714436 
  589000      1.00716   -2.1547646   -2.1547646   -1.1366887  0.066715474   -2.1547646    1.0180759  1714436 
  590000    1.0066915   -2.1541341   -2.1541341   -1.1365318  0.065327505   -2.1541341    1.0176023  1714436 
  591000    1.0070073   -2.1544982   -2.1544982   -1.1365766  0.061584213   -2.1544982    1.0179215  1714436 
  592000    1.0069314   -2.1544805   -2.1544805   -1.1366358  0.066303476   -2.1544805    1.0178447  1714436 
  593000    1.0063627   -2.1539417   -2.1539417   -1.1366717  0.066854288   -2.1539417      1.01727  1714436 
  594000     1.006876   -2.1542837   -2.1542837   -1.1364949  0.066559548   -2.1542837    1.0177888  1714436 
  595000    1.0078416   -2.1556016   -2.1556016   -1.1368368   0.06179508   -2.1556016    1.0187649  1714436 
  596000    1.0075222   -2.1553788   -2.1553788   -1.1369368  0.066600446   -2.1553788     1.018442  1714436 
  597000    1.0073953   -2.1555687   -2.1555687    -1.137255  0.060095362   -2.1555687    1.0183137  1714436 
  598000    1.0066778   -2.1545018   -2.1545018   -1.1369134  0.067181058   -2.1545018    1.0175884  1714436 
  599000    1.0073233   -2.1554387   -2.1554387   -1.1371977  0.070149235   -2.1554387     1.018241  1714436 
  600000    1.0071755   -2.1552437   -2.1552437   -1.1371522   0.06594727   -2.1552437    1.0180915  1714436 
  601000    1.0072653   -2.1554807   -2.1554807   -1.1372983   0.06038331   -2.1554807    1.0181823  1714436 
  602000    1.0076101   -2.1555711   -2.1555711   -1.1370403  0.062262544   -2.1555711    1.0185309  1714436 
  603000    1.0074213    -2.155252    -2.155252    -1.136912  0.065087724    -2.155252      1.01834  1714436 
  604000    1.0079199   -2.1560015   -2.1560015   -1.1371575  0.060769761   -2.1560015     1.018844  1714436 
  605000    1.0073752   -2.1557145   -2.1557145   -1.1374211  0.067024231   -2.1557145    1.0182934  1714436 
  606000    1.0074164   -2.1559154   -2.1559154   -1.1375804  0.068257153   -2.1559154     1.018335  1714436 
  607000    1.0083707   -2.1564518   -2.1564518   -1.1371521  0.063178389   -2.1564518    1.0192996  1714436 
  608000    1.0080521   -2.1558161   -2.1558161   -1.1368385   0.07067989   -2.1558161    1.0189776  1714436 
  609000    1.0082999   -2.1561771   -2.1561771   -1.1369489  0.065428105   -2.1561771    1.0192282  1714436 
  610000    1.0073723    -2.155741    -2.155741   -1.1374506  0.067963382    -2.155741    1.0182905  1714436 
  611000    1.0075307   -2.1559917   -2.1559917    -1.137541  0.065665875   -2.1559917    1.0184506  1714436 
  612000    1.0082792   -2.1564797   -2.1564797   -1.1372725  0.064143875   -2.1564797    1.0192072  1714436 
  613000    1.0074125   -2.1558388   -2.1558388   -1.1375076  0.067756835   -2.1558388    1.0183311  1714436 
  614000    1.0083794   -2.1568698   -2.1568698   -1.1375613  0.065978305   -2.1568698    1.0193085  1714436 
  615000    1.0087419   -2.1568843   -2.1568843   -1.1372095  0.067400628   -2.1568843    1.0196749  1714436 
  616000    1.0083717   -2.1565518   -2.1565518   -1.1372511  0.065385871   -2.1565518    1.0193007  1714436 
  617000    1.0087344   -2.1571519   -2.1571519   -1.1374845  0.065990725   -2.1571519    1.0196674  1714436 
  618000    1.0090448   -2.1575553   -2.1575553   -1.1375742   0.06571909   -2.1575553    1.0199811  1714436 
  619000    1.0079796   -2.1565466   -2.1565466   -1.1376422  0.069344772   -2.1565466    1.0189044  1714436 
  620000    1.0085527   -2.1568999   -2.1568999   -1.1374162  0.067763171   -2.1568999    1.0194837  1714436 
  621000    1.0080582   -2.1569708   -2.1569708    -1.137987   0.06842933   -2.1569708    1.0189838  1714436 
  622000    1.0082561   -2.1571874   -2.1571874   -1.1380035  0.066010899   -2.1571874    1.0191838  1714436 
  623000    1.0078335   -2.1567384   -2.1567384   -1.1379817  0.065930641   -2.1567384    1.0187567  1714436 
  624000    1.0078456    -2.156919    -2.156919   -1.1381502  0.064305491    -2.156919    1.0187689  1714436 
  625000    1.0077729   -2.1563956   -2.1563956   -1.1377002  0.067687054   -2.1563956    1.0186954  1714436 
  626000    1.0083711   -2.1570036   -2.1570036   -1.1377035  0.064653274   -2.1570036    1.0193001  1714436 
  627000    1.0085896   -2.1570933   -2.1570933   -1.1375723  0.060572348   -2.1570933     1.019521  1714436 
  628000     1.006502   -2.1553798   -2.1553798    -1.137969  0.066464518   -2.1553798    1.0174108  1714436 
  629000    1.0076573    -2.156702    -2.156702   -1.1381235  0.066488257    -2.156702    1.0185785  1714436 
  630000    1.0072733   -2.1560395   -2.1560395   -1.1378491  0.066284613   -2.1560395    1.0181904  1714436 
  631000    1.0083846   -2.1576565   -2.1576565   -1.1383428  0.062255091   -2.1576565    1.0193138  1714436 
[...]
 9832000    1.0120118   -2.1517436   -2.1517436   -1.1287634  0.072615277   -2.1517436    1.0229802  1714436 
 9833000    1.0122243   -2.1523151   -2.1523151   -1.1291201  0.066783317   -2.1523151    1.0231951  1714436 
 9834000    1.0111626      -2.1516      -2.1516   -1.1294781   0.06978311      -2.1516    1.0221218  1714436 
 9835000    1.0120533   -2.1529016   -2.1529016   -1.1298793  0.071598396   -2.1529016    1.0230222  1714436 
 9836000    1.0114186   -2.1520128   -2.1520128   -1.1296322  0.070915454   -2.1520128    1.0223806  1714436 
 9837000    1.0109442   -2.1516116   -2.1516116   -1.1297105  0.070133687   -2.1516116    1.0219011  1714436 
 9838000    1.0113782   -2.1524533   -2.1524533   -1.1301136  0.069303493   -2.1524533    1.0223398  1714436 
 9839000    1.0114385   -2.1525034   -2.1525034   -1.1301027  0.073459947   -2.1525034    1.0224007  1714436 
 9840000     1.010531   -2.1516387   -2.1516387   -1.1301553  0.069319598   -2.1516387    1.0214834  1714436 
 9841000    1.0101431    -2.151289    -2.151289   -1.1301977  0.071015097    -2.151289    1.0210913  1714436 
 9842000    1.0108297   -2.1520384   -2.1520384   -1.1302531  0.069164749   -2.1520384    1.0217853  1714436 
 9843000     1.011628   -2.1528957   -2.1528957   -1.1303033   0.06902861   -2.1528957    1.0225923  1714436 
 9844000     1.010996   -2.1521489   -2.1521489   -1.1301955  0.070195607   -2.1521489    1.0219534  1714436 
 9845000    1.0106964   -2.1524169   -2.1524169   -1.1307663  0.066743571   -2.1524169    1.0216506  1714436 
 9846000    1.0116127   -2.1529342   -2.1529342   -1.1303574  0.069026718   -2.1529342    1.0225768  1714436 
 9847000    1.0109735   -2.1518966   -2.1518966    -1.129966  0.069733524   -2.1518966    1.0219307  1714436 
 9848000    1.0102795   -2.1519111   -2.1519111   -1.1306819  0.070816077   -2.1519111    1.0212292  1714436 
 9849000    1.0123963   -2.1536393   -2.1536393   -1.1302704  0.067026563   -2.1536393    1.0233689  1714436 
 9850000    1.0109954   -2.1525893   -2.1525893   -1.1306365  0.069458257   -2.1525893    1.0219529  1714436 
 9851000    1.0113693   -2.1529668   -2.1529668   -1.1306361  0.066377528   -2.1529668    1.0223307  1714436 
 9852000    1.0101547   -2.1516655   -2.1516655   -1.1305625  0.072479356   -2.1516655     1.021103  1714436 
 9853000    1.0112916   -2.1529108   -2.1529108   -1.1306586  0.072274208   -2.1529108    1.0222522  1714436 
 9854000    1.0106861   -2.1517208   -2.1517208   -1.1300806  0.069441529   -2.1517208    1.0216402  1714436 
 9855000    1.0110855    -2.152057    -2.152057   -1.1300131  0.070170728    -2.152057    1.0220439  1714436 
 9856000    1.0114793    -2.152873    -2.152873    -1.130431   0.06866783    -2.152873     1.022442  1714436 
 9857000    1.0112589   -2.1528765   -2.1528765   -1.1306574  0.067150438   -2.1528765    1.0222192  1714436 
 9858000    1.0112571    -2.153164    -2.153164   -1.1309466  0.068442019    -2.153164    1.0222174  1714436 
 9859000    1.0103584   -2.1523261   -2.1523261   -1.1310172  0.072222095   -2.1523261    1.0213089  1714436 
 9860000    1.0116249   -2.1534382   -2.1534382    -1.130849  0.070427743   -2.1534382    1.0225892  1714436 
 9861000    1.0112983   -2.1529665   -2.1529665   -1.1307074  0.069676436   -2.1529665     1.022259  1714436 
 9862000    1.0115174   -2.1535864   -2.1535864   -1.1311059  0.070180569   -2.1535864    1.0224805  1714436 
 9863000    1.0109512   -2.1529229   -2.1529229   -1.1310148  0.071895773   -2.1529229    1.0219081  1714436 
 9864000    1.0117918   -2.1533301   -2.1533301   -1.1305722  0.074210022   -2.1533301    1.0227579  1714436 
 9865000    1.0123741   -2.1535621   -2.1535621   -1.1302156  0.077272546   -2.1535621    1.0233465  1714436 
 9866000    1.0116957   -2.1528591   -2.1528591   -1.1301984  0.070876161   -2.1528591    1.0226607  1714436 
 9867000    1.0117094   -2.1526987   -2.1526987   -1.1300241  0.072873066   -2.1526987    1.0226746  1714436 
 9868000     1.012209   -2.1531768   -2.1531768   -1.1299972   0.06970444   -2.1531768    1.0231796  1714436 
 9869000    1.0119615   -2.1526486   -2.1526486   -1.1297192  0.074192511   -2.1526486    1.0229294  1714436 
 9870000     1.011043   -2.1520863   -2.1520863   -1.1300854  0.070643545   -2.1520863     1.022001  1714436 
 9871000    1.0114181   -2.1527232   -2.1527232   -1.1303431  0.068571163   -2.1527232    1.0223802  1714436 
 9872000    1.0104203    -2.152061    -2.152061   -1.1306896  0.068989308    -2.152061    1.0213715  1714436 
 9873000    1.0115902   -2.1533814   -2.1533814   -1.1308273  0.070644527   -2.1533814    1.0225541  1714436 
 9874000    1.0122831   -2.1536777   -2.1536777   -1.1304232  0.072584086   -2.1536777    1.0232545  1714436 
 9875000    1.0109507   -2.1526492   -2.1526492   -1.1307415  0.071650156   -2.1526492    1.0219077  1714436 
 9876000    1.0108286   -2.1522731   -2.1522731   -1.1304889  0.067766365   -2.1522731    1.0217842  1714436 
 9877000    1.0106365    -2.151993    -2.151993   -1.1304029  0.069320051    -2.151993    1.0215901  1714436 
 9878000    1.0109405   -2.1520459   -2.1520459   -1.1301486  0.071129608   -2.1520459    1.0218973  1714436 
 9879000    1.0109921   -2.1523558   -2.1523558   -1.1304064   0.06865653   -2.1523558    1.0219495  1714436 
 9880000    1.0112738   -2.1531525   -2.1531525   -1.1309182  0.069517052   -2.1531525    1.0222342  1714436 
 9881000    1.0105782   -2.1527244   -2.1527244   -1.1311933  0.073030132   -2.1527244    1.0215311  1714436 
 9882000    1.0101191   -2.1523689   -2.1523689   -1.1313019  0.071753329   -2.1523689     1.021067  1714436 
 9883000    1.0104265   -2.1522888   -2.1522888   -1.1309111  0.073304567   -2.1522888    1.0213777  1714436 
 9884000    1.0115098   -2.1532302   -2.1532302   -1.1307573   0.06335603   -2.1532302    1.0224728  1714436 
 9885000    1.0103819   -2.1522345   -2.1522345   -1.1309018  0.076159822   -2.1522345    1.0213327  1714436 
 9886000    1.0111076   -2.1527059   -2.1527059   -1.1306397  0.069269186   -2.1527059    1.0220662  1714436 
 9887000    1.0115947   -2.1531648   -2.1531648   -1.1306062  0.072634219   -2.1531648    1.0225586  1714436 
 9888000    1.0107509    -2.152461    -2.152461   -1.1307553  0.069202813    -2.152461    1.0217057  1714436 
 9889000    1.0111807    -2.153253    -2.153253   -1.1311128  0.066872895    -2.153253    1.0221402  1714436 
 9890000    1.0110863   -2.1535702   -2.1535702   -1.1315255  0.067053681   -2.1535702    1.0220447  1714436 
 9891000    1.0107317   -2.1527835   -2.1527835   -1.1310972  0.066933803   -2.1527835    1.0216863  1714436 
 9892000    1.0110645   -2.1524726   -2.1524726   -1.1304499    0.0685646   -2.1524726    1.0220227  1714436 
 9893000    1.0104344   -2.1522679   -2.1522679   -1.1308821  0.069210793   -2.1522679    1.0213858  1714436 
 9894000    1.0107182   -2.1528784   -2.1528784   -1.1312058  0.068138214   -2.1528784    1.0216727  1714436 
 9895000    1.0107813   -2.1529455   -2.1529455    -1.131209  0.072388007   -2.1529455    1.0217364  1714436 
 9896000    1.0099716   -2.1524525   -2.1524525   -1.1315346  0.067814952   -2.1524525    1.0209179  1714436 
 9897000    1.0111181   -2.1535639   -2.1535639   -1.1314871  0.068392492   -2.1535639    1.0220768  1714436 
 9898000     1.011591   -2.1537444   -2.1537444   -1.1311894  0.069421226   -2.1537444    1.0225549  1714436 
 9899000     1.011581   -2.1536493   -2.1536493   -1.1311046  0.073457436   -2.1536493    1.0225448  1714436 
 9900000    1.0113024   -2.1531313   -2.1531313   -1.1308681  0.072989223   -2.1531313    1.0222632  1714436 
 9901000    1.0114864   -2.1531642   -2.1531642    -1.130715  0.067785813   -2.1531642    1.0224492  1714436 
 9902000    1.0112352   -2.1533601   -2.1533601   -1.1311649  0.072324418   -2.1533601    1.0221952  1714436 
 9903000    1.0125271   -2.1541012   -2.1541012      -1.1306  0.073790707   -2.1541012    1.0235011  1714436 
 9904000    1.0120216   -2.1532456   -2.1532456   -1.1302554  0.074108335   -2.1532456    1.0229902  1714436 
 9905000    1.0112562   -2.1528147   -2.1528147   -1.1305983  0.073807406   -2.1528147    1.0222165  1714436 
 9906000    1.0118648   -2.1533234   -2.1533234   -1.1304917  0.070485916   -2.1533234    1.0228316  1714436 
 9907000    1.0120265   -2.1530802   -2.1530802    -1.130085  0.074446996   -2.1530802    1.0229951  1714436 
 9908000    1.0112658   -2.1527124   -2.1527124   -1.1304862  0.074407194   -2.1527124    1.0222262  1714436 
 9909000     1.011624   -2.1535095   -2.1535095   -1.1309213  0.070273316   -2.1535095    1.0225883  1714436 
 9910000    1.0119618   -2.1533145   -2.1533145   -1.1303848  0.074092191   -2.1533145    1.0229297  1714436 
 9911000    1.0122636   -2.1534977   -2.1534977   -1.1302629  0.070051783   -2.1534977    1.0232348  1714436 
 9912000    1.0131164   -2.1545024   -2.1545024   -1.1304056  0.066460214   -2.1545024    1.0240968  1714436 
 9913000    1.0113776   -2.1526347   -2.1526347   -1.1302956   0.06654552   -2.1526347    1.0223391  1714436 
 9914000    1.0126568   -2.1539636   -2.1539636   -1.1303313  0.068552791   -2.1539636    1.0236323  1714436 
 9915000     1.011978   -2.1532132   -2.1532132   -1.1302671  0.068609059   -2.1532132    1.0229461  1714436 
 9916000    1.0102149   -2.1520952   -2.1520952   -1.1309314  0.070970149   -2.1520952    1.0211638  1714436 
 9917000    1.0112792    -2.152858    -2.152858   -1.1306183  0.069665761    -2.152858    1.0222397  1714436 
 9918000    1.0106048   -2.1519136   -2.1519136   -1.1303557  0.070242065   -2.1519136     1.021558  1714436 
 9919000    1.0113336   -2.1521953   -2.1521953   -1.1299007  0.072328664   -2.1521953    1.0222947  1714436 
 9920000    1.0109493   -2.1523432   -2.1523432    -1.130437  0.072155258   -2.1523432    1.0219062  1714436 
 9921000    1.0121413   -2.1533457   -2.1533457   -1.1302346  0.067954986   -2.1533457    1.0231111  1714436 
 9922000    1.0109406   -2.1523418   -2.1523418   -1.1304443   0.06765211   -2.1523418    1.0218974  1714436 
 9923000    1.0106164   -2.1524316   -2.1524316   -1.1308619  0.069392008   -2.1524316    1.0215697  1714436 
 9924000    1.0103319   -2.1522146   -2.1522146   -1.1309324  0.069399791   -2.1522146    1.0212822  1714436 
 9925000    1.0114436   -2.1536083   -2.1536083   -1.1312024  0.067726553   -2.1536083    1.0224059  1714436 
 9926000    1.0102519     -2.15227     -2.15227   -1.1310687  0.070717717     -2.15227    1.0212013  1714436 
 9927000    1.0108542   -2.1526013   -2.1526013   -1.1307912  0.067682776   -2.1526013    1.0218101  1714436 
 9928000    1.0107595   -2.1523722   -2.1523722   -1.1306579  0.068487982   -2.1523722    1.0217144  1714436 
 9929000    1.0108705   -2.1522577   -2.1522577   -1.1304311  0.068566167   -2.1522577    1.0218266  1714436 
 9930000    1.0103532     -2.15178     -2.15178   -1.1304763  0.071739807     -2.15178    1.0213037  1714436 
 9931000       1.0115   -2.1530637   -2.1530637   -1.1306008  0.070503994   -2.1530637    1.0224629  1714436 
 9932000    1.0123551   -2.1537355   -2.1537355   -1.1304082  0.067477818   -2.1537355    1.0233273  1714436 
 9933000    1.0126904   -2.1537645   -2.1537645   -1.1300983  0.070303947   -2.1537645    1.0236662  1714436 
 9934000    1.0126798   -2.1540277   -2.1540277   -1.1303723  0.070654131   -2.1540277    1.0236554  1714436 
 9935000    1.0116067   -2.1533491   -2.1533491   -1.1307784   0.07154308   -2.1533491    1.0225708  1714436 
 9936000    1.0119569   -2.1538115   -2.1538115   -1.1308868  0.067297067   -2.1538115    1.0229248  1714436 
 9937000    1.0118998   -2.1531199   -2.1531199   -1.1302528  0.066433314   -2.1531199     1.022867  1714436 
 9938000    1.0115411   -2.1529354   -2.1529354   -1.1304309  0.071046116   -2.1529354    1.0225045  1714436 
 9939000    1.0122918   -2.1533741   -2.1533741   -1.1301108  0.070939259   -2.1533741    1.0232633  1714436 
 9940000    1.0123528   -2.1535925   -2.1535925   -1.1302676  0.069371684   -2.1535925    1.0233249  1714436 
 9941000    1.0114885   -2.1525401   -2.1525401   -1.1300888  0.072168989   -2.1525401    1.0224512  1714436 
 9942000    1.0118612   -2.1531733   -2.1531733   -1.1303453  0.069305153   -2.1531733     1.022828  1714436 
 9943000    1.0108629   -2.1522661   -2.1522661   -1.1304472  0.070476976   -2.1522661    1.0218189  1714436 
 9944000    1.0117819   -2.1534052   -2.1534052   -1.1306574    0.0709084   -2.1534052    1.0227478  1714436 
 9945000    1.0116715   -2.1533967   -2.1533967   -1.1307604  0.067097833   -2.1533967    1.0226363  1714436 
 9946000    1.0117524   -2.1535549   -2.1535549   -1.1308369  0.068207484   -2.1535549    1.0227181  1714436 
 9947000    1.0108716   -2.1528124   -2.1528124   -1.1309847  0.072094048   -2.1528124    1.0218277  1714436 
 9948000    1.0115993   -2.1536358   -2.1536358   -1.1310725  0.067127772   -2.1536358    1.0225633  1714436 
 9949000    1.0116564   -2.1536474   -2.1536474   -1.1310263  0.072742936   -2.1536474     1.022621  1714436 
 9950000    1.0123742   -2.1541733   -2.1541733   -1.1308267  0.074189708   -2.1541733    1.0233466  1714436 
 9951000    1.0121349   -2.1533795   -2.1533795   -1.1302748  0.071061885   -2.1533795    1.0231047  1714436 
 9952000    1.0114221   -2.1524654   -2.1524654   -1.1300813  0.071352949   -2.1524654    1.0223841  1714436 
 9953000    1.0123111   -2.1536783   -2.1536783   -1.1303955  0.072438513   -2.1536783    1.0232828  1714436 
 9954000    1.0120259    -2.153058    -2.153058   -1.1300635  0.073391281    -2.153058    1.0229945  1714436 
 9955000    1.0116017    -2.152888    -2.152888   -1.1303223  0.074828805    -2.152888    1.0225657  1714436 
 9956000    1.0123723   -2.1536551   -2.1536551   -1.1303104  0.070035055   -2.1536551    1.0233447  1714436 
 9957000    1.0117088   -2.1533466   -2.1533466   -1.1306726  0.072638299   -2.1533466     1.022674  1714436 
 9958000    1.0116152   -2.1534351   -2.1534351   -1.1308557  0.071439843   -2.1534351    1.0225793  1714436 
 9959000     1.011756    -2.153606    -2.153606   -1.1308844  0.069095284    -2.153606    1.0227217  1714436 
 9960000    1.0110051   -2.1529522   -2.1529522   -1.1309896  0.067552885   -2.1529522    1.0219626  1714436 
 9961000     1.012144   -2.1539266   -2.1539266   -1.1308127  0.066523532   -2.1539266    1.0231139  1714436 
 9962000    1.0124666   -2.1544199   -2.1544199   -1.1309799  0.069562502   -2.1544199      1.02344  1714436 
 9963000     1.011232   -2.1535638   -2.1535638   -1.1313717  0.068823843   -2.1535638     1.022192  1714436 
 9964000    1.0119703   -2.1537962   -2.1537962   -1.1308579  0.074143437   -2.1537962    1.0229383  1714436 
 9965000    1.0116254   -2.1533092   -2.1533092   -1.1307195  0.066282913   -2.1533092    1.0225896  1714436 
 9966000     1.011342   -2.1530204   -2.1530204   -1.1307172  0.073132221   -2.1530204    1.0223032  1714436 
 9967000    1.0098261   -2.1513968   -2.1513968   -1.1306259  0.073144372   -2.1513968    1.0207709  1714436 
 9968000    1.0110869    -2.152625    -2.152625   -1.1305797  0.073518889    -2.152625    1.0220453  1714436 
 9969000    1.0103476   -2.1518647   -2.1518647   -1.1305667  0.072819295   -2.1518647     1.021298  1714436 
 9970000    1.0113509   -2.1527871   -2.1527871   -1.1304749  0.067746373   -2.1527871    1.0223122  1714436 
 9971000    1.0106991   -2.1527629   -2.1527629   -1.1311095  0.066930287   -2.1527629    1.0216534  1714436 
 9972000    1.0113684   -2.1531826   -2.1531826   -1.1308528  0.062745096   -2.1531826    1.0223299  1714436 
 9973000    1.0113316   -2.1533293   -2.1533293   -1.1310366  0.068900899   -2.1533293    1.0222927  1714436 
 9974000    1.0119388   -2.1529428   -2.1529428   -1.1300363  0.065989616   -2.1529428    1.0229065  1714436 
 9975000    1.0104066   -2.1519822   -2.1519822   -1.1306245  0.069788307   -2.1519822    1.0213577  1714436 
 9976000     1.010216   -2.1517551   -2.1517551   -1.1305901  0.071560029   -2.1517551     1.021165  1714436 
 9977000    1.0116496   -2.1527092   -2.1527092   -1.1300951  0.069313805   -2.1527092    1.0226141  1714436 
 9978000    1.0117341   -2.1530043   -2.1530043   -1.1303047   0.07084176   -2.1530043    1.0226996  1714436 
 9979000    1.0105256   -2.1517579   -2.1517579   -1.1302799  0.071726628   -2.1517579    1.0214779  1714436 
 9980000     1.011408   -2.1527102   -2.1527102   -1.1303403  0.073620586   -2.1527102    1.0223699  1714436 
 9981000    1.0107594    -2.151927    -2.151927   -1.1302128  0.068845142    -2.151927    1.0217142  1714436 
 9982000    1.0118869   -2.1525291   -2.1525291    -1.129675  0.074437464   -2.1525291     1.022854  1714436 
 9983000    1.0115196   -2.1526118   -2.1526118   -1.1301291  0.071790209   -2.1526118    1.0224827  1714436 
 9984000     1.010971   -2.1514576   -2.1514576   -1.1295295  0.075629048   -2.1514576    1.0219282  1714436 
 9985000      1.01212   -2.1522509   -2.1522509   -1.1291614  0.066436744   -2.1522509    1.0230896  1714436 
 9986000    1.0124229   -2.1525502   -2.1525502   -1.1291544  0.070027153   -2.1525502    1.0233958  1714436 
 9987000    1.0125882   -2.1527502   -2.1527502   -1.1291872  0.074289725   -2.1527502    1.0235629  1714436 
 9988000     1.012797   -2.1524385   -2.1524385   -1.1286645  0.073508662   -2.1524385     1.023774  1714436 
 9989000     1.012421    -2.152794    -2.152794      -1.1294  0.066399406    -2.152794    1.0233939  1714436 
 9990000    1.0118216   -2.1520632   -2.1520632   -1.1292752  0.075711025   -2.1520632     1.022788  1714436 
 9991000    1.0114088   -2.1520966   -2.1520966   -1.1297259  0.073953193   -2.1520966    1.0223707  1714436 
 9992000    1.0119049   -2.1524837   -2.1524837   -1.1296115  0.067914143   -2.1524837    1.0228721  1714436 
 9993000    1.0122124   -2.1530364   -2.1530364   -1.1298534  0.068692693   -2.1530364    1.0231831  1714436 
 9994000    1.0110985   -2.1518675   -2.1518675   -1.1298105  0.066489114   -2.1518675     1.022057  1714436 
 9995000    1.0113626   -2.1521197   -2.1521197   -1.1297957  0.070070112   -2.1521197     1.022324  1714436 
 9996000     1.011913   -2.1524001   -2.1524001   -1.1295197  0.065432186   -2.1524001    1.0228804  1714436 
 9997000    1.0111997   -2.1520168   -2.1520168   -1.1298574  0.072467246   -2.1520168    1.0221594  1714436 
 9998000    1.0115983   -2.1525159   -2.1525159   -1.1299536  0.067955369   -2.1525159    1.0225623  1714436 
 9999000    1.0110678   -2.1520656   -2.1520656   -1.1300396  0.074559268   -2.1520656     1.022026  1714436 
10000000    1.0119452   -2.1526384   -2.1526384   -1.1297254  0.071395799   -2.1526384     1.022913  1714436 
Loop time of 27872.8 on 1048 procs for 10000000 steps with 1714436 atoms

Performance: 154990.078 tau/day, 358.773 timesteps/s
86.4% CPU use with 1048 MPI tasks x 1 OpenMP threads

MPI task timing breakdown:
Section |  min time  |  avg time  |  max time  |%varavg|  %CPU | %total
-----------------------------------------------------------------------
Pair    | 921.07     | 3363.9     | 5300.4     |1285.4 |  92.1 | 12.07
Bond    | 6.3114     | 6.9067     | 8.1779     |   9.5 | 100.0 |  0.02
Neigh   | 976.8      | 3305.2     | 3982.2     | 942.6 |  98.0 | 11.86
Comm    | 7394.2     | 13688      | 16885      |2084.6 |  86.0 | 49.11
Output  | 554.11     | 556.71     | 585.76     |  21.9 |  67.2 |  2.00
Modify  | 3522.4     | 6178.8     | 15001      |2922.5 |  81.4 | 22.17
Other   |            | 772.8      |            |       |       |  2.77

Nlocal:        1635.91 ave        2029 max        1027 min
Histogram: 2 1 1 4 86 387 433 114 17 3
Nghost:        12990.5 ave       18841 max        1166 min
Histogram: 57 13 6 17 67 109 241 250 189 99
Neighs:        31012.7 ave       51399 max        7594 min
Histogram: 52 9 9 62 282 302 219 31 25 57

Total # of neighbors = 32501281
Ave neighs/atom = 18.957419
Ave special neighs/atom = 0.0000000
Neighbor list builds = 1000000
Dangerous builds = 990000

Total wall time: 7:44:54
