LAMMPS (24 Dec 2020)
OMP_NUM_THREADS environment is not set. Defaulting to 1 thread. (src/comm.cpp:94)
  using 1 OpenMP thread(s) per MPI task
#Read the equilibrated lj fluid and add nanocubes

units           lj
atom_style      full
atom_modify     map array first cubes
dimension       3
boundary        p p f
pair_style      lj/cut/opt 2.5

variable        sigma           equal 1.0
variable        epsilon         equal 1.0
read_restart	restart.dat.10000000
Reading restart file ...
  restart file = 24 Dec 2020, LAMMPS = 24 Dec 2020
WARNING: Restart file used different # of processors: 288 vs. 1048 (src/read_restart.cpp:697)
  restoring atom style full from restart
  orthogonal box = (0.0000000 0.0000000 0.0000000) to (120.00000 120.00000 240.00000)
  2 by 4 by 131 MPI processor grid
  restoring pair style lj/cut/opt from restart
  1553347 atoms
Finding 1-2 1-3 1-4 neighbors ...
  special bond factors lj:    0        0        0       
  special bond factors coul:  0        0        0       
     0 = max # of 1-2 neighbors
     0 = max # of 1-3 neighbors
     0 = max # of 1-4 neighbors
     1 = max # of special neighbors
  special bonds CPU = 11.166 seconds
  read_restart CPU = 12.508 seconds

group		solvent type 1
1553347 atoms in group solvent

read_data	data3_450.cubes group cubes add append
Reading data file ...
  orthogonal box = (0.0000000 0.0000000 0.0000000) to (120.00000 120.00000 240.00000)
  2 by 4 by 131 MPI processor grid
  reading atoms ...
  560070 atoms
  reading velocities ...
  560070 velocities
Finding 1-2 1-3 1-4 neighbors ...
  special bond factors lj:    0        0        0       
  special bond factors coul:  0        0        0       
     0 = max # of 1-2 neighbors
     0 = max # of 1-3 neighbors
     0 = max # of 1-4 neighbors
     1 = max # of special neighbors
  special bonds CPU = 0.667 seconds
  read_data CPU = 4.846 seconds

group 		hull  type 2
218540 atoms in group hull
group 		dummy type 3
341530 atoms in group dummy

neighbor      0.4 bin
neigh_modify  exclude molecule/intra cubes


pair_modify   shift yes

pair_coeff    1 1 1.0 1.0 #solvent
pair_coeff    2 2 1.0 1.0 1.12 #np
pair_coeff    3 3 0.0 0.0 0.0 #dummy
pair_coeff    2 3 0.0 0.0 0.0 #np dummy
pair_coeff    1 2 ${sol} 1.0  #np solvent
pair_coeff    1 2 .600 1.0  
pair_coeff    1 3 0.0 0.0 2.5 #dummy solvent

# delete solvent where the cubes are
delete_atoms  overlap 1.0 solvent cubes
System init for delete_atoms ...
Unused restart file peratom fix info:
  fix style: STORE, fix ID: bin1_COMPUTE_STORE
Neighbor list info ...
  update every 1 steps, delay 10 steps, check yes
  max neighbors/atom: 2000, page size: 100000
  master list distance cutoff = 2.9
  ghost atom cutoff = 2.9
  binsize = 1.45, bins = 83 83 166
  2 neighbor lists, perpetual/occasional/extra = 1 1 0
  (1) command delete_atoms, occasional
      attributes: full, newton on
      pair build: full/bin
      stencil: full/bin/3d
      bin: standard
  (2) pair lj/cut/opt, perpetual
      attributes: half, newton on
      pair build: half/bin/newton
      stencil: half/bin/3d/newton
      bin: standard
WARNING: Delete_atoms cutoff > minimum neighbor cutoff (src/delete_atoms.cpp:307)
WARNING: Ignoring 'compress yes' for molecular system (src/delete_atoms.cpp:125)
Deleted 398981 atoms, new total = 1714436

pair_coeff    1 1 1.0 1.0 #solvent
pair_coeff    2 2 1.0 1.0 1.12 #np
pair_coeff    3 3 0.0 0.0 0.0 #dummy
pair_coeff    2 3 0.0 0.0 0.0 #np dummy
pair_coeff    1 2 ${sol} 1.0  #np solvent
pair_coeff    1 2 .600 1.0  
pair_coeff    1 3 0.0 0.0 0.0 #dummy solvent


comm_modify   mode multi cutoff/multi 1 2.5 cutoff/multi 2 2.5 cutoff/multi 3 6.96

reset_timestep 	0

balance 	1.05 shift z 10 1.05
Balancing ...
Neighbor list info ...
  update every 1 steps, delay 10 steps, check yes
  max neighbors/atom: 2000, page size: 100000
  master list distance cutoff = 2.9
  ghost atom cutoff = 6.96
  binsize = 1.45, bins = 83 83 166
  1 neighbor lists, perpetual/occasional/extra = 1 0 0
  (1) pair lj/cut/opt, perpetual
      attributes: half, newton on
      pair build: half/bin/newton
      stencil: half/bin/3d/newton
      bin: standard
 rebalancing time: 0.084 seconds
  iteration count = 4
  initial/final maximal load/proc = 2390.0000 2353.0000
  initial/final imbalance factor  = 1.4609586 1.4383412
  x cuts: 0.0000000 0.50000000 1.0000000
  y cuts: 0.0000000 0.25000000 0.50000000 0.75000000 1.0000000
  z cuts: 0.0000000 0.0090648855 0.015744275 0.021469466 0.027194656 0.032919847 0.038645038 0.044847328 0.050572519 0.056297710 0.062022901 0.068225191 0.072996183 0.080629771 0.085400763 0.093034351 0.097328244 0.10496183 0.10877863 0.11641221 0.12166031 0.12929389 0.13215649 0.13979008 0.14599237 0.14790076 0.15553435 0.16316794 0.17020591 0.17187424 0.17891221 0.18654580 0.19358377 0.19525211 0.20229008 0.20992366 0.21696163 0.21862997 0.22566794 0.23330153 0.24093511 0.24797309 0.24964142 0.25667939 0.26431298 0.27135095 0.27301928 0.28005725 0.28769084 0.29472881 0.29639714 0.30343511 0.31106870 0.31810667 0.31977501 0.32681298 0.33444656 0.34208015 0.34911812 0.35078646 0.35782443 0.36545802 0.37249599 0.37416432 0.38120229 0.38883588 0.39587385 0.39754218 0.40458015 0.41221374 0.41925171 0.42092004 0.42795802 0.43559160 0.44322519 0.45026316 0.45193149 0.45896947 0.46660305 0.47364102 0.47530936 0.48234733 0.48998092 0.49761450 0.50465247 0.50632081 0.51335878 0.52099237 0.52803034 0.52969867 0.53673664 0.54437023 0.55140820 0.55307653 0.56011450 0.56774809 0.57478606 0.57645440 0.58349237 0.59112595 0.59875954 0.60579751 0.60746585 0.61450382 0.62213740 0.62917538 0.63084371 0.63788168 0.64551527 0.65255324 0.65422157 0.66125954 0.66889313 0.67652672 0.68416031 0.69179389 0.69883186 0.70050020 0.70753817 0.71517176 0.72280534 0.73043893 0.73807252 0.74570611 0.75333969 0.76812977 0.80438931 0.84064885 0.87690840 0.91316794 0.95658397 1.0000000

####################### WALLS ###########################

variable       epsilonWall equal 2*${epsilon}
variable       epsilonWall equal 2*1
variable       repulsive   equal   0.7147*${sigma}
variable       repulsive   equal   0.7147*1
variable       full	   equal   3*${sigma}
variable       full	   equal   3*1
region         lowWall block EDGE EDGE EDGE EDGE EDGE 2

fix            topWall all wall/lj93 zhi EDGE 	       ${epsilonWall} ${sigma} ${repulsive} units box
fix            topWall all wall/lj93 zhi EDGE 	       2 ${sigma} ${repulsive} units box
fix            topWall all wall/lj93 zhi EDGE 	       2 1 ${repulsive} units box
fix            topWall all wall/lj93 zhi EDGE 	       2 1 0.7147 units box
fix            lowSol solvent wall/lj93 zlo EDGE                ${epsilonWall} ${sigma} ${full} units box
fix            lowSol solvent wall/lj93 zlo EDGE                2 ${sigma} ${full} units box
fix            lowSol solvent wall/lj93 zlo EDGE                2 1 ${full} units box
fix            lowSol solvent wall/lj93 zlo EDGE                2 1 3 units box
fix 	       lowCub cubes wall/lj93 zlo EDGE                ${epsilonWall} ${sigma} ${repulsive} units box
fix 	       lowCub cubes wall/lj93 zlo EDGE                2 ${sigma} ${repulsive} units box
fix 	       lowCub cubes wall/lj93 zlo EDGE                2 1 ${repulsive} units box
fix 	       lowCub cubes wall/lj93 zlo EDGE                2 1 0.7147 units box


###################### COMPUTES ##########################

compute        bin1 solvent chunk/atom bin/1d z lower 1.0 units box
compute        bin3 solvent chunk/atom bin/3d x lower 5.0 y lower 5.0 z lower 5.0 units box

compute 	pe solvent 	   pe/atom
compute 	pe2 all 	   pe/atom

######################  FIXES ############################


fix             peclet solvent ave/chunk 10 10 100000 bin1 density/number norm                  none ave one file density.profile

fix              temp solvent ave/chunk 10 10 100000 bin1 temp norm                  none ave one file temp.profile

fix 		 dens solvent ave/chunk 10 10 500000 bin3 density/number norm 		 none ave one file dens3.profile

fix 		pe solvent ave/chunk 1 1 500000 bin3 c_pe norm none ave one file pe3.profile
fix             1 cubes rigid/nve/small molecule
  create bodies CPU = 0.119 seconds
  490 rigid bodies with 560070 atoms
  6.9542847 = max distance from body owner to body atom

fix             2 solvent nve# temp ${temp} ${temp} 10


## Thermostat
region          regthermo block EDGE EDGE EDGE EDGE 0 15
group           thermo dynamic solvent region regthermo every 1000
dynamic group thermo defined
fix             3 thermo langevin ${temp} ${temp} 10 156453
fix             3 thermo langevin 1.0 ${temp} 10 156453
fix             3 thermo langevin 1.0 1.0 10 156453


#### Load balancing

fix             bal all balance 1000 1.05 shift z 10 1.05

############### Diagnostics and computes ###################


compute        	com cubes          rigid/local   1 mol x y z
compute        	quat cubes         rigid/local   1 mol quatw quati quatj quatk

compute 	cc2 cubes 	   chunk/atom 	 molecule
compute 	msd cubes 	   msd/chunk 	 cc2

fix 		msd all ave/time  1 1 10000 c_msd[*] file dump.msd ave one mode vector

dump            1 all custom 500000 dump.lammpstrj id mol type x y z vx vy vz c_pe2
dump		sol  solvent custom 500000 dump.soltrj id x y z vx vy vz c_pe
dump		cubetrj cubes custom 500000 cubes.lammpstrj id mol type x y z vx vy vz
#dump            com cubes local 100000 dump.*.xyz c_com[*]
#dump	        xyz hull xyz 100000 cubes.xyz
#dump            quat cubes      local 100000 dump.*.quat c_quat[*]
dump		order cubes 	local 500000 dump.*.order c_com[*] c_quat[*]
#dump		mol cubes molfile 10000 mol.xyz xyz


dump            2 all image 500000 image.*.png type type zoom 1.5 size 1280 720
dump_modify     2 pad 8
dump		image cubes image 500000 image_cubes.*.png type type zoom 1.5 size 1280 720
dump_modify	image pad 8
dump            3 all movie 10000 movie.avi type type zoom 1.5 size 1280 720
dump		4 cubes movie 10000 movie_cubes.avi type type size 1280 720


thermo          1000
thermo_style    custom step temp epair evdwl etotal press pe ke atoms

restart         1000000 restart.dat
timestep        0.005
timer           full
New timer settings: style=full  mode=nosync  timeout=off

run 		10000000
Per MPI rank memory allocation (min/avg/max) = 15.66 | 24.49 | 34.41 Mbytes
Step Temp E_pair E_vdwl TotEng Press PotEng KinEng Atoms 
       0    1.0089585   -2.1307436   -2.1307436   -1.1108498  -0.09926216   -2.1307436    1.0198938  1714436 
    1000    1.0060513   -2.1278945   -2.1278945   -1.1109394  0.071874578   -2.1278945    1.0169551  1714436 
    2000    1.0053397   -2.1275182   -2.1275182   -1.1112824  0.071757181   -2.1275182    1.0162359  1714436 
    3000    1.0062776   -2.1287891   -2.1287891   -1.1116052  0.070896315   -2.1287891    1.0171839  1714436 
    4000    1.0047142   -2.1277073   -2.1277073   -1.1121038  0.067388029   -2.1277073    1.0156035  1714436 
    5000    1.0042563   -2.1276157   -2.1276157    -1.112475  0.069145537   -2.1276157    1.0151407  1714436 
    6000    1.0037544   -2.1273592   -2.1273592   -1.1127259  0.064264108   -2.1273592    1.0146334  1714436 
    7000    1.0034551   -2.1272138   -2.1272138    -1.112883  0.064402321   -2.1272138    1.0143308  1714436 
    8000    1.0035186   -2.1271752   -2.1271752   -1.1127802  0.063702672   -2.1271752     1.014395  1714436 
    9000    1.0034389   -2.1270042   -2.1270042   -1.1126898  0.062943689   -2.1270042    1.0143144  1714436 
   10000    1.0019405   -2.1258456   -2.1258456   -1.1130459   0.06463371   -2.1258456    1.0127998  1714436 
   11000      1.00302   -2.1271977   -2.1271977   -1.1133067  0.065677602   -2.1271977     1.013891  1714436 
   12000    1.0015066    -2.125886    -2.125886   -1.1135248  0.064820382    -2.125886    1.0123612  1714436 
   13000    1.0017832   -2.1261631   -2.1261631   -1.1135223  0.062290184   -2.1261631    1.0126408  1714436 
   14000    1.0013971   -2.1257115   -2.1257115    -1.113461  0.065024734   -2.1257115    1.0122505  1714436 
   15000     1.002496   -2.1271694   -2.1271694   -1.1138081  0.064170823   -2.1271694    1.0133613  1714436 
   16000    1.0005971   -2.1254107   -2.1254107    -1.113969  0.060214421   -2.1254107    1.0114418  1714436 
   17000    1.0004083   -2.1248775   -2.1248775   -1.1136265  0.061964023   -2.1248775     1.011251  1714436 
   18000    1.0007079   -2.1253495   -2.1253495   -1.1137957  0.065166128   -2.1253495    1.0115538  1714436 
   19000    1.0022063   -2.1262639   -2.1262639   -1.1131955  0.062864308   -2.1262639    1.0130685  1714436 
   20000    1.0014655    -2.125439    -2.125439   -1.1131194    0.0638658    -2.125439    1.0123197  1714436 
   21000    1.0019466   -2.1259981   -2.1259981   -1.1131921  0.059850369   -2.1259981     1.012806  1714436 
   22000    1.0021244   -2.1259012   -2.1259012   -1.1129155  0.062833093   -2.1259012    1.0129857  1714436 
   23000    1.0020062   -2.1261146   -2.1261146   -1.1132484  0.060648269   -2.1261146    1.0128662  1714436 
   24000    1.0003472   -2.1242428   -2.1242428   -1.1130536  0.065780709   -2.1242428    1.0111892  1714436 
   25000    1.0013355    -2.124745    -2.124745   -1.1125568  0.063766053    -2.124745    1.0121882  1714436 
   26000    1.0012884    -2.124438    -2.124438   -1.1122973  0.061353937    -2.124438    1.0121406  1714436 
   27000     1.001809   -2.1244003   -2.1244003   -1.1117333  0.062242824   -2.1244003    1.0126669  1714436 
   28000    1.0026105   -2.1252061   -2.1252061   -1.1117291  0.064440101   -2.1252061     1.013477  1714436 
   29000    1.0032102   -2.1256909   -2.1256909   -1.1116077  0.068330197   -2.1256909    1.0140832  1714436 
   30000    1.0021494   -2.1249839   -2.1249839   -1.1119729  0.061798066   -2.1249839     1.013011  1714436 
   31000    1.0012167   -2.1240111   -2.1240111   -1.1119429  0.063331961   -2.1240111    1.0120682  1714436 
   32000    1.0012959    -2.124297    -2.124297   -1.1121489  0.062059388    -2.124297    1.0121482  1714436 
   33000    1.0006589   -2.1235831   -2.1235831   -1.1120789  0.063176296   -2.1235831    1.0115043  1714436 
   34000    1.0008118   -2.1233291   -2.1233291   -1.1116702  0.064153095   -2.1233291    1.0116589  1714436 
   35000    1.0010713   -2.1232132   -2.1232132   -1.1112921  0.062658181   -2.1232132    1.0119211  1714436 
   36000    1.0021657   -2.1248022   -2.1248022   -1.1117748  0.063636426   -2.1248022    1.0130275  1714436 
   37000    1.0019392   -2.1243743   -2.1243743   -1.1115758  0.065588332   -2.1243743    1.0127985  1714436 
   38000    1.0011698   -2.1238228   -2.1238228   -1.1118021  0.063424112   -2.1238228    1.0120207  1714436 
   39000    1.0013008   -2.1239345   -2.1239345   -1.1117814   0.05883266   -2.1239345    1.0121531  1714436 
   40000    1.0003885   -2.1232931   -2.1232931   -1.1120621  0.059597671   -2.1232931     1.011231  1714436 
   41000    1.0004506   -2.1232856   -2.1232856   -1.1119919  0.062666698   -2.1232856    1.0112937  1714436 
   42000    1.0007879   -2.1233667   -2.1233667   -1.1117319  0.062550237   -2.1233667    1.0116347  1714436 
   43000       1.0009   -2.1236543   -2.1236543   -1.1119063  0.063281836   -2.1236543     1.011748  1714436 
   44000    1.0014881   -2.1242071   -2.1242071   -1.1118646  0.061825811   -2.1242071    1.0123425  1714436 
   45000    1.0018456   -2.1244977   -2.1244977   -1.1117939  0.063452399   -2.1244977    1.0127039  1714436 
   46000    1.0015735   -2.1244446   -2.1244446   -1.1120158   0.06343598   -2.1244446    1.0124289  1714436 
   47000    1.0022398   -2.1249433   -2.1249433    -1.111841  0.063547426   -2.1249433    1.0131023  1714436 
   48000    1.0028595   -2.1251393   -2.1251393   -1.1114105  0.065445841   -2.1251393    1.0137288  1714436 
   49000    1.0029925   -2.1252824   -2.1252824   -1.1114192  0.061601974   -2.1252824    1.0138632  1714436 
   50000    1.0020825   -2.1247127   -2.1247127   -1.1117694  0.062368811   -2.1247127    1.0129434  1714436 
   51000     1.002595    -2.124783    -2.124783   -1.1113217  0.062856086    -2.124783    1.0134613  1714436 
   52000    1.0026944    -2.125244    -2.125244   -1.1116822  0.065902637    -2.125244    1.0135618  1714436 
   53000    1.0042457   -2.1271604   -2.1271604   -1.1120305  0.065453001   -2.1271604    1.0151299  1714436 
   54000    1.0029251   -2.1259957   -2.1259957   -1.1122006  0.062125053   -2.1259957     1.013795  1714436 
   55000    1.0029826   -2.1262407   -2.1262407   -1.1123875  0.063306982   -2.1262407    1.0138532  1714436 
   56000    1.0023432   -2.1255227   -2.1255227   -1.1123159  0.061800963   -2.1255227    1.0132068  1714436 
   57000    1.0019176   -2.1252913   -2.1252913   -1.1125146  0.063512472   -2.1252913    1.0127767  1714436 
   58000    1.0013778     -2.12491     -2.12491    -1.112679   0.06139448     -2.12491     1.012231  1714436 
   59000    1.0023592   -2.1257104   -2.1257104   -1.1124874  0.061873513   -2.1257104     1.013223  1714436 
   60000    1.0022173   -2.1260751   -2.1260751   -1.1129956  0.065591476   -2.1260751    1.0130795  1714436 
   61000    1.0020138   -2.1260856   -2.1260856   -1.1132117  0.065130979   -2.1260856    1.0128739  1714436 
   62000    1.0024654   -2.1267539   -2.1267539   -1.1134235  0.064632546   -2.1267539    1.0133304  1714436 
   63000    1.0030652   -2.1274374   -2.1274374   -1.1135007  0.064614798   -2.1274374    1.0139367  1714436 
   64000     1.002614   -2.1268999   -2.1268999   -1.1134193   0.06542554   -2.1268999    1.0134806  1714436 
   65000    1.0025741   -2.1270521   -2.1270521   -1.1136118  0.064039554   -2.1270521    1.0134403  1714436 
   66000    1.0034842   -2.1278709   -2.1278709   -1.1135107  0.065766509   -2.1278709    1.0143602  1714436 
   67000     1.003326   -2.1275657   -2.1275657   -1.1133654  0.062274364   -2.1275657    1.0142003  1714436 
   68000    1.0020829   -2.1269737   -2.1269737     -1.11403  0.063674944   -2.1269737    1.0129437  1714436 
   69000    1.0036776    -2.128216    -2.128216   -1.1136602  0.062086428    -2.128216    1.0145557  1714436 
   70000    1.0032613     -2.12753     -2.12753   -1.1133951  0.068824525     -2.12753    1.0141349  1714436 
   71000    1.0019793   -2.1266764   -2.1266764   -1.1138374  0.066353054   -2.1266764     1.012839  1714436 
   72000    1.0027752   -2.1276828   -2.1276828   -1.1140392  0.058640677   -2.1276828    1.0136436  1714436 
   73000    1.0021692   -2.1271414   -2.1271414   -1.1141104  0.066950642   -2.1271414     1.013031  1714436 
   74000    1.0034189     -2.12806     -2.12806   -1.1137658  0.064555876     -2.12806    1.0142942  1714436 
   75000     1.003148   -2.1272748   -2.1272748   -1.1132544  0.068958988   -2.1272748    1.0140204  1714436 
   76000    1.0041853   -2.1284225   -2.1284225   -1.1133536  0.065694094   -2.1284225    1.0150689  1714436 
   77000    1.0028229   -2.1268888   -2.1268888    -1.113197  0.065481961   -2.1268888    1.0136917  1714436 
   78000    1.0040636   -2.1281448   -2.1281448   -1.1131989  0.066291739   -2.1281448    1.0149459  1714436 
   79000    1.0027779   -2.1271441   -2.1271441   -1.1134979  0.067743183   -2.1271441    1.0136462  1714436 
   80000     1.001844   -2.1263498   -2.1263498   -1.1136475  0.064325706   -2.1263498    1.0127022  1714436 
   81000    1.0021448   -2.1261533   -2.1261533    -1.113147  0.067097675   -2.1261533    1.0130063  1714436 
   82000    1.0034338   -2.1276314   -2.1276314   -1.1133221  0.063657308   -2.1276314    1.0143093  1714436 
   83000    1.0021956   -2.1261291   -2.1261291   -1.1130714  0.066667146   -2.1261291    1.0130577  1714436 
   84000    1.0033855   -2.1271363   -2.1271363   -1.1128759  0.060890869   -2.1271363    1.0142604  1714436 
   85000    1.0026881   -2.1263274   -2.1263274   -1.1127719  0.065183504   -2.1263274    1.0135555  1714436 
   86000    1.0034468   -2.1268511   -2.1268511   -1.1125287  0.068078316   -2.1268511    1.0143224  1714436 
   87000    1.0029027    -2.126218    -2.126218   -1.1124456  0.063578117    -2.126218    1.0137724  1714436 
   88000    1.0033382    -2.126819    -2.126819   -1.1126063  0.063825739    -2.126819    1.0142127  1714436 
   89000    1.0024239   -2.1257508   -2.1257508   -1.1124625  0.063945776   -2.1257508    1.0132884  1714436 
   90000    1.0023872   -2.1261249   -2.1261249   -1.1128736  0.064461103   -2.1261249    1.0132513  1714436 
   91000    1.0017268   -2.1255609   -2.1255609   -1.1129771   0.06576293   -2.1255609    1.0125838  1714436 
   92000    1.0019667   -2.1255732   -2.1255732   -1.1127469  0.062469125   -2.1255732    1.0128263  1714436 
   93000    1.0030764   -2.1262907   -2.1262907   -1.1123427  0.063489986   -2.1262907     1.013948  1714436 
   94000    1.0013877   -2.1247421   -2.1247421   -1.1125011  0.062961641   -2.1247421     1.012241  1714436 
   95000    1.0017841   -2.1253939   -2.1253939   -1.1127521  0.060420811   -2.1253939    1.0126417  1714436 
   96000    1.0014459   -2.1250006   -2.1250006   -1.1127008  0.062544611   -2.1250006    1.0122998  1714436 
   97000     1.001784   -2.1255143   -2.1255143   -1.1128726  0.063909409   -2.1255143    1.0126416  1714436 
   98000     1.002094   -2.1254446   -2.1254446   -1.1124896  0.067909773   -2.1254446     1.012955  1714436 
   99000    1.0015502   -2.1250439   -2.1250439   -1.1126386   0.06424944   -2.1250439    1.0124052  1714436 
  100000    1.0005507   -2.1236322   -2.1236322   -1.1122373   0.06093024   -2.1236322    1.0113949  1714436 
  101000    1.0016525   -2.1249012   -2.1249012   -1.1123925  0.064506623   -2.1249012    1.0125087  1714436 
  102000    1.0011768   -2.1243634   -2.1243634   -1.1123355  0.065075726   -2.1243634    1.0120278  1714436 
  103000    1.0013908   -2.1247116   -2.1247116   -1.1124674  0.060929676   -2.1247116    1.0122442  1714436 
  104000    1.0010719    -2.124494    -2.124494   -1.1125722  0.063278177    -2.124494    1.0119218  1714436 
  105000    1.0015146   -2.1250426   -2.1250426   -1.1126734  0.064981546   -2.1250426    1.0123692  1714436 
  106000    1.0010899   -2.1246295   -2.1246295   -1.1126895    0.0647869   -2.1246295      1.01194  1714436 
  107000    1.0013954   -2.1250451   -2.1250451   -1.1127963  0.061961054   -2.1250451    1.0122488  1714436 
  108000    1.0016271   -2.1254161   -2.1254161   -1.1129331  0.060207846   -2.1254161     1.012483  1714436 
  109000    1.0004892   -2.1241045   -2.1241045   -1.1127716  0.057557952   -2.1241045    1.0113328  1714436 
  110000    1.0007968   -2.1245271   -2.1245271   -1.1128834  0.064756892   -2.1245271    1.0116437  1714436 
  111000    1.0013465   -2.1249836   -2.1249836   -1.1127843  0.063634818   -2.1249836    1.0121993  1714436 
  112000    1.0009348   -2.1244874   -2.1244874   -1.1127042  0.062303004   -2.1244874    1.0117832  1714436 
  113000    1.0022058   -2.1256935   -2.1256935   -1.1126256  0.061637631   -2.1256935    1.0130679  1714436 
  114000     1.002307   -2.1257225   -2.1257225   -1.1125522  0.062803055   -2.1257225    1.0131703  1714436 
  115000    1.0020204   -2.1250691   -2.1250691   -1.1121885  0.063522155   -2.1250691    1.0128806  1714436 
  116000    1.0015484   -2.1247588   -2.1247588   -1.1123554   0.06406958   -2.1247588    1.0124034  1714436 
  117000    1.0030185   -2.1260182   -2.1260182   -1.1121287  0.063710759   -2.1260182    1.0138895  1714436 
  118000    1.0022939   -2.1252031   -2.1252031   -1.1120461  0.065858899   -2.1252031     1.013157  1714436 
  119000    1.0024266    -2.124885    -2.124885   -1.1115939  0.069148138    -2.124885    1.0132911  1714436 
  120000    1.0033702   -2.1266075   -2.1266075   -1.1123625  0.060816101   -2.1266075     1.014245  1714436 
  121000    1.0031616    -2.126238    -2.126238   -1.1122039  0.062391992    -2.126238    1.0140341  1714436 
  122000    1.0029873   -2.1258238   -2.1258238   -1.1119659  0.063746914   -2.1258238     1.013858  1714436 
  123000     1.003084   -2.1255435   -2.1255435   -1.1115878  0.068684078   -2.1255435    1.0139557  1714436 
  124000    1.0031754   -2.1254068   -2.1254068   -1.1113588  0.067870411   -2.1254068     1.014048  1714436 
  125000    1.0025465   -2.1249878   -2.1249878   -1.1115755   0.06786912   -2.1249878    1.0134123  1714436 
  126000     1.003152   -2.1260581   -2.1260581   -1.1120337  0.061020769   -2.1260581    1.0140244  1714436 
  127000    1.0029517   -2.1260247   -2.1260247   -1.1122028  0.061325439   -2.1260247    1.0138219  1714436 
  128000    1.0033273   -2.1263437   -2.1263437    -1.112142  0.062033143   -2.1263437    1.0142016  1714436 
  129000    1.0032317   -2.1264457   -2.1264457   -1.1123408   0.06356494   -2.1264457    1.0141049  1714436 
  130000    1.0035958   -2.1263301   -2.1263301    -1.111857  0.069505796   -2.1263301    1.0144731  1714436 
  131000    1.0039787   -2.1271075   -2.1271075   -1.1122474  0.070281078   -2.1271075    1.0148601  1714436 
  132000    1.0036609   -2.1266511   -2.1266511   -1.1121122  0.068552276   -2.1266511    1.0145389  1714436 
  133000     1.003975   -2.1268502   -2.1268502   -1.1119939  0.069492839   -2.1268502    1.0148564  1714436 
  134000    1.0035846   -2.1269626   -2.1269626   -1.1125009   0.06593359   -2.1269626    1.0144617  1714436 
  135000    1.0029958   -2.1266009   -2.1266009   -1.1127344  0.062048183   -2.1266009    1.0138665  1714436 
  136000    1.0042639   -2.1275355   -2.1275355   -1.1123871  0.063798771   -2.1275355    1.0151484  1714436 
  137000    1.0035747   -2.1271488   -2.1271488   -1.1126971  0.066482922   -2.1271488    1.0144517  1714436 
  138000    1.0036865   -2.1272955   -2.1272955   -1.1127309  0.065155139   -2.1272955    1.0145647  1714436 
  139000    1.0023892   -2.1260618   -2.1260618   -1.1128084  0.066903265   -2.1260618    1.0132534  1714436 
  140000    1.0028384   -2.1270785   -2.1270785    -1.113371  0.070239279   -2.1270785    1.0137075  1714436 
  141000    1.0028412   -2.1267528   -2.1267528   -1.1130425  0.061818018   -2.1267528    1.0137103  1714436 
  142000    1.0028943   -2.1268988   -2.1268988    -1.113135  0.067445795   -2.1268988    1.0137639  1714436 
  143000    1.0021404   -2.1259924   -2.1259924   -1.1129906  0.065820432   -2.1259924    1.0130018  1714436 
  144000    1.0023881   -2.1261818   -2.1261818   -1.1129295  0.061229322   -2.1261818    1.0132523  1714436 
  145000    1.0024096   -2.1262291   -2.1262291   -1.1129551   0.06466977   -2.1262291     1.013274  1714436 
  146000    1.0024784   -2.1267274   -2.1267274   -1.1133838   0.06526445   -2.1267274    1.0133435  1714436 
  147000    1.0021925   -2.1267793   -2.1267793   -1.1137248  0.061785583   -2.1267793    1.0130545  1714436 
  148000    1.0018802   -2.1262186   -2.1262186   -1.1134798  0.064002815   -2.1262186    1.0127389  1714436 
  149000    1.0019828   -2.1264174   -2.1264174   -1.1135748  0.061586013   -2.1264174    1.0128426  1714436 
  150000     1.002154   -2.1267658   -2.1267658   -1.1137502  0.061628074   -2.1267658    1.0130156  1714436 
  151000    1.0034897    -2.127807    -2.127807   -1.1134412  0.061108516    -2.127807    1.0143658  1714436 
  152000    1.0023671   -2.1270243   -2.1270243   -1.1137934  0.060311808   -2.1270243     1.013231  1714436 
  153000    1.0023016   -2.1266448   -2.1266448     -1.11348  0.060536128   -2.1266448    1.0131648  1714436 
  154000    1.0021536   -2.1260494   -2.1260494   -1.1130343  0.063754478   -2.1260494    1.0130152  1714436 
  155000    1.0029279   -2.1262184   -2.1262184   -1.1124205   0.06468885   -2.1262184    1.0137979  1714436 
  156000    1.0034442   -2.1269549   -2.1269549   -1.1126351  0.061343584   -2.1269549    1.0143197  1714436 
  157000     1.002774   -2.1263894   -2.1263894   -1.1127471  0.059515506   -2.1263894    1.0136424  1714436 
  158000    1.0021777   -2.1257232   -2.1257232   -1.1126836   0.06537007   -2.1257232    1.0130395  1714436 
  159000    1.0018109    -2.125279    -2.125279   -1.1126102  0.061519519    -2.125279    1.0126688  1714436 
  160000    1.0030465   -2.1263408   -2.1263408    -1.112423  0.060895511   -2.1263408    1.0139178  1714436 
  161000    1.0026032   -2.1256732   -2.1256732   -1.1122036   0.06967209   -2.1256732    1.0134696  1714436 
  162000     1.002489   -2.1252238   -2.1252238   -1.1118695  0.063504265   -2.1252238    1.0133543  1714436 
  163000     1.002646   -2.1256491   -2.1256491   -1.1121361   0.06255308   -2.1256491     1.013513  1714436 
  164000     1.002647   -2.1254653   -2.1254653   -1.1119513  0.064770579   -2.1254653     1.013514  1714436 
  165000    1.0027731   -2.1255808   -2.1255808   -1.1119394  0.069927503   -2.1255808    1.0136414  1714436 
  166000    1.0027192   -2.1258529   -2.1258529    -1.112266   0.05933944   -2.1258529    1.0135869  1714436 
  167000    1.0025242   -2.1254015   -2.1254015   -1.1120116  0.059701229   -2.1254015    1.0133899  1714436 
  168000    1.0026426   -2.1253092   -2.1253092   -1.1117997  0.061245503   -2.1253092    1.0135095  1714436 
  169000    1.0022233    -2.125479    -2.125479   -1.1123934   0.05927035    -2.125479    1.0130856  1714436 
  170000    1.0025173   -2.1253611   -2.1253611   -1.1119782  0.065059804   -2.1253611    1.0133829  1714436 
  171000    1.0020426   -2.1249597   -2.1249597   -1.1120566  0.069693432   -2.1249597     1.012903  1714436 
  172000    1.0024081   -2.1252874   -2.1252874    -1.112015  0.061089983   -2.1252874    1.0132724  1714436 
  173000    1.0021896   -2.1248605   -2.1248605    -1.111809  0.063247275   -2.1248605    1.0130515  1714436 
  174000    1.0022073    -2.124779    -2.124779   -1.1117095  0.063246273    -2.124779    1.0130695  1714436 
  175000    1.0017629   -2.1243554   -2.1243554   -1.1117352   0.06071075   -2.1243554    1.0126203  1714436 
  176000     1.003123   -2.1254949   -2.1254949   -1.1114998  0.063740463   -2.1254949    1.0139951  1714436 
  177000    1.0030772   -2.1251649   -2.1251649   -1.1112161  0.065728185   -2.1251649    1.0139488  1714436 
  178000    1.0020528   -2.1243492   -2.1243492   -1.1114359  0.061339773   -2.1243492    1.0129133  1714436 
  179000     1.001174   -2.1235716   -2.1235716   -1.1115467  0.062541102   -2.1235716    1.0120249  1714436 
  180000     1.002768   -2.1250854   -2.1250854   -1.1114491   0.06136305   -2.1250854    1.0136363  1714436 
  181000    1.0027573   -2.1250094   -2.1250094    -1.111384  0.065553355   -2.1250094    1.0136254  1714436 
  182000    1.0023958    -2.125358    -2.125358    -1.112098  0.061542694    -2.125358      1.01326  1714436 
  183000    1.0029341   -2.1256797   -2.1256797   -1.1118756   0.06357397   -2.1256797    1.0138042  1714436 
  184000    1.0024631   -2.1250303   -2.1250303   -1.1117022  0.061978023   -2.1250303    1.0133281  1714436 
  185000      1.00245   -2.1256547   -2.1256547   -1.1123399  0.065300999   -2.1256547    1.0133148  1714436 
  186000     1.002518   -2.1253492   -2.1253492   -1.1119656  0.065733899   -2.1253492    1.0133836  1714436 
  187000    1.0031195   -2.1259751   -2.1259751   -1.1119836  0.061789559   -2.1259751    1.0139915  1714436 
  188000    1.0026387   -2.1256141   -2.1256141   -1.1121085   0.06299596   -2.1256141    1.0135056  1714436 
  189000    1.0030757   -2.1255947   -2.1255947   -1.1116474  0.060741347   -2.1255947    1.0139473  1714436 
  190000    1.0028787   -2.1252131   -2.1252131   -1.1114649  0.066878361   -2.1252131    1.0137482  1714436 
  191000    1.0023482   -2.1249959   -2.1249959   -1.1117839  0.063760826   -2.1249959    1.0132119  1714436 
  192000    1.0033626   -2.1257766   -2.1257766   -1.1115392  0.067771768   -2.1257766    1.0142373  1714436 
  193000    1.0037637   -2.1258879   -2.1258879   -1.1112451    0.0665819   -2.1258879    1.0146428  1714436 
  194000    1.0036183   -2.1259407   -2.1259407   -1.1114449  0.069682028   -2.1259407    1.0144958  1714436 
  195000    1.0030139   -2.1258707   -2.1258707   -1.1119859  0.064783928   -2.1258707    1.0138848  1714436 
  196000    1.0032272   -2.1257515   -2.1257515   -1.1116511  0.064393648   -2.1257515    1.0141004  1714436 
  197000    1.0034573   -2.1263779   -2.1263779   -1.1120449  0.063917312   -2.1263779     1.014333  1714436 
  198000    1.0026551   -2.1256826   -2.1256826   -1.1121605  0.066827915   -2.1256826    1.0135222  1714436 
  199000    1.0036804   -2.1264918   -2.1264918   -1.1119333  0.066699667   -2.1264918    1.0145585  1714436 
  200000    1.0035366   -2.1262291   -2.1262291   -1.1118159  0.067382584   -2.1262291    1.0144132  1714436 
  201000     1.003441   -2.1257847   -2.1257847   -1.1114682  0.069177872   -2.1257847    1.0143165  1714436 
  202000    1.0036403   -2.1261692   -2.1261692   -1.1116512  0.064610408   -2.1261692     1.014518  1714436 
  203000    1.0030501   -2.1255469   -2.1255469   -1.1116256  0.068086722   -2.1255469    1.0139214  1714436 
  204000     1.003246   -2.1257566   -2.1257566   -1.1116372  0.067407607   -2.1257566    1.0141195  1714436 
  205000     1.002896   -2.1257176   -2.1257176    -1.111952   0.06543145   -2.1257176    1.0137657  1714436 
  206000      1.00242   -2.1257232   -2.1257232   -1.1124387  0.065788536   -2.1257232    1.0132845  1714436 
  207000    1.0030263   -2.1258002   -2.1258002   -1.1119029  0.068002609   -2.1258002    1.0138973  1714436 
  208000    1.0039578   -2.1265527   -2.1265527   -1.1117137  0.060699134   -2.1265527     1.014839  1714436 
  209000    1.0034559   -2.1263611   -2.1263611   -1.1120295  0.062509614   -2.1263611    1.0143316  1714436 
  210000    1.0030931   -2.1261853   -2.1261853   -1.1122204  0.064064919   -2.1261853    1.0139648  1714436 
  211000    1.0027939   -2.1258979   -2.1258979   -1.1122354  0.069642056   -2.1258979    1.0136625  1714436 
  212000    1.0024819    -2.125856    -2.125856    -1.112509  0.061360335    -2.125856     1.013347  1714436 
  213000    1.0028112   -2.1259865   -2.1259865   -1.1123065  0.062691799   -2.1259865      1.01368  1714436 
  214000    1.0028866   -2.1261816   -2.1261816   -1.1124254  0.060275062   -2.1261816    1.0137562  1714436 
  215000    1.0018475   -2.1251298   -2.1251298   -1.1124241   0.06299063   -2.1251298    1.0127057  1714436 
  216000    1.0027399   -2.1255927   -2.1255927   -1.1119848  0.064998723   -2.1255927    1.0136078  1714436 
  217000    1.0032505    -2.125714    -2.125714     -1.11159  0.064214435    -2.125714     1.014124  1714436 
  218000     1.002239      -2.1249      -2.1249   -1.1117985  0.068191823      -2.1249    1.0131015  1714436 
  219000    1.0023666   -2.1250603   -2.1250603   -1.1118298  0.064444792   -2.1250603    1.0132305  1714436 
  220000    1.0024029   -2.1251706   -2.1251706   -1.1119035  0.063986145   -2.1251706    1.0132672  1714436 
  221000    1.0018121   -2.1249424   -2.1249424   -1.1122723   0.06600488   -2.1249424      1.01267  1714436 
  222000     1.001957   -2.1253674   -2.1253674    -1.112551  0.067212228   -2.1253674    1.0128165  1714436 
  223000    1.0029237   -2.1262419   -2.1262419   -1.1124482  0.061560854   -2.1262419    1.0137937  1714436 
  224000    1.0027515   -2.1257754   -2.1257754   -1.1121558  0.062412505   -2.1257754    1.0136196  1714436 
  225000    1.0026291   -2.1255774   -2.1255774   -1.1120815  0.067305826   -2.1255774    1.0134959  1714436 
  226000    1.0036064   -2.1263204   -2.1263204   -1.1118366  0.061837373   -2.1263204    1.0144838  1714436 
  227000     1.002829   -2.1251207   -2.1251207   -1.1114227  0.067376175   -2.1251207     1.013698  1714436 
  228000    1.0026753   -2.1246208   -2.1246208   -1.1110782  0.067107076   -2.1246208    1.0135426  1714436 
  229000    1.0029278   -2.1249873   -2.1249873   -1.1111895  0.064568139   -2.1249873    1.0137978  1714436 
  230000    1.0033622   -2.1252485   -2.1252485   -1.1110115  0.062671336   -2.1252485    1.0142369  1714436 
  231000    1.0035022   -2.1256356   -2.1256356   -1.1112572  0.068807922   -2.1256356    1.0143784  1714436 
  232000    1.0037832   -2.1258688   -2.1258688   -1.1112063  0.064880144   -2.1258688    1.0146625  1714436 
  233000    1.0024121   -2.1244646   -2.1244646    -1.111188  0.064165153   -2.1244646    1.0132765  1714436 
  234000    1.0025946   -2.1247809   -2.1247809     -1.11132  0.064985659   -2.1247809     1.013461  1714436 
  235000    1.0009635   -2.1237998   -2.1237998   -1.1119875  0.062411839   -2.1237998    1.0118123  1714436 
  236000    1.0013496   -2.1244626   -2.1244626   -1.1122602  0.064072303   -2.1244626    1.0122024  1714436 
  237000    1.0026143   -2.1254785   -2.1254785   -1.1119976  0.062205427   -2.1254785    1.0134808  1714436 
  238000    1.0028687   -2.1252188   -2.1252188   -1.1114807  0.062139787   -2.1252188    1.0137381  1714436 
  239000     1.001916   -2.1250975   -2.1250975   -1.1123224  0.063868693   -2.1250975     1.012775  1714436 
  240000    1.0032724   -2.1259613   -2.1259613   -1.1118151  0.062392419   -2.1259613    1.0141462  1714436 
  241000    1.0022997   -2.1249588   -2.1249588   -1.1117959  0.061494688   -2.1249588    1.0131629  1714436 
  242000    1.0017253   -2.1243837   -2.1243837   -1.1118014  0.066190191   -2.1243837    1.0125823  1714436 
  243000    1.0023067   -2.1244992   -2.1244992   -1.1113293  0.064113858   -2.1244992    1.0131699  1714436 
  244000    1.0015598   -2.1239619   -2.1239619    -1.111547  0.065520112   -2.1239619    1.0124149  1714436 
  245000    1.0017836   -2.1242788   -2.1242788   -1.1116376  0.064396753   -2.1242788    1.0126412  1714436 
  246000    1.0012537   -2.1239094   -2.1239094   -1.1118038  0.066519315   -2.1239094    1.0121056  1714436 
  247000    1.0019233   -2.1244881   -2.1244881   -1.1117057  0.060712079   -2.1244881    1.0127824  1714436 
  248000    1.0032108   -2.1254564   -2.1254564   -1.1113725   0.05955186   -2.1254564    1.0140839  1714436 
  249000    1.0029739   -2.1254329   -2.1254329   -1.1115885  0.065086688   -2.1254329    1.0138444  1714436 
  250000     1.002464   -2.1245659   -2.1245659    -1.111237  0.064957355   -2.1245659     1.013329  1714436 
  251000    1.0026273    -2.124631    -2.124631   -1.1111369  0.063175508    -2.124631    1.0134941  1714436 
  252000    1.0030591   -2.1253363   -2.1253363   -1.1114058  0.059842525   -2.1253363    1.0139305  1714436 
  253000    1.0021631   -2.1243837   -2.1243837   -1.1113589  0.062725773   -2.1243837    1.0130248  1714436 
  254000    1.0017106   -2.1241479   -2.1241479   -1.1115805  0.063848596   -2.1241479    1.0125674  1714436 
  255000    1.0024581   -2.1244504   -2.1244504   -1.1111274   0.06306928   -2.1244504     1.013323  1714436 
  256000    1.0021045   -2.1239475   -2.1239475   -1.1109819  0.062888459   -2.1239475    1.0129656  1714436 
  257000    1.0018469   -2.1236814   -2.1236814   -1.1109762  0.064323417   -2.1236814    1.0127051  1714436 
  258000    1.0027965   -2.1246282   -2.1246282   -1.1109631  0.060912208   -2.1246282    1.0136651  1714436 
  259000    1.0030711   -2.1246679   -2.1246679   -1.1107253  0.064064257   -2.1246679    1.0139426  1714436 
  260000    1.0027304   -2.1246639   -2.1246639   -1.1110656  0.064123332   -2.1246639    1.0135983  1714436 
  261000    1.0032074   -2.1252198   -2.1252198   -1.1111394  0.061936059   -2.1252198    1.0140804  1714436 
  262000    1.0032981   -2.1255854   -2.1255854   -1.1114132  0.064509724   -2.1255854    1.0141721  1714436 
  263000    1.0027429   -2.1248716   -2.1248716   -1.1112607  0.066065383   -2.1248716    1.0136108  1714436 
  264000    1.0023857   -2.1247315   -2.1247315   -1.1114817  0.064350712   -2.1247315    1.0132498  1714436 
  265000    1.0029517   -2.1254582   -2.1254582   -1.1116362  0.063830881   -2.1254582     1.013822  1714436 
  266000    1.0022353   -2.1246578   -2.1246578     -1.11156  0.059403226   -2.1246578    1.0130978  1714436 
  267000    1.0027993   -2.1250208   -2.1250208   -1.1113529  0.064733347   -2.1250208    1.0136679  1714436 
  268000    1.0032331   -2.1257684   -2.1257684    -1.111662  0.060708332   -2.1257684    1.0141064  1714436 
  269000    1.0012036   -2.1239025   -2.1239025   -1.1118475  0.067028738   -2.1239025    1.0120549  1714436 
  270000    1.0027945   -2.1250305   -2.1250305   -1.1113674  0.062189929   -2.1250305    1.0136631  1714436 
  271000       1.0018   -2.1244594   -2.1244594   -1.1118016  0.063877052   -2.1244594    1.0126578  1714436 
  272000    1.0025509   -2.1248783   -2.1248783   -1.1114615   0.06562977   -2.1248783    1.0134168  1714436 
  273000    1.0026481   -2.1249013   -2.1249013   -1.1113863  0.064990779   -2.1249013    1.0135151  1714436 
  274000    1.0020489    -2.124352    -2.124352   -1.1114426  0.063455182    -2.124352    1.0129094  1714436 
  275000    1.0032598    -2.126097    -2.126097   -1.1119636  0.057037833    -2.126097    1.0141334  1714436 
  276000    1.0034714    -2.125716    -2.125716   -1.1113688   0.06660375    -2.125716    1.0143473  1714436 
  277000    1.0022783   -2.1252309   -2.1252309   -1.1120896  0.064001458   -2.1252309    1.0131413  1714436 
  278000    1.0026631   -2.1255467   -2.1255467   -1.1120165  0.062325085   -2.1255467    1.0135302  1714436 
  279000    1.0024564   -2.1251818   -2.1251818   -1.1118605  0.066342145   -2.1251818    1.0133213  1714436 
  280000    1.0036863   -2.1262349   -2.1262349   -1.1116704   0.06205085   -2.1262349    1.0145646  1714436 
  281000    1.0025432   -2.1250315   -2.1250315   -1.1116225  0.066184826   -2.1250315     1.013409  1714436 
  282000    1.0020427   -2.1250316   -2.1250316   -1.1121284  0.064111762   -2.1250316    1.0129031  1714436 
  283000    1.0028098   -2.1255435   -2.1255435    -1.111865  0.062580921   -2.1255435    1.0136785  1714436 
  284000    1.0032327    -2.125984    -2.125984    -1.111878  0.064315769    -2.125984     1.014106  1714436 
  285000    1.0033968   -2.1258899   -2.1258899    -1.111618  0.063417926   -2.1258899    1.0142719  1714436 
  286000    1.0019778   -2.1249757   -2.1249757   -1.1121382  0.068128148   -2.1249757    1.0128375  1714436 
  287000    1.0027845   -2.1257231   -2.1257231   -1.1120702  0.062560868   -2.1257231     1.013653  1714436 
  288000    1.0025504   -2.1254748   -2.1254748   -1.1120584   0.06229381   -2.1254748    1.0134163  1714436 
  289000    1.0026086   -2.1256377   -2.1256377   -1.1121626  0.061775095   -2.1256377    1.0134751  1714436 
  290000    1.0025965   -2.1257718   -2.1257718   -1.1123089  0.060225025   -2.1257718    1.0134629  1714436 
  291000    1.0014724   -2.1246312   -2.1246312   -1.1123045  0.066383059   -2.1246312    1.0123266  1714436 
  292000    1.0014683   -2.1249652   -2.1249652   -1.1126427  0.065593911   -2.1249652    1.0123225  1714436 
  293000    1.0014685   -2.1247312   -2.1247312   -1.1124086  0.065963035   -2.1247312    1.0123226  1714436 
  294000    1.0019001   -2.1253372   -2.1253372   -1.1125782  0.062410562   -2.1253372    1.0127589  1714436 
  295000    1.0025906    -2.125704    -2.125704   -1.1122471  0.063809951    -2.125704    1.0134569  1714436 
  296000    1.0024912   -2.1259265   -2.1259265   -1.1125701  0.061462743   -2.1259265    1.0133565  1714436 
  297000    1.0028511   -2.1264247   -2.1264247   -1.1127044  0.063677808   -2.1264247    1.0137202  1714436 
  298000    1.0026822   -2.1266183   -2.1266183   -1.1130688  0.061000663   -2.1266183    1.0135495  1714436 
  299000    1.0011339   -2.1250159   -2.1250159   -1.1130314  0.061925007   -2.1250159    1.0119844  1714436 
  300000    1.0011573   -2.1246457   -2.1246457   -1.1126376  0.064394174   -2.1246457    1.0120081  1714436 
  301000    1.0014971   -2.1254452   -2.1254452   -1.1130937  0.064485674   -2.1254452    1.0123516  1714436 
  302000    1.0024642   -2.1258791   -2.1258791   -1.1125499  0.064948131   -2.1258791    1.0133291  1714436 
  303000    1.0026343    -2.125542    -2.125542   -1.1120408  0.066110323    -2.125542    1.0135011  1714436 
  304000    1.0026243   -2.1257279   -2.1257279   -1.1122369   0.06566734   -2.1257279     1.013491  1714436 
  305000    1.0031888   -2.1260798   -2.1260798   -1.1120181  0.066784294   -2.1260798    1.0140617  1714436 
  306000    1.0030767   -2.1258248   -2.1258248   -1.1118764  0.065908283   -2.1258248    1.0139483  1714436 
  307000    1.0021531   -2.1252464   -2.1252464   -1.1122316  0.069532446   -2.1252464    1.0130147  1714436 
  308000    1.0018438   -2.1252159   -2.1252159   -1.1125139  0.058911023   -2.1252159     1.012702  1714436 
  309000    1.0022614   -2.1251742   -2.1251742     -1.11205  0.068818304   -2.1251742    1.0131242  1714436 
  310000    1.0026792   -2.1257865   -2.1257865     -1.11224  0.063946416   -2.1257865    1.0135465  1714436 
  311000    1.0025385   -2.1257723   -2.1257723    -1.112368  0.063608784   -2.1257723    1.0134043  1714436 
  312000    1.0032582   -2.1261899   -2.1261899   -1.1120582  0.066798631   -2.1261899    1.0141317  1714436 
  313000    1.0026006   -2.1257256   -2.1257256   -1.1122585  0.062655294   -2.1257256    1.0134671  1714436 
  314000    1.0027429   -2.1256804   -2.1256804   -1.1120695  0.068300494   -2.1256804    1.0136109  1714436 
  315000    1.0019043   -2.1248452   -2.1248452    -1.112082  0.065160535   -2.1248452    1.0127632  1714436 
  316000     1.001747   -2.1256029   -2.1256029   -1.1129987  0.064009719   -2.1256029    1.0126042  1714436 
  317000    1.0025089   -2.1260096   -2.1260096   -1.1126352  0.063978654   -2.1260096    1.0133744  1714436 
  318000    1.0023979   -2.1259535   -2.1259535   -1.1126914  0.062978944   -2.1259535    1.0132621  1714436 
  319000    1.0022646   -2.1253223   -2.1253223   -1.1121949  0.062570933   -2.1253223    1.0131274  1714436 
  320000    1.0021361   -2.1250402   -2.1250402   -1.1120427  0.061934594   -2.1250402    1.0129975  1714436 
  321000      1.00159    -2.124437    -2.124437   -1.1119915  0.066233472    -2.124437    1.0124455  1714436 
  322000     1.001397   -2.1240901   -2.1240901   -1.1118397  0.067809272   -2.1240901    1.0122504  1714436 
  323000    1.0020457   -2.1246489   -2.1246489   -1.1117428   0.06515455   -2.1246489    1.0129061  1714436 
  324000    1.0023083   -2.1251404   -2.1251404   -1.1119688  0.064919712   -2.1251404    1.0131716  1714436 
  325000    1.0026806    -2.125642    -2.125642    -1.112094  0.064679484    -2.125642    1.0135479  1714436 
  326000    1.0022973   -2.1250895   -2.1250895    -1.111929  0.063596655   -2.1250895    1.0131605  1714436 
  327000    1.0018635   -2.1248454   -2.1248454   -1.1121234   0.06239401   -2.1248454    1.0127219  1714436 
  328000    1.0010242   -2.1241332   -2.1241332   -1.1122597  0.062872348   -2.1241332    1.0118735  1714436 
  329000    1.0016869   -2.1251073   -2.1251073   -1.1125639  0.064231736   -2.1251073    1.0125435  1714436 
  330000    1.0016008     -2.12497     -2.12497   -1.1125135  0.065963012     -2.12497    1.0124565  1714436 
  331000    1.0023735   -2.1255896   -2.1255896    -1.112352  0.061229804   -2.1255896    1.0132375  1714436 
  332000    1.0024021   -2.1258108   -2.1258108   -1.1125444  0.064011145   -2.1258108    1.0132664  1714436 
  333000    1.0028695    -2.126057    -2.126057   -1.1123181  0.062591957    -2.126057    1.0137389  1714436 
  334000    1.0029316   -2.1259054   -2.1259054   -1.1121038  0.062917393   -2.1259054    1.0138016  1714436 
  335000    1.0026167   -2.1255739   -2.1255739   -1.1120906  0.066665282   -2.1255739    1.0134833  1714436 
  336000    1.0030632   -2.1256175   -2.1256175   -1.1116828  0.064606453   -2.1256175    1.0139347  1714436 
  337000    1.0025101    -2.125224    -2.125224   -1.1118485   0.06647888    -2.125224    1.0133756  1714436 
  338000    1.0035052   -2.1258912   -2.1258912   -1.1115097  0.064330384   -2.1258912    1.0143814  1714436 
  339000    1.0035408   -2.1260629   -2.1260629   -1.1116454  0.067896229   -2.1260629    1.0144175  1714436 
  340000    1.0030331   -2.1252292   -2.1252292   -1.1113249  0.065111777   -2.1252292    1.0139042  1714436 
  341000    1.0020815   -2.1244669   -2.1244669   -1.1115246  0.062137766   -2.1244669    1.0129423  1714436 
  342000    1.0027714   -2.1249464   -2.1249464   -1.1113067  0.065251523   -2.1249464    1.0136397  1714436 
  343000    1.0020947   -2.1244499   -2.1244499   -1.1114942  0.061023683   -2.1244499    1.0129557  1714436 
  344000    1.0015831   -2.1243712   -2.1243712   -1.1119326  0.064745938   -2.1243712    1.0124385  1714436 
  345000    1.0015992   -2.1247564   -2.1247564   -1.1123016  0.062445678   -2.1247564    1.0124548  1714436 
  346000    1.0019215   -2.1252297   -2.1252297   -1.1124491  0.063977474   -2.1252297    1.0127806  1714436 
  347000    1.0022273   -2.1252764   -2.1252764   -1.1121866  0.067064465   -2.1252764    1.0130897  1714436 
  348000    1.0022327   -2.1257213   -2.1257213   -1.1126261  0.064727069   -2.1257213    1.0130952  1714436 
  349000    1.0024278   -2.1257464   -2.1257464    -1.112454  0.062756301   -2.1257464    1.0132923  1714436 
  350000     1.002703   -2.1257806   -2.1257806     -1.11221  0.067377474   -2.1257806    1.0135706  1714436 
  351000     1.001501   -2.1249726   -2.1249726   -1.1126171  0.067376752   -2.1249726    1.0123555  1714436 
  352000    1.0017239    -2.125395    -2.125395   -1.1128141  0.064536845    -2.125395    1.0125808  1714436 
  353000    1.0020878   -2.1259777   -2.1259777   -1.1130289   0.06499886   -2.1259777    1.0129487  1714436 
  354000    1.0020697   -2.1261493   -2.1261493   -1.1132188  0.064976439   -2.1261493    1.0129304  1714436 
  355000    1.0023057   -2.1258819   -2.1258819    -1.112713  0.061428382   -2.1258819     1.013169  1714436 
  356000     1.002476   -2.1255394   -2.1255394   -1.1121983  0.064490812   -2.1255394    1.0133411  1714436 
  357000    1.0020125   -2.1251074   -2.1251074   -1.1122348  0.064116806   -2.1251074    1.0128726  1714436 
  358000    1.0024324    -2.125474    -2.125474   -1.1121769  0.065045905    -2.125474     1.013297  1714436 
  359000    1.0027323   -2.1259602   -2.1259602     -1.11236  0.066220911   -2.1259602    1.0136002  1714436 
  360000    1.0020309   -2.1255387   -2.1255387   -1.1126474  0.064292836   -2.1255387    1.0128912  1714436 
  361000    1.0015975   -2.1251465   -2.1251465   -1.1126934  0.064661423   -2.1251465    1.0124531  1714436 
  362000    1.0017472   -2.1254848   -2.1254848   -1.1128804  0.066694874   -2.1254848    1.0126044  1714436 
  363000    1.0025398   -2.1262344   -2.1262344   -1.1128288  0.064848419   -2.1262344    1.0134056  1714436 
  364000    1.0012293   -2.1249965   -2.1249965   -1.1129156  0.063241111   -2.1249965    1.0120809  1714436 
  365000    1.0025437   -2.1260618   -2.1260618   -1.1126524  0.060204595   -2.1260618    1.0134095  1714436 
  366000    1.0021863   -2.1258515   -2.1258515   -1.1128033  0.063135816   -2.1258515    1.0130483  1714436 
  367000    1.0024597   -2.1261114   -2.1261114   -1.1127868  0.066280214   -2.1261114    1.0133246  1714436 
  368000    1.0029874   -2.1266367   -2.1266367   -1.1127786  0.063810392   -2.1266367    1.0138581  1714436 
  369000    1.0019385   -2.1256037   -2.1256037   -1.1128059  0.062450112   -2.1256037    1.0127978  1714436 
  370000    1.0024982   -2.1257172   -2.1257172   -1.1123537   0.06275604   -2.1257172    1.0133636  1714436 
  371000    1.0023292   -2.1257452   -2.1257452   -1.1125525  0.060115382   -2.1257452    1.0131927  1714436 
  372000    1.0031898   -2.1263167   -2.1263167    -1.112254  0.066091905   -2.1263167    1.0140626  1714436 
  373000    1.0024071   -2.1260897   -2.1260897   -1.1128183  0.065255312   -2.1260897    1.0132714  1714436 
  374000    1.0029216   -2.1259532   -2.1259532   -1.1121616    0.0646937   -2.1259532    1.0137915  1714436 
  375000    1.0023301   -2.1252812   -2.1252812   -1.1120876  0.066065588   -2.1252812    1.0131936  1714436 
  376000    1.0032785   -2.1256453   -2.1256453   -1.1114931  0.067246894   -2.1256453    1.0141523  1714436 
  377000    1.0032216   -2.1255918   -2.1255918   -1.1114971  0.065107081   -2.1255918    1.0140947  1714436 
  378000    1.0038709   -2.1262033   -2.1262033   -1.1114522  0.065273668   -2.1262033    1.0147511  1714436 
  379000    1.0029881    -2.125491    -2.125491   -1.1116323  0.062809324    -2.125491    1.0138587  1714436 
  380000    1.0032766   -2.1256839   -2.1256839   -1.1115335  0.066150758   -2.1256839    1.0141504  1714436 
  381000    1.0041518   -2.1266047   -2.1266047   -1.1115696  0.060776248   -2.1266047    1.0150351  1714436 
  382000    1.0031027   -2.1252601   -2.1252601   -1.1112855  0.067618912   -2.1252601    1.0139746  1714436 
  383000    1.0040226   -2.1261297   -2.1261297   -1.1112252   0.06550467   -2.1261297    1.0149045  1714436 
  384000    1.0048395    -2.126647    -2.126647   -1.1109168  0.065859395    -2.126647    1.0157302  1714436 
  385000    1.0036653    -2.126178    -2.126178   -1.1116348  0.063155239    -2.126178    1.0145432  1714436 
  386000    1.0030883   -2.1258344   -2.1258344   -1.1118743  0.066359155   -2.1258344      1.01396  1714436 
  387000    1.0035276   -2.1258228   -2.1258228   -1.1114188  0.065745958   -2.1258228    1.0144041  1714436 
  388000    1.0024027   -2.1249861   -2.1249861    -1.111719  0.068729122   -2.1249861     1.013267  1714436 
  389000    1.0035819   -2.1257049   -2.1257049    -1.111246  0.064075782   -2.1257049     1.014459  1714436 
  390000    1.0021494   -2.1245662   -2.1245662   -1.1115552  0.065702598   -2.1245662     1.013011  1714436 
  391000    1.0032055   -2.1259359   -2.1259359   -1.1118574  0.065883273   -2.1259359    1.0140785  1714436 
  392000      1.00254   -2.1252319   -2.1252319   -1.1118261  0.063878789   -2.1252319    1.0134058  1714436 
  393000    1.0027582   -2.1258714   -2.1258714   -1.1122451  0.065961019   -2.1258714    1.0136263  1714436 
  394000    1.0033653   -2.1263997   -2.1263997   -1.1121597   0.06405127   -2.1263997      1.01424  1714436 
  395000    1.0024289   -2.1256069   -2.1256069   -1.1123134  0.064224709   -2.1256069    1.0132934  1714436 
  396000    1.0019687   -2.1250167   -2.1250167   -1.1121884  0.062512421   -2.1250167    1.0128283  1714436 
  397000    1.0024986    -2.125748    -2.125748   -1.1123841  0.060511468    -2.125748    1.0133639  1714436 
  398000    1.0025449   -2.1256122   -2.1256122   -1.1122015  0.060799021   -2.1256122    1.0134107  1714436 
  399000    1.0008639   -2.1237693   -2.1237693   -1.1120577  0.066988191   -2.1237693    1.0117116  1714436 
  400000    1.0020891   -2.1246536   -2.1246536   -1.1117037  0.065865272   -2.1246536      1.01295  1714436 
  401000    1.0027993   -2.1252749   -2.1252749    -1.111607  0.063693008   -2.1252749    1.0136679  1714436 
  402000    1.0033329   -2.1257092   -2.1257092   -1.1115019  0.064219871   -2.1257092    1.0142073  1714436 
  403000    1.0032665   -2.1254611   -2.1254611   -1.1113209  0.067771329   -2.1254611    1.0141402  1714436 
  404000    1.0027999   -2.1248361   -2.1248361   -1.1111676  0.066072489   -2.1248361    1.0136685  1714436 
  405000    1.0036684   -2.1254922   -2.1254922   -1.1109458  0.069120489   -2.1254922    1.0145464  1714436 
  406000    1.0041029   -2.1259009   -2.1259009   -1.1109153  0.060103606   -2.1259009    1.0149856  1714436 
  407000    1.0033797   -2.1253883   -2.1253883   -1.1111337  0.065989561   -2.1253883    1.0142546  1714436 
  408000    1.0034877   -2.1252753   -2.1252753   -1.1109115  0.064664119   -2.1252753    1.0143638  1714436 
  409000     1.003787   -2.1258646   -2.1258646   -1.1111983  0.067954562   -2.1258646    1.0146663  1714436 
  410000    1.0022852   -2.1245514   -2.1245514   -1.1114032  0.069169581   -2.1245514    1.0131482  1714436 
  411000    1.0032199   -2.1254798   -2.1254798   -1.1113867  0.068084625   -2.1254798    1.0140931  1714436 
  412000    1.0023602   -2.1249372   -2.1249372   -1.1117132  0.065656019   -2.1249372    1.0132241  1714436 
  413000    1.0036983    -2.126163    -2.126163   -1.1115863  0.063102709    -2.126163    1.0145767  1714436 
  414000    1.0033018   -2.1259763   -2.1259763   -1.1118005  0.065562052   -2.1259763    1.0141758  1714436 
  415000    1.0028104   -2.1256896   -2.1256896   -1.1120105  0.063726482   -2.1256896    1.0136791  1714436 
  416000    1.0030041   -2.1254207   -2.1254207   -1.1115458  0.063907877   -2.1254207    1.0138749  1714436 
  417000    1.0036315   -2.1252682   -2.1252682   -1.1107591  0.064160227   -2.1252682    1.0145091  1714436 
  418000    1.0024455   -2.1241847   -2.1241847   -1.1108745  0.067277001   -2.1241847    1.0133102  1714436 
  419000    1.0036856   -2.1257855   -2.1257855   -1.1112217  0.062050717   -2.1257855    1.0145638  1714436 
  420000    1.0024579   -2.1245032   -2.1245032   -1.1111804  0.064972643   -2.1245032    1.0133228  1714436 
  421000    1.0021954   -2.1245707   -2.1245707   -1.1115132  0.067375388   -2.1245707    1.0130574  1714436 
  422000    1.0031327   -2.1255894   -2.1255894   -1.1115845  0.067568252   -2.1255894    1.0140049  1714436 
  423000    1.0037687   -2.1264082   -2.1264082   -1.1117603  0.063048081   -2.1264082    1.0146478  1714436 
  424000     1.002357   -2.1253267   -2.1253267   -1.1121059  0.060486735   -2.1253267    1.0132208  1714436 
  425000    1.0024826   -2.1252365   -2.1252365   -1.1118887  0.062088538   -2.1252365    1.0133478  1714436 
  426000    1.0027953   -2.1253107   -2.1253107   -1.1116468  0.063483076   -2.1253107    1.0136639  1714436 
  427000    1.0033217   -2.1252193   -2.1252193   -1.1110233  0.064296614   -2.1252193     1.014196  1714436 
  428000    1.0031331   -2.1251505   -2.1251505   -1.1111452   0.06679602   -2.1251505    1.0140053  1714436 
  429000    1.0030351   -2.1249365   -2.1249365   -1.1110303  0.065787665   -2.1249365    1.0139062  1714436 
  430000    1.0030551    -2.124992    -2.124992   -1.1110655  0.063846816    -2.124992    1.0139265  1714436 
  431000    1.0030524   -2.1247959   -2.1247959   -1.1108722  0.065737195   -2.1247959    1.0139237  1714436 
  432000    1.0031406   -2.1249793   -2.1249793   -1.1109664  0.062875529   -2.1249793    1.0140129  1714436 
  433000    1.0031118   -2.1248491   -2.1248491   -1.1108654  0.065250856   -2.1248491    1.0139837  1714436 
  434000    1.0020283   -2.1236109   -2.1236109   -1.1107224  0.068153875   -2.1236109    1.0128885  1714436 
  435000    1.0029039   -2.1241063   -2.1241063   -1.1103327  0.064840789   -2.1241063    1.0137736  1714436 
  436000    1.0025691   -2.1235486   -2.1235486   -1.1101133  0.066620821   -2.1235486    1.0134352  1714436 
  437000    1.0022432   -2.1234924   -2.1234924   -1.1103866  0.065811316   -2.1234924    1.0131058  1714436 
  438000    1.0028956   -2.1241497   -2.1241497   -1.1103845   0.06365141   -2.1241497    1.0137652  1714436 
  439000    1.0028667   -2.1242973   -2.1242973   -1.1105613  0.062358775   -2.1242973     1.013736  1714436 
  440000    1.0024946   -2.1240046   -2.1240046   -1.1106447  0.062994046   -2.1240046    1.0133599  1714436 
  441000    1.0031606    -2.124674    -2.124674   -1.1106408  0.059188235    -2.124674    1.0140331  1714436 
  442000    1.0024342   -2.1240816   -2.1240816   -1.1107827  0.064038474   -2.1240816    1.0132989  1714436 
  443000    1.0027719   -2.1245442   -2.1245442   -1.1109041  0.063603919   -2.1245442    1.0136402  1714436 
  444000    1.0014176    -2.123248    -2.123248   -1.1109768  0.062627823    -2.123248    1.0122712  1714436 
  445000    1.0027436   -2.1244099   -2.1244099   -1.1107982  0.064558767   -2.1244099    1.0136116  1714436 
  446000    1.0030813   -2.1247251   -2.1247251   -1.1107722  0.065453738   -2.1247251    1.0139529  1714436 
  447000     1.002936    -2.124352    -2.124352   -1.1105459  0.062442531    -2.124352    1.0138061  1714436 
  448000    1.0024011   -2.1241063   -2.1241063   -1.1108409   0.06444077   -2.1241063    1.0132654  1714436 
  449000    1.0024789   -2.1244789   -2.1244789   -1.1111349  0.061184826   -2.1244789    1.0133441  1714436 
  450000    1.0017597    -2.123643    -2.123643    -1.111026  0.064582488    -2.123643     1.012617  1714436 
  451000    1.0023323   -2.1241577   -2.1241577   -1.1109618  0.064493983   -2.1241577    1.0131959  1714436 
  452000    1.0024289   -2.1238281   -2.1238281   -1.1105346  0.064852681   -2.1238281    1.0132935  1714436 
  453000    1.0027357    -2.124355    -2.124355   -1.1107513  0.062327081    -2.124355    1.0136036  1714436 
  454000    1.0030743   -2.1245565   -2.1245565   -1.1106106  0.065144609   -2.1245565    1.0139459  1714436 
  455000     1.002945   -2.1244557   -2.1244557   -1.1106405  0.062564645   -2.1244557    1.0138152  1714436 
  456000    1.0043139    -2.125644    -2.125644    -1.110445  0.058288405    -2.125644    1.0151989  1714436 
  457000    1.0030856   -2.1248786   -2.1248786   -1.1109214  0.060608201   -2.1248786    1.0139573  1714436 
  458000    1.0035815   -2.1254608   -2.1254608   -1.1110023  0.063828996   -2.1254608    1.0144585  1714436 
  459000    1.0033873   -2.1255901   -2.1255901   -1.1113278  0.061955103   -2.1255901    1.0142623  1714436 
  460000    1.0019778   -2.1243733   -2.1243733   -1.1115358  0.066846449   -2.1243733    1.0128375  1714436 
  461000    1.0031714   -2.1255211   -2.1255211   -1.1114771  0.061337401   -2.1255211     1.014044  1714436 
  462000    1.0031677   -2.1257073   -2.1257073    -1.111667  0.065751347   -2.1257073    1.0140403  1714436 
  463000    1.0025692    -2.124994    -2.124994   -1.1115587  0.067334075    -2.124994    1.0134353  1714436 
  464000    1.0026095   -2.1252027   -2.1252027   -1.1117267  0.062138001   -2.1252027     1.013476  1714436 
  465000    1.0029084   -2.1255457   -2.1255457   -1.1117675  0.061685211   -2.1255457    1.0137782  1714436 
  466000    1.0019125   -2.1243765   -2.1243765    -1.111605  0.061164683   -2.1243765    1.0127715  1714436 
  467000      1.00288   -2.1252055   -2.1252055   -1.1114561  0.067358305   -2.1252055    1.0137494  1714436 
  468000    1.0039943   -2.1259121   -2.1259121   -1.1110362  0.065903842   -2.1259121    1.0148759  1714436 
  469000    1.0027221   -2.1249501   -2.1249501   -1.1113602  0.065128649   -2.1249501    1.0135898  1714436 
  470000    1.0035509   -2.1252075   -2.1252075   -1.1107798  0.065874151   -2.1252075    1.0144276  1714436 
  471000    1.0040418   -2.1259707   -2.1259707   -1.1110469    0.0626655   -2.1259707    1.0149238  1714436 
  472000    1.0043234   -2.1261933   -2.1261933   -1.1109848  0.064718602   -2.1261933    1.0152085  1714436 
  473000    1.0036343   -2.1254895   -2.1254895   -1.1109776    0.0675503   -2.1254895    1.0145119  1714436 
  474000    1.0034482   -2.1255587   -2.1255587    -1.111235  0.066930799   -2.1255587    1.0143238  1714436 
  475000    1.0036744   -2.1257835   -2.1257835   -1.1112311  0.064541163   -2.1257835    1.0145524  1714436 
  476000    1.0032097   -2.1251552   -2.1251552   -1.1110725  0.065433012   -2.1251552    1.0140828  1714436 
  477000    1.0033122   -2.1256733   -2.1256733   -1.1114869  0.068055315   -2.1256733    1.0141864  1714436 
  478000    1.0033114   -2.1255768   -2.1255768   -1.1113913   0.06529333   -2.1255768    1.0141855  1714436 
  479000      1.00338   -2.1260842   -2.1260842   -1.1118293  0.065424332   -2.1260842    1.0142549  1714436 
  480000    1.0036629   -2.1260328   -2.1260328    -1.111492  0.064902929   -2.1260328    1.0145408  1714436 
  481000    1.0040615   -2.1268754   -2.1268754   -1.1119316  0.063322611   -2.1268754    1.0149438  1714436 
  482000    1.0029557   -2.1257524   -2.1257524   -1.1119264  0.067744278   -2.1257524    1.0138259  1714436 
  483000    1.0038327   -2.1265078   -2.1265078   -1.1117953  0.061071228   -2.1265078    1.0147125  1714436 
  484000    1.0031909   -2.1259625   -2.1259625   -1.1118987  0.069505295   -2.1259625    1.0140638  1714436 
  485000    1.0035078   -2.1263059   -2.1263059   -1.1119219  0.063579104   -2.1263059    1.0143841  1714436 
  486000    1.0032958    -2.126034    -2.126034   -1.1118642  0.065642445    -2.126034    1.0141697  1714436 
  487000    1.0029077   -2.1256746   -2.1256746   -1.1118972  0.066143539   -2.1256746    1.0137775  1714436 
  488000     1.003212    -2.126046    -2.126046   -1.1119609  0.062512807    -2.126046    1.0140851  1714436 
  489000    1.0035441   -2.1264213   -2.1264213   -1.1120006  0.064834692   -2.1264213    1.0144208  1714436 
  490000    1.0036123   -2.1266932   -2.1266932   -1.1122034  0.066466993   -2.1266932    1.0144897  1714436 
  491000    1.0029698   -2.1260548   -2.1260548   -1.1122146  0.061148733   -2.1260548    1.0138402  1714436 
  492000    1.0029269   -2.1258404   -2.1258404   -1.1120435  0.066343828   -2.1258404    1.0137969  1714436 
  493000    1.0036195   -2.1263952   -2.1263952   -1.1118982  0.060287643   -2.1263952     1.014497  1714436 
  494000    1.0025722    -2.125062    -2.125062   -1.1116237  0.061640618    -2.125062    1.0134383  1714436 
  495000    1.0034863   -2.1252109   -2.1252109   -1.1108486  0.066768736   -2.1252109    1.0143623  1714436 
  496000    1.0040365   -2.1261682   -2.1261682   -1.1112497  0.065639798   -2.1261682    1.0149185  1714436 
  497000    1.0034746   -2.1252165   -2.1252165    -1.110866  0.062263624   -2.1252165    1.0143505  1714436 
  498000    1.0035455   -2.1251639   -2.1251639   -1.1107417  0.062826032   -2.1251639    1.0144221  1714436 
  499000     1.003506   -2.1247613   -2.1247613    -1.110379  0.066357781   -2.1247613    1.0143823  1714436 
  500000    1.0036789     -2.12494     -2.12494    -1.110383  0.061659872     -2.12494    1.0145571  1714436 
  501000    1.0045295   -2.1257175   -2.1257175   -1.1103006  0.064061963   -2.1257175    1.0154169  1714436 
  502000    1.0031935   -2.1249461   -2.1249461   -1.1108797  0.064766238   -2.1249461    1.0140664  1714436 
  503000    1.0041276   -2.1254126   -2.1254126    -1.110402  0.063884229   -2.1254126    1.0150106  1714436 
  504000     1.004609   -2.1257803   -2.1257803   -1.1102832   0.06591411   -2.1257803    1.0154972  1714436 
  505000    1.0041829   -2.1255782   -2.1255782   -1.1105117  0.063910316   -2.1255782    1.0150665  1714436 
  506000    1.0024842   -2.1240015   -2.1240015   -1.1106521  0.068820334   -2.1240015    1.0133494  1714436 
  507000    1.0037895   -2.1255381   -2.1255381   -1.1108692  0.062237625   -2.1255381    1.0146689  1714436 
  508000    1.0035488   -2.1247664   -2.1247664   -1.1103408  0.063025062   -2.1247664    1.0144256  1714436 
  509000    1.0035113    -2.125314    -2.125314   -1.1109264  0.067981087    -2.125314    1.0143876  1714436 
  510000     1.003624   -2.1252284   -2.1252284   -1.1107269  0.063937267   -2.1252284    1.0145015  1714436 
  511000     1.003386   -2.1248634   -2.1248634   -1.1106025  0.063462597   -2.1248634    1.0142609  1714436 
  512000    1.0032638   -2.1249782   -2.1249782   -1.1108407  0.062718254   -2.1249782    1.0141375  1714436 
  513000    1.0024464   -2.1243165   -2.1243165   -1.1110053  0.064485155   -2.1243165    1.0133112  1714436 
  514000    1.0020164   -2.1232537   -2.1232537   -1.1103772  0.061781081   -2.1232537    1.0128765  1714436 
  515000    1.0032914   -2.1247118   -2.1247118   -1.1105465  0.065631639   -2.1247118    1.0141653  1714436 
  516000    1.0029258   -2.1244998   -2.1244998    -1.110704   0.06360624   -2.1244998    1.0137958  1714436 
  517000    1.0033512   -2.1247662   -2.1247662   -1.1105404  0.061562872   -2.1247662    1.0142257  1714436 
  518000    1.0013926   -2.1226217   -2.1226217   -1.1103757  0.061459766   -2.1226217    1.0122459  1714436 
  519000    1.0015448   -2.1233658   -2.1233658    -1.110966  0.061993484   -2.1233658    1.0123998  1714436 
  520000    1.0014728   -2.1230767   -2.1230767   -1.1107497  0.061103164   -2.1230767     1.012327  1714436 
  521000    1.0023555   -2.1239704   -2.1239704   -1.1107511   0.06516442   -2.1239704    1.0132193  1714436 
  522000    1.0031683   -2.1244089   -2.1244089    -1.110368  0.061693943   -2.1244089    1.0140409  1714436 
  523000    1.0026533   -2.1242743   -2.1242743    -1.110754  0.064239865   -2.1242743    1.0135203  1714436 
  524000    1.0024933   -2.1240435   -2.1240435   -1.1106849  0.065175564   -2.1240435    1.0133586  1714436 
  525000    1.0020653   -2.1236208   -2.1236208   -1.1106948  0.064646984   -2.1236208     1.012926  1714436 
  526000    1.0033099   -2.1245085   -2.1245085   -1.1103245  0.064155959   -2.1245085     1.014184  1714436 
  527000    1.0041079   -2.1252329   -2.1252329   -1.1102423   0.06777847   -2.1252329    1.0149906  1714436 
  528000    1.0034906   -2.1245959   -2.1245959   -1.1102292  0.066479073   -2.1245959    1.0143666  1714436 
  529000     1.003074   -2.1240623   -2.1240623   -1.1101168  0.066301339   -2.1240623    1.0139456  1714436 
  530000    1.0029885    -2.123958    -2.123958   -1.1100988   0.06558146    -2.123958    1.0138592  1714436 
  531000    1.0031756   -2.1238796   -2.1238796   -1.1098313  0.063376818   -2.1238796    1.0140483  1714436 
  532000     1.003102   -2.1235104   -2.1235104   -1.1095365  0.062543112   -2.1235104    1.0139739  1714436 
  533000    1.0035146   -2.1237389   -2.1237389   -1.1093479  0.063310791   -2.1237389     1.014391  1714436 
  534000    1.0034177   -2.1234366   -2.1234366   -1.1091436  0.065503808   -2.1234366     1.014293  1714436 
  535000     1.003517   -2.1237579   -2.1237579   -1.1093645  0.062502167   -2.1237579    1.0143934  1714436 
  536000    1.0035232   -2.1239732   -2.1239732   -1.1095735  0.064306194   -2.1239732    1.0143997  1714436 
  537000    1.0037538   -2.1242927   -2.1242927   -1.1096599  0.059581794   -2.1242927    1.0146328  1714436 
  538000    1.0038053   -2.1244765   -2.1244765   -1.1097917  0.066809619   -2.1244765    1.0146848  1714436 
  539000    1.0041181   -2.1252304   -2.1252304   -1.1102295   0.06695115   -2.1252304     1.015001  1714436 
  540000    1.0034042   -2.1243821   -2.1243821   -1.1101027  0.066064334   -2.1243821    1.0142794  1714436 
  541000    1.0028971   -2.1242584   -2.1242584   -1.1104917  0.064696572   -2.1242584    1.0137668  1714436 
  542000    1.0032788   -2.1243739   -2.1243739   -1.1102213  0.062901495   -2.1243739    1.0141526  1714436 
  543000    1.0027055    -2.124181    -2.124181   -1.1106079  0.064159518    -2.124181    1.0135731  1714436 
  544000    1.0049959   -2.1259543   -2.1259543    -1.110066  0.065308578   -2.1259543    1.0158883  1714436 
  545000    1.0036891   -2.1248141   -2.1248141   -1.1102468  0.067343626   -2.1248141    1.0145673  1714436 
  546000    1.0047768   -2.1255044   -2.1255044   -1.1098375  0.063213591   -2.1255044    1.0156668  1714436 
  547000    1.0042009   -2.1249574   -2.1249574   -1.1098728  0.065759052   -2.1249574    1.0150847  1714436 
  548000    1.0043862   -2.1252744   -2.1252744   -1.1100024  0.067017814   -2.1252744     1.015272  1714436 
  549000    1.0033193    -2.123959    -2.123959   -1.1097655  0.063455496    -2.123959    1.0141936  1714436 
  550000     1.003237    -2.123735    -2.123735   -1.1096246   0.07004078    -2.123735    1.0141103  1714436 
  551000    1.0037252   -2.1243117   -2.1243117   -1.1097079  0.063950638   -2.1243117    1.0146038  1714436 
  552000    1.0036417   -2.1244169   -2.1244169   -1.1098975  0.066979651   -2.1244169    1.0145194  1714436 
  553000    1.0030878   -2.1244308   -2.1244308   -1.1104713   0.06586127   -2.1244308    1.0139595  1714436 
  554000    1.0044748   -2.1258809   -2.1258809   -1.1105193  0.062110959   -2.1258809    1.0153615  1714436 
  555000    1.0031303   -2.1251563   -2.1251563   -1.1111538  0.067041646   -2.1251563    1.0140025  1714436 
  556000    1.0035531   -2.1251562   -2.1251562   -1.1107263  0.065036764   -2.1251562    1.0144299  1714436 
  557000    1.0038998   -2.1257507   -2.1257507   -1.1109704   0.07080089   -2.1257507    1.0147803  1714436 
  558000     1.003282   -2.1251118   -2.1251118   -1.1109559  0.067285132   -2.1251118    1.0141558  1714436 
  559000    1.0028511   -2.1245767   -2.1245767   -1.1108564  0.064429557   -2.1245767    1.0137202  1714436 
  560000     1.003361     -2.12533     -2.12533   -1.1110943  0.063765761     -2.12533    1.0142357  1714436 
  561000    1.0036628   -2.1251091   -2.1251091   -1.1105683  0.062693485   -2.1251091    1.0145408  1714436 
  562000    1.0031475   -2.1245381   -2.1245381   -1.1105182  0.065351328   -2.1245381    1.0140199  1714436 
  563000    1.0034716   -2.1247818   -2.1247818   -1.1104343  0.064625653   -2.1247818    1.0143475  1714436 
  564000    1.0033302   -2.1245098   -2.1245098   -1.1103052  0.060320293   -2.1245098    1.0142046  1714436 
  565000    1.0030336   -2.1246821   -2.1246821   -1.1107773  0.064753239   -2.1246821    1.0139048  1714436 
  566000     1.003343   -2.1245143   -2.1245143   -1.1102968  0.065853549   -2.1245143    1.0142175  1714436 
  567000    1.0025015   -2.1237844   -2.1237844   -1.1104175  0.061176478   -2.1237844    1.0133669  1714436 
  568000     1.002948   -2.1238553   -2.1238553   -1.1100371  0.063190634   -2.1238553    1.0138182  1714436 
  569000    1.0038114   -2.1245449   -2.1245449   -1.1098539  0.062678775   -2.1245449     1.014691  1714436 
  570000    1.0031823   -2.1240591   -2.1240591   -1.1100041  0.064338944   -2.1240591    1.0140551  1714436 
  571000    1.0028527   -2.1239691   -2.1239691   -1.1102472  0.062655147   -2.1239691    1.0137219  1714436 
  572000    1.0031252   -2.1243393   -2.1243393   -1.1103419  0.064780862   -2.1243393    1.0139974  1714436 
  573000    1.0030257   -2.1239079   -2.1239079   -1.1100111  0.059917481   -2.1239079    1.0138968  1714436 
  574000    1.0025898   -2.1233176   -2.1233176   -1.1098615  0.065681544   -2.1233176    1.0134562  1714436 
  575000    1.0030169   -2.1235566   -2.1235566   -1.1096687  0.066738944   -2.1235566    1.0138878  1714436 
  576000    1.0037697   -2.1243872   -2.1243872   -1.1097384  0.066791476   -2.1243872    1.0146488  1714436 
  577000    1.0033211   -2.1244568   -2.1244568   -1.1102615  0.066368648   -2.1244568    1.0141954  1714436 
  578000    1.0021694   -2.1229626   -2.1229626   -1.1099314  0.062453885   -2.1229626    1.0130312  1714436 
  579000     1.003018   -2.1239789   -2.1239789   -1.1100899  0.061861746   -2.1239789     1.013889  1714436 
  580000    1.0012939   -2.1227459   -2.1227459   -1.1105998  0.061786285   -2.1227459    1.0121461  1714436 
  581000    1.0027571   -2.1240178   -2.1240178   -1.1103925  0.059180402   -2.1240178    1.0136253  1714436 
  582000    1.0024756   -2.1239747   -2.1239747    -1.110634   0.06494409   -2.1239747    1.0133407  1714436 
  583000    1.0025845   -2.1239759   -2.1239759   -1.1105251  0.063464284   -2.1239759    1.0134508  1714436 
  584000    1.0021438   -2.1236843   -2.1236843    -1.110679  0.064556965   -2.1236843    1.0130053  1714436 
  585000    1.0020785   -2.1236749   -2.1236749   -1.1107356  0.064311541   -2.1236749    1.0129393  1714436 
  586000    1.0024516   -2.1239593   -2.1239593   -1.1106429  0.061534876   -2.1239593    1.0133164  1714436 
  587000    1.0024419    -2.124641    -2.124641   -1.1113344  0.064162189    -2.124641    1.0133066  1714436 
  588000     1.001967   -2.1240574   -2.1240574   -1.1112309  0.063161375   -2.1240574    1.0128266  1714436 
  589000     1.001321    -2.123988    -2.123988   -1.1118145  0.063924078    -2.123988    1.0121736  1714436 
  590000    1.0024546   -2.1251749   -2.1251749   -1.1118553  0.062853956   -2.1251749    1.0133195  1714436 
  591000    1.0026475   -2.1253496   -2.1253496   -1.1118352  0.059894377   -2.1253496    1.0135144  1714436 
  592000    1.0021364   -2.1249708   -2.1249708    -1.111973  0.062017829   -2.1249708    1.0129978  1714436 
  593000    1.0023491   -2.1253002   -2.1253002   -1.1120874  0.062811717   -2.1253002    1.0132129  1714436 
  594000    1.0022166   -2.1251599   -2.1251599    -1.112081  0.063530303   -2.1251599    1.0130789  1714436 
  595000    1.0029848   -2.1255174   -2.1255174    -1.111662  0.066942974   -2.1255174    1.0138554  1714436 
  596000    1.0029057   -2.1255233   -2.1255233   -1.1117479  0.060784755   -2.1255233    1.0137754  1714436 
  597000    1.0028538   -2.1252077   -2.1252077   -1.1114848  0.062368249   -2.1252077     1.013723  1714436 
  598000    1.0040265   -2.1256739   -2.1256739   -1.1107656  0.063302895   -2.1256739    1.0149084  1714436 
  599000    1.0036144   -2.1255236   -2.1255236   -1.1110318  0.063474642   -2.1255236    1.0144919  1714436 
  600000    1.0036806   -2.1252846   -2.1252846   -1.1107258  0.065543314   -2.1252846    1.0145588  1714436 
  601000     1.003127   -2.1251278   -2.1251278   -1.1111287  0.060756826   -2.1251278    1.0139991  1714436 
  602000    1.0028969   -2.1249464   -2.1249464   -1.1111799   0.06543589   -2.1249464    1.0137665  1714436 
  603000    1.0038227   -2.1259081   -2.1259081   -1.1112057  0.066827452   -2.1259081    1.0147024  1714436 
  604000    1.0039097   -2.1256525   -2.1256525   -1.1108622  0.066057302   -2.1256525    1.0147903  1714436 
  605000    1.0036252   -2.1252421   -2.1252421   -1.1107393  0.066549456   -2.1252421    1.0145028  1714436 
  606000      1.00473   -2.1268569   -2.1268569   -1.1112374  0.069466529   -2.1268569    1.0156195  1714436 
  607000    1.0046064   -2.1265627   -2.1265627   -1.1110682  0.070613941   -2.1265627    1.0154945  1714436 
  608000    1.0044151   -2.1265368   -2.1265368   -1.1112356  0.069146129   -2.1265368    1.0153012  1714436 
  609000    1.0047288   -2.1267005   -2.1267005   -1.1110822  0.065930527   -2.1267005    1.0156183  1714436 
  610000    1.0042458   -2.1265974   -2.1265974   -1.1114673  0.066218763   -2.1265974    1.0151301  1714436 
  611000    1.0053621   -2.1274074   -2.1274074    -1.111149  0.064059356   -2.1274074    1.0162585  1714436 
  612000    1.0039048   -2.1258245   -2.1258245    -1.111039  0.065071471   -2.1258245    1.0147854  1714436 
  613000    1.0039443    -2.126366    -2.126366   -1.1115407  0.062216535    -2.126366    1.0148253  1714436 
  614000    1.0034789   -2.1262549   -2.1262549      -1.1119  0.067241533   -2.1262549    1.0143549  1714436 
  615000    1.0041551   -2.1270526   -2.1270526   -1.1120142  0.062129622   -2.1270526    1.0150384  1714436 
  616000    1.0035646   -2.1261085   -2.1261085   -1.1116669  0.069625353   -2.1261085    1.0144415  1714436 
  617000    1.0050325   -2.1274409   -2.1274409   -1.1115157  0.062695469   -2.1274409    1.0159253  1714436 
  618000     1.003431   -2.1260155   -2.1260155   -1.1117091  0.062705959   -2.1260155    1.0143064  1714436 
  619000    1.0035249   -2.1259265   -2.1259265   -1.1115252   0.06592977   -2.1259265    1.0144013  1714436 
  620000    1.0027578   -2.1252328   -2.1252328   -1.1116069  0.063864206   -2.1252328    1.0136259  1714436 
  621000    1.0032107   -2.1259157   -2.1259157   -1.1118319  0.062864806   -2.1259157    1.0140838  1714436 
  622000    1.0029077   -2.1256833   -2.1256833   -1.1119058  0.065902715   -2.1256833    1.0137775  1714436 
  623000     1.003071   -2.1262314   -2.1262314   -1.1122888  0.061435488   -2.1262314    1.0139426  1714436 
  624000    1.0031306   -2.1255601   -2.1255601   -1.1115572  0.066787601   -2.1255601    1.0140028  1714436 
  625000    1.0032342   -2.1256043   -2.1256043   -1.1114968  0.067864222   -2.1256043    1.0141075  1714436 
  626000    1.0036423   -2.1262598   -2.1262598   -1.1117398  0.061743995   -2.1262598      1.01452  1714436 
  627000     1.003889   -2.1265533   -2.1265533    -1.111784  0.064759715   -2.1265533    1.0147694  1714436 
  628000    1.0031948    -2.125811    -2.125811   -1.1117434  0.066402011    -2.125811    1.0140677  1714436 
  629000     1.003543   -2.1261061   -2.1261061   -1.1116864  0.067509692   -2.1261061    1.0144197  1714436 
  630000    1.0029109   -2.1256592   -2.1256592   -1.1118785  0.062838906   -2.1256592    1.0137807  1714436 
  631000    1.0042016   -2.1264661   -2.1264661   -1.1113806  0.064323052   -2.1264661    1.0150854  1714436 
[...]
 9832000     1.011693   -2.0980693   -2.0980693   -1.0754113  0.077061623   -2.0980693     1.022658  1714436 
 9833000    1.0116339   -2.0979736   -2.0979736   -1.0753753  0.072461394   -2.0979736    1.0225983  1714436 
 9834000    1.0116655   -2.0978614   -2.0978614   -1.0752312  0.070584517   -2.0978614    1.0226302  1714436 
 9835000    1.0111188   -2.0971977   -2.0971977   -1.0751201  0.075965205   -2.0971977    1.0220776  1714436 
 9836000    1.0106549   -2.0968917   -2.0968917   -1.0752831  0.073525411   -2.0968917    1.0216086  1714436 
 9837000    1.0105759   -2.0966331   -2.0966331   -1.0751043  0.072719427   -2.0966331    1.0215288  1714436 
 9838000    1.0116244   -2.0970973   -2.0970973   -1.0745086  0.072625496   -2.0970973    1.0225887  1714436 
 9839000    1.0106778   -2.0961879   -2.0961879   -1.0745561  0.074470741   -2.0961879    1.0216318  1714436 
 9840000    1.0120821   -2.0972334   -2.0972334    -1.074182  0.072629751   -2.0972334    1.0230513  1714436 
 9841000    1.0107346   -2.0962064   -2.0962064   -1.0745172  0.074741895   -2.0962064    1.0216892  1714436 
 9842000    1.0108967    -2.096259    -2.096259    -1.074406  0.066460422    -2.096259    1.0218531  1714436 
 9843000    1.0110388   -2.0962389   -2.0962389   -1.0742421  0.069603235   -2.0962389    1.0219967  1714436 
 9844000    1.0117629   -2.0972603   -2.0972603   -1.0745317  0.069485922   -2.0972603    1.0227286  1714436 
 9845000    1.0116761   -2.0977434   -2.0977434   -1.0751024  0.069146316   -2.0977434    1.0226409  1714436 
 9846000     1.010946   -2.0967781   -2.0967781   -1.0748751  0.073425154   -2.0967781    1.0219029  1714436 
 9847000    1.0103758    -2.095835    -2.095835   -1.0745085  0.073772491    -2.095835    1.0213265  1714436 
 9848000    1.0109484   -2.0960851   -2.0960851   -1.0741797   0.06828971   -2.0960851    1.0219054  1714436 
 9849000    1.0113101   -2.0968142   -2.0968142   -1.0745432  0.071909234   -2.0968142     1.022271  1714436 
 9850000    1.0114739   -2.0966725   -2.0966725    -1.074236   0.06905145   -2.0966725    1.0224365  1714436 
 9851000    1.0108082   -2.0962971   -2.0962971   -1.0745335  0.072851302   -2.0962971    1.0217636  1714436 
 9852000    1.0104268   -2.0961156   -2.0961156   -1.0747376  0.068015965   -2.0961156     1.021378  1714436 
 9853000    1.0095943   -2.0953492   -2.0953492   -1.0748127  0.070495752   -2.0953492    1.0205365  1714436 
 9854000    1.0092988   -2.0946864   -2.0946864   -1.0744485  0.073202836   -2.0946864    1.0202379  1714436 
 9855000     1.009878   -2.0952925   -2.0952925   -1.0744691  0.066488724   -2.0952925    1.0208233  1714436 
 9856000    1.0100865   -2.0953666   -2.0953666   -1.0743325   0.06938347   -2.0953666     1.021034  1714436 
 9857000    1.0113107   -2.0966293   -2.0966293   -1.0743578   0.07052486   -2.0966293    1.0222715  1714436 
 9858000    1.0111814   -2.0963309   -2.0963309     -1.07419  0.068279002   -2.0963309    1.0221409  1714436 
 9859000    1.0109436   -2.0959762   -2.0959762   -1.0740756  0.069856519   -2.0959762    1.0219005  1714436 
 9860000    1.0104443   -2.0953602   -2.0953602   -1.0739645  0.071970135   -2.0953602    1.0213957  1714436 
 9861000     1.010036   -2.0958269   -2.0958269   -1.0748439   0.07084286   -2.0958269     1.020983  1714436 
 9862000    1.0106321   -2.0963845   -2.0963845   -1.0747989  0.069326134   -2.0963845    1.0215856  1714436 
 9863000    1.0113567   -2.0966587   -2.0966587   -1.0743407   0.07159377   -2.0966587     1.022318  1714436 
 9864000     1.010892   -2.0962269   -2.0962269   -1.0743786  0.073350492   -2.0962269    1.0218483  1714436 
 9865000    1.0109561   -2.0960997   -2.0960997   -1.0741866  0.071872746   -2.0960997    1.0219131  1714436 
 9866000    1.0100444   -2.0953818   -2.0953818   -1.0743903  0.072648451   -2.0953818    1.0209915  1714436 
 9867000       1.0104    -2.096066    -2.096066    -1.074715  0.068362891    -2.096066     1.021351  1714436 
 9868000    1.0104147   -2.0965188   -2.0965188    -1.075153  0.069735177   -2.0965188    1.0213658  1714436 
 9869000    1.0111525   -2.0969863   -2.0969863   -1.0748747  0.068567009   -2.0969863    1.0221116  1714436 
 9870000    1.0109862   -2.0963558   -2.0963558   -1.0744123  0.073074036   -2.0963558    1.0219435  1714436 
 9871000    1.0116885   -2.0969932   -2.0969932   -1.0743398  0.077703409   -2.0969932    1.0226534  1714436 
 9872000    1.0113401   -2.0966451   -2.0966451   -1.0743439  0.071437657   -2.0966451    1.0223013  1714436 
 9873000    1.0113933   -2.0969544   -2.0969544   -1.0745994  0.070674478   -2.0969544     1.022355  1714436 
 9874000     1.011765   -2.0971117   -2.0971117   -1.0743809   0.06944231   -2.0971117    1.0227308  1714436 
 9875000     1.010749    -2.096298    -2.096298   -1.0745943  0.071978937    -2.096298    1.0217038  1714436 
 9876000    1.0122433   -2.0969417   -2.0969417   -1.0737275   0.07087025   -2.0969417    1.0232143  1714436 
 9877000    1.0119843   -2.0972894   -2.0972894   -1.0743369     0.066249   -2.0972894    1.0229524  1714436 
 9878000    1.0121327   -2.0974487   -2.0974487   -1.0743462  0.072951381   -2.0974487    1.0231025  1714436 
 9879000    1.0122177   -2.0973056   -2.0973056   -1.0741172   0.07290529   -2.0973056    1.0231884  1714436 
 9880000    1.0108269   -2.0958944   -2.0958944   -1.0741119  0.070551564   -2.0958944    1.0217825  1714436 
 9881000    1.0122183   -2.0977482   -2.0977482   -1.0745592  0.074357421   -2.0977482     1.023189  1714436 
 9882000    1.0110747   -2.0972247   -2.0972247   -1.0751917  0.070316445   -2.0972247     1.022033  1714436 
 9883000    1.0116219   -2.0978432   -2.0978432   -1.0752571  0.071131173   -2.0978432    1.0225861  1714436 
 9884000    1.0114069   -2.0974219   -2.0974219   -1.0750532  0.072556263   -2.0974219    1.0223688  1714436 
 9885000    1.0113715   -2.0976556   -2.0976556   -1.0753226  0.074624708   -2.0976556     1.022333  1714436 
 9886000    1.0114489   -2.0982728   -2.0982728   -1.0758615  0.073192416   -2.0982728    1.0224112  1714436 
 9887000    1.0100681   -2.0973413   -2.0973413   -1.0763258   0.07371994   -2.0973413    1.0210155  1714436 
 9888000    1.0110495    -2.097836    -2.097836   -1.0758284  0.068521761    -2.097836    1.0220075  1714436 
 9889000    1.0113189   -2.0977758   -2.0977758   -1.0754959  0.070181368   -2.0977758    1.0222799  1714436 
 9890000    1.0114173    -2.097615    -2.097615   -1.0752357  0.071409641    -2.097615    1.0223793  1714436 
 9891000    1.0117579   -2.0981373   -2.0981373   -1.0754137  0.072318603   -2.0981373    1.0227236  1714436 
 9892000    1.0115957   -2.0983681   -2.0983681   -1.0758085  0.073161783   -2.0983681    1.0225596  1714436 
 9893000    1.0113877   -2.0984461   -2.0984461   -1.0760968  0.070053571   -2.0984461    1.0223494  1714436 
 9894000    1.0119354   -2.0992647   -2.0992647   -1.0763616  0.069907092   -2.0992647    1.0229031  1714436 
 9895000    1.0112003   -2.0980103   -2.0980103   -1.0758504  0.068329216   -2.0980103    1.0221599  1714436 
 9896000    1.0100627   -2.0969544   -2.0969544   -1.0759443  0.068788497   -2.0969544    1.0210101  1714436 
 9897000    1.0108559   -2.0973874   -2.0973874   -1.0755756  0.073623184   -2.0973874    1.0218118  1714436 
 9898000    1.0114537   -2.0974343   -2.0974343   -1.0750182  0.070529224   -2.0974343    1.0224161  1714436 
 9899000    1.0115815    -2.097511    -2.097511   -1.0749657  0.067354103    -2.097511    1.0225453  1714436 
 9900000    1.0115341   -2.0974071   -2.0974071   -1.0749098  0.071121496   -2.0974071    1.0224973  1714436 
 9901000    1.0111485   -2.0970441   -2.0970441   -1.0749365  0.076596012   -2.0970441    1.0221076  1714436 
 9902000    1.0117895   -2.0976822   -2.0976822   -1.0749267  0.072443816   -2.0976822    1.0227555  1714436 
 9903000    1.0108852   -2.0968923   -2.0968923   -1.0750509   0.07062235   -2.0968923    1.0218415  1714436 
 9904000    1.0116648    -2.097927    -2.097927   -1.0752976  0.072610506    -2.097927    1.0226295  1714436 
 9905000    1.0119084   -2.0986042   -2.0986042   -1.0757285  0.070004949   -2.0986042    1.0228757  1714436 
 9906000    1.0110077   -2.0973991   -2.0973991   -1.0754338  0.072708025   -2.0973991    1.0219653  1714436 
 9907000    1.0112069   -2.0974638   -2.0974638   -1.0752972  0.070492321   -2.0974638    1.0221666  1714436 
 9908000    1.0103664   -2.0971867   -2.0971867   -1.0758696  0.073071614   -2.0971867     1.021317  1714436 
 9909000    1.0106077   -2.0973151   -2.0973151   -1.0757542  0.072257643   -2.0973151     1.021561  1714436 
 9910000    1.0101838   -2.0971205   -2.0971205   -1.0759881  0.069560007   -2.0971205    1.0211324  1714436 
 9911000    1.0105008   -2.0974387   -2.0974387   -1.0759859  0.067203515   -2.0974387    1.0214529  1714436 
 9912000    1.0109184   -2.0971883   -2.0971883   -1.0753133  0.071895062   -2.0971883    1.0218749  1714436 
 9913000    1.0112563   -2.0971488   -2.0971488   -1.0749322  0.074384251   -2.0971488    1.0222166  1714436 
 9914000     1.010817   -2.0965131   -2.0965131   -1.0747407  0.071359416   -2.0965131    1.0217725  1714436 
 9915000    1.0105557   -2.0962205   -2.0962205   -1.0747121  0.068330704   -2.0962205    1.0215083  1714436 
 9916000    1.0109893   -2.0969224   -2.0969224   -1.0749757  0.071894609   -2.0969224    1.0219467  1714436 
 9917000    1.0107269   -2.0969728   -2.0969728   -1.0752914  0.072204382   -2.0969728    1.0216814  1714436 
 9918000    1.0110737   -2.0968743   -2.0968743   -1.0748423  0.067499045   -2.0968743     1.022032  1714436 
 9919000    1.0114303   -2.0977189   -2.0977189   -1.0753264  0.070233595   -2.0977189    1.0223925  1714436 
 9920000    1.0108916   -2.0968901   -2.0968901   -1.0750422  0.073471233   -2.0968901    1.0218479  1714436 
 9921000    1.0122599   -2.0978675   -2.0978675   -1.0746365   0.07266675   -2.0978675     1.023231  1714436 
 9922000    1.0108702   -2.0963055   -2.0963055   -1.0744792  0.071907187   -2.0963055    1.0218263  1714436 
 9923000     1.010465   -2.0958306   -2.0958306   -1.0744139  0.070545672   -2.0958306    1.0214167  1714436 
 9924000    1.0108966   -2.0957321   -2.0957321   -1.0738791  0.068592223   -2.0957321    1.0218529  1714436 
 9925000    1.0111492   -2.0958402   -2.0958402   -1.0737318  0.069546489   -2.0958402    1.0221083  1714436 
 9926000    1.0104529    -2.094826    -2.094826   -1.0734216  0.074356369    -2.094826    1.0214045  1714436 
 9927000    1.0113577   -2.0959348   -2.0959348   -1.0736158  0.072521637   -2.0959348     1.022319  1714436 
 9928000    1.0112687   -2.0955085   -2.0955085   -1.0732794  0.075878789   -2.0955085    1.0222291  1714436 
 9929000    1.0118273   -2.0961513   -2.0961513   -1.0733576  0.069108647   -2.0961513    1.0227937  1714436 
 9930000    1.0122425   -2.0967944   -2.0967944   -1.0735809  0.074426663   -2.0967944    1.0232135  1714436 
 9931000    1.0120326   -2.0962737   -2.0962737   -1.0732725  0.074117575   -2.0962737    1.0230012  1714436 
 9932000    1.0121031   -2.0967906   -2.0967906   -1.0737181   0.07467191   -2.0967906    1.0230725  1714436 
 9933000    1.0115592   -2.0966003   -2.0966003   -1.0740776  0.074812482   -2.0966003    1.0225227  1714436 
 9934000    1.0119946   -2.0969826   -2.0969826   -1.0740197  0.067909807   -2.0969826    1.0229629  1714436 
 9935000    1.0119537   -2.0971846   -2.0971846   -1.0742631  0.067520998   -2.0971846    1.0229215  1714436 
 9936000     1.011079   -2.0965175   -2.0965175   -1.0744802  0.071762004   -2.0965175    1.0220373  1714436 
 9937000    1.0113452   -2.0968243   -2.0968243   -1.0745179  0.065759744   -2.0968243    1.0223064  1714436 
 9938000    1.0118815   -2.0973462   -2.0973462   -1.0744976  0.065048473   -2.0973462    1.0228486  1714436 
 9939000    1.0108808   -2.0962997   -2.0962997   -1.0744627  0.073096359   -2.0962997     1.021837  1714436 
 9940000     1.011205   -2.0968214   -2.0968214   -1.0746567  0.071948563   -2.0968214    1.0221647  1714436 
 9941000    1.0107257   -2.0960588   -2.0960588   -1.0743786  0.072846548   -2.0960588    1.0216802  1714436 
 9942000    1.0108286   -2.0963572   -2.0963572    -1.074573   0.07072593   -2.0963572    1.0217842  1714436 
 9943000    1.0104325    -2.095906    -2.095906   -1.0745222  0.071999427    -2.095906    1.0213838  1714436 
 9944000    1.0099993   -2.0954403   -2.0954403   -1.0744944  0.071266823   -2.0954403    1.0209459  1714436 
 9945000    1.0100762   -2.0958105   -2.0958105   -1.0747868  0.067949072   -2.0958105    1.0210237  1714436 
 9946000    1.0103654   -2.0960012   -2.0960012   -1.0746852   0.06749718   -2.0960012     1.021316  1714436 
 9947000    1.0110552   -2.0968043   -2.0968043    -1.074791  0.067734909   -2.0968043    1.0220133  1714436 
 9948000    1.0109624   -2.0969074   -2.0969074    -1.074988  0.068003253   -2.0969074    1.0219194  1714436 
 9949000    1.0109456    -2.096849    -2.096849   -1.0749465  0.070998323    -2.096849    1.0219025  1714436 
 9950000    1.0110645    -2.096772    -2.096772   -1.0747493  0.068865756    -2.096772    1.0220226  1714436 
 9951000    1.0118109   -2.0977768   -2.0977768   -1.0749996  0.067068667   -2.0977768    1.0227772  1714436 
 9952000    1.0101518   -2.0962219   -2.0962219   -1.0751219  0.072112206   -2.0962219    1.0211001  1714436 
 9953000     1.011533    -2.097436    -2.097436   -1.0749398  0.069377464    -2.097436    1.0224963  1714436 
 9954000    1.0107513   -2.0966396   -2.0966396   -1.0749335  0.070149039   -2.0966396    1.0217061  1714436 
 9955000    1.0106468    -2.096598    -2.096598   -1.0749976   0.07211938    -2.096598    1.0216004  1714436 
 9956000    1.0106819   -2.0975982   -2.0975982   -1.0759623  0.070481815   -2.0975982    1.0216359  1714436 
 9957000    1.0102109   -2.0965423   -2.0965423   -1.0753825   0.07062279   -2.0965423    1.0211598  1714436 
 9958000    1.0107897   -2.0969535   -2.0969535   -1.0752086  0.072592944   -2.0969535    1.0217449  1714436 
 9959000     1.011409   -2.0972881   -2.0972881   -1.0749172   0.07188475   -2.0972881    1.0223709  1714436 
 9960000    1.0128942   -2.0989649   -2.0989649   -1.0750927  0.072871706   -2.0989649    1.0238722  1714436 
 9961000    1.0117905   -2.0979454   -2.0979454   -1.0751889  0.072817039   -2.0979454    1.0227566  1714436 
 9962000    1.0113781   -2.0976175   -2.0976175   -1.0752778  0.067137491   -2.0976175    1.0223397  1714436 
 9963000    1.0112819    -2.097171    -2.097171   -1.0749286  0.071883592    -2.097171    1.0222425  1714436 
 9964000    1.0111367    -2.096586    -2.096586   -1.0744903  0.072585624    -2.096586    1.0220957  1714436 
 9965000     1.012233   -2.0974646   -2.0974646   -1.0742607  0.069303592   -2.0974646    1.0232039  1714436 
 9966000    1.0113272   -2.0969829   -2.0969829   -1.0746947  0.067383003   -2.0969829    1.0222883  1714436 
 9967000      1.01178   -2.0970859   -2.0970859     -1.07434  0.072505673   -2.0970859    1.0227459  1714436 
 9968000    1.0114619   -2.0967534   -2.0967534   -1.0743291  0.071879384   -2.0967534    1.0224244  1714436 
 9969000    1.0116267   -2.0970803   -2.0970803   -1.0744894   0.07176205   -2.0970803    1.0225909  1714436 
 9970000    1.0114374   -2.0971598   -2.0971598   -1.0747602   0.07202428   -2.0971598    1.0223996  1714436 
 9971000    1.0108879   -2.0968411   -2.0968411    -1.074997  0.074581478   -2.0968411    1.0218441  1714436 
 9972000    1.0105368   -2.0966736   -2.0966736   -1.0751844  0.074530268   -2.0966736    1.0214892  1714436 
 9973000    1.0120257    -2.097643    -2.097643   -1.0746487   0.07165906    -2.097643    1.0229943  1714436 
 9974000    1.0115527   -2.0971932   -2.0971932   -1.0746771   0.06963734   -2.0971932    1.0225161  1714436 
 9975000    1.0130574   -2.0991179   -2.0991179   -1.0750807  0.071796989   -2.0991179    1.0240372  1714436 
 9976000    1.0122319   -2.0982979   -2.0982979   -1.0750951  0.071773321   -2.0982979    1.0232028  1714436 
 9977000    1.0117258   -2.0979932   -2.0979932   -1.0753021  0.069119075   -2.0979932    1.0226911  1714436 
 9978000    1.0115213   -2.0974517   -2.0974517   -1.0749673  0.067006671   -2.0974517    1.0224845  1714436 
 9979000     1.011687   -2.0972835   -2.0972835   -1.0746316  0.071561507   -2.0972835    1.0226519  1714436 
 9980000    1.0110144   -2.0964391   -2.0964391    -1.074467  0.075448933   -2.0964391    1.0219721  1714436 
 9981000    1.0118621   -2.0968564   -2.0968564   -1.0740275  0.071137962   -2.0968564    1.0228289  1714436 
 9982000    1.0139426   -2.0981996   -2.0981996   -1.0732676  0.072066966   -2.0981996    1.0249319  1714436 
 9983000    1.0124204   -2.0969269   -2.0969269   -1.0735337  0.070641236   -2.0969269    1.0233933  1714436 
 9984000    1.0118694    -2.096045    -2.096045   -1.0732088  0.070434386    -2.096045    1.0228363  1714436 
 9985000    1.0123979   -2.0968837   -2.0968837   -1.0735132  0.071590522   -2.0968837    1.0233705  1714436 
 9986000    1.0128509   -2.0973052   -2.0973052   -1.0734768  0.073492052   -2.0973052    1.0238284  1714436 
 9987000    1.0122886   -2.0968936   -2.0968936   -1.0736335  0.067262014   -2.0968936    1.0232601  1714436 
 9988000    1.0123513   -2.0969719   -2.0969719   -1.0736485  0.070700456   -2.0969719    1.0233235  1714436 
 9989000    1.0112946   -2.0961562   -2.0961562   -1.0739009  0.071978714   -2.0961562    1.0222552  1714436 
 9990000     1.012109   -2.0971128   -2.0971128   -1.0740343  0.068360909   -2.0971128    1.0230785  1714436 
 9991000    1.0116813   -2.0970109   -2.0970109   -1.0743648  0.070727375   -2.0970109    1.0226461  1714436 
 9992000    1.0120343   -2.0967746   -2.0967746   -1.0737716  0.069379134   -2.0967746     1.023003  1714436 
 9993000    1.0119834   -2.0970661   -2.0970661   -1.0741146  0.070102999   -2.0970661    1.0229515  1714436 
 9994000    1.0116379   -2.0971195   -2.0971195   -1.0745172  0.069731929   -2.0971195    1.0226023  1714436 
 9995000    1.0107484   -2.0961875   -2.0961875   -1.0744844  0.071340386   -2.0961875    1.0217031  1714436 
 9996000    1.0093678   -2.0947271   -2.0947271   -1.0744195  0.071293444   -2.0947271    1.0203076  1714436 
 9997000    1.0099491   -2.0958307   -2.0958307   -1.0749355  0.071987598   -2.0958307    1.0208952  1714436 
 9998000    1.0106571   -2.0963371   -2.0963371   -1.0747263  0.067149659   -2.0963371    1.0216109  1714436 
 9999000     1.011235    -2.096927    -2.096927    -1.074732  0.067552322    -2.096927     1.022195  1714436 
10000000    1.0109105   -2.0961769   -2.0961769   -1.0743099  0.071901555   -2.0961769     1.021867  1714436 
Loop time of 26524.8 on 1048 procs for 10000000 steps with 1714436 atoms

Performance: 162866.637 tau/day, 377.006 timesteps/s
87.0% CPU use with 1048 MPI tasks x 1 OpenMP threads

MPI task timing breakdown:
Section |  min time  |  avg time  |  max time  |%varavg|  %CPU | %total
-----------------------------------------------------------------------
Pair    | 902.73     | 3333.8     | 5374.8     |1336.3 |  92.1 | 12.57
Bond    | 6.2758     | 6.9348     | 8.6154     |  10.0 | 100.0 |  0.03
Neigh   | 964.37     | 3269.9     | 3745.8     | 884.7 |  98.0 | 12.33
Comm    | 6719.2     | 13047      | 16000      |1767.1 |  86.6 | 49.19
Output  | 568.06     | 570.09     | 598.15     |  18.6 |  67.0 |  2.15
Modify  | 3536.3     | 5525.2     | 14913      |2538.9 |  82.2 | 20.83
Other   |            | 771.3      |            |       |       |  2.91

Nlocal:        1635.91 ave        2169 max         999 min
Histogram: 1 1 3 5 238 624 161 10 2 3
Nghost:        12639.7 ave       17262 max        1173 min
Histogram: 48 2 11 14 43 77 186 252 294 121
Neighs:        30564.8 ave       52964 max        7699 min
Histogram: 56 18 23 106 323 259 147 43 39 34

Total # of neighbors = 32031906
Ave neighs/atom = 18.683641
Ave special neighs/atom = 0.0000000
Neighbor list builds = 1000000
Dangerous builds = 990000

Total wall time: 7:22:27
