LAMMPS (24 Dec 2020)
OMP_NUM_THREADS environment is not set. Defaulting to 1 thread. (src/comm.cpp:94)
  using 1 OpenMP thread(s) per MPI task
#Read the equilibrated lj fluid and add nanocubes

units           lj
atom_style      full
#atom_modify     map array first cubes
dimension       3
boundary        p p f
pair_style      lj/cut/opt 2.5

variable        sigma           equal 1.0
variable        epsilon         equal 1.0
read_restart	restart.dat.4000000
Reading restart file ...
  restart file = 24 Dec 2020, LAMMPS = 24 Dec 2020
WARNING: Restart file used different # of processors: 240 vs. 288 (src/read_restart.cpp:697)
  restoring atom style full from restart
  orthogonal box = (0.0000000 0.0000000 0.0000000) to (80.000000 80.000000 160.00000)
  6 by 4 by 12 MPI processor grid
  restoring pair style lj/cut/opt from restart
  587749 atoms
Finding 1-2 1-3 1-4 neighbors ...
  special bond factors lj:    0        0        0       
  special bond factors coul:  0        0        0       
     0 = max # of 1-2 neighbors
     0 = max # of 1-3 neighbors
     0 = max # of 1-4 neighbors
     1 = max # of special neighbors
  special bonds CPU = 2.330 seconds
  read_restart CPU = 2.831 seconds

group		solvent type 1
387724 atoms in group solvent
group 		hull  type 2
78050 atoms in group hull
group 		dummy type 3
121975 atoms in group dummy

neighbor      0.4 bin
neigh_modify  exclude molecule/intra cubes


pair_modify   shift yes

pair_coeff    1 1 1.0 1.0 #solvent
pair_coeff    2 2 1.0 1.0 1.12 #np
pair_coeff    3 3 0.0 0.0 0.0 #dummy
pair_coeff    2 3 0.0 0.0 0.0 #np dummy
pair_coeff    1 2 ${sol} 1.0 #np solvent
pair_coeff    1 2 1.0 1.0 
pair_coeff    1 3 0.0 0.0 0.0 #dummy solvent


comm_modify   mode multi cutoff/multi 1 2.5 cutoff/multi 2 2.5 cutoff/multi 3 6.95

reset_timestep 	0

balance 	1.05 shift z 10 1.05
Balancing ...
Unused restart file global fix info:
  fix style: STORE, fix ID: msd_COMPUTE_STORE
Unused restart file peratom fix info:
  fix style: STORE, fix ID: bin1_COMPUTE_STORE
Neighbor list info ...
  update every 1 steps, delay 10 steps, check yes
  max neighbors/atom: 2000, page size: 100000
  master list distance cutoff = 2.9
  ghost atom cutoff = 6.95
  binsize = 1.45, bins = 56 56 111
  1 neighbor lists, perpetual/occasional/extra = 1 0 0
  (1) pair lj/cut/opt, perpetual
      attributes: half, newton on
      pair build: half/bin/newton
      stencil: half/bin/3d/newton
      bin: standard
 rebalancing time: 0.025 seconds
  iteration count = 3
  initial/final maximal load/proc = 3046.0000 3010.0000
  initial/final imbalance factor  = 1.4925555 1.4749153
  x cuts: 0.0000000 0.16666667 0.33333333 0.50000000 0.66666667 0.83333333 1.0000000
  y cuts: 0.0000000 0.25000000 0.50000000 0.75000000 1.0000000
  z cuts: 0.0000000 0.072916667 0.13541667 0.19791667 0.28125000 0.34375000 0.39583333 0.47916667 0.52083333 0.60416667 0.68750000 0.77083333 1.0000000

####################### WALLS ###########################

variable       epsilonWall equal 2*${epsilon}
variable       epsilonWall equal 2*1
variable       repulsive   equal   0.7147*${sigma}
variable       repulsive   equal   0.7147*1
variable       full	   equal   3*${sigma}
variable       full	   equal   3*1
region         lowWall block EDGE EDGE EDGE EDGE EDGE 2

fix            topWall all wall/lj93 zhi EDGE 	       ${epsilonWall} ${sigma} ${repulsive} units box
fix            topWall all wall/lj93 zhi EDGE 	       2 ${sigma} ${repulsive} units box
fix            topWall all wall/lj93 zhi EDGE 	       2 1 ${repulsive} units box
fix            topWall all wall/lj93 zhi EDGE 	       2 1 0.7147 units box
fix            lowSol solvent wall/lj93 zlo EDGE                ${epsilonWall} ${sigma} ${full} units box
fix            lowSol solvent wall/lj93 zlo EDGE                2 ${sigma} ${full} units box
fix            lowSol solvent wall/lj93 zlo EDGE                2 1 ${full} units box
fix            lowSol solvent wall/lj93 zlo EDGE                2 1 3 units box
fix 	       lowCub cubes wall/lj93 zlo EDGE                ${epsilonWall} ${sigma} ${repulsive} units box
fix 	       lowCub cubes wall/lj93 zlo EDGE                2 ${sigma} ${repulsive} units box
fix 	       lowCub cubes wall/lj93 zlo EDGE                2 1 ${repulsive} units box
fix 	       lowCub cubes wall/lj93 zlo EDGE                2 1 0.7147 units box


###################### COMPUTES ##########################

compute        bin1 solvent chunk/atom bin/1d z lower 1.0 units box


######################  FIXES ############################


fix             peclet solvent ave/chunk 10000 1 10000 bin1 density/number norm                  none ave one file density.profile

fix              temp solvent ave/chunk 10000 1 10000 bin1 temp norm                  none ave one file temp.profile

fix             1 cubes rigid/nve/small molecule #temp ${temp} ${temp} 10
  create bodies CPU = 0.002 seconds
  175 rigid bodies with 200025 atoms
  6.9282032 = max distance from body owner to body atom

fix             2 solvent nve


## Thermostat
region          regthermo block EDGE EDGE EDGE EDGE 0 20
group           thermo dynamic solvent region regthermo every 1000
dynamic group thermo defined
fix             3 thermo langevin ${temp} ${temp} 10 156453
fix             3 thermo langevin 1.0 ${temp} 10 156453
fix             3 thermo langevin 1.0 1.0 10 156453

## Evaporation
region		regevap block EDGE EDGE EDGE EDGE 140 EDGE
fix		4 solvent evaporate ${evap} 1 regevap 156415
fix		4 solvent evaporate 110 1 regevap 156415


#### Load balancing

fix             bal all balance 1000 1.05 shift z 10 1.05

############### Diagnostics and computes ###################

compute        	com cubes          rigid/local   1 mol x y z
compute        	quat cubes         rigid/local   1 mol quatw quati quatj quatk

compute 	cc2 cubes 	   chunk/atom 	 molecule
compute 	msd cubes 	   msd/chunk 	 cc2

fix 		msd all ave/time  1 1 10000 c_msd[*] file dump.msd ave one mode vector

dump            1 all custom 500000 dump.lammpstrj id mol type x y z
dump		cubetrj hull custom 500000 cubes.lammpstrj id mol type x y z
dump            com cubes local 10000 dump.*.xyz c_com[*]
dump	        xyz hull xyz 100000 cubes.xyz
dump            quat cubes      local 10000 dump.*.quat c_quat[*]
#dump		mol cubes molfile 10000 mol.xyz xyz


dump            2 all image 10000 image.*.png type type
dump_modify     2 pad 8
dump		image cubes image 10000 image_cubes.*.png type type
dump_modify	image pad 8
dump            3 all movie 5000 movie.avi type type
dump		4 cubes movie 5000 movie_cubes.avi type type


thermo          1000
thermo_style    custom step temp epair evdwl etotal press pe ke atoms

restart         1000000 restart1.dat restart2.dat
timestep        0.005
timer           full
New timer settings: style=full  mode=nosync  timeout=off

run 		20000000
Per MPI rank memory allocation (min/avg/max) = 15.06 | 21.44 | 24.16 Mbytes
Step Temp E_pair E_vdwl TotEng Press PotEng KinEng Atoms 
       0    1.0070656    -2.442322    -2.442322   -1.4449193   0.08977612    -2.442322   0.99740268   587749 
    1000    1.0057473   -2.4402116   -2.4402116   -1.4440992  0.074098349   -2.4402116   0.99611233   587740 
    2000    1.0071034   -2.4412728   -2.4412728   -1.4438021  0.069105052   -2.4412728    0.9974707   587731 
    3000    1.0057017   -2.4406029   -2.4406029   -1.4445053  0.067313746   -2.4406029   0.99609763   587722 
    4000    1.0062917     -2.44149     -2.44149   -1.4447927  0.065742818     -2.44149   0.99669733   587713 
    5000    1.0080247   -2.4420715   -2.4420715   -1.4436424  0.058563496   -2.4420715   0.99842902   587704 
    6000    1.0092765   -2.4433713   -2.4433713    -1.443687  0.077816294   -2.4433713   0.99968429   587695 
    7000    1.0087808   -2.4432487   -2.4432487   -1.4440401  0.077807676   -2.4432487   0.99920859   587686 
    8000    1.0081312    -2.443348    -2.443348   -1.4447676  0.073737007    -2.443348   0.99858043   587677 
    9000    1.0071273   -2.4419522   -2.4419522   -1.4443509  0.073588516   -2.4419522   0.99760133   587668 
   10000    1.0083353   -2.4436494   -2.4436494   -1.4448363  0.069311468   -2.4436494   0.99881314   587659 
   11000    1.0076084   -2.4427551   -2.4427551    -1.444645   0.07681299   -2.4427551   0.99811016   587649 
   12000    1.0083241   -2.4434516   -2.4434516   -1.4446172   0.07754659   -2.4434516   0.99883437   587640 
   13000    1.0064364   -2.4429154   -2.4429154   -1.4459357  0.066722898   -2.4429154   0.99697975   587631 
   14000    1.0071615   -2.4435979   -2.4435979   -1.4458845  0.070385072   -2.4435979   0.99771332   587622 
   15000    1.0074247   -2.4436575   -2.4436575   -1.4456683  0.064082563   -2.4436575   0.99798926   587613 
   16000    1.0062223   -2.4424858   -2.4424858   -1.4456724  0.068013613   -2.4424858   0.99681346   587604 
   17000    1.0067855   -2.4430627   -2.4430627   -1.4456761  0.069587967   -2.4430627   0.99738661   587595 
   18000    1.0067545   -2.4427663   -2.4427663   -1.4453951  0.068935911   -2.4427663   0.99737117   587586 
   19000     1.006459   -2.4431236   -2.4431236   -1.4460298    0.0659334   -2.4431236   0.99709375   587577 
   20000    1.0072265   -2.4429438   -2.4429438   -1.4450744  0.063321804   -2.4429438   0.99786936   587568 
   21000     1.007072   -2.4423717   -2.4423717   -1.4446401  0.061847774   -2.4423717    0.9977316   587559 
   22000    1.0063628   -2.4416193   -2.4416193   -1.4445734  0.077358071   -2.4416193   0.99704595   587549 
   23000    1.0067296     -2.44201     -2.44201   -1.4445854   0.07630513     -2.44201   0.99742462   587540 
   24000    1.0079903    -2.443087    -2.443087   -1.4443981  0.069658237    -2.443087   0.99868893   587531 
   25000    1.0080854   -2.4432779   -2.4432779   -1.4444794  0.073329699   -2.4432779   0.99879848   587522 
   26000    1.0078256   -2.4424518   -2.4424518   -1.4438954  0.068328004   -2.4424518   0.99855639   587513 
   27000     1.008301   -2.4424334   -2.4424334   -1.4433907  0.064541883   -2.4424334   0.99904267   587504 
   28000    1.0072419    -2.441204    -2.441204   -1.4431953  0.069905988    -2.441204   0.99800866   587495 
   29000    1.0069034   -2.4412481   -2.4412481   -1.4435596  0.061357947   -2.4412481   0.99768854   587486 
   30000    1.0055897   -2.4400239   -2.4400239   -1.4436217  0.065031795   -2.4400239   0.99640213   587477 
   31000     1.004436   -2.4393475   -2.4393475   -1.4440733  0.067393333   -2.4393475   0.99527417   587468 
   32000    1.0061168   -2.4404743   -2.4404743   -1.4435194  0.061943187   -2.4404743   0.99695488   587459 
   33000    1.0079712   -2.4420365   -2.4420365    -1.443227  0.058751275   -2.4420365   0.99880949   587449 
   34000    1.0055595   -2.4399152   -2.4399152   -1.4434803  0.070657511   -2.4399152    0.9964349   587440 
   35000    1.0060265   -2.4397131   -2.4397131   -1.4428002  0.058036051   -2.4397131   0.99691295   587431 
   36000    1.0046782   -2.4393405   -2.4393405   -1.4437484  0.066606945   -2.4393405   0.99559213   587422 
   37000    1.0065775   -2.4398906   -2.4398906   -1.4424011  0.058970607   -2.4398906   0.99748957   587413 
   38000    1.0065638   -2.4404309   -2.4404309   -1.4429396  0.068810116   -2.4404309   0.99749126   587404 
   39000    1.0069616   -2.4413452   -2.4413452   -1.4434444   0.07094444   -2.4413452   0.99790076   587395 
   40000    1.0063062   -2.4412896   -2.4412896    -1.444023    0.0609921   -2.4412896   0.99726657   587386 
   41000     1.005263   -2.4415332   -2.4415332   -1.4452852  0.062185135   -2.4415332   0.99624801   587377 
   42000    1.0061321   -2.4415774   -2.4415774   -1.4444529  0.059042043   -2.4415774   0.99712451   587368 
   43000    1.0062017   -2.4419888   -2.4419888   -1.4447799  0.081196634   -2.4419888   0.99720886   587359 
   44000    1.0046969   -2.4412049   -2.4412049   -1.4454705  0.071916555   -2.4412049    0.9957344   587349 
   45000    1.0055223    -2.442373    -2.442373   -1.4458053  0.069079852    -2.442373   0.99656769   587340 
   46000    1.0070684   -2.4441018   -2.4441018   -1.4459865  0.080048728   -2.4441018    0.9981153   587331 
   47000    1.0081332   -2.4446357   -2.4446357   -1.4454497  0.071452606   -2.4446357     0.999186   587322 
   48000    1.0065316   -2.4428012   -2.4428012   -1.4451873  0.069291983   -2.4428012   0.99761393   587313 
   49000    1.0068441    -2.442787    -2.442787   -1.4448482  0.077316575    -2.442787   0.99793887   587304 
   50000    1.0071694   -2.4445244   -2.4445244   -1.4462478   0.06412811   -2.4445244   0.99827659   587295 
   51000    1.0063207   -2.4435478   -2.4435478   -1.4460971  0.080083796   -2.4435478   0.99745068   587286 
   52000    1.0068361   -2.4449748   -2.4449748   -1.4469979   0.06567973   -2.4449748   0.99797683   587277 
   53000    1.0066244   -2.4446928   -2.4446928   -1.4469104  0.074013265   -2.4446928   0.99778234   587268 
   54000    1.0069826    -2.445061    -2.445061   -1.4469083  0.073045519    -2.445061    0.9981527   587259 
   55000    1.0079189   -2.4457876   -2.4457876   -1.4466898  0.072732509   -2.4457876   0.99909781   587249 
   56000    1.0079395    -2.446247    -2.446247   -1.4471136  0.064809586    -2.446247   0.99913345   587240 
   57000    1.0081515    -2.446582    -2.446582    -1.447223  0.070337583    -2.446582   0.99935901   587231 
   58000    1.0069507    -2.445473    -2.445473   -1.4472891   0.06779113    -2.445473   0.99818392   587222 
   59000    1.0065907   -2.4446309   -2.4446309   -1.4467885  0.079318735   -2.4446309   0.99784237   587213 
   60000    1.0060692   -2.4454508   -2.4454508   -1.4481101  0.062922195   -2.4454508   0.99734068   587204 
   61000    1.0053236   -2.4451376   -2.4451376   -1.4485208  0.068206128   -2.4451376   0.99661682   587195 
   62000    1.0053093   -2.4437616   -2.4437616   -1.4471437  0.061727379   -2.4437616   0.99661796   587186 
   63000    1.0061092   -2.4446806   -2.4446806   -1.4472544  0.069036557   -2.4446806   0.99742622   587177 
   64000    1.0049016   -2.4432525   -2.4432525   -1.4470082   0.06446801   -2.4432525   0.99624426   587168 
   65000    1.0044969   -2.4431234   -2.4431234    -1.447265  0.070086255   -2.4431234   0.99585836   587159 
   66000    1.0058273   -2.4441867   -2.4441867   -1.4469924  0.066216909   -2.4441867   0.99719433   587149 
   67000     1.003833   -2.4420912   -2.4420912   -1.4468588  0.068081284   -2.4420912    0.9952324   587140 
   68000    1.0071301   -2.4455914   -2.4455914   -1.4470749  0.071078235   -2.4455914    0.9985165   587131 
   69000    1.0066879   -2.4448398   -2.4448398   -1.4467464  0.070145979   -2.4448398   0.99809338   587122 
   70000    1.0042534   -2.4424707   -2.4424707   -1.4467758  0.062035962   -2.4424707   0.99569494   587113 
   71000    1.0054526   -2.4429322   -2.4429322    -1.446033  0.065253968   -2.4429322   0.99689916   587104 
   72000    1.0054101   -2.4427605   -2.4427605   -1.4458882  0.065514457   -2.4427605    0.9968723   587095 
   73000    1.0073235    -2.444057    -2.444057   -1.4452723  0.065137533    -2.444057   0.99878476   587086 
   74000    1.0071545   -2.4441013   -2.4441013   -1.4454687  0.067893242   -2.4441013   0.99863258   587077 
   75000    1.0045457   -2.4418618   -2.4418618   -1.4458007  0.061729589   -2.4418618   0.99606106   587068 
   76000     1.004603   -2.4419639   -2.4419639   -1.4458307  0.059274343   -2.4419639   0.99613321   587059 
   77000    1.0071439   -2.4432107   -2.4432107    -1.444541   0.07381482   -2.4432107   0.99866966   587049 
   78000    1.0067393   -2.4429415   -2.4429415   -1.4446577   0.05677877   -2.4429415   0.99828381   587040 
   79000    1.0062681   -2.4414073   -2.4414073   -1.4435755  0.076191063   -2.4414073   0.99783186   587031 
   80000    1.0075201   -2.4424929   -2.4424929   -1.4434042  0.053407917   -2.4424929   0.99908865   587022 
   81000    1.0070391   -2.4424866   -2.4424866   -1.4438596  0.068845461   -2.4424866   0.99862701   587013 
   82000      1.00515    -2.440388    -2.440388    -1.443619  0.067209889    -2.440388   0.99676898   587004 
   83000    1.0051059   -2.4402625   -2.4402625    -1.443522  0.067012233   -2.4402625   0.99674052   586995 
   84000    1.0069776   -2.4422081   -2.4422081   -1.4435962   0.07523541   -2.4422081    0.9986119   586986 
   85000    1.0036858    -2.439956    -2.439956   -1.4445933  0.062197298    -2.439956   0.99536274   586977 
   86000    1.0048077    -2.439918    -2.439918   -1.4434273  0.062026588    -2.439918   0.99649066   586968 
   87000    1.0046029   -2.4395148   -2.4395148    -1.443212  0.065730158   -2.4395148   0.99630278   586959 
   88000    1.0040284   -2.4399169   -2.4399169   -1.4441668  0.052496816   -2.4399169   0.99575002   586949 
   89000    1.0036485     -2.43943     -2.43943   -1.4440414  0.072441953     -2.43943   0.99538854   586940 
   90000     1.004149   -2.4397203   -2.4397203   -1.4438202  0.071727426   -2.4397203   0.99590013   586931 
   91000    1.0051063    -2.440576    -2.440576   -1.4437111   0.07327906    -2.440576   0.99686485   586922 
   92000    1.0051119   -2.4407415   -2.4407415   -1.4438558  0.075222071   -2.4407415   0.99688569   586913 
   93000    1.0044921   -2.4401037   -2.4401037   -1.4438175  0.054366589   -2.4401037   0.99628623   586904 
   94000    1.0056259   -2.4408639   -2.4408639   -1.4434379  0.062163669   -2.4408639   0.99742606   586895 
   95000    1.0061863   -2.4412871   -2.4412871   -1.4432899  0.059431039   -2.4412871   0.99799726   586886 
   96000    1.0060537      -2.4418      -2.4418    -1.443919  0.067040865      -2.4418   0.99788104   586877 
   97000    1.0065208   -2.4424094   -2.4424094   -1.4440497  0.052168706   -2.4424094   0.99835967   586868 
   98000    1.0064442   -2.4424582   -2.4424582   -1.4441593    0.0721942   -2.4424582   0.99829892   586859 
   99000    1.0058228   -2.4420307   -2.4420307   -1.4443311  0.068207003   -2.4420307   0.99769959   586849 
  100000    1.0055877   -2.4420862   -2.4420862   -1.4446045  0.061794346   -2.4420862    0.9974817   586840 
  101000    1.0049232   -2.4408442   -2.4408442   -1.4440064  0.066927553   -2.4408442   0.99683778   586831 
  102000    1.0057764   -2.4423917   -2.4423917   -1.4446922   0.06173712   -2.4423917   0.99769948   586822 
  103000    1.0037072   -2.4408127   -2.4408127   -1.4451506  0.051891822   -2.4408127   0.99566217   586813 
  104000    1.0051097   -2.4421071   -2.4421071   -1.4450384  0.069220581   -2.4421071   0.99706868   586804 
  105000    1.0027309   -2.4408234   -2.4408234   -1.4460992  0.080868167   -2.4408234   0.99472416   586795 
  106000     1.004292   -2.4423376   -2.4423376   -1.4460495  0.060847085   -2.4423376   0.99628813   586786 
  107000    1.0050216   -2.4433705   -2.4433705   -1.4463433  0.075743989   -2.4433705   0.99702724   586777 
  108000    1.0047899   -2.4432901   -2.4432901   -1.4464775  0.059081786   -2.4432901   0.99681265   586768 
  109000    1.0027495   -2.4419975   -2.4419975   -1.4471938  0.072009777   -2.4419975   0.99480372   586759 
  110000     1.002912   -2.4415576   -2.4415576   -1.4465757  0.074635947   -2.4415576   0.99498183   586749 
  111000    1.0058193   -2.4441727   -2.4441727   -1.4462912  0.072436768   -2.4441727    0.9978815   586740 
  112000    1.0054295   -2.4439316   -2.4439316   -1.4464216  0.062403475   -2.4439316   0.99751006   586731 
  113000    1.0053208   -2.4442288   -2.4442288   -1.4468114  0.061564749   -2.4442288   0.99741749   586722 
  114000    1.0061338   -2.4442638   -2.4442638   -1.4460243  0.064331203   -2.4442638   0.99823944   586713 
  115000    1.0056324   -2.4454771   -2.4454771   -1.4477198  0.073514167   -2.4454771   0.99775724   586704 
  116000    1.0052521   -2.4443765   -2.4443765   -1.4469813  0.071169332   -2.4443765   0.99739525   586695 
  117000    1.0047809   -2.4435322   -2.4435322   -1.4465892  0.072704408   -2.4435322   0.99694305   586686 
  118000    1.0053714   -2.4450982   -2.4450982    -1.447554  0.079873526   -2.4450982   0.99754423   586677 
  119000    1.0048453   -2.4452431   -2.4452431   -1.4482056  0.063897897   -2.4452431   0.99703752   586668 
  120000    1.0028279   -2.4448284   -2.4448284   -1.4497774  0.066777747   -2.4448284   0.99505103   586659 
  121000     1.005036   -2.4463432   -2.4463432   -1.4490841  0.061533044   -2.4463432   0.99725906   586649 
  122000     1.005464   -2.4458753   -2.4458753   -1.4481763  0.072417211   -2.4458753   0.99769897   586640 
  123000    1.0043551   -2.4449696   -2.4449696   -1.4483557   0.06052753   -2.4449696   0.99661393   586631 
  124000    1.0034037    -2.444605    -2.444605   -1.4489199  0.070585112    -2.444605   0.99568517   586622 
  125000    1.0033932   -2.4434951   -2.4434951   -1.4478051  0.076335595   -2.4434951   0.99569007   586613 
  126000    1.0039916   -2.4447008   -2.4447008   -1.4484016  0.075774111   -2.4447008   0.99629914   586604 
  127000    1.0037017   -2.4437022   -2.4437022   -1.4476755  0.078301085   -2.4437022   0.99602669   586595 
  128000    1.0058186   -2.4459221   -2.4459221   -1.4477793  0.060796099   -2.4459221   0.99814274   586586 
  129000     1.004455   -2.4455144   -2.4455144   -1.4487095  0.074908472   -2.4455144   0.99680484   586577 
  130000    1.0048836   -2.4454628   -2.4454628   -1.4482173  0.068796879   -2.4454628   0.99724545   586568 
  131000    1.0048729   -2.4459093   -2.4459093   -1.4486592  0.058654021   -2.4459093   0.99725012   586559 
  132000    1.0048149   -2.4461828   -2.4461828   -1.4489732  0.051764834   -2.4461828   0.99720966   586549 
  133000    1.0037962   -2.4446808   -2.4446808    -1.448467   0.06595434   -2.4446808   0.99621387   586540 
  134000    1.0030364    -2.443466    -2.443466   -1.4479908  0.065582037    -2.443466   0.99547516   586531 
  135000    1.0036431   -2.4438053   -2.4438053   -1.4477128  0.073864497   -2.4438053   0.99609253   586522 
  136000    1.0040958    -2.444277    -2.444277   -1.4477199  0.060765744    -2.444277   0.99655708   586513 
  137000    1.0030598   -2.4439729   -2.4439729   -1.4484287  0.059174487   -2.4439729    0.9955442   586504 
  138000    1.0045129   -2.4446234   -2.4446234   -1.4476218  0.076683934   -2.4446234   0.99700163   586495 
  139000      1.00377   -2.4436015   -2.4436015   -1.4473218  0.065680334   -2.4436015   0.99627967   586486 
  140000    1.0059645   -2.4458038   -2.4458038   -1.4473307    0.0641832   -2.4458038   0.99847305   586477 
  141000    1.0038305   -2.4445926   -2.4445926   -1.4482224  0.068658945   -2.4445926   0.99637022   586468 
  142000    1.0033029   -2.4429747   -2.4429747   -1.4471129  0.078171929   -2.4429747   0.99586183   586459 
  143000     1.003003   -2.4421437   -2.4421437   -1.4465625  0.074800393   -2.4421437   0.99558117   586449 
  144000    1.0038453   -2.4439778   -2.4439778   -1.4475453  0.066337884   -2.4439778   0.99643248   586440 
  145000    1.0047735   -2.4437058   -2.4437058   -1.4463367  0.071426576   -2.4437058   0.99736919   586431 
  146000    1.0023099   -2.4423242   -2.4423242   -1.4473852   0.06470058   -2.4423242   0.99493899   586422 
  147000    1.0030147   -2.4430153   -2.4430153   -1.4473614  0.055357564   -2.4430153    0.9956539   586413 
  148000    1.0038444   -2.4436709   -2.4436709   -1.4471781  0.063480056   -2.4436709   0.99649281   586404 
  149000    1.0038333   -2.4438241   -2.4438241    -1.447327  0.054937522   -2.4438241   0.99649703   586395 
  150000    1.0047087   -2.4441032   -2.4441032   -1.4467218  0.066779277   -2.4441032   0.99738136   586386 
  151000    1.0018366   -2.4413481   -2.4413481   -1.4468026   0.06768729   -2.4413481   0.99454553   586377 
  152000    1.0025822    -2.442843    -2.442843   -1.4475421  0.066655851    -2.442843    0.9953009   586368 
  153000    1.0032698   -2.4421957   -2.4421957   -1.4461968  0.065856406   -2.4421957   0.99599887   586359 
  154000    1.0037152   -2.4421822   -2.4421822   -1.4457242  0.070579147   -2.4421822   0.99645801   586349 
  155000    1.0038967   -2.4425839   -2.4425839   -1.4459304  0.070927817   -2.4425839   0.99665345   586340 
  156000    1.0036515   -2.4437026   -2.4437026   -1.4472772  0.061790909   -2.4437026   0.99642539   586331 
  157000    1.0025988   -2.4432339   -2.4432339   -1.4478384  0.060226219   -2.4432339   0.99539552   586322 
  158000     1.001644   -2.4425019   -2.4425019    -1.448039  0.070738279   -2.4425019   0.99446284   586313 
  159000    1.0015786   -2.4416194   -2.4416194   -1.4472063  0.066889831   -2.4416194   0.99441317   586304 
  160000    1.0022511   -2.4421684   -2.4421684   -1.4470723  0.071086775   -2.4421684   0.99509614   586295 
  161000    1.0035161    -2.443392    -2.443392   -1.4470247  0.058103318    -2.443392   0.99636738   586286 
  162000       1.0035   -2.4422932   -2.4422932   -1.4459265  0.071210358   -2.4422932   0.99636672   586277 
  163000    1.0062949    -2.445132    -2.445132   -1.4459749  0.062241161    -2.445132    0.9991571   586268 
  164000    1.0032218   -2.4427152   -2.4427152   -1.4465942  0.077081754   -2.4427152   0.99612102   586259 
  165000    1.0044733   -2.4438989   -2.4438989   -1.4465182   0.06617825   -2.4438989   0.99738071   586249 
  166000    1.0048082   -2.4442672   -2.4442672   -1.4465386   0.06594695   -2.4442672    0.9977286   586240 
  167000    1.0052387   -2.4439027   -2.4439027   -1.4457313  0.071594782   -2.4439027    0.9981714   586231 
  168000    1.0009777   -2.4400473   -2.4400473   -1.4460917  0.083020424   -2.4400473   0.99395558   586222 
  169000    1.0018743   -2.4409469   -2.4409469   -1.4460857  0.077845422   -2.4409469    0.9948612   586213 
  170000    1.0024383   -2.4415248   -2.4415248   -1.4460883  0.077688086   -2.4415248   0.99543649   586204 
  171000    1.0030357   -2.4428382   -2.4428382   -1.4467932  0.067972282   -2.4428382   0.99604502   586195 
  172000    1.0036002   -2.4435735   -2.4435735   -1.4469526  0.080361955   -2.4435735   0.99662089   586186 
  173000    1.0034602   -2.4439739   -2.4439739   -1.4474768  0.066556102   -2.4439739   0.99649712   586177 
  174000    1.0032825   -2.4440934   -2.4440934   -1.4477575  0.079031722   -2.4440934   0.99633596   586168 
  175000    1.0025875   -2.4430068   -2.4430068   -1.4473457  0.070179859   -2.4430068   0.99566104   586159 
  176000    1.0025038   -2.4421447   -2.4421447   -1.4465498  0.070742409   -2.4421447   0.99559494   586149 
  177000   0.99925343   -2.4396191   -2.4396191   -1.4472369  0.061659943   -2.4396191   0.99238222   586140 
  178000    1.0003287   -2.4412247   -2.4412247   -1.4477594   0.05725892   -2.4412247   0.99346536   586131 
  179000    1.0022802   -2.4427021   -2.4427021   -1.4472834   0.06756627   -2.4427021   0.99541871   586122 
  180000    1.0002568   -2.4414255   -2.4414255    -1.448001  0.067345526   -2.4414255   0.99342446   586113 
  181000   0.99986325   -2.4403828   -2.4403828    -1.447334  0.061209221   -2.4403828   0.99304884   586104 
  182000    1.0008521   -2.4414804   -2.4414804   -1.4474342  0.059229293   -2.4414804   0.99404622   586095 
  183000    1.0020436    -2.442614    -2.442614   -1.4473691  0.062486233    -2.442614    0.9952449   586086 
  184000    1.0027093   -2.4423971   -2.4423971   -1.4464757  0.069194193   -2.4423971   0.99592142   586077 
  185000    1.0023435   -2.4424695   -2.4424695   -1.4468961  0.062234202   -2.4424695   0.99557338   586068 
  186000    1.0029843   -2.4426478   -2.4426478   -1.4464227  0.074010802   -2.4426478   0.99622512   586059 
  187000    1.0024639   -2.4419332   -2.4419332    -1.446208   0.06631157   -2.4419332    0.9957252   586049 
  188000    1.0023555   -2.4430027   -2.4430027   -1.4473699  0.063821769   -2.4430027   0.99563281   586040 
  189000    1.0021286   -2.4436163   -2.4436163   -1.4481936  0.061489632   -2.4436163   0.99542277   586031 
  190000     1.002182   -2.4427164   -2.4427164   -1.4472253  0.058613285   -2.4427164    0.9954911   586022 
  191000    1.0025889    -2.442586    -2.442586   -1.4466754  0.068588605    -2.442586   0.99591058   586013 
  192000    1.0014812   -2.4428785   -2.4428785   -1.4480529    0.0651164   -2.4428785   0.99482553   586004 
  193000    1.0015431   -2.4445362   -2.4445362   -1.4496339  0.065694534   -2.4445362   0.99490227   585995 
  194000    1.0005834   -2.4440414   -2.4440414   -1.4500772  0.064597574   -2.4440414   0.99396415   585986 
  195000    1.0006046    -2.443763    -2.443763   -1.4497624  0.070955788    -2.443763   0.99400056   585977 
  196000    1.0020467    -2.445428    -2.445428   -1.4499796  0.068285659    -2.445428   0.99544842   585968 
  197000    1.0035167   -2.4472399   -2.4472399   -1.4503159  0.067303423   -2.4472399     0.996924   585959 
  198000    1.0030556   -2.4467316   -2.4467316   -1.4502486  0.075283113   -2.4467316   0.99648299   585949 
  199000     1.001179   -2.4447212   -2.4447212   -1.4500873   0.07583658   -2.4447212   0.99463389   585940 
  200000    1.0011843   -2.4440272   -2.4440272   -1.4493727  0.071434416   -2.4440272   0.99465446   585931 
  201000     1.002471   -2.4456132   -2.4456132   -1.4496652  0.078251893   -2.4456132   0.99594804   585922 
  202000    1.0027478   -2.4458901   -2.4458901   -1.4496517   0.07495367   -2.4458901    0.9962384   585913 
  203000    1.0019794   -2.4462035   -2.4462035   -1.4507132  0.079041792   -2.4462035    0.9954903   585904 
  204000     1.003162   -2.4473661   -2.4473661   -1.4506855  0.070723898   -2.4473661   0.99668055   585895 
  205000    1.0037224   -2.4476154   -2.4476154   -1.4503628  0.070688904   -2.4476154   0.99725259   585886 
  206000    1.0043623   -2.4488529   -2.4488529   -1.4509492  0.067953242   -2.4488529   0.99790373   585877 
  207000    1.0016021   -2.4460017   -2.4460017   -1.4508251  0.081673101   -2.4460017   0.99517658   585868 
  208000    1.0007041   -2.4465053   -2.4465053   -1.4522057  0.075050368   -2.4465053   0.99429963   585859 
  209000    1.0022426   -2.4468898   -2.4468898   -1.4510446  0.071144817   -2.4468898   0.99584527   585849 
  210000    1.0007906   -2.4454362   -2.4454362   -1.4510184  0.075284306   -2.4454362    0.9944178   585840 
  211000    1.0022287   -2.4459667   -2.4459667   -1.4501046  0.068749155   -2.4459667   0.99586208   585831 
  212000    1.0027114   -2.4464762   -2.4464762   -1.4501192   0.06929519   -2.4464762   0.99635699   585822 
  213000    1.0030709   -2.4466727   -2.4466727   -1.4499432  0.070224614   -2.4466727   0.99672954   585813 
  214000    1.0018432   -2.4456869   -2.4456869   -1.4501621  0.063031507   -2.4456869   0.99552482   585804 
  215000    1.0017558   -2.4452696   -2.4452696   -1.4498163  0.072258335   -2.4452696   0.99545334   585795 
  216000    1.0037593   -2.4474518   -2.4474518   -1.4499923  0.065142011   -2.4474518   0.99745957   585786 
  217000    1.0003524   -2.4439596   -2.4439596   -1.4498703  0.075240131   -2.4439596   0.99408929   585777 
  218000   0.99950763   -2.4438483   -2.4438483   -1.4505833  0.062290336   -2.4438483   0.99326505   585768 
  219000   0.99951177   -2.4442058   -2.4442058   -1.4509213  0.063773185   -2.4442058   0.99328444   585759 
  220000   0.99993357   -2.4448634   -2.4448634   -1.4511428  0.051589007   -2.4448634   0.99372057   585749 
  221000   0.99952655   -2.4447257   -2.4447257   -1.4513944  0.055298224   -2.4447257   0.99333134   585740 
  222000   0.99909871   -2.4447251   -2.4447251   -1.4518037  0.069244612   -2.4447251   0.99292141   585731 
  223000    1.0003859   -2.4448808   -2.4448808   -1.4506649  0.061277536   -2.4448808   0.99421594   585722 
  224000   0.99899999   -2.4433023   -2.4433023   -1.4504485  0.063458526   -2.4433023   0.99285381   585713 
  225000    1.0006931    -2.444099    -2.444099   -1.4495472  0.072550342    -2.444099   0.99455177   585704 
  226000    1.0020608    -2.445637    -2.445637   -1.4497106  0.073799901    -2.445637   0.99592639   585695 
  227000    1.0011383   -2.4450565   -2.4450565   -1.4500317  0.064695164   -2.4450565   0.99502484   585686 
  228000    1.0022611   -2.4454097   -2.4454097   -1.4492536  0.066118817   -2.4454097   0.99615606   585677 
  229000     1.001381   -2.4444092   -2.4444092   -1.4491126  0.067980922   -2.4444092   0.99529667   585668 
  230000    1.0009715   -2.4428196   -2.4428196   -1.4479146  0.069264465   -2.4428196   0.99490495   585659 
  231000    1.0017187   -2.4434034   -2.4434034   -1.4477388  0.073318408   -2.4434034   0.99566462   585649 
  232000    1.0028368   -2.4450601   -2.4450601   -1.4482689  0.080794424   -2.4450601   0.99679122   585640 
  233000    1.0017018   -2.4433158   -2.4433158   -1.4476374  0.076016722   -2.4433158   0.99567836   585631 
  234000     1.002809   -2.4453757   -2.4453757   -1.4485815  0.067450433   -2.4453757   0.99679423   585622 
  235000    1.0006244   -2.4435109   -2.4435109   -1.4488729  0.065602575   -2.4435109   0.99463801   585613 
  236000    1.0024037   -2.4450392   -2.4450392   -1.4486171  0.073002862   -2.4450392   0.99642204   585604 
  237000    1.0008514    -2.444104    -2.444104   -1.4492097  0.073312662    -2.444104   0.99489431   585595 
  238000     1.001552   -2.4454944   -2.4454944   -1.4498884  0.069898486   -2.4454944   0.99560598   585586 
  239000    1.0006558    -2.444594    -2.444594   -1.4498636  0.070530028    -2.444594    0.9947304   585577 
  240000    1.0008791   -2.4443569   -2.4443569   -1.4493893  0.079249571   -2.4443569   0.99496766   585568 
  241000    1.0002795   -2.4441207   -2.4441207   -1.4497338  0.070194546   -2.4441207   0.99438691   585559 
  242000    1.0003309    -2.445108    -2.445108   -1.4506531  0.070369038    -2.445108   0.99445496   585549 
  243000    1.0007682   -2.4458823   -2.4458823   -1.4509773  0.072240334   -2.4458823   0.99490499   585540 
  244000    1.0001708   -2.4455979   -2.4455979   -1.4512716   0.06352891   -2.4455979   0.99432634   585531 
  245000    1.0020771   -2.4471914   -2.4471914   -1.4509546  0.053657282   -2.4471914   0.99623683   585522 
  246000    1.0014001   -2.4468332   -2.4468332   -1.4512541  0.061347921   -2.4468332   0.99557908   585513 
  247000    0.9996201   -2.4464105   -2.4464105   -1.4525858    0.0730534   -2.4464105   0.99382473   585504 
  248000    1.0017963   -2.4477941   -2.4477941   -1.4517904  0.067416614   -2.4477941   0.99600367   585495 
  249000    1.0011221    -2.447971    -2.447971   -1.4526224  0.070606906    -2.447971   0.99534862   585486 
  250000   0.99952262   -2.4459765   -2.4459765   -1.4522029  0.057228944   -2.4459765   0.99377364   585477 
  251000    1.0014141   -2.4473741   -2.4473741   -1.4517045   0.06821855   -2.4473741   0.99566959   585468 
  252000    1.0006787   -2.4467415   -2.4467415   -1.4517878  0.075256104   -2.4467415   0.99495364   585459 
  253000   0.99889093   -2.4452477   -2.4452477   -1.4520546  0.071143651   -2.4452477   0.99319308   585449 
  254000    1.0005979   -2.4462567   -2.4462567   -1.4513511  0.074042064   -2.4462567   0.99490566   585440 
  255000    1.0001989   -2.4458563   -2.4458563   -1.4513321  0.068098492   -2.4458563   0.99452422   585431 
  256000    1.0004872    -2.446119    -2.446119   -1.4512929  0.074369275    -2.446119   0.99482617   585422 
  257000    1.0010261   -2.4456989   -2.4456989   -1.4503217  0.064987545   -2.4456989   0.99537724   585413 
  258000    1.0015308   -2.4462018   -2.4462018   -1.4503074   0.06518114   -2.4462018   0.99589446   585404 
  259000    1.0001553   -2.4466854   -2.4466854   -1.4521435  0.065639935   -2.4466854   0.99454194   585395 
  260000     0.999791   -2.4457966   -2.4457966   -1.4516016  0.077727882   -2.4457966   0.99419501   585386 
  261000   0.99977145   -2.4453432   -2.4453432   -1.4511524  0.070080223   -2.4453432   0.99419086   585377 
  262000    0.9993893   -2.4454684   -2.4454684   -1.4516423  0.067484522   -2.4454684   0.99382612   585368 
  263000    0.9983894   -2.4445197   -2.4445197   -1.4516726   0.06330859   -2.4445197   0.99284704   585359 
  264000    1.0001448   -2.4462604   -2.4462604   -1.4516508  0.071407327   -2.4462604   0.99460966   585349 
  265000   0.99945186   -2.4451465   -2.4451465   -1.4512106  0.064628418   -2.4451465   0.99393587   585340 
  266000   0.99969232   -2.4454613   -2.4454613    -1.451271  0.059594778   -2.4454613   0.99419029   585331 
  267000   0.99852917   -2.4445925   -2.4445925   -1.4515437  0.060266833   -2.4445925   0.99304881   585322 
  268000   0.99857561   -2.4444557   -2.4444557   -1.4513454  0.068863956   -2.4444557   0.99311027   585313 
  269000    0.9996724   -2.4459241   -2.4459241   -1.4517077  0.057591607   -2.4459241   0.99421634   585304 
  270000   0.99960776   -2.4458812   -2.4458812   -1.4517138  0.066375943   -2.4458812   0.99416734   585295 
  271000   0.99865003   -2.4444774   -2.4444774   -1.4512473  0.080255759   -2.4444774    0.9932301   585286 
  272000    1.0000841   -2.4463707   -2.4463707   -1.4516991  0.061480395   -2.4463707   0.99467165   585277 
  273000    1.0010285   -2.4467136   -2.4467136   -1.4510874  0.063928411   -2.4467136   0.99562626   585268 
  274000   0.99909363   -2.4455241   -2.4455241    -1.451807  0.066616873   -2.4455241   0.99371713   585259 
  275000   0.99983305   -2.4448874   -2.4448874   -1.4504178  0.078717185   -2.4448874   0.99446956   585249 
  276000   0.99973413   -2.4444399   -2.4444399   -1.4500534  0.074172287   -2.4444399   0.99438646   585240 
  277000    1.0014417   -2.4457825   -2.4457825   -1.4496822  0.071426124   -2.4457825   0.99610026   585231 
  278000    1.0028887   -2.4467962   -2.4467962   -1.4492414  0.071708516   -2.4467962   0.99755479   585222 
  279000    1.0008925    -2.445444    -2.445444   -1.4498594   0.06680669    -2.445444   0.99558455   585213 
  280000   0.99972325   -2.4441195   -2.4441195   -1.4496827   0.06217627   -2.4441195   0.99443681   585204 
  281000    1.0009694   -2.4459091   -2.4459091   -1.4502174  0.071603125   -2.4459091   0.99569165   585195 
  282000    1.0002025   -2.4451378   -2.4451378   -1.4501937  0.068592962   -2.4451378    0.9949441   585186 
  283000   0.99999258   -2.4454552   -2.4454552   -1.4507046  0.067532162   -2.4454552   0.99475062   585177 
  284000    1.0006882   -2.4460982   -2.4460982   -1.4506402   0.06149906   -2.4460982   0.99545793   585168 
  285000   0.99896168   -2.4445839   -2.4445839   -1.4508282  0.071726207   -2.4445839   0.99375569   585159 
  286000   0.99954077   -2.4443579   -2.4443579   -1.4500092  0.064423796   -2.4443579   0.99434875   585149 
  287000   0.99907218   -2.4443124   -2.4443124   -1.4504145  0.072860822   -2.4443124   0.99389788   585140 
  288000   0.99896197   -2.4440118   -2.4440118   -1.4502083  0.062469441   -2.4440118   0.99380352   585131 
  289000   0.99835009   -2.4430034   -2.4430034   -1.4497933  0.075075765   -2.4430034   0.99321008   585122 
  290000   0.99795302   -2.4431608   -2.4431608   -1.4503305  0.059062776   -2.4431608   0.99283033   585113 
  291000   0.99854684   -2.4426754   -2.4426754    -1.449239   0.05878433   -2.4426754   0.99343638   585104 
  292000   0.99900744   -2.4426745   -2.4426745   -1.4487646  0.071201543   -2.4426745   0.99390992   585095 
  293000     1.000155   -2.4440068   -2.4440068   -1.4489398  0.062411927   -2.4440068   0.99506694   585086 
  294000   0.99923429   -2.4433439   -2.4433439   -1.4491777  0.062393168   -2.4433439    0.9941662   585077 
  295000   0.99888391   -2.4420649   -2.4420649    -1.448232  0.064255313   -2.4420649   0.99383288   585068 
  296000    1.0009188   -2.4434999   -2.4434999    -1.447627  0.065935893   -2.4434999   0.99587282   585059 
  297000    1.0002972   -2.4422083   -2.4422083    -1.446937  0.066215759   -2.4422083   0.99527131   585049 
  298000   0.99978013   -2.4419446   -2.4419446   -1.4471724  0.073985238   -2.4419446   0.99477218   585040 
  299000    1.0002257   -2.4424319   -2.4424319    -1.447201   0.06171852   -2.4424319   0.99523086   585031 
  300000   0.99783985   -2.4402834   -2.4402834   -1.4474112  0.074678775   -2.4402834   0.99287216   585022 
  301000   0.99905659    -2.441961    -2.441961   -1.4478628  0.075688726    -2.441961   0.99409814   585013 
  302000   0.99767939   -2.4423948   -2.4423948   -1.4496518  0.055792933   -2.4423948   0.99274304   585004 
  303000   0.99949222   -2.4426118   -2.4426118   -1.4480496  0.064087766   -2.4426118    0.9945622   584995 
  304000   0.99783298   -2.4414683   -2.4414683   -1.4485419  0.066862344   -2.4414683   0.99292642   584986 
  305000   0.99746175   -2.4400158   -2.4400158   -1.4474435  0.058189925   -2.4400158   0.99257229   584977 
  306000   0.99883189   -2.4411915   -2.4411915   -1.4472405  0.076837631   -2.4411915   0.99395101   584968 
  307000   0.99904073   -2.4418274   -2.4418274   -1.4476533  0.059876158   -2.4418274   0.99417412   584959 
  308000   0.99794962   -2.4418323   -2.4418323   -1.4487269  0.063653413   -2.4418323    0.9931053   584949 
  309000   0.99860397   -2.4420073   -2.4420073   -1.4482356   0.07781223   -2.4420073   0.99377177   584940 
  310000   0.99826493   -2.4422858   -2.4422858   -1.4488361  0.069102796   -2.4422858   0.99344966   584931 
  311000    1.0004003   -2.4438344   -2.4438344   -1.4482444  0.067708494   -2.4438344   0.99559002   584922 
  312000   0.99901338   -2.4421824   -2.4421824   -1.4479573  0.062088416   -2.4421824   0.99422509   584913 
  313000   0.99823765   -2.4415666   -2.4415666   -1.4480983  0.064359703   -2.4415666   0.99346836   584904 
  314000   0.99866928   -2.4412744   -2.4412744   -1.4473612  0.079551143   -2.4412744   0.99391322   584895 
  315000   0.99757321    -2.441586    -2.441586   -1.4487484  0.057948115    -2.441586   0.99283765   584886 
  316000   0.99821959   -2.4423753   -2.4423753    -1.448879  0.069404964   -2.4423753   0.99349625   584877 
  317000   0.99848732   -2.4423445   -2.4423445   -1.4485665  0.068235976   -2.4423445     0.993778   584868 
  318000   0.99880767   -2.4421759   -2.4421759   -1.4480638  0.070943186   -2.4421759   0.99411214   584859 
  319000   0.99785272   -2.4409585   -2.4409585   -1.4477799  0.073802641   -2.4409585   0.99317866   584849 
  320000   0.99777523   -2.4422164   -2.4422164   -1.4490995  0.068747068   -2.4422164   0.99311682   584840 
  321000   0.99724829   -2.4423068   -2.4423068   -1.4496992   0.06477179   -2.4423068   0.99260761   584831 
  322000   0.99828978   -2.4431721   -2.4431721   -1.4495125   0.06410968   -2.4431721   0.99365955   584822 
  323000   0.99877593    -2.443331    -2.443331   -1.4491723  0.065142338    -2.443331   0.99415875   584813 
  324000   0.99825546   -2.4430908   -2.4430908   -1.4494348  0.061185925   -2.4430908   0.99365597   584804 
  325000   0.99705551   -2.4420884   -2.4420884   -1.4496116  0.063047702   -2.4420884   0.99247682   584795 
  326000   0.99688657   -2.4422251   -2.4422251   -1.4499011  0.079780452   -2.4422251   0.99232393   584786 
  327000   0.99775577   -2.4434614   -2.4434614    -1.450257   0.05930671   -2.4434614   0.99320444   584777 
  328000   0.99818191   -2.4440253   -2.4440253   -1.4503814  0.056072907   -2.4440253   0.99364393   584768 
  329000   0.99627441   -2.4432499   -2.4432499   -1.4514896  0.066267341   -2.4432499   0.99176036   584759 
  330000   0.99757108      -2.4445      -2.4445   -1.4514318   0.05791531      -2.4445   0.99306814   584749 
  331000   0.99744512   -2.4441093   -2.4441093   -1.4511513   0.07042463   -2.4441093   0.99295803   584740 
  332000   0.99675928    -2.444215    -2.444215   -1.4519245  0.071328269    -2.444215   0.99229055   584731 
  333000   0.99725887   -2.4436004   -2.4436004   -1.4507972   0.07535974   -2.4436004   0.99280319   584722 
  334000   0.99806211   -2.4436193   -2.4436193   -1.4500012  0.067846808   -2.4436193   0.99361813   584713 
  335000   0.99770602   -2.4441629   -2.4441629    -1.450884   0.07320366   -2.4441629   0.99327891   584704 
  336000   0.99762254   -2.4436019   -2.4436019   -1.4503908  0.072358826   -2.4436019   0.99321109   584695 
  337000   0.99814786   -2.4442476   -2.4442476   -1.4504982  0.077224452   -2.4442476   0.99374938   584686 
  338000   0.99815124   -2.4443707   -2.4443707   -1.4506026  0.053259876   -2.4443707   0.99376804   584677 
  339000   0.99854007    -2.445526    -2.445526   -1.4513555   0.06210612    -2.445526   0.99417047   584668 
  340000     0.999171   -2.4457867   -2.4457867   -1.4509727  0.074539924   -2.4457867   0.99481396   584659 
  341000   0.99849008   -2.4449911   -2.4449911   -1.4508381  0.073198685   -2.4449911   0.99415301   584649 
  342000   0.99882468   -2.4453682   -2.4453682   -1.4508668  0.072727517   -2.4453682   0.99450146   584640 
  343000   0.99874182   -2.4461599   -2.4461599   -1.4517256  0.064722692   -2.4461599   0.99443427   584631 
  344000   0.99658906   -2.4450385   -2.4450385   -1.4527324   0.05207987   -2.4450385   0.99230607   584622 
  345000   0.99623706   -2.4453423   -2.4453423   -1.4533715  0.063326228   -2.4453423   0.99197085   584613 
  346000   0.99661937   -2.4451392   -2.4451392   -1.4527723  0.065611959   -2.4451392   0.99236681   584604 
  347000   0.99785027   -2.4460486   -2.4460486   -1.4524408  0.063044976   -2.4460486   0.99360774   584595 
  348000   0.99594874     -2.44398     -2.44398   -1.4522504  0.070276287     -2.44398   0.99172957   584586 
  349000   0.99619277   -2.4444841   -2.4444841   -1.4524962  0.069504144   -2.4444841   0.99198784   584577 
  350000   0.99494332   -2.4428393   -2.4428393   -1.4520804  0.064370352   -2.4428393   0.99075892   584568 
  351000   0.99659981   -2.4444623   -2.4444623   -1.4520385  0.069393189   -2.4444623   0.99242372   584559 
  352000    0.9964787   -2.4448085   -2.4448085   -1.4524885  0.059470794   -2.4448085   0.99232009   584549 
  353000   0.99736463   -2.4459813   -2.4459813   -1.4527636  0.072007016   -2.4459813   0.99321762   584540 
  354000   0.99771177   -2.4463516   -2.4463516    -1.452773  0.073203698   -2.4463516   0.99357861   584531 
  355000   0.99745568   -2.4465341   -2.4465341   -1.4531952  0.059385066   -2.4465341   0.99333887   584522 
  356000   0.99629439   -2.4454614   -2.4454614   -1.4532638  0.075777068   -2.4454614   0.99219766   584513 
  357000   0.99740963   -2.4469871   -2.4469871   -1.4536635  0.068803153   -2.4469871   0.99332361   584504 
  358000   0.99548774   -2.4462613   -2.4462613   -1.4548365  0.074362222   -2.4462613   0.99142485   584495 
  359000   0.99524853   -2.4466082   -2.4466082   -1.4554063   0.05997673   -2.4466082   0.99120189   584486 
  360000   0.99680833   -2.4475556   -2.4475556   -1.4547849  0.064028761   -2.4475556   0.99277062   584477 
  361000   0.99505155   -2.4459799   -2.4459799   -1.4549436  0.064335328   -2.4459799   0.99103623   584468 
  362000   0.99536355   -2.4481188   -2.4481188   -1.4567565  0.067328695   -2.4481188   0.99136223   584459 
  363000   0.99606819   -2.4478571   -2.4478571    -1.455776  0.063007707   -2.4478571   0.99208101   584449 
  364000   0.99678773   -2.4490456   -2.4490456   -1.4562327  0.073137065   -2.4490456   0.99281296   584440 
  365000   0.99731896   -2.4497483   -2.4497483   -1.4563909  0.070293264   -2.4497483   0.99335737   584431 
  366000    0.9975903   -2.4499317   -2.4499317   -1.4562887  0.067433786   -2.4499317   0.99364293   584422 
  367000   0.99684864   -2.4498512   -2.4498512   -1.4569317  0.064868734   -2.4498512    0.9929195   584413 
  368000   0.99733316   -2.4500841   -2.4500841   -1.4566666  0.073440512   -2.4500841   0.99341741   584404 
  369000   0.99841092   -2.4507308   -2.4507308   -1.4562245  0.072498239   -2.4507308   0.99450625   584395 
  370000   0.99715508   -2.4495687   -2.4495687   -1.4562981  0.073520988   -2.4495687   0.99327062   584386 
  371000   0.99873967   -2.4499023   -2.4499023   -1.4550379  0.073709311   -2.4499023   0.99486436   584377 
  372000    0.9979493   -2.4490583   -2.4490583    -1.454966  0.074211791   -2.4490583   0.99409236   584368 
  373000   0.99477864   -2.4484663   -2.4484663   -1.4575171  0.069352171   -2.4484663   0.99094923   584359 
  374000   0.99550828   -2.4479781   -2.4479781   -1.4562851  0.074048189   -2.4479781   0.99169302   584349 
  375000   0.99743977   -2.4489854   -2.4489854    -1.455353  0.062124837   -2.4489854   0.99363242   584340 
  376000   0.99717944   -2.4480854   -2.4480854    -1.454697  0.075260728   -2.4480854   0.99338838   584331 
  377000   0.99741922   -2.4483235   -2.4483235    -1.454681  0.063624259   -2.4483235   0.99364255   584322 
  378000   0.99548051   -2.4467557   -2.4467557   -1.4550292  0.079273821   -2.4467557   0.99172645   584313 
  379000   0.99670633    -2.446887    -2.446887   -1.4539241  0.064594641    -2.446887   0.99296295   584304 
  380000   0.99610758   -2.4463976   -2.4463976   -1.4540158  0.066724421   -2.4463976   0.99238173   584295 
  381000   0.99612036   -2.4466885   -2.4466885   -1.4542788  0.080215612   -2.4466885   0.99240975   584286 
  382000   0.99553548   -2.4468901   -2.4468901   -1.4550478  0.072591492   -2.4468901   0.99184233   584277 
  383000   0.99463944   -2.4454428   -2.4454428    -1.454478  0.068612245   -2.4454428   0.99096488   584268 
  384000   0.99739063   -2.4473076   -2.4473076   -1.4535864  0.069350427   -2.4473076   0.99372121   584259 
  385000   0.99553444   -2.4455034   -2.4455034   -1.4536146  0.072294229   -2.4455034   0.99188882   584249 
  386000   0.99447895   -2.4445976   -2.4445976   -1.4537451  0.065320088   -2.4445976   0.99085246   584240 
  387000    0.9951219   -2.4460087   -2.4460087   -1.4545004  0.058789827   -2.4460087   0.99150834   584231 
  388000   0.99480942   -2.4451731   -2.4451731   -1.4539609  0.063679224   -2.4451731   0.99121227   584222 
  389000   0.99507592   -2.4449201   -2.4449201    -1.453427  0.066546822   -2.4449201   0.99149308   584213 
  390000   0.99591192   -2.4448467   -2.4448467   -1.4525053  0.070788708   -2.4448467   0.99234135   584204 
  391000   0.99591044   -2.4448363   -2.4448363   -1.4524812   0.07095603   -2.4448363   0.99235517   584195 
  392000   0.99611333   -2.4457428   -2.4457428   -1.4531702  0.063575592   -2.4457428   0.99257263   584186 
  393000   0.99725058    -2.445457    -2.445457   -1.4517358  0.073161782    -2.445457   0.99372115   584177 
  394000   0.99538943   -2.4431162   -2.4431162   -1.4512343  0.076211354   -2.4431162   0.99188186   584168 
  395000   0.99700196   -2.4446329   -2.4446329   -1.4511289  0.068734051   -2.4446329   0.99350401   584159 
  396000   0.99736061   -2.4447501   -2.4447501   -1.4508716  0.067932825   -2.4447501   0.99387842   584149 
  397000   0.99596674   -2.4439254   -2.4439254   -1.4514207  0.057251044   -2.4439254   0.99250471   584140 
  398000   0.99534207   -2.4437674   -2.4437674   -1.4518699  0.076897064   -2.4437674    0.9918975   584131 
  399000   0.99546545   -2.4442924   -2.4442924   -1.4522567   0.06477592   -2.4442924   0.99203573   584122 
  400000   0.99384196   -2.4431118   -2.4431118   -1.4526787  0.079193788   -2.4431118   0.99043309   584113 
  401000   0.99495261   -2.4445576   -2.4445576   -1.4530024  0.064647887   -2.4445576   0.99155522   584104 
  402000   0.99393985   -2.4440063   -2.4440063   -1.4534451  0.058244538   -2.4440063   0.99056118   584095 
  403000   0.99610632   -2.4451254   -2.4451254   -1.4523898  0.063265896   -2.4451254   0.99273557   584086 
  404000   0.99579505      -2.4451      -2.4451   -1.4526594   0.06331515      -2.4451   0.99244065   584077 
  405000   0.99584159   -2.4446137   -2.4446137   -1.4521114  0.074185329   -2.4446137   0.99250233   584068 
  406000   0.99552577    -2.444888    -2.444888   -1.4526852  0.070079028    -2.444888   0.99220286   584059 
  407000    0.9954691   -2.4438781   -2.4438781   -1.4517147   0.06763589   -2.4438781   0.99216336   584049 
  408000   0.99891189   -2.4471294   -2.4471294   -1.4515193  0.058922046   -2.4471294   0.99561006   584040 
  409000   0.99744924   -2.4466457   -2.4466457   -1.4524781  0.066116961   -2.4466457   0.99416757   584031 
  410000   0.99860702    -2.447364    -2.447364   -1.4520272   0.05660394    -2.447364   0.99533687   584022 
  411000   0.99624318    -2.444639    -2.444639   -1.4516429  0.065153902    -2.444639   0.99299608   584013 
  412000   0.99681074    -2.446372    -2.446372   -1.4527949  0.059890591    -2.446372    0.9935771   584004 
  413000   0.99670664   -2.4455852   -2.4455852   -1.4520965  0.076637543   -2.4455852   0.99348865   583995 
  414000   0.99573904   -2.4446995   -2.4446995   -1.4521601  0.060687049   -2.4446995   0.99253947   583986 
  415000   0.99648381   -2.4461009   -2.4461009   -1.4528037  0.053418552   -2.4461009   0.99329716   583977 
  416000   0.99622795    -2.446054    -2.446054   -1.4529966  0.065936881    -2.446054   0.99305742   583968 
  417000   0.99447799   -2.4448315   -2.4448315   -1.4535032  0.062884595   -2.4448315   0.99132831   583959 
  418000   0.99632535    -2.447537    -2.447537   -1.4543502  0.065619379    -2.447537   0.99318682   583949 
  419000    0.9940976   -2.4452347   -2.4452347   -1.4542533  0.066199468   -2.4452347   0.99098136   583940 
  420000   0.99476984   -2.4457546   -2.4457546   -1.4540878    0.0625616   -2.4457546   0.99166678   583931 
  421000   0.99552913   -2.4466676   -2.4466676   -1.4542286  0.064529434   -2.4466676   0.99243899   583922 
  422000   0.99410098    -2.445567    -2.445567   -1.4545365   0.06962401    -2.445567   0.99103055   583913 
  423000   0.99530134   -2.4464888   -2.4464888   -1.4542463  0.065702653   -2.4464888    0.9922425   583904 
  424000   0.99483065   -2.4456491   -2.4456491   -1.4538606   0.06233032   -2.4456491   0.99178854   583895 
  425000   0.99597127    -2.446213    -2.446213   -1.4532721  0.058317057    -2.446213   0.99294098   583886 
  426000   0.99687813   -2.4468908   -2.4468908   -1.4530304  0.070284379   -2.4468908    0.9938604   583877 
  427000   0.99550051   -2.4457703   -2.4457703    -1.453268  0.063356614   -2.4457703   0.99250225   583868 
  428000   0.99649056   -2.4465483   -2.4465483   -1.4530437  0.069951754   -2.4465483   0.99350463   583859 
  429000    0.9947458   -2.4448676   -2.4448676   -1.4530855  0.061949249   -2.4448676   0.99178209   583849 
  430000    0.9958866   -2.4461229   -2.4461229   -1.4531881    0.0681468   -2.4461229   0.99293479   583840 
  431000   0.99569862   -2.4469389   -2.4469389   -1.4541762  0.068826243   -2.4469389   0.99276268   583831 
  432000   0.99548519   -2.4464535   -2.4464535   -1.4538883  0.069101728   -2.4464535   0.99256517   583822 
  433000   0.99701781   -2.4481604   -2.4481604   -1.4540517  0.058220003   -2.4481604   0.99410863   583813 
  434000   0.99434706   -2.4462424   -2.4462424   -1.4547815  0.082803906   -2.4462424   0.99146095   583804 
  435000   0.99347243   -2.4452605   -2.4452605   -1.4546563  0.068900711   -2.4452605   0.99060413   583795 
  436000   0.99373378   -2.4458966   -2.4458966   -1.4550166  0.065434551   -2.4458966      0.99088   583786 
  437000   0.99350844   -2.4455995   -2.4455995   -1.4549289   0.07007947   -2.4455995   0.99067058   583777 
  438000   0.99566656   -2.4464345   -2.4464345   -1.4535966  0.075468854   -2.4464345   0.99283785   583768 
  439000   0.99447941   -2.4453428   -2.4453428   -1.4536734  0.068968484   -2.4453428   0.99166936   583759 
  440000   0.99334384   -2.4451617   -2.4451617   -1.4546077  0.059411072   -2.4451617   0.99055396   583749 
  441000   0.99403393   -2.4461415   -2.4461415   -1.4548841  0.064848482   -2.4461415    0.9912574   583740 
  442000   0.99508329   -2.4459987   -2.4459987   -1.4536795  0.054748832   -2.4459987   0.99231913   583731 
  443000    0.9956158   -2.4464573   -2.4464573   -1.4535919  0.068351406   -2.4464573   0.99286546   583722 
  444000    0.9955081   -2.4463361   -2.4463361   -1.4535627  0.070097866   -2.4463361   0.99277337   583713 
  445000   0.99509302   -2.4454385   -2.4454385   -1.4530638   0.05977925   -2.4454385   0.99237473   583704 
  446000   0.99617994   -2.4462061   -2.4462061   -1.4527321  0.062547532   -2.4462061     0.993474   583695 
  447000   0.99483297   -2.4447643   -2.4447643   -1.4526183  0.073914095   -2.4447643   0.99214599   583686 
  448000   0.99507986   -2.4449893   -2.4449893   -1.4525817  0.071032745   -2.4449893   0.99240751   583677 
  449000   0.99628587   -2.4454868   -2.4454868   -1.4518612  0.073031564   -2.4454868   0.99362561   583668 
  450000   0.99556609   -2.4452908   -2.4452908   -1.4523677  0.064845156   -2.4452908   0.99292306   583659 
  451000   0.99466371    -2.444702    -2.444702   -1.4526619   0.05224695    -2.444702   0.99204007   583649 
  452000   0.99477201   -2.4437714   -2.4437714   -1.4516081  0.080002783   -2.4437714   0.99216338   583640 
  453000    0.9943072   -2.4440379   -2.4440379   -1.4523228  0.062444118   -2.4440379   0.99171509   583631 
  454000   0.99591029   -2.4457116   -2.4457116   -1.4523823  0.067960902   -2.4457116   0.99332932   583622 
  455000   0.99308329   -2.4430873   -2.4430873   -1.4525624   0.07951831   -2.4430873   0.99052491   583613 
  456000   0.99354848   -2.4435147   -2.4435147   -1.4525105  0.067651164   -2.4435147   0.99100419   583604 
  457000    0.9945144   -2.4448218   -2.4448218   -1.4528388  0.063443114   -2.4448218   0.99198293   583595 
  458000   0.99387245   -2.4443536   -2.4443536   -1.4529957  0.077097579   -2.4443536    0.9913579   583586 
  459000   0.99373779   -2.4433667   -2.4433667   -1.4521279  0.058437569   -2.4433667   0.99123887   583577 
  460000   0.99227656   -2.4415829   -2.4415829   -1.4517863   0.06711825   -2.4415829   0.98979658   583568 
  461000   0.99273824   -2.4426446   -2.4426446   -1.4523723  0.075001542   -2.4426446   0.99027238   583559 
  462000   0.99203605   -2.4430527   -2.4430527   -1.4534638    0.0715947   -2.4430527   0.98958889   583549 
  463000   0.99256931   -2.4431231   -2.4431231    -1.452987  0.065972437   -2.4431231   0.99013611   583540 
  464000   0.99277656   -2.4430608   -2.4430608   -1.4527027  0.058529896   -2.4430608   0.99035812   583531 
  465000   0.99254919   -2.4438401   -2.4438401   -1.4536935  0.061616406   -2.4438401   0.99014658   583522 
  466000    0.9936185   -2.4454552   -2.4454552   -1.4542267  0.061242459   -2.4454552   0.99122859   583513 
  467000   0.99362092    -2.445623    -2.445623   -1.4543767   0.06187762    -2.445623    0.9912463   583504 
  468000   0.99296071   -2.4447878   -2.4447878   -1.4541848  0.068298795   -2.4447878   0.99060294   583495 
  469000   0.99277413   -2.4443628   -2.4443628   -1.4539307  0.057864041   -2.4443628   0.99043208   583486 
  470000   0.99294694   -2.4446565   -2.4446565   -1.4540367  0.070800711   -2.4446565   0.99061976   583477 
  471000   0.99295668     -2.44474     -2.44474   -1.4540952   0.07177197     -2.44474   0.99064476   583468 
  472000   0.99367505   -2.4458634   -2.4458634   -1.4544867  0.061393876   -2.4458634   0.99137675   583459 
  473000   0.99402121   -2.4463797   -2.4463797   -1.4546406  0.072937292   -2.4463797   0.99173911   583449 
  474000     0.993458   -2.4464689   -2.4464689   -1.4552764  0.062167146   -2.4464689   0.99119248   583440 
  475000   0.99317951   -2.4464793   -2.4464793   -1.4555493  0.057846523   -2.4464793   0.99092991   583431 
  476000    0.9945831   -2.4472152   -2.4472152   -1.4548695  0.066800417   -2.4472152   0.99234563   583422 
  477000   0.99361795     -2.44704     -2.44704   -1.4556421   0.07426874     -2.44704   0.99139794   583413 
  478000   0.99459196   -2.4485844   -2.4485844   -1.4561994  0.067936779   -2.4485844   0.99238508   583404 
  479000   0.99307028    -2.448411    -2.448411    -1.457529  0.066010034    -2.448411   0.99088207   583395 
  480000   0.99329342   -2.4485085   -2.4485085   -1.4573885  0.062734002   -2.4485085   0.99112001   583386 
  481000   0.99157234   -2.4467256   -2.4467256   -1.4573076  0.064520272   -2.4467256   0.98941796   583377 
  482000   0.99409793   -2.4485222   -2.4485222   -1.4565688   0.05497999   -2.4485222   0.99195337   583368 
  483000   0.99280018   -2.4480947   -2.4480947    -1.457421  0.056268597   -2.4480947    0.9906737   583359 
  484000    0.9939739   -2.4483471   -2.4483471   -1.4564852  0.070774455   -2.4483471    0.9918619   583349 
  485000   0.99427875   -2.4480077   -2.4480077   -1.4558263  0.076113776   -2.4480077   0.99218141   583340 
  486000   0.99411474    -2.448034    -2.448034    -1.456001  0.078515767    -2.448034   0.99203305   583331 
  487000   0.99591148   -2.4494543   -2.4494543   -1.4556129  0.077602153   -2.4494543   0.99384137   583322 
  488000   0.99534533   -2.4485633   -2.4485633   -1.4552716  0.070500787   -2.4485633   0.99329172   583313 
  489000    0.9959237   -2.4493188   -2.4493188   -1.4554346  0.069257728   -2.4493188   0.99388423   583304 
  490000   0.99428704   -2.4484449   -2.4484449   -1.4561786   0.07042469   -2.4484449   0.99226624   583295 
  491000   0.99453896   -2.4486822   -2.4486822   -1.4561493  0.061089131   -2.4486822   0.99253296   583286 
  492000   0.99383699   -2.4486487   -2.4486487    -1.456801  0.069846672   -2.4486487   0.99184771   583277 
  493000   0.99407745   -2.4480701   -2.4480701   -1.4559671  0.058899887   -2.4480701   0.99210299   583268 
  494000   0.99361618   -2.4474389   -2.4474389   -1.4557809  0.078613653   -2.4474389   0.99165794   583259 
  495000   0.99276343   -2.4471455   -2.4471455   -1.4563217  0.069327834   -2.4471455   0.99082386   583249 
  496000   0.99245118   -2.4475705   -2.4475705    -1.457043  0.070091812   -2.4475705    0.9905275   583240 
  497000   0.99238335   -2.4470629   -2.4470629   -1.4565878  0.062020977   -2.4470629   0.99047509   583231 
  498000   0.99153874   -2.4464119   -2.4464119   -1.4567646  0.064441979   -2.4464119   0.98964737   583222 
  499000   0.99014029   -2.4453997   -2.4453997   -1.4571329  0.056533841   -2.4453997   0.98826684   583213 
  500000   0.99140026   -2.4465615   -2.4465615   -1.4570218  0.055650782   -2.4465615    0.9895397   583204 
  501000   0.99052595   -2.4452517   -2.4452517   -1.4565695  0.069057007   -2.4452517   0.98868229   583195 
  502000   0.99197361   -2.4456439   -2.4456439   -1.4555013  0.068836532   -2.4456439   0.99014253   583186 
  503000   0.99264383   -2.4455657   -2.4455657   -1.4547389  0.061451451   -2.4455657    0.9908268   583177 
  504000   0.99144355   -2.4441977   -2.4441977   -1.4545537  0.073696482   -2.4441977   0.98964399   583168 
  505000   0.99180845    -2.443984    -2.443984   -1.4539605  0.060751588    -2.443984   0.99002352   583159 
  506000   0.99270585   -2.4441116   -2.4441116   -1.4531753  0.071058273   -2.4441116   0.99093628   583149 
  507000   0.99390219   -2.4449914   -2.4449914   -1.4528456  0.049995631   -2.4449914   0.99214581   583140 
  508000   0.99248093    -2.444272    -2.444272   -1.4535297  0.064499812    -2.444272   0.99074235   583131 
  509000   0.99324327   -2.4444825   -2.4444825   -1.4529639  0.062348037   -2.4444825   0.99151866   583122 
  510000   0.99252971   -2.4445336   -2.4445336    -1.453712  0.068970048   -2.4445336   0.99082163   583113 
  511000   0.99397468   -2.4454332   -2.4454332   -1.4531538  0.063022836   -2.4454332   0.99227942   583104 
  512000   0.99184837   -2.4454645   -2.4454645   -1.4552924  0.062795903   -2.4454645   0.99017202   583095 
  513000   0.99247933   -2.4451202   -2.4451202    -1.454303  0.076486819   -2.4451202   0.99081721   583086 
  514000    0.9909813   -2.4437378   -2.4437378   -1.4544008  0.065573884   -2.4437378   0.98933696   583077 
  515000   0.99130116   -2.4445892   -2.4445892   -1.4549177  0.062868992   -2.4445892   0.98967157   583068 
  516000   0.99252106   -2.4457043   -2.4457043   -1.4547995  0.058339503   -2.4457043   0.99090476   583059 
  517000   0.99164684   -2.4456118   -2.4456118   -1.4555629  0.071882127   -2.4456118   0.99004894   583049 
  518000   0.99211153   -2.4455943   -2.4455943   -1.4550662  0.080508897   -2.4455943   0.99052818   583040 
  519000   0.99272036   -2.4453487   -2.4453487   -1.4541973  0.059313249   -2.4453487   0.99115133   583031 
  520000   0.99213331   -2.4459026   -2.4459026   -1.4553221  0.063423034   -2.4459026    0.9905805   583022 
  521000   0.99268657   -2.4466338   -2.4466338   -1.4554856  0.064817185   -2.4466338    0.9911482   583013 
  522000   0.99334742   -2.4472521   -2.4472521   -1.4554288  0.065171058   -2.4472521   0.99182333   583004 
  523000   0.99303129   -2.4478591   -2.4478591   -1.4563361  0.071131078   -2.4478591     0.991523   582995 
  524000   0.99371747   -2.4473658   -2.4473658   -1.4551423  0.065954164   -2.4473658   0.99222345   582986 
  525000   0.99237766   -2.4459385   -2.4459385   -1.4550376  0.076453921   -2.4459385   0.99090095   582977 
  526000   0.99475262   -2.4485907   -2.4485907    -1.455303  0.052370767   -2.4485907   0.99328771   582968 
  527000    0.9936192   -2.4474524   -2.4474524   -1.4552812  0.069852942   -2.4474524   0.99217128   582959 
  528000   0.99296679   -2.4472899   -2.4472899   -1.4557531   0.06884494   -2.4472899   0.99153683   582949 
  529000   0.99214284   -2.4465784   -2.4465784   -1.4558491  0.067076086   -2.4465784   0.99072936   582940 
  530000   0.99049272   -2.4443695   -2.4443695   -1.4552727  0.068606228   -2.4443695   0.98909686   582931 
  531000   0.99159527   -2.4459882   -2.4459882    -1.455775  0.068969244   -2.4459882   0.99021314   582922 
  532000   0.99204313   -2.4473123   -2.4473123   -1.4566366  0.065989988   -2.4473123   0.99067568   582913 
  533000   0.99291409   -2.4482964   -2.4482964   -1.4567357  0.056752083   -2.4482964   0.99156074   582904 
  534000    0.9909535   -2.4457534   -2.4457534   -1.4561353  0.066152423   -2.4457534   0.98961811   582895 
  535000   0.99066346   -2.4468537   -2.4468537     -1.45751  0.059965672   -2.4468537   0.98934373   582886 
  536000   0.99083142   -2.4471162   -2.4471162   -1.4575894  0.065395052   -2.4471162   0.98952675   582877 
  537000   0.99062182   -2.4456825   -2.4456825   -1.4563498  0.066770002   -2.4456825    0.9893327   582868 
  538000   0.99217976   -2.4470262   -2.4470262   -1.4561223  0.065883582   -2.4470262   0.99090392   582859 
  539000   0.99271809   -2.4472535   -2.4472535   -1.4557949  0.067640716   -2.4472535   0.99145857   582849 
  540000   0.99176571   -2.4458429   -2.4458429   -1.4553202  0.074101983   -2.4458429   0.99052268   582840 
  541000   0.99189374   -2.4456422   -2.4456422   -1.4549764  0.068735904   -2.4456422   0.99066585   582831 
  542000   0.99377559   -2.4467214   -2.4467214   -1.4541607   0.07349438   -2.4467214    0.9925607   582822 
  543000   0.99304437   -2.4460387   -2.4460387    -1.454193  0.069669521   -2.4460387   0.99184569   582813 
  544000   0.99423489   -2.4480004   -2.4480004   -1.4549503  0.064158482   -2.4480004   0.99305011   582804 
  545000   0.99397566   -2.4476829   -2.4476829   -1.4548764  0.068546887   -2.4476829   0.99280651   582795 
  546000   0.99187857   -2.4465671   -2.4465671   -1.4558399  0.068686581   -2.4465671   0.99072719   582786 
  547000   0.99240941   -2.4465714   -2.4465714   -1.4552986  0.060682392   -2.4465714   0.99127272   582777 
  548000    0.9899872   -2.4443079   -2.4443079   -1.4554393  0.067158176   -2.4443079   0.98886856   582768 
  549000   0.99182325   -2.4461722   -2.4461722   -1.4554544  0.051745528   -2.4461722   0.99071784   582759 
  550000   0.98950967   -2.4440719   -2.4440719   -1.4556481  0.062291684   -2.4440719    0.9884238   582749 
  551000   0.99143302    -2.445747    -2.445747   -1.4553866  0.061036533    -2.445747   0.99036033   582740 
  552000   0.98977878   -2.4436291   -2.4436291   -1.4549059  0.073422235   -2.4436291   0.98872316   582731 
  553000   0.99138756   -2.4450447   -2.4450447   -1.4546992  0.058017803   -2.4450447   0.99034551   582722 
  554000   0.99120288   -2.4450464   -2.4450464   -1.4548701   0.05962383   -2.4450464   0.99017632   582713 
  555000   0.99240038   -2.4454474   -2.4454474   -1.4540596  0.074460768   -2.4454474   0.99138789   582704 
  556000   0.99085829   -2.4444296   -2.4444296   -1.4545669  0.058902378   -2.4444296   0.98986266   582695 
  557000   0.99003548   -2.4441468   -2.4441468   -1.4550909  0.068030497   -2.4441468   0.98905596   582686 
  558000   0.99154983   -2.4453868   -2.4453868   -1.4548026  0.067015344   -2.4453868   0.99058411   582677 
  559000   0.99174059   -2.4449575   -2.4449575   -1.4541676  0.063145167   -2.4449575   0.99078998   582668 
  560000   0.99054145   -2.4439136   -2.4439136   -1.4543063  0.060801699   -2.4439136   0.98960728   582659 
  561000   0.99138929   -2.4443936   -2.4443936   -1.4539223  0.071508061   -2.4443936   0.99047132   582649 
  562000   0.99219819   -2.4447299   -2.4447299   -1.4534351  0.056514436   -2.4447299   0.99129478   582640 
  563000   0.99140736   -2.4441249   -2.4441249   -1.4536049  0.073463922   -2.4441249   0.99051998   582631 
  564000   0.99221896   -2.4440025   -2.4440025   -1.4526563  0.056656883   -2.4440025   0.99134616   582622 
  565000   0.99115308   -2.4434892   -2.4434892   -1.4531927  0.063245838   -2.4434892   0.99029652   582613 
  566000   0.99098931   -2.4438875   -2.4438875   -1.4537393  0.055808121   -2.4438875   0.99014818   582604 
  567000   0.99129331   -2.4427764   -2.4427764   -1.4523091  0.064022322   -2.4427764   0.99046722   582595 
  568000   0.98957973   -2.4413214   -2.4413214    -1.452551   0.06724012   -2.4413214   0.98877035   582586 
  569000   0.99183544   -2.4449741   -2.4449741   -1.4539346  0.068926028   -2.4449741   0.99103953   582577 
  570000   0.99131822   -2.4448261   -2.4448261   -1.4542881  0.066087016   -2.4448261   0.99053802   582568 
  571000   0.98761978   -2.4414336   -2.4414336   -1.4545758  0.066360405   -2.4414336   0.98685774   582559 
  572000   0.99063823   -2.4438126   -2.4438126   -1.4539217  0.072503369   -2.4438126   0.98989085   582549 
  573000   0.99150231   -2.4444723   -2.4444723   -1.4537027  0.053495266   -2.4444723   0.99076959   582540 
  574000    0.9905347   -2.4448171   -2.4448171   -1.4549992  0.052065679   -2.4448171   0.98981798   582531 
  575000   0.98910281   -2.4437557   -2.4437557   -1.4553533  0.056303479   -2.4437557    0.9884024   582522 
  576000   0.98999005   -2.4441407   -2.4441407   -1.4548364   0.06602309   -2.4441407   0.98930429   582513 
  577000   0.99016243   -2.4437748   -2.4437748    -1.454283  0.060315432   -2.4437748   0.98949184   582504 
  578000   0.99052174   -2.4438115   -2.4438115   -1.4539453  0.072699461   -2.4438115    0.9898662   582495 
  579000   0.98912083   -2.4425356   -2.4425356   -1.4540541  0.060118839   -2.4425356   0.98848149   582486 
  580000   0.98875971    -2.442808    -2.442808   -1.4546721   0.06798633    -2.442808   0.98813588   582477 
  581000   0.98874454   -2.4436584   -2.4436584   -1.4555224  0.065097943   -2.4436584   0.98813598   582468 
  582000   0.98817904   -2.4427516   -2.4427516   -1.4551655   0.06713264   -2.4427516   0.98758609   582459 
  583000    0.9891698   -2.4440906   -2.4440906   -1.4554974  0.071870055   -2.4440906   0.98859323   582449 
  584000   0.99014965   -2.4451907   -2.4451907   -1.4556029   0.05907317   -2.4451907    0.9895878   582440 
  585000   0.99067768   -2.4453543   -2.4453543   -1.4552235  0.067063831   -2.4453543   0.99013083   582431 
  586000   0.99003767   -2.4450492   -2.4450492   -1.4555427  0.077427659   -2.4450492   0.98950647   582422 
  587000   0.99047532   -2.4462233   -2.4462233   -1.4562642   0.06321123   -2.4462233   0.98995917   582413 
  588000   0.99052446   -2.4455661   -2.4455661   -1.4555425  0.063957073   -2.4455661   0.99002359   582404 
  589000   0.99139851   -2.4465358   -2.4465358   -1.4556233  0.057049665   -2.4465358   0.99091251   582395 
  590000   0.98981959   -2.4455602   -2.4455602   -1.4562105  0.070301614   -2.4455602   0.98934966   582386 
  591000    0.9922247   -2.4477308   -2.4477308   -1.4559618  0.065058701   -2.4477308   0.99176895   582377 
  592000   0.99008109   -2.4455914   -2.4455914   -1.4559498  0.073540838   -2.4455914   0.98964161   582368 
  593000   0.99097636   -2.4469593   -2.4469593   -1.4564075   0.07182327   -2.4469593    0.9905518   582359 
  594000   0.99038306   -2.4459444   -2.4459444   -1.4559686  0.064137359   -2.4459444   0.98997575   582349 
  595000   0.99139439    -2.446379    -2.446379    -1.455377  0.060944353    -2.446379   0.99100198   582340 
  596000   0.98976101   -2.4451321   -2.4451321   -1.4557475   0.05995705   -2.4451321   0.98938454   582331 
  597000   0.99010835   -2.4455687   -2.4455687   -1.4558217  0.073973259   -2.4455687   0.98974704   582322 
  598000   0.99119646   -2.4465752   -2.4465752   -1.4557251   0.06823404   -2.4465752   0.99085007   582313 
  599000   0.99086121   -2.4469215   -2.4469215   -1.4563913  0.063986869   -2.4469215   0.99053025   582304 
  600000   0.99035963     -2.44714     -2.44714   -1.4570959  0.066639604     -2.44714   0.99004414   582295 
  601000   0.98839717   -2.4455232   -2.4455232   -1.4574256  0.058144302   -2.4455232   0.98809757   582286 
  602000    0.9905981   -2.4467438   -2.4467438   -1.4564307  0.062754913   -2.4467438   0.99031314   582277 
  603000   0.98917265   -2.4455449   -2.4455449   -1.4566415  0.069209413   -2.4455449   0.98890338   582268 
  604000   0.98741136     -2.44425     -2.44425   -1.4570922  0.055486827     -2.44425   0.98715784   582259 
  605000   0.98785894   -2.4436071   -2.4436071   -1.4559848  0.065074083   -2.4436071   0.98762226   582249 
  606000   0.99005634   -2.4457118   -2.4457118   -1.4558774  0.068339493   -2.4457118   0.98983443   582240 
  607000   0.98955399    -2.445877    -2.445877   -1.4565296  0.054732444    -2.445877   0.98934749   582231 
  608000   0.98823852   -2.4443372   -2.4443372   -1.4562897  0.064551192   -2.4443372   0.98804756   582222 
  609000   0.98958367    -2.446084    -2.446084   -1.4566762  0.067907001    -2.446084   0.98940776   582213 
  610000    0.9906295   -2.4461339   -2.4461339   -1.4556652  0.059626043   -2.4461339    0.9904687   582204 
  611000   0.99039694    -2.446366    -2.446366   -1.4561145  0.071567213    -2.446366   0.99025149   582195 
  612000   0.98927897    -2.444911    -2.444911    -1.455762  0.064009997    -2.444911   0.98914898   582186 
  613000   0.99019251   -2.4462197   -2.4462197    -1.456142   0.05990992   -2.4462197    0.9900777   582177 
  614000   0.98836779   -2.4444125   -2.4444125   -1.4561441  0.069519298   -2.4444125   0.98826847   582168 
  615000   0.99019598   -2.4455998   -2.4455998    -1.455488  0.058146406   -2.4455998   0.99011179   582159 
  616000   0.99015678   -2.4447287   -2.4447287   -1.4546392   0.07289085   -2.4447287   0.99008959   582149 
  617000   0.98959621   -2.4446314   -2.4446314   -1.4550871  0.053692789   -2.4446314   0.98954436   582140 
  618000   0.99082077   -2.4463248   -2.4463248   -1.4555407  0.062967819   -2.4463248   0.99078418   582131 
  619000   0.99126577    -2.446077    -2.446077   -1.4548325  0.059199318    -2.446077   0.99124448   582122 
  620000   0.99181047      -2.4458      -2.4458   -1.4539955  0.069056932      -2.4458   0.99180451   582113 
  621000   0.99109422   -2.4456719   -2.4456719   -1.4545683  0.063428477   -2.4456719   0.99110359   582104 
  622000   0.98983601   -2.4448269   -2.4448269   -1.4549662  0.070917885   -2.4448269   0.98986066   582095 
  623000   0.99234004    -2.446991    -2.446991   -1.4546109  0.066250574    -2.446991    0.9923801   582086 
  624000   0.98942364   -2.4451172   -2.4451172   -1.4556383  0.061555042   -2.4451172   0.98947888   582077 
  625000   0.99096362   -2.4460359   -2.4460359   -1.4550016  0.067267894   -2.4460359   0.99103427   582068 
  626000    0.9891267   -2.4460234   -2.4460234   -1.4568109  0.050407318   -2.4460234   0.98921252   582059 
  627000   0.98831523   -2.4445695   -2.4445695   -1.4561516  0.070071765   -2.4445695   0.98841795   582049 
  628000   0.98796672   -2.4449283   -2.4449283   -1.4568436   0.05969156   -2.4449283   0.98808469   582040 
  629000   0.98835063   -2.4449511   -2.4449511   -1.4564672   0.06193203   -2.4449511   0.98848393   582031 
  630000   0.98954169   -2.4457041   -2.4457041   -1.4560137  0.059010198   -2.4457041   0.98969046   582022 
  631000   0.98947646   -2.4447446   -2.4447446   -1.4551041  0.057245132   -2.4447446   0.98964052   582013 
  632000   0.99025367   -2.4461593   -2.4461593   -1.4557261    0.0664648   -2.4461593   0.99043317   582004 
  633000   0.98961465   -2.4446137   -2.4446137   -1.4548044   0.06261417   -2.4446137   0.98980934   581995 
  634000   0.98935385   -2.4443521   -2.4443521   -1.4547883   0.08020283   -2.4443521    0.9895638   581986 
  635000   0.99008665   -2.4448444   -2.4448444   -1.4545323  0.067078257   -2.4448444   0.99031206   581977 
  636000   0.99022124   -2.4453416   -2.4453416   -1.4548796  0.060132527   -2.4453416     0.990462   581968 
  637000    0.9892542   -2.4447721   -2.4447721   -1.4552621  0.075625863   -2.4447721   0.98951003   581959 
  638000   0.98882052   -2.4446315   -2.4446315   -1.4555383  0.059746924   -2.4446315   0.98909323   581949 
  639000   0.98966428   -2.4461481   -2.4461481   -1.4561956  0.071320749   -2.4461481   0.98995254   581940 
  640000   0.98726051   -2.4438719   -2.4438719   -1.4563086  0.061552626   -2.4438719   0.98756333   581931 
  641000   0.98800315   -2.4445706   -2.4445706   -1.4562491  0.064965419   -2.4445706   0.98832149   581922 
  642000   0.98802102   -2.4452066   -2.4452066    -1.456852  0.064061628   -2.4452066   0.98835465   581913 
  643000   0.98688714   -2.4446658   -2.4446658   -1.4574302  0.067671819   -2.4446658   0.98723566   581904 
  644000   0.98797238   -2.4461584   -2.4461584   -1.4578218  0.062728755   -2.4461584   0.98833657   581895 
  645000   0.98945135   -2.4473217   -2.4473217   -1.4574903    0.0671615   -2.4473217   0.98983139   581886 
  646000   0.98917657   -2.4459938   -2.4459938    -1.456422   0.06692158   -2.4459938   0.98957182   581877 
  647000   0.98988844   -2.4467827   -2.4467827   -1.4564834  0.067310592   -2.4467827   0.99029929   581868 
  648000   0.98808084   -2.4456204   -2.4456204   -1.4571142  0.076552747   -2.4456204   0.98850622   581859 
  649000   0.98912753   -2.4469652   -2.4469652   -1.4573948  0.059356174   -2.4469652   0.98957037   581849 
  650000   0.98905469   -2.4466915   -2.4466915   -1.4571787  0.078023528   -2.4466915   0.98951281   581840 
  651000   0.98918436   -2.4467744   -2.4467744   -1.4571165  0.055952128   -2.4467744   0.98965785   581831 
  652000   0.98724908   -2.4457624   -2.4457624   -1.4580255  0.064492828   -2.4457624   0.98773692   581822 
  653000   0.98751571   -2.4459582   -2.4459582   -1.4579392  0.066657357   -2.4459582   0.98801896   581813 
  654000   0.98826505    -2.447101    -2.447101    -1.458317  0.069751478    -2.447101   0.98878398   581804 
  655000   0.98950791   -2.4477296   -2.4477296   -1.4576868  0.048492959   -2.4477296    0.9900428   581795 
  656000   0.98910049   -2.4472983   -2.4472983   -1.4576479  0.064957176   -2.4472983   0.98965048   581786 
  657000   0.98819848    -2.446242    -2.446242   -1.4574788   0.06119512    -2.446242   0.98876326   581777 
  658000   0.98593961   -2.4442776   -2.4442776   -1.4577592  0.057207037   -2.4442776   0.98651836   581768 
  659000   0.98761731   -2.4456208   -2.4456208   -1.4574085  0.065973055   -2.4456208   0.98821233   581759 
  660000   0.98808933   -2.4463586   -2.4463586   -1.4576569   0.05621601   -2.4463586   0.98870163   581749 
  661000   0.98929289   -2.4465354   -2.4465354   -1.4566141  0.063380078   -2.4465354   0.98992125   581740 
  662000   0.98945087   -2.4471878   -2.4471878   -1.4570931  0.060571392   -2.4471878   0.99009465   581731 
[...]
19832000   0.52998923   -1.9397978   -1.9397978   -1.1826375  0.047155563   -1.9397978   0.75716027   407459 
19833000   0.52875521   -1.9391223   -1.9391223   -1.1837065  0.034657401   -1.9391223   0.75541585   407449 
19834000   0.52790263   -1.9381773   -1.9381773   -1.1839628  0.044500233   -1.9381773   0.75421445   407440 
19835000   0.52906717   -1.9387773   -1.9387773   -1.1828824  0.047663792   -1.9387773   0.75589492   407431 
19836000   0.52909792   -1.9389433   -1.9389433   -1.1829877  0.043522991   -1.9389433   0.75595555   407422 
19837000   0.52823695   -1.9375624   -1.9375624   -1.1828203  0.047135133   -1.9375624    0.7547421   407413 
19838000   0.52885526   -1.9384746   -1.9384746   -1.1828323  0.037809834   -1.9384746   0.75564224   407404 
19839000   0.52921282   -1.9379475   -1.9379475   -1.1817777  0.047796146   -1.9379475   0.75616984   407395 
19840000   0.52991406   -1.9390569   -1.9390569   -1.1818684  0.040987531   -1.9390569   0.75718853   407386 
19841000   0.52902981   -1.9389585   -1.9389585   -1.1830168  0.041358385   -1.9389585   0.75594174   407377 
19842000   0.52963655   -1.9394196   -1.9394196   -1.1825941  0.050325701   -1.9394196   0.75682545   407368 
19843000   0.52843467   -1.9383805   -1.9383805   -1.1832558   0.05057036   -1.9383805   0.75512469   407359 
19844000   0.52832085   -1.9387571   -1.9387571   -1.1837765  0.041913647   -1.9387571   0.75498059   407349 
19845000   0.52752025   -1.9384656   -1.9384656   -1.1846124  0.029730347   -1.9384656   0.75385317   407340 
19846000   0.52742598    -1.938097    -1.938097   -1.1843619  0.035045738    -1.938097    0.7537351   407331 
19847000   0.52808404   -1.9393259   -1.9393259   -1.1846337  0.054909805   -1.9393259    0.7546922   407322 
19848000    0.5279228   -1.9378835   -1.9378835   -1.1834051  0.038769724   -1.9378835   0.75447844   407313 
19849000   0.52754307   -1.9370269   -1.9370269   -1.1830745  0.046302666   -1.9370269   0.75395241   407304 
19850000   0.52618999   -1.9356789   -1.9356789   -1.1836436   0.04109918   -1.9356789   0.75203524   407295 
19851000   0.52753552   -1.9367254   -1.9367254   -1.1827505  0.044334886   -1.9367254   0.75397495   407286 
19852000   0.52962177   -1.9391812   -1.9391812   -1.1822078  0.046886769   -1.9391812   0.75697342   407277 
19853000   0.52764792   -1.9367426   -1.9367426   -1.1825736  0.045298526   -1.9367426   0.75416892   407268 
19854000   0.52810512   -1.9381124   -1.9381124   -1.1832733  0.046749833   -1.9381124   0.75483908   407259 
19855000   0.52843071   -1.9385998   -1.9385998   -1.1832768  0.044784983   -1.9385998   0.75532301   407249 
19856000   0.52664222   -1.9369345   -1.9369345   -1.1841513   0.03987109   -1.9369345   0.75278323   407240 
19857000   0.52797005    -1.938466    -1.938466   -1.1837681  0.055763737    -1.938466    0.7546979   407231 
19858000   0.52809025   -1.9379879   -1.9379879   -1.1831015  0.042850016   -1.9379879    0.7548864   407222 
19859000   0.52697806   -1.9366883   -1.9366883    -1.183375  0.038002591   -1.9366883   0.75331321   407213 
19860000   0.52731522   -1.9383608   -1.9383608   -1.1845489  0.030646169   -1.9383608   0.75381184   407204 
19861000   0.52794087   -1.9387138   -1.9387138   -1.1839909  0.049347372   -1.9387138   0.75472291   407195 
19862000     0.528032    -1.939938    -1.939938   -1.1850682  0.045614612    -1.939938   0.75486988   407186 
19863000    0.5289007   -1.9406658   -1.9406658   -1.1845374  0.046920364   -1.9406658   0.75612848   407177 
19864000   0.52863199   -1.9408498   -1.9408498   -1.1850888  0.040634419   -1.9408498   0.75576103   407168 
19865000   0.52814613   -1.9403519   -1.9403519   -1.1852688  0.040644229   -1.9403519    0.7550831   407159 
19866000   0.52876816   -1.9408611   -1.9408611   -1.1848701  0.042399308   -1.9408611   0.75599097   407149 
19867000   0.52942291   -1.9406323   -1.9406323   -1.1836885  0.042458271   -1.9406323   0.75694382   407140 
19868000   0.52992307    -1.941133    -1.941133   -1.1834573  0.040114964    -1.941133   0.75767568   407131 
19869000   0.52825462   -1.9398086   -1.9398086   -1.1845018  0.042786327   -1.9398086   0.75530684   407122 
19870000   0.52736006   -1.9393256   -1.9393256   -1.1852811  0.054158922   -1.9393256   0.75404446   407113 
19871000   0.52846143   -1.9393118   -1.9393118   -1.1836759  0.049002101   -1.9393118   0.75563595   407104 
19872000   0.52734388   -1.9380718   -1.9380718   -1.1840172  0.039019778   -1.9380718   0.75405467   407095 
19873000   0.52711645   -1.9371193   -1.9371193   -1.1833732  0.063532161   -1.9371193   0.75374612   407086 
19874000   0.52870673   -1.9381652   -1.9381652   -1.1821283  0.045059813   -1.9381652   0.75603684   407077 
19875000   0.52831399   -1.9377374   -1.9377374   -1.1822455  0.041986028   -1.9377374   0.75549193   407068 
19876000   0.52724235   -1.9364523   -1.9364523   -1.1824761  0.043562715   -1.9364523   0.75397616   407059 
19877000   0.52710441   -1.9350849   -1.9350849   -1.1812875  0.044439685   -1.9350849   0.75379741   407049 
19878000   0.52772004   -1.9354076   -1.9354076    -1.180713  0.035355422   -1.9354076   0.75469451   407040 
19879000   0.52827562    -1.936584    -1.936584   -1.1810782  0.053997801    -1.936584   0.75550574   407031 
19880000    0.5273863   -1.9354218   -1.9354218   -1.1811712  0.053319274   -1.9354218   0.75425057   407022 
19881000   0.52784979   -1.9347581   -1.9347581    -1.179828  0.042904231   -1.9347581   0.75493012   407013 
19882000   0.52684466   -1.9341984   -1.9341984   -1.1806891  0.042846819   -1.9341984   0.75350926   407004 
19883000   0.52743234   -1.9339235   -1.9339235   -1.1795571  0.042713938   -1.9339235   0.75436646   406995 
19884000   0.52845241   -1.9342092   -1.9342092   -1.1783671  0.043601502   -1.9342092   0.75584214   406986 
19885000   0.52708756   -1.9319609   -1.9319609   -1.1780542  0.042342908   -1.9319609   0.75390667   406977 
19886000   0.52708281   -1.9330223   -1.9330223   -1.1791057  0.049799273   -1.9330223   0.75391655   406968 
19887000   0.52677161   -1.9329153   -1.9329153   -1.1794272  0.051934556   -1.9329153   0.75348808   406959 
19888000    0.5281704   -1.9348843   -1.9348843   -1.1793769  0.035028258   -1.9348843   0.75550746   406949 
19889000   0.52811128   -1.9355381   -1.9355381   -1.1800985  0.043672037   -1.9355381    0.7554396   406940 
19890000   0.52757776   -1.9351059   -1.9351059   -1.1804128  0.042884315   -1.9351059   0.75469312   406931 
19891000   0.52887409   -1.9353592   -1.9353592    -1.178795   0.04668976   -1.9353592   0.75656424   406922 
19892000   0.52819099   -1.9345892   -1.9345892   -1.1789854  0.038275026   -1.9345892   0.75560376   406913 
19893000   0.52846419    -1.936483    -1.936483   -1.1804717  0.047861878    -1.936483   0.75601131   406904 
19894000   0.52855811   -1.9358346   -1.9358346   -1.1796722  0.050189717   -1.9358346    0.7561624   406895 
19895000   0.52821262   -1.9362761   -1.9362761   -1.1805912  0.054136923   -1.9362761   0.75568484   406886 
19896000   0.52790541    -1.935721    -1.935721    -1.180459  0.053463417    -1.935721   0.75526204   406877 
19897000   0.52718339   -1.9355089   -1.9355089   -1.1812632  0.055023278   -1.9355089   0.75424575   406868 
19898000   0.52810503   -1.9374701   -1.9374701   -1.1818891  0.062046475   -1.9374701   0.75558107   406859 
19899000   0.52872903   -1.9387019   -1.9387019   -1.1822095  0.034899941   -1.9387019   0.75649243   406849 
19900000   0.52729991   -1.9370656   -1.9370656   -1.1826012  0.047393655   -1.9370656   0.75446438   406840 
19901000   0.52686139   -1.9382436   -1.9382436   -1.1843899  0.043444845   -1.9382436   0.75385361   406831 
19902000   0.52736318   -1.9381856   -1.9381856   -1.1835973  0.040665248   -1.9381856   0.75458829   406822 
19903000   0.52628069   -1.9369441   -1.9369441   -1.1838881  0.044498526   -1.9369441   0.75305604   406813 
19904000   0.52729001   -1.9378983   -1.9378983   -1.1833813  0.042632727   -1.9378983   0.75451698   406804 
19905000   0.52771514   -1.9371526   -1.9371526   -1.1820106  0.052129322   -1.9371526   0.75514201   406795 
19906000   0.52730187   -1.9375187   -1.9375187   -1.1829513  0.048005503   -1.9375187   0.75456733   406786 
19907000   0.52718548    -1.938319    -1.938319   -1.1839015  0.042125432    -1.938319   0.75441747   406777 
19908000   0.52692771   -1.9370722   -1.9370722   -1.1830069  0.043697153   -1.9370722   0.75406527   406768 
19909000   0.52751367   -1.9383462   -1.9383462   -1.1834257  0.038465872   -1.9383462   0.75492053   406759 
19910000   0.52658806   -1.9360618   -1.9360618   -1.1824473  0.042960003   -1.9360618   0.75361442   406749 
19911000    0.5272628   -1.9361279   -1.9361279   -1.1815312  0.043625225   -1.9361279   0.75459676   406740 
19912000   0.52701253   -1.9348236   -1.9348236   -1.1805684  0.040742937   -1.9348236   0.75425527   406731 
19913000   0.52848515   -1.9356936   -1.9356936    -1.179314  0.041335937   -1.9356936    0.7563796   406722 
19914000   0.52703783   -1.9340703   -1.9340703   -1.1797454  0.043130277   -1.9340703   0.75432487   406713 
19915000    0.5269622   -1.9352493   -1.9352493    -1.181016  0.045179798   -1.9352493    0.7542333   406704 
19916000   0.52523404   -1.9332748   -1.9332748   -1.1814983  0.041512619   -1.9332748   0.75177645   406695 
19917000   0.52593401    -1.932653    -1.932653    -1.179858  0.047888497    -1.932653   0.75279498   406686 
19918000   0.52788579   -1.9354805   -1.9354805   -1.1798752  0.037954261   -1.9354805   0.75560539   406677 
19919000    0.5265359   -1.9352733   -1.9352733   -1.1815835   0.05195381   -1.9352733   0.75368986   406668 
19920000   0.52749727   -1.9361793   -1.9361793   -1.1810966  0.031289369   -1.9361793   0.75508269   406659 
19921000   0.52594585   -1.9329621   -1.9329621   -1.1800817  0.048687172   -1.9329621   0.75288044   406649 
19922000   0.52779384   -1.9354354   -1.9354354   -1.1798929  0.049031125   -1.9354354   0.75554251   406640 
19923000   0.52710173   -1.9359057   -1.9359057   -1.1813372  0.043219721   -1.9359057   0.75456846   406631 
19924000   0.52772853   -1.9368222   -1.9368222   -1.1813397  0.045448695   -1.9368222   0.75548246   406622 
19925000   0.52791611   -1.9354102   -1.9354102   -1.1796425  0.036482815   -1.9354102   0.75576773   406613 
19926000   0.52810241   -1.9365871   -1.9365871   -1.1805359  0.042799855   -1.9365871   0.75605117   406604 
19927000   0.52779476   -1.9361248   -1.9361248   -1.1804973  0.038019244   -1.9361248   0.75562745   406595 
19928000   0.52693727   -1.9346317   -1.9346317   -1.1802152  0.044150797   -1.9346317   0.75441651   406586 
19929000     0.528749   -1.9381578   -1.9381578   -1.1811307  0.042837046   -1.9381578   0.75702712   406577 
19930000   0.52686843   -1.9348401   -1.9348401   -1.1804888  0.040206615   -1.9348401   0.75435135   406568 
19931000   0.52748633   -1.9356441   -1.9356441   -1.1803913  0.035427722   -1.9356441   0.75525275   406559 
19932000   0.52572697   -1.9332606   -1.9332606   -1.1805084  0.041716099   -1.9332606   0.75275223   406549 
19933000   0.52633229   -1.9342658   -1.9342658   -1.1806302  0.047298941   -1.9342658   0.75363563   406540 
19934000   0.52693315   -1.9336241   -1.9336241   -1.1791115  0.042857108   -1.9336241   0.75451267   406531 
19935000   0.52805974   -1.9356057   -1.9356057   -1.1794632  0.042663395   -1.9356057   0.75614257   406522 
19936000   0.52708809   -1.9333887   -1.9333887   -1.1786207  0.048111143   -1.9333887   0.75476795   406513 
19937000   0.52795862   -1.9338674   -1.9338674   -1.1778362  0.039784651   -1.9338674   0.75603126   406504 
19938000   0.52786855   -1.9333722   -1.9333722   -1.1774532   0.04512127   -1.9333722   0.75591901   406495 
19939000   0.52729035   -1.9334672   -1.9334672   -1.1783595  0.041614086   -1.9334672   0.75510773   406486 
19940000   0.52780951   -1.9340757   -1.9340757   -1.1782078  0.044891378   -1.9340757   0.75586793   406477 
19941000   0.52581772   -1.9326252   -1.9326252    -1.179593  0.045395883   -1.9326252   0.75303219   406468 
19942000   0.52588809   -1.9331645   -1.9331645   -1.1800148  0.045695758   -1.9331645   0.75314965   406459 
19943000   0.52659244   -1.9342084   -1.9342084   -1.1800315  0.045932811   -1.9342084   0.75417694   406449 
19944000   0.52667163   -1.9337325   -1.9337325   -1.1794254  0.039150681   -1.9337325   0.75430705   406440 
19945000   0.52676202   -1.9317804   -1.9317804   -1.1773272  0.043881182   -1.9317804   0.75445322   406431 
19946000   0.52717428   -1.9330221   -1.9330221   -1.1779617  0.037774608   -1.9330221   0.75506039   406422 
19947000   0.52569368    -1.931732    -1.931732   -1.1787756  0.053954836    -1.931732   0.75295644   406413 
19948000   0.52621346   -1.9336223   -1.9336223   -1.1799047  0.043195399   -1.9336223   0.75371762   406404 
19949000   0.52602784   -1.9327118   -1.9327118   -1.1792434  0.041732243   -1.9327118   0.75346843   406395 
19950000   0.52746672   -1.9332995   -1.9332995   -1.1777533  0.039720776   -1.9332995   0.75554618   406386 
19951000   0.52740981   -1.9328697   -1.9328697   -1.1773883  0.032702768   -1.9328697    0.7554814   406377 
19952000   0.52675189   -1.9321279   -1.9321279   -1.1775722  0.040892542   -1.9321279   0.75455567   406368 
19953000   0.52613952   -1.9312355   -1.9312355   -1.1775403  0.047506859   -1.9312355   0.75369517   406359 
19954000   0.52629391   -1.9314942   -1.9314942   -1.1775593  0.056628483   -1.9314942   0.75393488   406349 
19955000   0.52663586   -1.9332524   -1.9332524    -1.178811  0.049003189   -1.9332524   0.75444145   406340 
19956000   0.52535104    -1.931275    -1.931275   -1.1786574  0.048748851    -1.931275   0.75261753   406331 
19957000   0.52577232   -1.9321189   -1.9321189   -1.1788811  0.037879337   -1.9321189   0.75323773   406322 
19958000   0.52689862   -1.9329927   -1.9329927   -1.1781247  0.043909137   -1.9329927   0.75486803   406313 
19959000   0.52639305   -1.9329969   -1.9329969   -1.1788365  0.041496314   -1.9329969   0.75416042   406304 
19960000   0.52596052   -1.9325383   -1.9325383   -1.1789809  0.057124014   -1.9325383   0.75355742   406295 
19961000   0.52671053   -1.9333434   -1.9333434   -1.1786947  0.046562391   -1.9333434    0.7546487   406286 
19962000   0.52625336   -1.9325795   -1.9325795   -1.1785691  0.047693605   -1.9325795   0.75401039   406277 
19963000   0.52657176   -1.9337112   -1.9337112   -1.1792279  0.052749441   -1.9337112   0.75448331   406268 
19964000   0.52685533   -1.9351489   -1.9351489   -1.1802425  0.052851374   -1.9351489   0.75490633   406259 
19965000   0.52591065   -1.9331452   -1.9331452   -1.1795739  0.044097657   -1.9331452   0.75357129   406249 
19966000   0.52714525    -1.934139    -1.934139   -1.1787819  0.036729971    -1.934139   0.75535708   406240 
19967000   0.52575647   -1.9313981   -1.9313981   -1.1780143  0.058787467   -1.9313981   0.75338376   406231 
19968000   0.52608373   -1.9329065   -1.9329065   -1.1790371  0.053048009   -1.9329065    0.7538694   406222 
19969000    0.5276182     -1.93472     -1.93472    -1.178635  0.049861423     -1.93472   0.75608502   406213 
19970000   0.52686815   -1.9322195   -1.9322195   -1.1771926  0.047276849   -1.9322195   0.75502692   406204 
19971000   0.52700721   -1.9327956   -1.9327956   -1.1775527  0.032940713   -1.9327956   0.75524293   406195 
19972000   0.52619105    -1.931275    -1.931275    -1.177185  0.038103832    -1.931275   0.75409002   406186 
19973000    0.5263839   -1.9321019   -1.9321019   -1.1777188  0.046732258   -1.9321019   0.75438311   406177 
19974000   0.52627362   -1.9319202   -1.9319202   -1.1776784  0.043934024   -1.9319202   0.75424178   406168 
19975000   0.52583728   -1.9310475   -1.9310475   -1.1774144  0.044135458   -1.9310475   0.75363313   406159 
19976000    0.5268303   -1.9326405   -1.9326405   -1.1775655   0.03604754   -1.9326405   0.75507491   406149 
19977000   0.52563919   -1.9314489   -1.9314489   -1.1780645  0.040752124   -1.9314489   0.75338446   406140 
19978000   0.52517508   -1.9315783   -1.9315783   -1.1788424  0.029281215   -1.9315783   0.75273595   406131 
19979000   0.52336697   -1.9297178   -1.9297178   -1.1795568   0.04724789   -1.9297178     0.750161   406122 
19980000   0.52477714   -1.9322589   -1.9322589     -1.18006  0.047077286   -1.9322589   0.75219891   406113 
19981000   0.52654688   -1.9329092   -1.9329092   -1.1781568  0.037067607   -1.9329092   0.75475233   406104 
19982000   0.52746049   -1.9344311   -1.9344311   -1.1783524  0.048027687   -1.9344311   0.75607865   406095 
19983000   0.52701536   -1.9325853   -1.9325853    -1.177128   0.04198248   -1.9325853   0.75545734   406086 
19984000   0.52771587   -1.9317928   -1.9317928   -1.1753145  0.042514805   -1.9317928   0.75647826   406077 
19985000   0.52704837   -1.9338972   -1.9338972   -1.1783591  0.056453127   -1.9338972   0.75553814   406068 
19986000   0.52640335   -1.9328708   -1.9328708   -1.1782406  0.048149951   -1.9328708   0.75463021   406059 
19987000     0.525324   -1.9323603   -1.9323603   -1.1792589  0.036973564   -1.9323603   0.75310145   406049 
19988000   0.52676823   -1.9347361   -1.9347361   -1.1795475  0.030380853   -1.9347361   0.75518863   406040 
19989000   0.52617939    -1.933186    -1.933186   -1.1788248  0.042159339    -1.933186   0.75436118   406031 
19990000   0.52626172   -1.9332289   -1.9332289    -1.178733  0.057554286   -1.9332289   0.75449593   406022 
19991000   0.52698462   -1.9351106   -1.9351106   -1.1795616  0.041696085   -1.9351106    0.7555491   406013 
19992000   0.52552952   -1.9339227   -1.9339227   -1.1804431  0.043243682   -1.9339227   0.75347959   406004 
19993000   0.52635101   -1.9354341   -1.9354341     -1.18076  0.045209088   -1.9354341   0.75467413   405995 
19994000   0.52373111     -1.93212     -1.93212   -1.1811856  0.038910821     -1.93212    0.7509344   405986 
19995000   0.52533678   -1.9339053   -1.9339053    -1.180652  0.041488937   -1.9339053   0.75325334   405977 
19996000   0.52486195   -1.9338942   -1.9338942    -1.181305   0.04289944   -1.9338942   0.75258919   405968 
19997000   0.52512471    -1.933643    -1.933643   -1.1806604  0.037470593    -1.933643   0.75298265   405959 
19998000    0.5261809   -1.9348875   -1.9348875   -1.1803718  0.047909998   -1.9348875   0.75451571   405949 
19999000   0.52569584   -1.9335937   -1.9335937   -1.1797568  0.036422737   -1.9335937   0.75383688   405940 
20000000    0.5228909   -1.9301317   -1.9301317   -1.1803004  0.047270631   -1.9301317   0.74983127   405931 
Loop time of 34481.1 on 288 procs for 20000000 steps with 405931 atoms

Performance: 250571.969 tau/day, 580.028 timesteps/s
96.5% CPU use with 288 MPI tasks x 1 OpenMP threads

MPI task timing breakdown:
Section |  min time  |  avg time  |  max time  |%varavg|  %CPU | %total
-----------------------------------------------------------------------
Pair    | 2767       | 6780.5     | 9635.3     |1514.4 |  97.1 | 19.66
Bond    | 13.313     | 14.019     | 15.314     |   8.0 | 100.0 |  0.04
Neigh   | 2417.1     | 6937.1     | 9164.5     |1540.9 |  99.2 | 20.12
Comm    | 9282.1     | 13657      | 21237      |1781.6 |  95.8 | 39.61
Output  | 810.03     | 812.89     | 815.89     |   6.5 |  92.5 |  2.36
Modify  | 4376.3     | 5869.2     | 8280.4     | 993.4 |  96.3 | 17.02
Other   |            | 410.2      |            |       |       |  1.19

Nlocal:        1409.48 ave        2392 max         409 min
Histogram: 3 2 3 24 107 119 21 1 5 3
Nghost:        6020.13 ave        8927 max        1730 min
Histogram: 12 13 18 18 21 35 45 76 44 6
Neighs:        22295.8 ave       39804 max        3498 min
Histogram: 18 7 10 25 57 79 55 14 12 11

Total # of neighbors = 6421186
Ave neighs/atom = 15.818417
Ave special neighs/atom = 0.0000000
Neighbor list builds = 2000000
Dangerous builds = 1800000

Total wall time: 9:34:45
