LAMMPS (24 Dec 2020)
OMP_NUM_THREADS environment is not set. Defaulting to 1 thread. (src/comm.cpp:94)
  using 1 OpenMP thread(s) per MPI task
#Read the equilibrated lj fluid and add nanocubes

units           lj
atom_style      full
atom_modify     map array first cubes
dimension       3
boundary        p p f
pair_style      lj/cut/opt 2.5

variable        sigma           equal 1.0
variable        epsilon         equal 1.0
read_restart	restart.dat.10000000
Reading restart file ...
  restart file = 24 Dec 2020, LAMMPS = 24 Dec 2020
WARNING: Restart file used different # of processors: 288 vs. 768 (src/read_restart.cpp:697)
  restoring atom style full from restart
  orthogonal box = (0.0000000 0.0000000 0.0000000) to (120.00000 120.00000 240.00000)
  6 by 8 by 16 MPI processor grid
  restoring pair style lj/cut/opt from restart
  1553347 atoms
Finding 1-2 1-3 1-4 neighbors ...
  special bond factors lj:    0        0        0       
  special bond factors coul:  0        0        0       
     0 = max # of 1-2 neighbors
     0 = max # of 1-3 neighbors
     0 = max # of 1-4 neighbors
     1 = max # of special neighbors
  special bonds CPU = 7.749 seconds
  read_restart CPU = 9.045 seconds

group		solvent type 1
1553347 atoms in group solvent

read_data	data_450.cubes group cubes add append
Reading data file ...
  orthogonal box = (0.0000000 0.0000000 0.0000000) to (140.00000 140.00000 240.00000)
  8 by 8 by 12 MPI processor grid
  reading atoms ...
  560070 atoms
  reading velocities ...
  560070 velocities
Finding 1-2 1-3 1-4 neighbors ...
  special bond factors lj:    0        0        0       
  special bond factors coul:  0        0        0       
     0 = max # of 1-2 neighbors
     0 = max # of 1-3 neighbors
     0 = max # of 1-4 neighbors
     1 = max # of special neighbors
  special bonds CPU = 0.499 seconds
  read_data CPU = 3.925 seconds

group 		hull  type 2
218540 atoms in group hull
group 		dummy type 3
341530 atoms in group dummy

neighbor      0.4 bin
neigh_modify  exclude molecule/intra cubes


pair_modify   shift yes

pair_coeff    1 1 1.0 1.0 #solvent
pair_coeff    2 2 1.0 1.0 1.12 #np
pair_coeff    3 3 0.0 0.0 0.0 #dummy
pair_coeff    2 3 0.0 0.0 0.0 #np dummy
pair_coeff    1 2 ${sol} 1.0  #np solvent
pair_coeff    1 2 .75 1.0  
pair_coeff    1 3 0.0 0.0 2.5 #dummy solvent

# delete solvent where the cubes are
delete_atoms  overlap 1.0 solvent cubes
System init for delete_atoms ...
Unused restart file peratom fix info:
  fix style: STORE, fix ID: bin1_COMPUTE_STORE
Neighbor list info ...
  update every 1 steps, delay 10 steps, check yes
  max neighbors/atom: 2000, page size: 100000
  master list distance cutoff = 2.9
  ghost atom cutoff = 2.9
  binsize = 1.45, bins = 97 97 166
  2 neighbor lists, perpetual/occasional/extra = 1 1 0
  (1) command delete_atoms, occasional
      attributes: full, newton on
      pair build: full/bin
      stencil: full/bin/3d
      bin: standard
  (2) pair lj/cut/opt, perpetual
      attributes: half, newton on
      pair build: half/bin/newton
      stencil: half/bin/3d/newton
      bin: standard
WARNING: Delete_atoms cutoff > minimum neighbor cutoff (src/delete_atoms.cpp:307)
WARNING: Ignoring 'compress yes' for molecular system (src/delete_atoms.cpp:125)
Deleted 298110 atoms, new total = 1815307

pair_coeff    1 1 1.0 1.0 #solvent
pair_coeff    2 2 1.0 1.0 1.12 #np
pair_coeff    3 3 0.0 0.0 0.0 #dummy
pair_coeff    2 3 0.0 0.0 0.0 #np dummy
pair_coeff    1 2 ${sol} 1.0  #np solvent
pair_coeff    1 2 .75 1.0  
pair_coeff    1 3 0.0 0.0 0.0 #dummy solvent


comm_modify   mode multi cutoff/multi 1 2.5 cutoff/multi 2 2.5 cutoff/multi 3 6.95

reset_timestep 	0

balance 	1.05 shift z 10 1.05
Balancing ...
Neighbor list info ...
  update every 1 steps, delay 10 steps, check yes
  max neighbors/atom: 2000, page size: 100000
  master list distance cutoff = 2.9
  ghost atom cutoff = 6.95
  binsize = 1.45, bins = 97 97 166
  1 neighbor lists, perpetual/occasional/extra = 1 0 0
  (1) pair lj/cut/opt, perpetual
      attributes: half, newton on
      pair build: half/bin/newton
      stencil: half/bin/3d/newton
      bin: standard
 rebalancing time: 0.024 seconds
  iteration count = 4
  initial/final maximal load/proc = 4223.0000 4135.0000
  initial/final imbalance factor  = 1.7866201 1.7493900
  x cuts: 0.0000000 0.12500000 0.25000000 0.37500000 0.50000000 0.62500000 0.75000000 0.87500000 1.0000000
  y cuts: 0.0000000 0.12500000 0.25000000 0.37500000 0.50000000 0.62500000 0.75000000 0.87500000 1.0000000
  z cuts: 0.0000000 0.067708333 0.13020833 0.19270833 0.25520833 0.32291667 0.38541667 0.44791667 0.51041667 0.57812500 0.66145833 0.71354167 1.0000000

####################### WALLS ###########################

variable       epsilonWall equal 2*${epsilon}
variable       epsilonWall equal 2*1
variable       repulsive   equal   0.7147*${sigma}
variable       repulsive   equal   0.7147*1
variable       full	   equal   3*${sigma}
variable       full	   equal   3*1
region         lowWall block EDGE EDGE EDGE EDGE EDGE 2

fix            topWall all wall/lj93 zhi EDGE 	       ${epsilonWall} ${sigma} ${repulsive} units box
fix            topWall all wall/lj93 zhi EDGE 	       2 ${sigma} ${repulsive} units box
fix            topWall all wall/lj93 zhi EDGE 	       2 1 ${repulsive} units box
fix            topWall all wall/lj93 zhi EDGE 	       2 1 0.7147 units box
fix            lowSol solvent wall/lj93 zlo EDGE                ${epsilonWall} ${sigma} ${full} units box
fix            lowSol solvent wall/lj93 zlo EDGE                2 ${sigma} ${full} units box
fix            lowSol solvent wall/lj93 zlo EDGE                2 1 ${full} units box
fix            lowSol solvent wall/lj93 zlo EDGE                2 1 3 units box
fix 	       lowCub cubes wall/lj93 zlo EDGE                ${epsilonWall} ${sigma} ${repulsive} units box
fix 	       lowCub cubes wall/lj93 zlo EDGE                2 ${sigma} ${repulsive} units box
fix 	       lowCub cubes wall/lj93 zlo EDGE                2 1 ${repulsive} units box
fix 	       lowCub cubes wall/lj93 zlo EDGE                2 1 0.7147 units box


###################### COMPUTES ##########################

compute        bin1 solvent chunk/atom bin/1d z lower 1.0 units box
compute        bin3 solvent chunk/atom bin/3d x lower 5.0 y lower 5.0 z lower 5.0 units box

compute 	pe solvent 	   pe/atom
compute 	pe2 all 	   pe/atom

######################  FIXES ############################


fix             peclet solvent ave/chunk 10 10 100000 bin1 density/number norm                  none ave one file density.profile

fix              temp solvent ave/chunk 10 10 100000 bin1 temp norm                  none ave one file temp.profile

fix 		 dens solvent ave/chunk 10 10 500000 bin3 density/number norm 		 none ave one file dens3.profile

fix 		pe solvent ave/chunk 1 1 500000 bin3 c_pe norm none ave one file pe3.profile
fix             1 cubes rigid/nve/small molecule
  create bodies CPU = 0.064 seconds
  490 rigid bodies with 560070 atoms
  6.9282032 = max distance from body owner to body atom

fix             2 solvent nve# temp ${temp} ${temp} 10


## Thermostat
region          regthermo block EDGE EDGE EDGE EDGE 0 15
group           thermo dynamic solvent region regthermo every 1000
dynamic group thermo defined
fix             3 thermo langevin ${temp} ${temp} 10 156453
fix             3 thermo langevin 1.0 ${temp} 10 156453
fix             3 thermo langevin 1.0 1.0 10 156453


#### Load balancing

fix             bal all balance 1000 1.05 shift z 10 1.05

############### Diagnostics and computes ###################


compute        	com cubes          rigid/local   1 mol x y z
compute        	quat cubes         rigid/local   1 mol quatw quati quatj quatk

compute 	cc2 cubes 	   chunk/atom 	 molecule
compute 	msd cubes 	   msd/chunk 	 cc2

fix 		msd all ave/time  1 1 10000 c_msd[*] file dump.msd ave one mode vector

dump            1 all custom 500000 dump.lammpstrj id mol type x y z vx vy vz c_pe2
dump		sol  solvent custom 500000 dump.soltrj id x y z vx vy vz c_pe
dump		cubetrj cubes custom 500000 cubes.lammpstrj id mol type x y z vx vy vz
#dump            com cubes local 100000 dump.*.xyz c_com[*]
#dump	        xyz hull xyz 100000 cubes.xyz
#dump            quat cubes      local 100000 dump.*.quat c_quat[*]
dump		order cubes 	local 500000 dump.*.order c_com[*] c_quat[*]
#dump		mol cubes molfile 10000 mol.xyz xyz


dump            2 all image 500000 image.*.png type type zoom 1.5 size 1280 720
dump_modify     2 pad 8
dump		image cubes image 500000 image_cubes.*.png type type zoom 1.5 size 1280 720
dump_modify	image pad 8
dump            3 all movie 10000 movie.avi type type zoom 1.5 size 1280 720
dump		4 cubes movie 10000 movie_cubes.avi type type size 1280 720


thermo          1000
thermo_style    custom step temp epair evdwl etotal press pe ke atoms

restart         1000000 restart.dat
timestep        0.005
timer           full
New timer settings: style=full  mode=nosync  timeout=off

run 		10000000
Per MPI rank memory allocation (min/avg/max) = 14.59 | 22.10 | 23.97 Mbytes
Step Temp E_pair E_vdwl TotEng Press PotEng KinEng Atoms 
       0     1.008384   -2.2040023   -2.2040023   -1.1572801 -0.021591752   -2.2040023    1.0467222  1815307 
    1000   0.99596533   -2.1907264   -2.1907264    -1.156895  0.034630578   -2.1907264    1.0338314  1815307 
    2000   0.98784934   -2.1807585   -2.1807585   -1.1553517  0.032658956   -2.1807585    1.0254068  1815307 
    3000   0.98361082   -2.1747482   -2.1747482   -1.1537411  0.027755252   -2.1747482    1.0210072  1815307 
    4000    0.9804017   -2.1699423   -2.1699423   -1.1522662  0.024624848   -2.1699423     1.017676  1815307 
    5000   0.97828621   -2.1664303   -2.1664303   -1.1509502  0.025125215   -2.1664303    1.0154801  1815307 
    6000   0.97861921   -2.1656177   -2.1656177   -1.1497919  0.026809004   -2.1656177    1.0158258  1815307 
    7000   0.97666556   -2.1624081   -2.1624081   -1.1486102  0.028236771   -2.1624081    1.0137979  1815307 
    8000   0.97660584    -2.161049    -2.161049   -1.1473131   0.02684498    -2.161049    1.0137359  1815307 
    9000   0.97796065   -2.1616786   -2.1616786   -1.1465364  0.030719423   -2.1616786    1.0151422  1815307 
   10000   0.97781871   -2.1609619   -2.1609619   -1.1459671  0.031595563   -2.1609619    1.0149949  1815307 
   11000   0.97960439   -2.1616981   -2.1616981   -1.1448496  0.036715768   -2.1616981    1.0168484  1815307 
   12000   0.98275889   -2.1643399   -2.1643399    -1.144217  0.040216346   -2.1643399    1.0201229  1815307 
   13000   0.98348677   -2.1648315   -2.1648315   -1.1439531  0.043109697   -2.1648315    1.0208784  1815307 
   14000    0.9864003   -2.1671473   -2.1671473   -1.1432446  0.040332525   -2.1671473    1.0239027  1815307 
   15000    0.9876954   -2.1683916   -2.1683916   -1.1431445   0.04465445   -2.1683916     1.025247  1815307 
   16000   0.98767352   -2.1682835   -2.1682835   -1.1430591  0.047394691   -2.1682835    1.0252243  1815307 
   17000   0.98799844   -2.1686858   -2.1686858   -1.1431242  0.046977837   -2.1686858    1.0255616  1815307 
   18000   0.98650809   -2.1673107   -2.1673107   -1.1432961  0.046745544   -2.1673107    1.0240146  1815307 
   19000   0.98609011   -2.1665978   -2.1665978   -1.1430171  0.047962753   -2.1665978    1.0235807  1815307 
   20000   0.98627336   -2.1666911   -2.1666911   -1.1429201  0.045270916   -2.1666911    1.0237709  1815307 
   21000   0.98416602   -2.1647993   -2.1647993   -1.1432158  0.041065987   -2.1647993    1.0215835  1815307 
   22000   0.98336123   -2.1639963   -2.1639963   -1.1432482  0.042938253   -2.1639963    1.0207481  1815307 
   23000    0.9836793   -2.1640435   -2.1640435   -1.1429653  0.043953362   -2.1640435    1.0210783  1815307 
   24000   0.98362374   -2.1638489   -2.1638489   -1.1428284  0.042910441   -2.1638489    1.0210206  1815307 
   25000   0.98343536   -2.1640004   -2.1640004   -1.1431754  0.043990764   -2.1640004     1.020825  1815307 
   26000   0.98439108   -2.1647647   -2.1647647   -1.1429476  0.044993089   -2.1647647    1.0218171  1815307 
   27000   0.98498011   -2.1653042   -2.1653042   -1.1428756  0.041576822   -2.1653042    1.0224285  1815307 
   28000   0.98467121   -2.1650921   -2.1650921   -1.1429842  0.046508776   -2.1650921    1.0221079  1815307 
   29000   0.98656607   -2.1669531   -2.1669531   -1.1428783  0.047651277   -2.1669531    1.0240748  1815307 
   30000   0.98607399   -2.1662677   -2.1662677   -1.1427037  0.049011479   -2.1662677     1.023564  1815307 
   31000   0.98568596   -2.1659401   -2.1659401   -1.1427789  0.047714324   -2.1659401    1.0231612  1815307 
   32000   0.98463354   -2.1646522   -2.1646522   -1.1425834  0.046467013   -2.1646522    1.0220688  1815307 
   33000     0.985785   -2.1660102   -2.1660102   -1.1427462  0.049590499   -2.1660102     1.023264  1815307 
   34000    0.9850508   -2.1656066   -2.1656066   -1.1431047  0.051435699   -2.1656066    1.0225019  1815307 
   35000   0.98400849   -2.1648469   -2.1648469   -1.1434269  0.050811643   -2.1648469      1.02142  1815307 
   36000   0.98486137   -2.1654025   -2.1654025   -1.1430972  0.043536739   -2.1654025    1.0223053  1815307 
   37000    0.9842708    -2.165277    -2.165277   -1.1435847  0.047703293    -2.165277    1.0216922  1815307 
   38000   0.98399207   -2.1648819   -2.1648819    -1.143479  0.047183214   -2.1648819    1.0214029  1815307 
   39000   0.98382225   -2.1647902   -2.1647902   -1.1435635  0.042309565   -2.1647902    1.0212266  1815307 
   40000    0.9845815    -2.165709    -2.165709   -1.1436942  0.045819438    -2.165709    1.0220148  1815307 
   41000   0.98377406   -2.1654552   -2.1654552   -1.1442785  0.045073643   -2.1654552    1.0211766  1815307 
   42000   0.98459857   -2.1663087   -2.1663087   -1.1442762   0.04732783   -2.1663087    1.0220325  1815307 
   43000   0.98478622     -2.16647     -2.16647   -1.1442428  0.045611975     -2.16647    1.0222273  1815307 
   44000   0.98473675   -2.1663237   -2.1663237   -1.1441478  0.049737769   -2.1663237    1.0221759  1815307 
   45000   0.98477502   -2.1662286   -2.1662286    -1.144013  0.046664694   -2.1662286    1.0222156  1815307 
   46000   0.98613547   -2.1676443   -2.1676443   -1.1440164  0.047439958   -2.1676443    1.0236278  1815307 
   47000   0.98500377   -2.1665858   -2.1665858   -1.1441327  0.047852609   -2.1665858    1.0224531  1815307 
   48000   0.98481866   -2.1668546   -2.1668546   -1.1445937  0.049850445   -2.1668546    1.0222609  1815307 
   49000   0.98452702   -2.1663146   -2.1663146   -1.1443564  0.046534844   -2.1663146    1.0219582  1815307 
   50000   0.98426082   -2.1661007   -2.1661007   -1.1444188  0.049174869   -2.1661007    1.0216819  1815307 
   51000   0.98486379   -2.1666624   -2.1666624   -1.1443546  0.047455127   -2.1666624    1.0223078  1815307 
   52000   0.98447369   -2.1665239   -2.1665239    -1.144621  0.051206118   -2.1665239    1.0219028  1815307 
   53000   0.98389942   -2.1658769   -2.1658769   -1.1445701  0.047381071   -2.1658769    1.0213067  1815307 
   54000   0.98364908   -2.1660033   -2.1660033   -1.1449564  0.046859516   -2.1660033    1.0210469  1815307 
   55000    0.9841625   -2.1665975   -2.1665975   -1.1450177  0.046675669   -2.1665975    1.0215798  1815307 
   56000   0.98451981   -2.1673186   -2.1673186   -1.1453679  0.046942078   -2.1673186    1.0219507  1815307 
   57000   0.98559563   -2.1683146   -2.1683146   -1.1452471  0.049143709   -2.1683146    1.0230674  1815307 
   58000   0.98468736   -2.1676331   -2.1676331   -1.1455084  0.052149114   -2.1676331    1.0221246  1815307 
   59000   0.98461009   -2.1676296   -2.1676296   -1.1455852  0.050054468   -2.1676296    1.0220444  1815307 
   60000   0.98466741   -2.1679542   -2.1679542   -1.1458502  0.048071959   -2.1679542    1.0221039  1815307 
   61000   0.98528786   -2.1686163   -2.1686163   -1.1458683  0.048180574   -2.1686163     1.022748  1815307 
   62000   0.98456045   -2.1680409   -2.1680409    -1.146048   0.04880308   -2.1680409    1.0219929  1815307 
   63000   0.98566377   -2.1687768   -2.1687768   -1.1456386   0.05033542   -2.1687768    1.0231382  1815307 
   64000   0.98459095    -2.167806    -2.167806   -1.1457815  0.047766727    -2.167806    1.0220246  1815307 
   65000   0.98451127   -2.1676141   -2.1676141   -1.1456722   0.04943997   -2.1676141    1.0219419  1815307 
   66000    0.9859079    -2.169518    -2.169518   -1.1461264  0.054265835    -2.169518    1.0233916  1815307 
   67000   0.98592155   -2.1697207   -2.1697207   -1.1463149  0.050569244   -2.1697207    1.0234058  1815307 
   68000   0.98455034   -2.1681312   -2.1681312   -1.1461488  0.050886122   -2.1681312    1.0219824  1815307 
   69000   0.98407199   -2.1677671   -2.1677671   -1.1462812  0.050169092   -2.1677671    1.0214859  1815307 
   70000   0.98382718   -2.1676766   -2.1676766   -1.1464449  0.047344821   -2.1676766    1.0212318  1815307 
   71000   0.98387766   -2.1678099   -2.1678099   -1.1465258  0.052039237   -2.1678099    1.0212842  1815307 
   72000    0.9839547    -2.167803    -2.167803   -1.1464388  0.049801978    -2.167803    1.0213641  1815307 
   73000   0.98519912    -2.169238    -2.169238   -1.1465822  0.050521081    -2.169238    1.0226559  1815307 
   74000   0.98433633   -2.1683526   -2.1683526   -1.1465923  0.047545793   -2.1683526    1.0217603  1815307 
   75000   0.98432011   -2.1684226   -2.1684226   -1.1466792  0.048633198   -2.1684226    1.0217434  1815307 
   76000   0.98497899   -2.1690171   -2.1690171   -1.1465897  0.049110183   -2.1690171    1.0224274  1815307 
   77000   0.98519755   -2.1692479   -2.1692479   -1.1465937  0.050119779   -2.1692479    1.0226542  1815307 
   78000     0.984611    -2.168674    -2.168674   -1.1466286  0.049028208    -2.168674    1.0220454  1815307 
   79000   0.98466623   -2.1688368   -2.1688368   -1.1467341  0.051427359   -2.1688368    1.0221027  1815307 
   80000   0.98553231   -2.1696907   -2.1696907   -1.1466889  0.050095634   -2.1696907    1.0230017  1815307 
   81000   0.98457127   -2.1690288   -2.1690288   -1.1470247    0.0514487   -2.1690288    1.0220041  1815307 
   82000    0.9854723   -2.1699092   -2.1699092   -1.1469697  0.049750311   -2.1699092    1.0229394  1815307 
   83000   0.98352764    -2.168014    -2.168014   -1.1470932  0.049096286    -2.168014    1.0209208  1815307 
   84000   0.98402734   -2.1686739   -2.1686739   -1.1472344   0.04984136   -2.1686739    1.0214395  1815307 
   85000     0.984286   -2.1687717   -2.1687717   -1.1470637  0.050220421   -2.1687717     1.021708  1815307 
   86000   0.98330935   -2.1679533   -2.1679533    -1.147259  0.054141876   -2.1679533    1.0206942  1815307 
   87000   0.98402646   -2.1684925   -2.1684925   -1.1470539  0.048789691   -2.1684925    1.0214386  1815307 
   88000   0.98414222   -2.1691886   -2.1691886   -1.1476298  0.050094209   -2.1691886    1.0215588  1815307 
   89000   0.98369009   -2.1685694   -2.1685694   -1.1474799  0.050449437   -2.1685694    1.0210895  1815307 
   90000   0.98444315   -2.1696458   -2.1696458   -1.1477746  0.051142141   -2.1696458    1.0218712  1815307 
   91000   0.98431758   -2.1690756   -2.1690756   -1.1473348  0.049089165   -2.1690756    1.0217408  1815307 
   92000   0.98459964   -2.1689938   -2.1689938   -1.1469602  0.053617536   -2.1689938    1.0220336  1815307 
   93000   0.98475563   -2.1688175   -2.1688175    -1.146622  0.051420346   -2.1688175    1.0221955  1815307 
   94000   0.98506088   -2.1694564   -2.1694564    -1.146944  0.047213826   -2.1694564    1.0225124  1815307 
   95000   0.98460715   -2.1684481   -2.1684481   -1.1464067  0.051021519   -2.1684481    1.0220414  1815307 
   96000   0.98501294   -2.1690028   -2.1690028   -1.1465402  0.048762178   -2.1690028    1.0224626  1815307 
   97000   0.98372054   -2.1670916   -2.1670916   -1.1459705  0.050597157   -2.1670916    1.0211211  1815307 
   98000   0.98458991   -2.1682453   -2.1682453   -1.1462218  0.048881959   -2.1682453    1.0220235  1815307 
   99000   0.98469371   -2.1681089   -2.1681089   -1.1459776  0.050597985   -2.1681089    1.0221312  1815307 
  100000   0.98516367   -2.1679049   -2.1679049   -1.1452858  0.051978773   -2.1679049    1.0226191  1815307 
  101000   0.98509904   -2.1680586   -2.1680586   -1.1455066  0.049787121   -2.1680586     1.022552  1815307 
  102000   0.98464003   -2.1677798   -2.1677798   -1.1457043  0.050292068   -2.1677798    1.0220755  1815307 
  103000   0.98443947    -2.167906    -2.167906   -1.1460387  0.051205015    -2.167906    1.0218673  1815307 
  104000    0.9845189   -2.1678019   -2.1678019   -1.1458521  0.052591579   -2.1678019    1.0219498  1815307 
  105000   0.98503121   -2.1684923   -2.1684923   -1.1460107  0.053694666   -2.1684923    1.0224816  1815307 
  106000   0.98551987   -2.1691101   -2.1691101   -1.1461213  0.053847561   -2.1691101    1.0229888  1815307 
  107000   0.98484517   -2.1690959   -2.1690959   -1.1468075  0.049675986   -2.1690959    1.0222885  1815307 
  108000   0.98462194   -2.1687481   -2.1687481   -1.1466913  0.054096047   -2.1687481    1.0220567  1815307 
  109000   0.98458907   -2.1688556   -2.1688556    -1.146833  0.049678734   -2.1688556    1.0220226  1815307 
  110000   0.98468728   -2.1690395   -2.1690395    -1.146915   0.04775697   -2.1690395    1.0221246  1815307 
  111000   0.98514423    -2.169537    -2.169537   -1.1469381  0.051572875    -2.169537    1.0225989  1815307 
  112000   0.98594297   -2.1701963   -2.1701963   -1.1467684  0.052434683   -2.1701963     1.023428  1815307 
  113000   0.98616726    -2.169842    -2.169842   -1.1461812  0.053782421    -2.169842    1.0236608  1815307 
  114000   0.98599368   -2.1695795   -2.1695795   -1.1460988  0.050416529   -2.1695795    1.0234806  1815307 
  115000   0.98648112   -2.1702992   -2.1702992   -1.1463126  0.050960372   -2.1702992    1.0239866  1815307 
  116000   0.98607009   -2.1695707   -2.1695707   -1.1460108  0.050291715   -2.1695707    1.0235599  1815307 
  117000   0.98598771   -2.1692989   -2.1692989   -1.1458245  0.052172365   -2.1692989    1.0234744  1815307 
  118000   0.98523879   -2.1682261   -2.1682261    -1.145529  0.052259871   -2.1682261     1.022697  1815307 
  119000   0.98445155   -2.1675259   -2.1675259    -1.145646  0.050210686   -2.1675259    1.0218799  1815307 
  120000   0.98371113   -2.1670464   -2.1670464   -1.1459351  0.049475879   -2.1670464    1.0211113  1815307 
  121000   0.98499673   -2.1681434   -2.1681434   -1.1456976  0.050649042   -2.1681434    1.0224458  1815307 
  122000   0.98469078   -2.1683679   -2.1683679   -1.1462397  0.050926236   -2.1683679    1.0221282  1815307 
  123000   0.98417445    -2.167832    -2.167832   -1.1462397  0.050616743    -2.167832    1.0215922  1815307 
  124000   0.98505974   -2.1687399   -2.1687399   -1.1462288  0.053547249   -2.1687399    1.0225112  1815307 
  125000   0.98450764   -2.1680992   -2.1680992   -1.1461611  0.052570115   -2.1680992    1.0219381  1815307 
  126000   0.98564876   -2.1692877   -2.1692877   -1.1461651  0.049775042   -2.1692877    1.0231226  1815307 
  127000   0.98540904    -2.168828    -2.168828   -1.1459542   0.05276563    -2.168828    1.0228738  1815307 
  128000   0.98653054   -2.1697372   -2.1697372   -1.1456993  0.054664094   -2.1697372    1.0240379  1815307 
  129000   0.98519529   -2.1687307   -2.1687307   -1.1460788  0.051184338   -2.1687307    1.0226519  1815307 
  130000   0.98603843   -2.1690319   -2.1690319   -1.1455048   0.04963395   -2.1690319    1.0235271  1815307 
  131000   0.98589982   -2.1687873   -2.1687873   -1.1454041  0.048700065   -2.1687873    1.0233832  1815307 
  132000   0.98545646   -2.1682118   -2.1682118   -1.1452888  0.049996565   -2.1682118     1.022923  1815307 
  133000   0.98536982   -2.1680759   -2.1680759   -1.1452428  0.055461184   -2.1680759     1.022833  1815307 
  134000   0.98642345    -2.168869    -2.168869   -1.1449422  0.054223818    -2.168869    1.0239267  1815307 
  135000   0.98511019   -2.1676349   -2.1676349   -1.1450713  0.053193475   -2.1676349    1.0225636  1815307 
  136000    0.9848132    -2.166994    -2.166994   -1.1447387  0.051731075    -2.166994    1.0222553  1815307 
  137000   0.98461402   -2.1668095   -2.1668095    -1.144761  0.049654315   -2.1668095    1.0220485  1815307 
  138000   0.98493541   -2.1669256   -2.1669256   -1.1445435   0.04963785   -2.1669256    1.0223821  1815307 
  139000    0.9863743   -2.1686375   -2.1686375   -1.1447618  0.052387082   -2.1686375    1.0238757  1815307 
  140000   0.98587039   -2.1679476   -2.1679476   -1.1445949  0.049764572   -2.1679476    1.0233527  1815307 
  141000   0.98614694   -2.1683241   -2.1683241   -1.1446844  0.050385083   -2.1683241    1.0236397  1815307 
  142000   0.98585253   -2.1686442   -2.1686442   -1.1453101  0.054396279   -2.1686442    1.0233341  1815307 
  143000   0.98609126   -2.1683679   -2.1683679    -1.144786  0.053479967   -2.1683679    1.0235819  1815307 
  144000    0.9864212   -2.1687431   -2.1687431   -1.1448187  0.055105969   -2.1687431    1.0239244  1815307 
  145000   0.98621886   -2.1683223   -2.1683223   -1.1446079  0.052924336   -2.1683223    1.0237144  1815307 
  146000   0.98597543   -2.1682173   -2.1682173   -1.1447556  0.051069268   -2.1682173    1.0234617  1815307 
  147000   0.98617163   -2.1685436   -2.1685436   -1.1448783  0.049999773   -2.1685436    1.0236653  1815307 
  148000   0.98605808    -2.168857    -2.168857   -1.1453095  0.052043933    -2.168857    1.0235475  1815307 
  149000    0.9859369   -2.1687676   -2.1687676   -1.1453459  0.051388178   -2.1687676    1.0234217  1815307 
  150000   0.98589362   -2.1686155   -2.1686155   -1.1452387  0.049747485   -2.1686155    1.0233768  1815307 
  151000   0.98527565   -2.1679008   -2.1679008   -1.1451655  0.051349123   -2.1679008    1.0227353  1815307 
  152000   0.98534314    -2.168233    -2.168233   -1.1454277  0.049371834    -2.168233    1.0228054  1815307 
  153000   0.98498134   -2.1681728   -2.1681728    -1.145743  0.053590845   -2.1681728    1.0224298  1815307 
  154000   0.98473027   -2.1675464   -2.1675464   -1.1453772  0.051802468   -2.1675464    1.0221692  1815307 
  155000   0.98554364    -2.168705    -2.168705   -1.1456915  0.051771534    -2.168705    1.0230135  1815307 
  156000   0.98688343   -2.1694597   -2.1694597   -1.1450555  0.050296964   -2.1694597    1.0244042  1815307 
  157000   0.98654593   -2.1691188   -2.1691188   -1.1450649  0.054225896   -2.1691188    1.0240539  1815307 
  158000   0.98709601   -2.1699278   -2.1699278    -1.145303  0.052976027   -2.1699278    1.0246249  1815307 
  159000   0.98662394   -2.1688147   -2.1688147   -1.1446799  0.053532484   -2.1688147    1.0241349  1815307 
  160000   0.98656386   -2.1685071   -2.1685071   -1.1444346  0.051671283   -2.1685071    1.0240725  1815307 
  161000    0.9866474     -2.16836     -2.16836   -1.1442008  0.053270192     -2.16836    1.0241592  1815307 
  162000   0.98622277   -2.1679905   -2.1679905   -1.1442721  0.049401384   -2.1679905    1.0237184  1815307 
  163000   0.98643647   -2.1678167   -2.1678167   -1.1438765  0.048831105   -2.1678167    1.0239403  1815307 
  164000   0.98758171   -2.1682226   -2.1682226   -1.1430936  0.052604363   -2.1682226     1.025129  1815307 
  165000   0.98752541    -2.167895    -2.167895   -1.1428245  0.057256473    -2.167895    1.0250706  1815307 
  166000   0.98671444   -2.1674025   -2.1674025   -1.1431737  0.053850141   -2.1674025    1.0242288  1815307 
  167000   0.98620952   -2.1670067   -2.1670067    -1.143302   0.04739983   -2.1670067    1.0237047  1815307 
  168000   0.98602539   -2.1669014   -2.1669014   -1.1433878  0.052096124   -2.1669014    1.0235135  1815307 
  169000   0.98606857   -2.1669011   -2.1669011   -1.1433427  0.053862983   -2.1669011    1.0235584  1815307 
  170000   0.98588099   -2.1665085   -2.1665085   -1.1431449  0.056394842   -2.1665085    1.0233637  1815307 
  171000   0.98559462   -2.1662798   -2.1662798   -1.1432134  0.052465995   -2.1662798    1.0230664  1815307 
  172000   0.98696152   -2.1675303   -2.1675303    -1.143045  0.052810574   -2.1675303    1.0244853  1815307 
  173000   0.98713283    -2.167826    -2.167826   -1.1431629   0.05385801    -2.167826    1.0246631  1815307 
  174000   0.98741734   -2.1675786   -2.1675786   -1.1426201  0.053658106   -2.1675786    1.0249584  1815307 
  175000   0.98571229   -2.1662279   -2.1662279   -1.1430394  0.052042571   -2.1662279    1.0231885  1815307 
  176000   0.98551054   -2.1664141   -2.1664141    -1.143435  0.050577531   -2.1664141    1.0229791  1815307 
  177000   0.98556434   -2.1664949   -2.1664949   -1.1434599  0.053529669   -2.1664949     1.023035  1815307 
  178000   0.98631032   -2.1671009   -2.1671009   -1.1432916  0.052241629   -2.1671009    1.0238093  1815307 
  179000   0.98578555   -2.1665803   -2.1665803   -1.1433157  0.051360135   -2.1665803    1.0232646  1815307 
  180000   0.98634741   -2.1671084   -2.1671084   -1.1432606    0.0549362   -2.1671084    1.0238478  1815307 
  181000    0.9858662   -2.1663395   -2.1663395   -1.1429912  0.049847376   -2.1663395    1.0233483  1815307 
  182000   0.98572525   -2.1665728   -2.1665728   -1.1433708  0.050705979   -2.1665728     1.023202  1815307 
  183000   0.98675573    -2.167189    -2.167189   -1.1429174  0.054545957    -2.167189    1.0242717  1815307 
  184000   0.98590457   -2.1665889   -2.1665889   -1.1432008  0.054335861   -2.1665889    1.0233881  1815307 
  185000   0.98624305   -2.1674124   -2.1674124   -1.1436729  0.053049544   -2.1674124    1.0237395  1815307 
  186000   0.98622761   -2.1674043   -2.1674043   -1.1436809  0.052728516   -2.1674043    1.0237235  1815307 
  187000   0.98600889   -2.1671782   -2.1671782   -1.1436818  0.050674548   -2.1671782    1.0234964  1815307 
  188000   0.98499515   -2.1660285   -2.1660285   -1.1435844  0.054979674   -2.1660285    1.0224441  1815307 
  189000    0.9858944   -2.1666097   -2.1666097   -1.1432321  0.048814343   -2.1666097    1.0233776  1815307 
  190000   0.98562684   -2.1661337   -2.1661337   -1.1430338  0.052410322   -2.1661337    1.0230998  1815307 
  191000   0.98570195   -2.1661265   -2.1661265   -1.1429487    0.0534117   -2.1661265    1.0231778  1815307 
  192000   0.98614073   -2.1668152   -2.1668152   -1.1431819  0.052592637   -2.1668152    1.0236333  1815307 
  193000   0.98537617   -2.1660842   -2.1660842   -1.1432445  0.051732249   -2.1660842    1.0228396  1815307 
  194000   0.98722517   -2.1681304   -2.1681304   -1.1433715  0.048703502   -2.1681304    1.0247589  1815307 
  195000   0.98840014   -2.1686249   -2.1686249   -1.1426463  0.053987127   -2.1686249    1.0259786  1815307 
  196000   0.98789911   -2.1685075   -2.1685075    -1.143049  0.056785549   -2.1685075    1.0254585  1815307 
  197000   0.98771083   -2.1682812   -2.1682812   -1.1430181  0.055375441   -2.1682812    1.0252631  1815307 
  198000   0.98739178   -2.1676631   -2.1676631   -1.1427312   0.05479174   -2.1676631    1.0249319  1815307 
  199000   0.98624811   -2.1661415   -2.1661415   -1.1423968  0.053821372   -2.1661415    1.0237447  1815307 
  200000   0.98665462   -2.1669853   -2.1669853   -1.1428186  0.051462311   -2.1669853    1.0241667  1815307 
  201000   0.98617402   -2.1666134   -2.1666134   -1.1429456  0.054841116   -2.1666134    1.0236678  1815307 
  202000   0.98647831   -2.1668963   -2.1668963   -1.1429126  0.051583833   -2.1668963    1.0239837  1815307 
  203000   0.98720292   -2.1673356   -2.1673356   -1.1425998  0.052654545   -2.1673356    1.0247358  1815307 
  204000   0.98663347   -2.1671119   -2.1671119   -1.1429672  0.052724901   -2.1671119    1.0241447  1815307 
  205000   0.98631783   -2.1664098   -2.1664098   -1.1425927  0.055137334   -2.1664098    1.0238171  1815307 
  206000   0.98686057   -2.1666642   -2.1666642   -1.1422838  0.056273516   -2.1666642    1.0243805  1815307 
  207000   0.98684464   -2.1668386   -2.1668386   -1.1424746  0.051530699   -2.1668386    1.0243639  1815307 
  208000   0.98607264   -2.1661489   -2.1661489   -1.1425863  0.054749599   -2.1661489    1.0235626  1815307 
  209000   0.98749557    -2.167782    -2.167782   -1.1427424  0.051080837    -2.167782    1.0250396  1815307 
  210000   0.98747927   -2.1679967   -2.1679967    -1.142974  0.053534056   -2.1679967    1.0250227  1815307 
  211000   0.98723473   -2.1681491   -2.1681491   -1.1433802  0.054220218   -2.1681491    1.0247689  1815307 
  212000   0.98747845   -2.1685965   -2.1685965   -1.1435746   0.05086621   -2.1685965    1.0250218  1815307 
  213000   0.98606336   -2.1671846   -2.1671846   -1.1436317  0.052905794   -2.1671846     1.023553  1815307 
  214000   0.98667965   -2.1676825   -2.1676825   -1.1434899   0.05102963   -2.1676825    1.0241927  1815307 
  215000    0.9859446   -2.1668344   -2.1668344   -1.1434047  0.054541316   -2.1668344    1.0234297  1815307 
  216000   0.98629707   -2.1672207   -2.1672207   -1.1434251   0.05042597   -2.1672207    1.0237956  1815307 
  217000   0.98627481   -2.1670418   -2.1670418   -1.1432694  0.049763005   -2.1670418    1.0237724  1815307 
  218000   0.98660177   -2.1672255   -2.1672255   -1.1431136  0.053685031   -2.1672255    1.0241118  1815307 
  219000    0.9871535   -2.1677041   -2.1677041   -1.1430196  0.049621218   -2.1677041    1.0246845  1815307 
  220000   0.98781405   -2.1682102   -2.1682102     -1.14284  0.050973568   -2.1682102    1.0253702  1815307 
  221000   0.98672068   -2.1674894   -2.1674894   -1.1432541  0.054490778   -2.1674894    1.0242353  1815307 
  222000      0.98793   -2.1679682   -2.1679682   -1.1424776  0.054110804   -2.1679682    1.0254906  1815307 
  223000   0.98745363    -2.167541    -2.167541   -1.1425449  0.054691421    -2.167541    1.0249961  1815307 
  224000    0.9868841   -2.1674617   -2.1674617   -1.1430568  0.049833615   -2.1674617    1.0244049  1815307 
  225000   0.98630016    -2.166961    -2.166961   -1.1431622  0.053323724    -2.166961    1.0237988  1815307 
  226000   0.98682993   -2.1676151   -2.1676151   -1.1432665  0.051934803   -2.1676151    1.0243487  1815307 
  227000   0.98660894   -2.1674525   -2.1674525   -1.1433332  0.050716851   -2.1674525    1.0241193  1815307 
  228000   0.98661806   -2.1674432   -2.1674432   -1.1433145     0.051905   -2.1674432    1.0241287  1815307 
  229000   0.98636592   -2.1664941   -2.1664941   -1.1426271  0.056454545   -2.1664941     1.023867  1815307 
  230000   0.98652767   -2.1666173   -2.1666173   -1.1425824   0.05618986   -2.1666173    1.0240349  1815307 
  231000   0.98758876   -2.1679866   -2.1679866   -1.1428502  0.052430073   -2.1679866    1.0251364  1815307 
  232000   0.98747209   -2.1679131   -2.1679131   -1.1428979  0.052948405   -2.1679131    1.0250152  1815307 
  233000   0.98692519   -2.1671695   -2.1671695   -1.1427219  0.056432107   -2.1671695    1.0244476  1815307 
  234000   0.98704978   -2.1679515   -2.1679515   -1.1433746  0.053185097   -2.1679515    1.0245769  1815307 
  235000   0.98612881   -2.1672921   -2.1672921   -1.1436712  0.056674843   -2.1672921    1.0236209  1815307 
  236000   0.98605309   -2.1674684   -2.1674684   -1.1439261  0.054350657   -2.1674684    1.0235423  1815307 
  237000   0.98653219   -2.1674917   -2.1674917   -1.1434521  0.049175589   -2.1674917    1.0240396  1815307 
  238000   0.98641005    -2.167536    -2.167536   -1.1436232  0.055273636    -2.167536    1.0239128  1815307 
  239000   0.98662164   -2.1677201   -2.1677201   -1.1435876  0.053970622   -2.1677201    1.0241325  1815307 
  240000   0.98630294   -2.1674093   -2.1674093   -1.1436077  0.056627858   -2.1674093    1.0238017  1815307 
  241000   0.98726359   -2.1682303   -2.1682303   -1.1434315  0.055065495   -2.1682303    1.0247988  1815307 
  242000   0.98680028   -2.1679038   -2.1679038   -1.1435859  0.056023737   -2.1679038    1.0243179  1815307 
  243000   0.98681871   -2.1680941   -2.1680941   -1.1437571  0.053230184   -2.1680941     1.024337  1815307 
  244000   0.98699098   -2.1684997   -2.1684997   -1.1439838  0.053399749   -2.1684997    1.0245159  1815307 
  245000   0.98694861    -2.168354    -2.168354   -1.1438821  0.054097702    -2.168354    1.0244719  1815307 
  246000   0.98798769    -2.169306    -2.169306   -1.1437556   0.05443808    -2.169306    1.0255505  1815307 
  247000   0.98694741   -2.1681535   -2.1681535   -1.1436829  0.053736197   -2.1681535    1.0244706  1815307 
  248000   0.98700507   -2.1683259   -2.1683259   -1.1437954  0.057921334   -2.1683259    1.0245305  1815307 
  249000   0.98692962   -2.1681348   -2.1681348   -1.1436827  0.055697399   -2.1681348    1.0244522  1815307 
  250000   0.98692666    -2.168413    -2.168413    -1.143964  0.054842813    -2.168413    1.0244491  1815307 
  251000    0.9872771   -2.1688553   -2.1688553   -1.1440425  0.052616142   -2.1688553    1.0248128  1815307 
  252000   0.98658635   -2.1681808   -2.1681808    -1.144085  0.052002442   -2.1681808    1.0240958  1815307 
  253000   0.98704253   -2.1680508   -2.1680508   -1.1434815  0.053797784   -2.1680508    1.0245694  1815307 
  254000   0.98747135   -2.1686139   -2.1686139   -1.1435995  0.054287526   -2.1686139    1.0250145  1815307 
  255000   0.98819034   -2.1684463   -2.1684463   -1.1426855  0.055007212   -2.1684463    1.0257608  1815307 
  256000   0.98802885   -2.1685101   -2.1685101   -1.1429169  0.055685151   -2.1685101    1.0255932  1815307 
  257000   0.98822082   -2.1684877   -2.1684877   -1.1426953  0.055810608   -2.1684877    1.0257924  1815307 
  258000    0.9879804   -2.1685598   -2.1685598   -1.1430169  0.052763057   -2.1685598    1.0255429  1815307 
  259000    0.9875576    -2.168099    -2.168099    -1.142995   0.05452182    -2.168099     1.025104  1815307 
  260000   0.98764542   -2.1676697   -2.1676697   -1.1424746  0.049788899   -2.1676697    1.0251952  1815307 
  261000   0.98708048   -2.1670925   -2.1670925   -1.1424838  0.056003936   -2.1670925    1.0246088  1815307 
  262000   0.98797658   -2.1679611   -2.1679611   -1.1424222  0.052596807   -2.1679611    1.0255389  1815307 
  263000   0.98756508   -2.1680546   -2.1680546   -1.1429429  0.053885049   -2.1680546    1.0251118  1815307 
  264000   0.98766722   -2.1676943   -2.1676943   -1.1424765  0.050998634   -2.1676943    1.0252178  1815307 
  265000   0.98839811   -2.1687586   -2.1687586   -1.1427822  0.052186918   -2.1687586    1.0259765  1815307 
  266000   0.98732254   -2.1676654   -2.1676654   -1.1428054  0.052738015   -2.1676654      1.02486  1815307 
  267000   0.98791405   -2.1682915   -2.1682915   -1.1428175  0.055823077   -2.1682915     1.025474  1815307 
  268000   0.98920103   -2.1693226   -2.1693226   -1.1425126  0.054049069   -2.1693226    1.0268099  1815307 
  269000   0.98715197   -2.1676275   -2.1676275   -1.1429445  0.057945944   -2.1676275     1.024683  1815307 
  270000   0.98756364   -2.1678275   -2.1678275   -1.1427173  0.054088541   -2.1678275    1.0251103  1815307 
  271000   0.98814338   -2.1681744   -2.1681744   -1.1424623  0.055278875   -2.1681744    1.0257121  1815307 
  272000   0.98662857   -2.1669539   -2.1669539   -1.1428143  0.055067658   -2.1669539    1.0241397  1815307 
  273000   0.98740526   -2.1675553   -2.1675553   -1.1426094  0.054646024   -2.1675553    1.0249459  1815307 
  274000   0.98901525   -2.1686842   -2.1686842   -1.1420671  0.056077686   -2.1686842    1.0266171  1815307 
  275000   0.98837593   -2.1681801   -2.1681801   -1.1422266   0.05463204   -2.1681801    1.0259535  1815307 
  276000   0.98698462    -2.166948    -2.166948   -1.1424388  0.052114951    -2.166948    1.0245092  1815307 
  277000   0.98800245   -2.1680664   -2.1680664   -1.1425007  0.053625055   -2.1680664    1.0255658  1815307 
  278000     0.987461   -2.1669071   -2.1669071   -1.1419033  0.052329668   -2.1669071    1.0250037  1815307 
  279000   0.98737684   -2.1669952   -2.1669952   -1.1420789  0.055491866   -2.1669952    1.0249164  1815307 
  280000   0.98717212   -2.1667082   -2.1667082   -1.1420043  0.057600087   -2.1667082    1.0247039  1815307 
  281000    0.9869877     -2.16688     -2.16688   -1.1423676  0.051472279     -2.16688    1.0245124  1815307 
  282000   0.98626117   -2.1657319   -2.1657319   -1.1419736   0.05778651   -2.1657319    1.0237583  1815307 
  283000   0.98747967    -2.167152    -2.167152   -1.1421289  0.050929735    -2.167152    1.0250231  1815307 
  284000   0.98835006   -2.1679985   -2.1679985   -1.1420719  0.052802931   -2.1679985    1.0259266  1815307 
  285000   0.98798126   -2.1683175   -2.1683175   -1.1427737   0.05698888   -2.1683175    1.0255438  1815307 
  286000   0.98770541   -2.1680507   -2.1680507   -1.1427933  0.055787223   -2.1680507    1.0252574  1815307 
  287000     0.989193   -2.1693819   -2.1693819   -1.1425803  0.055036758   -2.1693819    1.0268016  1815307 
  288000   0.98917805   -2.1690018   -2.1690018   -1.1422157  0.056202079   -2.1690018    1.0267861  1815307 
  289000   0.98731171   -2.1668532   -2.1668532   -1.1420044  0.055713078   -2.1668532    1.0248488  1815307 
  290000   0.98619777   -2.1662857   -2.1662857   -1.1425932  0.054590423   -2.1662857    1.0236925  1815307 
  291000   0.98657949   -2.1665927   -2.1665927    -1.142504  0.053481494   -2.1665927    1.0240887  1815307 
  292000    0.9878867   -2.1672016   -2.1672016    -1.141756  0.051311062   -2.1672016    1.0254456  1815307 
  293000   0.98666442   -2.1660983   -2.1660983   -1.1419215  0.052440712   -2.1660983    1.0241769  1815307 
  294000   0.98693023   -2.1665878   -2.1665878    -1.142135  0.052316131   -2.1665878    1.0244528  1815307 
  295000   0.98675093     -2.16615     -2.16615   -1.1418833   0.05354974     -2.16615    1.0242667  1815307 
  296000   0.98696767   -2.1662971   -2.1662971   -1.1418055   0.05551323   -2.1662971    1.0244917  1815307 
  297000   0.98877793   -2.1681206   -2.1681206   -1.1417499  0.060018855   -2.1681206    1.0263707  1815307 
  298000   0.98787703   -2.1669592   -2.1669592   -1.1415236  0.056575326   -2.1669592    1.0254356  1815307 
  299000   0.98768319   -2.1669955   -2.1669955   -1.1417611  0.054082053   -2.1669955    1.0252344  1815307 
  300000   0.98736376   -2.1668537   -2.1668537   -1.1419509  0.053455466   -2.1668537    1.0249028  1815307 
  301000   0.98761441   -2.1666673   -2.1666673   -1.1415043  0.054361144   -2.1666673     1.025163  1815307 
  302000   0.98699732    -2.166016    -2.166016   -1.1414936  0.050386716    -2.166016    1.0245224  1815307 
  303000   0.98693079   -2.1659718   -2.1659718   -1.1415185  0.053679105   -2.1659718    1.0244534  1815307 
  304000   0.98782697   -2.1667613   -2.1667613   -1.1413777  0.057753532   -2.1667613    1.0253836  1815307 
  305000   0.98775678   -2.1671354   -2.1671354   -1.1418246  0.055233127   -2.1671354    1.0253108  1815307 
  306000   0.98743844   -2.1672126   -2.1672126   -1.1422323  0.053660561   -2.1672126    1.0249803  1815307 
  307000   0.98741556   -2.1673225   -2.1673225   -1.1423659  0.053521856   -2.1673225    1.0249566  1815307 
  308000   0.98759946   -2.1675992   -2.1675992   -1.1424517  0.052166557   -2.1675992    1.0251475  1815307 
  309000   0.98747523   -2.1673758   -2.1673758   -1.1423573  0.051957068   -2.1673758    1.0250185  1815307 
  310000   0.98754955   -2.1676897   -2.1676897    -1.142594  0.054716638   -2.1676897    1.0250957  1815307 
  311000   0.98869881   -2.1686792   -2.1686792   -1.1423906  0.053650678   -2.1686792    1.0262886  1815307 
  312000   0.98842628    -2.168296    -2.168296   -1.1422902   0.05474284    -2.168296    1.0260057  1815307 
  313000   0.98809743   -2.1686717   -2.1686717   -1.1430074  0.056844372   -2.1686717    1.0256644  1815307 
  314000   0.98775994   -2.1682585   -2.1682585   -1.1429445  0.055481495   -2.1682585     1.025314  1815307 
  315000    0.9876311   -2.1674845   -2.1674845   -1.1423042  0.055323613   -2.1674845    1.0251803  1815307 
  316000   0.98734855   -2.1675063   -2.1675063   -1.1426193  0.053184053   -2.1675063     1.024887  1815307 
  317000   0.98682838   -2.1668882   -2.1668882   -1.1425411  0.053748154   -2.1668882    1.0243471  1815307 
  318000   0.98790023   -2.1673969   -2.1673969   -1.1419373  0.052450836   -2.1673969    1.0254597  1815307 
  319000    0.9882694   -2.1681476   -2.1681476   -1.1423048  0.053637845   -2.1681476    1.0258429  1815307 
  320000   0.98782388    -2.167345    -2.167345   -1.1419646  0.061114012    -2.167345    1.0253804  1815307 
  321000   0.98719698   -2.1667414   -2.1667414   -1.1420117  0.054319329   -2.1667414    1.0247297  1815307 
  322000   0.98705429   -2.1665684   -2.1665684   -1.1419868  0.054252807   -2.1665684    1.0245816  1815307 
  323000   0.98801585   -2.1675272   -2.1675272   -1.1419475  0.051731638   -2.1675272    1.0255797  1815307 
  324000   0.98687686   -2.1670044   -2.1670044   -1.1426071  0.053805688   -2.1670044    1.0243974  1815307 
  325000    0.9872489   -2.1674878   -2.1674878   -1.1427043  0.056223474   -2.1674878    1.0247836  1815307 
  326000     0.988985   -2.1692416   -2.1692416   -1.1426559   0.05309576   -2.1692416    1.0265857  1815307 
  327000    0.9871723   -2.1676469   -2.1676469   -1.1429428  0.053072714   -2.1676469    1.0247041  1815307 
  328000   0.98747179   -2.1682219   -2.1682219    -1.143207  0.054639957   -2.1682219    1.0250149  1815307 
  329000   0.98769706   -2.1675515   -2.1675515   -1.1423027  0.051239179   -2.1675515    1.0252488  1815307 
  330000   0.98770977   -2.1677992   -2.1677992   -1.1425373  0.056161134   -2.1677992     1.025262  1815307 
  331000   0.98769099   -2.1679021   -2.1679021   -1.1426596  0.054893682   -2.1679021    1.0252425  1815307 
  332000   0.98757961   -2.1676357   -2.1676357   -1.1425089  0.057519375   -2.1676357    1.0251269  1815307 
  333000   0.98805889   -2.1685843   -2.1685843   -1.1429599  0.056489867   -2.1685843    1.0256244  1815307 
  334000   0.98805888   -2.1688216   -2.1688216   -1.1431972    0.0540765   -2.1688216    1.0256244  1815307 
  335000   0.98656905   -2.1669506   -2.1669506   -1.1428727  0.054349651   -2.1669506    1.0240779  1815307 
  336000   0.98779075   -2.1680573   -2.1680573   -1.1427112  0.052275105   -2.1680573     1.025346  1815307 
  337000    0.9874485   -2.1680785   -2.1680785   -1.1430877  0.056923118   -2.1680785    1.0249908  1815307 
  338000    0.9883579   -2.1691359   -2.1691359   -1.1432012  0.057360918   -2.1691359    1.0259347  1815307 
  339000   0.98745943   -2.1683283   -2.1683283   -1.1433262  0.053046056   -2.1683283    1.0250021  1815307 
  340000   0.98890433   -2.1695512   -2.1695512   -1.1430492  0.054913467   -2.1695512    1.0265019  1815307 
  341000   0.98835432   -2.1690313   -2.1690313   -1.1431003  0.054131596   -2.1690313     1.025931  1815307 
  342000   0.98728449   -2.1676509   -2.1676509   -1.1428304  0.053098503   -2.1676509    1.0248205  1815307 
  343000   0.98751364   -2.1676497   -2.1676497   -1.1425913  0.055740405   -2.1676497    1.0250584  1815307 
  344000   0.98840887   -2.1682907   -2.1682907   -1.1423031  0.051167922   -2.1682907    1.0259876  1815307 
  345000   0.98833178   -2.1680949   -2.1680949   -1.1421873  0.056446028   -2.1680949    1.0259076  1815307 
  346000   0.98869191    -2.167991    -2.167991   -1.1417096  0.053290145    -2.167991    1.0262814  1815307 
  347000   0.98821335   -2.1676871   -2.1676871   -1.1419024  0.053010661   -2.1676871    1.0257847  1815307 
  348000    0.9868041   -2.1665551   -2.1665551   -1.1422332  0.057103688   -2.1665551    1.0243219  1815307 
  349000   0.98697624   -2.1665555   -2.1665555    -1.142055  0.052868462   -2.1665555    1.0245005  1815307 
  350000   0.98638434   -2.1658953   -2.1658953   -1.1420092  0.054593486   -2.1658953    1.0238861  1815307 
  351000   0.98619286   -2.1659092   -2.1659092   -1.1422218   0.05269606   -2.1659092    1.0236874  1815307 
  352000    0.9880371   -2.1677559   -2.1677559   -1.1421542  0.054060521   -2.1677559    1.0256017  1815307 
  353000   0.98779628   -2.1676484   -2.1676484   -1.1422966  0.055552789   -2.1676484    1.0253518  1815307 
  354000   0.98756529   -2.1675655   -2.1675655   -1.1424535   0.05874463   -2.1675655     1.025112  1815307 
  355000   0.98774917   -2.1674442   -2.1674442   -1.1421413  0.054535026   -2.1674442    1.0253029  1815307 
  356000   0.98707719   -2.1673469   -2.1673469   -1.1427416  0.052650957   -2.1673469    1.0246053  1815307 
  357000   0.98707193   -2.1676525   -2.1676525   -1.1430526  0.057024807   -2.1676525    1.0245999  1815307 
  358000     0.987239   -2.1678805   -2.1678805   -1.1431072  0.052685695   -2.1678805    1.0247733  1815307 
  359000   0.98748718   -2.1680579   -2.1680579    -1.143027  0.053729828   -2.1680579    1.0250309  1815307 
  360000   0.98681879   -2.1671177   -2.1671177   -1.1427806  0.051494556   -2.1671177    1.0243371  1815307 
  361000   0.98750726   -2.1677596   -2.1677596   -1.1427079  0.052181212   -2.1677596    1.0250518  1815307 
  362000   0.98823451   -2.1683657   -2.1683657    -1.142559  0.057295012   -2.1683657    1.0258067  1815307 
  363000   0.98940888   -2.1695962   -2.1695962   -1.1425705   0.05698325   -2.1695962    1.0270257  1815307 
  364000   0.98897429   -2.1690908   -2.1690908   -1.1425163  0.058032611   -2.1690908    1.0265746  1815307 
  365000   0.98806687   -2.1685064   -2.1685064   -1.1428738   0.05749375   -2.1685064    1.0256326  1815307 
  366000   0.98827255   -2.1685066   -2.1685066   -1.1426605  0.058490503   -2.1685066    1.0258461  1815307 
  367000   0.98853014   -2.1685783   -2.1685783   -1.1424647  0.056764524   -2.1685783    1.0261135  1815307 
  368000   0.98800406   -2.1678914   -2.1678914   -1.1423239  0.057860794   -2.1678914    1.0255674  1815307 
  369000   0.98798632   -2.1679621   -2.1679621   -1.1424131  0.059020506   -2.1679621     1.025549  1815307 
  370000   0.98814656   -2.1680805   -2.1680805   -1.1423651  0.052888562   -2.1680805    1.0257154  1815307 
  371000   0.98834318   -2.1677331   -2.1677331   -1.1418137  0.055819024   -2.1677331    1.0259195  1815307 
  372000   0.98804809   -2.1674061   -2.1674061    -1.141793  0.054973299   -2.1674061    1.0256132  1815307 
  373000    0.9880926   -2.1674762   -2.1674762   -1.1418169  0.056496085   -2.1674762    1.0256594  1815307 
  374000   0.98838982   -2.1678651   -2.1678651   -1.1418973  0.051170787   -2.1678651    1.0259679  1815307 
  375000    0.9882325   -2.1679922   -2.1679922   -1.1421876  0.053861177   -2.1679922    1.0258046  1815307 
  376000   0.98847388   -2.1675066   -2.1675066   -1.1414515  0.057054315   -2.1675066    1.0260551  1815307 
  377000   0.98761983    -2.166655    -2.166655   -1.1414864  0.054406854    -2.166655    1.0251686  1815307 
  378000   0.98783659   -2.1667765   -2.1667765   -1.1413829  0.054362325   -2.1667765    1.0253936  1815307 
  379000   0.98674558    -2.166228    -2.166228   -1.1419669  0.053864032    -2.166228    1.0242611  1815307 
  380000   0.98657381   -2.1664667   -2.1664667   -1.1423839  0.051863664   -2.1664667    1.0240828  1815307 
  381000   0.98776502   -2.1678517   -2.1678517   -1.1425324  0.055799377   -2.1678517    1.0253193  1815307 
  382000   0.98837245    -2.168375    -2.168375   -1.1424252  0.057933381    -2.168375    1.0259498  1815307 
  383000   0.98882886   -2.1685275   -2.1685275   -1.1421039  0.057243517   -2.1685275    1.0264236  1815307 
  384000   0.98804845   -2.1681939   -2.1681939   -1.1425803  0.053251075   -2.1681939    1.0256135  1815307 
  385000   0.98785205   -2.1680351   -2.1680351   -1.1426255  0.056198039   -2.1680351    1.0254097  1815307 
  386000   0.98812599   -2.1681902   -2.1681902   -1.1424962  0.053123141   -2.1681902     1.025694  1815307 
  387000   0.98834533   -2.1681438   -2.1681438   -1.1422221  0.056823447   -2.1681438    1.0259217  1815307 
  388000   0.98887762     -2.16895     -2.16895   -1.1424758  0.056491351     -2.16895    1.0264742  1815307 
  389000   0.98868913   -2.1681803   -2.1681803   -1.1419017  0.056221233   -2.1681803    1.0262786  1815307 
  390000   0.98747233   -2.1670304   -2.1670304   -1.1420149  0.056277063   -2.1670304    1.0250155  1815307 
  391000   0.98930143   -2.1685614   -2.1685614   -1.1416473  0.057459239   -2.1685614    1.0269141  1815307 
  392000   0.98865083   -2.1681254   -2.1681254   -1.1418866  0.054466621   -2.1681254    1.0262388  1815307 
  393000   0.98777124   -2.1669985   -2.1669985   -1.1416727  0.055022724   -2.1669985    1.0253258  1815307 
  394000   0.98820893   -2.1674558   -2.1674558   -1.1416757  0.054801969   -2.1674558    1.0257801  1815307 
  395000   0.98769293    -2.167154    -2.167154   -1.1419095  0.051220777    -2.167154    1.0252445  1815307 
  396000   0.98739147   -2.1669534   -2.1669534   -1.1420218  0.053339552   -2.1669534    1.0249316  1815307 
  397000   0.98827053   -2.1677188   -2.1677188   -1.1418747   0.05678264   -2.1677188     1.025844  1815307 
  398000    0.9879412   -2.1672989   -2.1672989   -1.1417967  0.055936774   -2.1672989    1.0255022  1815307 
  399000   0.98795232   -2.1670136   -2.1670136   -1.1414998  0.054508429   -2.1670136    1.0255137  1815307 
  400000   0.98753198   -2.1668937   -2.1668937   -1.1418163  0.052043304   -2.1668937    1.0250774  1815307 
  401000   0.98886172    -2.168044    -2.168044   -1.1415863  0.055575653    -2.168044    1.0264577  1815307 
  402000   0.98825047   -2.1673298   -2.1673298   -1.1415065  0.056978177   -2.1673298    1.0258232  1815307 
  403000   0.98778769   -2.1664219   -2.1664219    -1.141079  0.058774128   -2.1664219    1.0253428  1815307 
  404000   0.98746442   -2.1665158   -2.1665158   -1.1415085  0.056230956   -2.1665158    1.0250073  1815307 
  405000   0.98701922   -2.1662518   -2.1662518   -1.1417066   0.05547857   -2.1662518    1.0245452  1815307 
  406000   0.98707082    -2.166379    -2.166379   -1.1417803     0.049575    -2.166379    1.0245987  1815307 
  407000   0.98704636   -2.1665924   -2.1665924    -1.142019  0.053101179   -2.1665924    1.0245733  1815307 
  408000   0.98823959   -2.1677912   -2.1677912   -1.1419792  0.056281902   -2.1677912    1.0258119  1815307 
  409000   0.98847884   -2.1679232   -2.1679232   -1.1418629   0.05563541   -2.1679232    1.0260603  1815307 
  410000   0.98819208   -2.1679757   -2.1679757   -1.1422131  0.055647906   -2.1679757    1.0257626  1815307 
  411000   0.98786356   -2.1673756   -2.1673756    -1.141954  0.055148813   -2.1673756    1.0254216  1815307 
  412000   0.98742032   -2.1668408   -2.1668408   -1.1418793   0.05421971   -2.1668408    1.0249615  1815307 
  413000   0.98719398   -2.1665224   -2.1665224   -1.1417958  0.057507613   -2.1665224    1.0247266  1815307 
  414000   0.98779291   -2.1672396   -2.1672396   -1.1418913  0.058523829   -2.1672396    1.0253483  1815307 
  415000   0.98877976   -2.1682278   -2.1682278   -1.1418552  0.056055679   -2.1682278    1.0263726  1815307 
  416000   0.98845151   -2.1680488   -2.1680488   -1.1420169  0.056067169   -2.1680488    1.0260319  1815307 
  417000    0.9878768   -2.1673798   -2.1673798   -1.1419445  0.053600794   -2.1673798    1.0254353  1815307 
  418000   0.98745556   -2.1674552   -2.1674552   -1.1424571  0.057755532   -2.1674552    1.0249981  1815307 
  419000   0.98717417   -2.1669587   -2.1669587   -1.1422527  0.054678839   -2.1669587     1.024706  1815307 
  420000   0.98680637   -2.1665121   -2.1665121   -1.1421878  0.055414773   -2.1665121    1.0243242  1815307 
  421000   0.98788491   -2.1674822   -2.1674822   -1.1420384  0.052884274   -2.1674822    1.0254438  1815307 
  422000   0.98891962   -2.1680614   -2.1680614   -1.1415436  0.051946697   -2.1680614    1.0265178  1815307 
  423000   0.98752326   -2.1663482   -2.1663482   -1.1412799  0.056373816   -2.1663482    1.0250684  1815307 
  424000   0.98801671   -2.1670618   -2.1670618   -1.1414813  0.056303765   -2.1670618    1.0255806  1815307 
  425000    0.9881787   -2.1673117   -2.1673117    -1.141563  0.055717892   -2.1673117    1.0257487  1815307 
  426000   0.98852475   -2.1671976   -2.1671976   -1.1410897  0.057821003   -2.1671976    1.0261079  1815307 
  427000   0.98820729   -2.1670003   -2.1670003   -1.1412218  0.052310007   -2.1670003    1.0257784  1815307 
  428000   0.98842042    -2.166655    -2.166655   -1.1406553  0.056246378    -2.166655    1.0259996  1815307 
  429000   0.98830103   -2.1670132   -2.1670132   -1.1411375  0.058510475   -2.1670132    1.0258757  1815307 
  430000   0.98757732   -2.1665639   -2.1665639   -1.1414394  0.053111172   -2.1665639    1.0251245  1815307 
  431000   0.98774949   -2.1670569   -2.1670569   -1.1417537  0.054570854   -2.1670569    1.0253032  1815307 
  432000   0.98778653   -2.1672172   -2.1672172   -1.1418755  0.055241395   -2.1672172    1.0253416  1815307 
  433000   0.98790527     -2.16715     -2.16715   -1.1416851  0.054825227     -2.16715    1.0254649  1815307 
  434000   0.98848416    -2.167785    -2.167785   -1.1417192  0.056419315    -2.167785    1.0260658  1815307 
  435000   0.98971774   -2.1684345   -2.1684345   -1.1410882  0.055490073   -2.1684345    1.0273463  1815307 
  436000   0.98849779   -2.1675045   -2.1675045   -1.1414246  0.057475486   -2.1675045      1.02608  1815307 
  437000   0.98943069   -2.1684699   -2.1684699   -1.1414216  0.057453124   -2.1684699    1.0270483  1815307 
  438000   0.98766928   -2.1670473   -2.1670473   -1.1418273  0.058793356   -2.1670473    1.0252199  1815307 
  439000    0.9887722   -2.1677203   -2.1677203   -1.1413555  0.055181289   -2.1677203    1.0263648  1815307 
  440000   0.98860391    -2.167784    -2.167784   -1.1415939  0.056653053    -2.167784    1.0261901  1815307 
  441000   0.98901541   -2.1677249   -2.1677249   -1.1411076  0.055813057   -2.1677249    1.0266173  1815307 
  442000    0.9880836   -2.1667666   -2.1667666   -1.1411166  0.054855831   -2.1667666      1.02565  1815307 
  443000   0.98875724   -2.1677422   -2.1677422    -1.141393  0.054205004   -2.1677422    1.0263493  1815307 
  444000   0.98854848   -2.1676447   -2.1676447   -1.1415122  0.056037056   -2.1676447    1.0261326  1815307 
  445000   0.98883617   -2.1673729   -2.1673729   -1.1409417  0.055602905   -2.1673729    1.0264312  1815307 
  446000   0.98759572    -2.166441    -2.166441   -1.1412975  0.055209606    -2.166441    1.0251436  1815307 
  447000   0.98750225   -2.1668531   -2.1668531   -1.1418065  0.054300492   -2.1668531    1.0250466  1815307 
  448000   0.98759537   -2.1668611   -2.1668611   -1.1417179  0.055088862   -2.1668611    1.0251432  1815307 
  449000   0.98776521   -2.1668214   -2.1668214   -1.1415019  0.056618732   -2.1668214    1.0253195  1815307 
  450000   0.98787147   -2.1670916   -2.1670916   -1.1416618  0.056156908   -2.1670916    1.0254298  1815307 
  451000   0.98796119   -2.1676146   -2.1676146   -1.1420917  0.055595031   -2.1676146    1.0255229  1815307 
  452000   0.98813097   -2.1675126   -2.1675126   -1.1418134  0.056354444   -2.1675126    1.0256992  1815307 
  453000   0.98833621   -2.1675789   -2.1675789   -1.1416666  0.055447656   -2.1675789    1.0259122  1815307 
  454000   0.98815245   -2.1676989   -2.1676989   -1.1419774  0.053415034   -2.1676989    1.0257215  1815307 
  455000     0.988209   -2.1673722   -2.1673722   -1.1415921  0.054936342   -2.1673722    1.0257802  1815307 
  456000   0.98886248   -2.1680746   -2.1680746   -1.1416161  0.056262067   -2.1680746    1.0264585  1815307 
  457000    0.9875259   -2.1671272   -2.1671272    -1.142056  0.055172469   -2.1671272    1.0250711  1815307 
  458000   0.98660641    -2.166196    -2.166196   -1.1420793  0.053934881    -2.166196    1.0241167  1815307 
  459000   0.98712767   -2.1669071   -2.1669071   -1.1422494  0.052180359   -2.1669071    1.0246577  1815307 
  460000   0.98709586   -2.1671692   -2.1671692   -1.1425444  0.051553122   -2.1671692    1.0246247  1815307 
  461000   0.98766701   -2.1676441   -2.1676441   -1.1424265  0.054501736   -2.1676441    1.0252176  1815307 
  462000   0.98888932   -2.1686286   -2.1686286   -1.1421423  0.054781432   -2.1686286    1.0264864  1815307 
  463000   0.98869839   -2.1686548   -2.1686548   -1.1423666  0.051808554   -2.1686548    1.0262882  1815307 
  464000    0.9878736   -2.1672695   -2.1672695   -1.1418375  0.057014836   -2.1672695     1.025432  1815307 
  465000   0.98851089   -2.1679224   -2.1679224   -1.1418288  0.054984644   -2.1679224    1.0260935  1815307 
  466000   0.98783775    -2.167322    -2.167322   -1.1419272   0.05769857    -2.167322    1.0253948  1815307 
  467000    0.9887465   -2.1685795   -2.1685795   -1.1422414  0.054023029   -2.1685795    1.0263381  1815307 
  468000    0.9881773   -2.1679851   -2.1679851   -1.1422378  0.053246505   -2.1679851    1.0257473  1815307 
  469000   0.98807296   -2.1675979   -2.1675979    -1.141959  0.052497534   -2.1675979     1.025639  1815307 
  470000   0.98824778   -2.1673317   -2.1673317   -1.1415112   0.05526071   -2.1673317    1.0258204  1815307 
  471000   0.98850145    -2.167789    -2.167789   -1.1417052  0.054921953    -2.167789    1.0260837  1815307 
  472000   0.98789954   -2.1673567   -2.1673567   -1.1418977  0.055721108   -2.1673567     1.025459  1815307 
  473000    0.9884523   -2.1679399   -2.1679399   -1.1419071  0.054352567   -2.1679399    1.0260327  1815307 
  474000   0.98790721   -2.1672576   -2.1672576   -1.1417906   0.05202997   -2.1672576    1.0254669  1815307 
  475000    0.9889357   -2.1682114   -2.1682114   -1.1416769  0.050928906   -2.1682114    1.0265345  1815307 
  476000     0.988131    -2.167303    -2.167303   -1.1416038  0.057452627    -2.167303    1.0256992  1815307 
  477000   0.98898329   -2.1682702   -2.1682702   -1.1416863  0.055073141   -2.1682702    1.0265839  1815307 
  478000   0.98854612   -2.1683961   -2.1683961    -1.142266  0.057452714   -2.1683961    1.0261301  1815307 
  479000   0.98849296   -2.1680722   -2.1680722   -1.1419973  0.055817694   -2.1680722    1.0260749  1815307 
  480000   0.98863355   -2.1683304   -2.1683304   -1.1421096  0.056647062   -2.1683304    1.0262209  1815307 
  481000   0.98829752   -2.1677637   -2.1677637   -1.1418917  0.055963305   -2.1677637    1.0258721  1815307 
  482000   0.98832677   -2.1679126   -2.1679126   -1.1420101  0.056485138   -2.1679126    1.0259024  1815307 
  483000    0.9890976   -2.1690335   -2.1690335   -1.1423309  0.054768295   -2.1690335    1.0267026  1815307 
  484000   0.98909856    -2.168749    -2.168749   -1.1420454  0.055934114    -2.168749    1.0267036  1815307 
  485000   0.98947373   -2.1690377   -2.1690377   -1.1419447  0.053574949   -2.1690377     1.027093  1815307 
  486000   0.98905584   -2.1684983   -2.1684983   -1.1418391  0.053059238   -2.1684983    1.0266592  1815307 
  487000     0.988857   -2.1687644   -2.1687644   -1.1423116  0.056506306   -2.1687644    1.0264528  1815307 
  488000   0.98962214   -2.1691694   -2.1691694   -1.1419224  0.060692748   -2.1691694     1.027247  1815307 
  489000   0.98961639   -2.1695271   -2.1695271    -1.142286   0.05534165   -2.1695271    1.0272411  1815307 
  490000   0.98867877   -2.1689604   -2.1689604   -1.1426926  0.055734762   -2.1689604    1.0262678  1815307 
  491000   0.98863939   -2.1691324   -2.1691324   -1.1429055  0.059127092   -2.1691324    1.0262269  1815307 
  492000   0.98955743   -2.1697929   -2.1697929    -1.142613  0.052325238   -2.1697929    1.0271799  1815307 
  493000   0.98937084   -2.1696015   -2.1696015   -1.1426153  0.054397741   -2.1696015    1.0269862  1815307 
  494000   0.98863782   -2.1688266   -2.1688266   -1.1426013  0.056637148   -2.1688266    1.0262253  1815307 
  495000    0.9886985   -2.1685142   -2.1685142   -1.1422259  0.060936962   -2.1685142    1.0262883  1815307 
  496000    0.9886761   -2.1686176   -2.1686176   -1.1423526  0.055023398   -2.1686176     1.026265  1815307 
  497000   0.98871135   -2.1689993   -2.1689993   -1.1426976   0.05667771   -2.1689993    1.0263016  1815307 
  498000   0.98819989     -2.16836     -2.16836   -1.1425893  0.054406732     -2.16836    1.0257707  1815307 
  499000   0.98872803   -2.1687662   -2.1687662   -1.1424473  0.058428902   -2.1687662    1.0263189  1815307 
  500000   0.98832202   -2.1681944   -2.1681944   -1.1422969  0.056816141   -2.1681944    1.0258975  1815307 
  501000   0.98875579   -2.1686775   -2.1686775   -1.1423297  0.055248059   -2.1686775    1.0263478  1815307 
  502000   0.98823167   -2.1682444   -2.1682444   -1.1424407  0.054574761   -2.1682444    1.0258037  1815307 
  503000   0.98816857   -2.1683339   -2.1683339   -1.1425957  0.054993628   -2.1683339    1.0257382  1815307 
  504000   0.98777115   -2.1677719   -2.1677719   -1.1424463   0.05753577   -2.1677719    1.0253257  1815307 
  505000   0.98873223   -2.1685226   -2.1685226   -1.1421993  0.056915373   -2.1685226    1.0263233  1815307 
  506000   0.98889575   -2.1685838   -2.1685838   -1.1420907  0.058735434   -2.1685838     1.026493  1815307 
  507000   0.98825122   -2.1677604   -2.1677604   -1.1419364  0.054627093   -2.1677604     1.025824  1815307 
  508000   0.98778819   -2.1671513   -2.1671513   -1.1418079  0.056446222   -2.1671513    1.0253434  1815307 
  509000    0.9879988   -2.1676882   -2.1676882   -1.1421262   0.05727292   -2.1676882     1.025562  1815307 
  510000   0.98800864   -2.1673599   -2.1673599   -1.1417877  0.053808274   -2.1673599    1.0255722  1815307 
  511000   0.98833175   -2.1678212   -2.1678212   -1.1419136  0.054729009   -2.1678212    1.0259076  1815307 
  512000   0.98896815   -2.1686513   -2.1686513   -1.1420831  0.053962922   -2.1686513    1.0265682  1815307 
  513000   0.98932247   -2.1688666   -2.1688666   -1.1419306  0.052641108   -2.1688666     1.026936  1815307 
  514000   0.98883046   -2.1685129   -2.1685129   -1.1420876  0.054512397   -2.1685129    1.0264253  1815307 
  515000    0.9893537   -2.1688782   -2.1688782   -1.1419098   0.05103612   -2.1688782    1.0269684  1815307 
  516000   0.98852933   -2.1685368   -2.1685368   -1.1424241  0.054608812   -2.1685368    1.0261127  1815307 
  517000   0.98900968   -2.1687018   -2.1687018   -1.1420905  0.056300325   -2.1687018    1.0266113  1815307 
  518000   0.98894655   -2.1688985   -2.1688985   -1.1423528  0.054668822   -2.1688985    1.0265458  1815307 
  519000   0.98889777   -2.1688141   -2.1688141    -1.142319  0.055971221   -2.1688141    1.0264951  1815307 
  520000   0.98853015   -2.1680816   -2.1680816    -1.141968  0.055740401   -2.1680816    1.0261135  1815307 
  521000   0.98881974    -2.167939    -2.167939   -1.1415249  0.055107722    -2.167939    1.0264141  1815307 
  522000   0.98855717   -2.1681133   -2.1681133   -1.1419717  0.056710211   -2.1681133    1.0261416  1815307 
  523000    0.9889216   -2.1687524   -2.1687524   -1.1422326  0.054432603   -2.1687524    1.0265199  1815307 
  524000   0.98959487    -2.169627    -2.169627   -1.1424082  0.052161852    -2.169627    1.0272187  1815307 
  525000   0.99042902   -2.1703676   -2.1703676    -1.142283  0.055680249   -2.1703676    1.0280846  1815307 
  526000   0.99037255   -2.1703145   -2.1703145   -1.1422885  0.055265067   -2.1703145     1.028026  1815307 
  527000   0.98855628   -2.1683011   -2.1683011   -1.1421605  0.058541949   -2.1683011    1.0261407  1815307 
  528000   0.98881619   -2.1688484   -2.1688484   -1.1424379  0.053353993   -2.1688484    1.0264105  1815307 
  529000   0.98885174   -2.1687901   -2.1687901   -1.1423428  0.056494459   -2.1687901    1.0264474  1815307 
  530000   0.98902173   -2.1688999   -2.1688999   -1.1422761  0.053640791   -2.1688999    1.0266238  1815307 
  531000   0.98959228   -2.1692346   -2.1692346   -1.1420185  0.051392126   -2.1692346     1.027216  1815307 
  532000   0.98947716   -2.1690381   -2.1690381   -1.1419415  0.057879337   -2.1690381    1.0270966  1815307 
  533000   0.98813968   -2.1677549   -2.1677549   -1.1420467  0.056387012   -2.1677549    1.0257082  1815307 
  534000   0.98891401   -2.1686856   -2.1686856   -1.1421736  0.058326899   -2.1686856     1.026512  1815307 
  535000   0.98792544   -2.1675682   -2.1675682   -1.1420824    0.0566022   -2.1675682    1.0254858  1815307 
  536000   0.98938466   -2.1691049   -2.1691049   -1.1421044  0.056252037   -2.1691049    1.0270005  1815307 
  537000   0.98908739   -2.1688872   -2.1688872   -1.1421953  0.056568723   -2.1688872     1.026692  1815307 
  538000   0.98932374   -2.1693027   -2.1693027   -1.1423655  0.055416373   -2.1693027    1.0269373  1815307 
  539000   0.98938595   -2.1693341   -2.1693341   -1.1423323   0.05433553   -2.1693341    1.0270019  1815307 
  540000   0.98938298   -2.1691516   -2.1691516   -1.1421528  0.056178329   -2.1691516    1.0269988  1815307 
  541000   0.98933214   -2.1691137   -2.1691137   -1.1421677  0.056137295   -2.1691137     1.026946  1815307 
  542000   0.98872348   -2.1682711   -2.1682711   -1.1419569  0.054877932   -2.1682711    1.0263142  1815307 
  543000   0.98937009   -2.1681806   -2.1681806   -1.1411952  0.058938424   -2.1681806    1.0269854  1815307 
  544000    0.9892346   -2.1686891   -2.1686891   -1.1418443  0.057991871   -2.1686891    1.0268448  1815307 
  545000   0.98971991    -2.168747    -2.168747   -1.1413985  0.054881041    -2.168747    1.0273485  1815307 
  546000   0.98857491   -2.1678165   -2.1678165   -1.1416565   0.05436809   -2.1678165      1.02616  1815307 
  547000    0.9896021     -2.16884     -2.16884   -1.1416137   0.05288556     -2.16884    1.0272262  1815307 
  548000    0.9892786   -2.1683931   -2.1683931   -1.1415026  0.053616755   -2.1683931    1.0268904  1815307 
  549000   0.98872218   -2.1675918   -2.1675918   -1.1412789  0.052900018   -2.1675918    1.0263129  1815307 
  550000   0.98814869   -2.1670267   -2.1670267   -1.1413091  0.053450155   -2.1670267    1.0257176  1815307 
  551000    0.9881321   -2.1673167   -2.1673167   -1.1416163  0.054778666   -2.1673167    1.0257004  1815307 
  552000   0.98906089   -2.1678764   -2.1678764   -1.1412119  0.057005891   -2.1678764    1.0266645  1815307 
  553000   0.98929906   -2.1678739   -2.1678739   -1.1409622  0.057556956   -2.1678739    1.0269117  1815307 
  554000    0.9901434   -2.1684704   -2.1684704   -1.1406823  0.057043943   -2.1684704    1.0277881  1815307 
  555000   0.98999879   -2.1682951   -2.1682951   -1.1406571  0.055432503   -2.1682951     1.027638  1815307 
  556000   0.98849365   -2.1667439   -2.1667439   -1.1406683  0.058474161   -2.1667439    1.0260757  1815307 
  557000     0.988949   -2.1674238   -2.1674238   -1.1408754  0.055081023   -2.1674238    1.0265483  1815307 
  558000   0.98910853   -2.1676531   -2.1676531   -1.1409392  0.052321097   -2.1676531    1.0267139  1815307 
  559000   0.98861602   -2.1671279   -2.1671279   -1.1409252  0.051104837   -2.1671279    1.0262027  1815307 
  560000   0.99012447   -2.1685073   -2.1685073   -1.1407389  0.052872548   -2.1685073    1.0277685  1815307 
  561000   0.98996087   -2.1680967   -2.1680967    -1.140498  0.053474369   -2.1680967    1.0275987  1815307 
  562000   0.98867156   -2.1667627   -2.1667627   -1.1405024  0.055605278   -2.1667627    1.0262603  1815307 
  563000   0.98883563   -2.1669618   -2.1669618   -1.1405312  0.054758055   -2.1669618    1.0264306  1815307 
  564000   0.99033139   -2.1678134   -2.1678134   -1.1398301  0.054487909   -2.1678134    1.0279833  1815307 
  565000   0.99019132   -2.1677521   -2.1677521   -1.1399142  0.056304849   -2.1677521    1.0278379  1815307 
  566000   0.98971822   -2.1677794   -2.1677794   -1.1404327  0.056661045   -2.1677794    1.0273468  1815307 
  567000    0.9898546    -2.167726    -2.167726   -1.1402377  0.054475428    -2.167726    1.0274883  1815307 
  568000   0.99018063    -2.168432    -2.168432   -1.1406053  0.056854586    -2.168432    1.0278268  1815307 
  569000   0.98940852   -2.1682659   -2.1682659   -1.1412406  0.053757618   -2.1682659    1.0270253  1815307 
  570000   0.98887959   -2.1678613   -2.1678613    -1.141385  0.053172038   -2.1678613    1.0264763  1815307 
  571000    0.9884795   -2.1674672   -2.1674672   -1.1414062  0.054984038   -2.1674672     1.026061  1815307 
  572000   0.98920433   -2.1683477   -2.1683477   -1.1415344  0.053649325   -2.1683477    1.0268133  1815307 
  573000   0.99041443   -2.1691565   -2.1691565    -1.141087    0.0548511   -2.1691565    1.0280695  1815307 
  574000    0.9907151   -2.1695356   -2.1695356    -1.141154   0.05671442   -2.1695356    1.0283816  1815307 
  575000   0.99030457   -2.1696187   -2.1696187   -1.1416633  0.056862644   -2.1696187    1.0279554  1815307 
  576000   0.98995175   -2.1695149   -2.1695149   -1.1419257  0.053962047   -2.1695149    1.0275892  1815307 
  577000   0.99058094   -2.1706868   -2.1706868   -1.1424445  0.051957768   -2.1706868    1.0282423  1815307 
  578000    0.9890173   -2.1688496   -2.1688496   -1.1422304  0.055993727   -2.1688496    1.0266192  1815307 
  579000   0.98998371   -2.1698029   -2.1698029   -1.1421806   0.05795739   -2.1698029    1.0276224  1815307 
  580000   0.99031876   -2.1699088   -2.1699088   -1.1419387  0.056760747   -2.1699088    1.0279701  1815307 
  581000   0.99025516   -2.1699791   -2.1699791    -1.142075   0.05655961   -2.1699791    1.0279041  1815307 
  582000   0.99074391   -2.1701258   -2.1701258   -1.1417143  0.056436004   -2.1701258    1.0284115  1815307 
  583000   0.99002038   -2.1693429   -2.1693429   -1.1416825  0.056094658   -2.1693429    1.0276604  1815307 
  584000   0.99030622   -2.1701168   -2.1701168   -1.1421596  0.053359097   -2.1701168    1.0279571  1815307 
  585000   0.99019028   -2.1697095   -2.1697095   -1.1418727  0.054841265   -2.1697095    1.0278368  1815307 
  586000   0.99099837   -2.1705195   -2.1705195   -1.1418439   0.05735357   -2.1705195    1.0286756  1815307 
  587000   0.99043956   -2.1697274   -2.1697274   -1.1416318  0.056169865   -2.1697274    1.0280955  1815307 
  588000   0.98900833   -2.1681971   -2.1681971   -1.1415872  0.055915527   -2.1681971    1.0266099  1815307 
  589000   0.98930857   -2.1676476   -2.1676476    -1.140726  0.056514104   -2.1676476    1.0269216  1815307 
  590000   0.98781873   -2.1669637   -2.1669637   -1.1415887  0.056640913   -2.1669637    1.0253751  1815307 
  591000   0.98889876   -2.1676991   -2.1676991   -1.1412029  0.054436371   -2.1676991    1.0264962  1815307 
  592000   0.98904914    -2.167346    -2.167346   -1.1406937  0.056987714    -2.167346    1.0266523  1815307 
  593000   0.98894771   -2.1672094   -2.1672094   -1.1406624  0.056625077   -2.1672094     1.026547  1815307 
  594000   0.98944862   -2.1680678   -2.1680678   -1.1410009  0.050581846   -2.1680678    1.0270669  1815307 
  595000   0.99026452   -2.1685162   -2.1685162   -1.1406023  0.050662893   -2.1685162    1.0279138  1815307 
  596000   0.98934963   -2.1679382   -2.1679382   -1.1409741  0.056365656   -2.1679382    1.0269642  1815307 
  597000   0.99065005   -2.1694112   -2.1694112   -1.1410971  0.054320059   -2.1694112     1.028314  1815307 
  598000   0.99069342   -2.1696405   -2.1696405   -1.1412815  0.053028415   -2.1696405    1.0283591  1815307 
  599000   0.99160716   -2.1705065   -2.1705065   -1.1411989  0.057054246   -2.1705065    1.0293075  1815307 
  600000   0.99186047   -2.1708325   -2.1708325    -1.141262  0.063025718   -2.1708325    1.0295705  1815307 
  601000   0.99121451   -2.1700763   -2.1700763   -1.1411764  0.057753953   -2.1700763       1.0289  1815307 
  602000   0.99017735   -2.1689959   -2.1689959   -1.1411725  0.057268077   -2.1689959    1.0278234  1815307 
  603000   0.99077232   -2.1695035   -2.1695035   -1.1410625  0.056787241   -2.1695035    1.0284409  1815307 
  604000   0.99052235   -2.1689175   -2.1689175    -1.140736  0.057564962   -2.1689175    1.0281815  1815307 
  605000   0.99051412   -2.1689662   -2.1689662   -1.1407932  0.053748991   -2.1689662    1.0281729  1815307 
  606000   0.98915584   -2.1680384   -2.1680384   -1.1412753  0.052968812   -2.1680384     1.026763  1815307 
  607000   0.98988922   -2.1690745   -2.1690745   -1.1415502   0.05447152   -2.1690745    1.0275243  1815307 
  608000   0.99056258   -2.1696214   -2.1696214   -1.1413981  0.058804215   -2.1696214    1.0282232  1815307 
  609000   0.99024793   -2.1693708   -2.1693708   -1.1414742  0.054916419   -2.1693708    1.0278966  1815307 
  610000   0.99036826   -2.1696612   -2.1696612   -1.1416396   0.05437126   -2.1696612    1.0280215  1815307 
  611000   0.99116452   -2.1698367   -2.1698367   -1.1409886  0.060077419   -2.1698367    1.0288481  1815307 
  612000   0.99097275   -2.1694127   -2.1694127   -1.1407637  0.056371223   -2.1694127     1.028649  1815307 
  613000   0.99210998    -2.170487    -2.170487   -1.1406575  0.058356327    -2.170487    1.0298295  1815307 
  614000   0.99128301   -2.1694028   -2.1694028   -1.1404318  0.059621017   -2.1694028    1.0289711  1815307 
  615000   0.99197157   -2.1701521   -2.1701521   -1.1404663  0.058674528   -2.1701521    1.0296858  1815307 
  616000   0.99005998   -2.1684672   -2.1684672   -1.1407657  0.059550385   -2.1684672    1.0277015  1815307 
  617000   0.99036132   -2.1688671   -2.1688671   -1.1408528   0.05476359   -2.1688671    1.0280143  1815307 
  618000   0.98974579   -2.1687623   -2.1687623   -1.1413869  0.055382706   -2.1687623    1.0273754  1815307 
  619000    0.9898192   -2.1689553   -2.1689553   -1.1415037  0.056347951   -2.1689553    1.0274516  1815307 
  620000   0.98943841   -2.1683928   -2.1683928   -1.1413365  0.054995964   -2.1683928    1.0270563  1815307 
  621000   0.99018889   -2.1695828   -2.1695828   -1.1417474  0.055794191   -2.1695828    1.0278353  1815307 
  622000   0.99015836   -2.1694957   -2.1694957   -1.1416921  0.055407769   -2.1694957    1.0278036  1815307 
  623000   0.98962196   -2.1689015   -2.1689015   -1.1416546  0.058206892   -2.1689015    1.0272469  1815307 
  624000    0.9892619    -2.168663    -2.168663   -1.1417899  0.053504017    -2.168663    1.0268731  1815307 
  625000    0.9903832   -2.1698468   -2.1698468   -1.1418098  0.056433745   -2.1698468     1.028037  1815307 
  626000   0.99021539   -2.1698429   -2.1698429   -1.1419801  0.056424535   -2.1698429    1.0278629  1815307 
  627000   0.98933349   -2.1690012   -2.1690012   -1.1420538  0.058070566   -2.1690012    1.0269474  1815307 
  628000   0.98972075   -2.1695264   -2.1695264    -1.142177  0.054842698   -2.1695264    1.0273494  1815307 
  629000   0.98976426   -2.1693228   -2.1693228   -1.1419282  0.056157388   -2.1693228    1.0273946  1815307 
  630000   0.98987873   -2.1695128   -2.1695128   -1.1419994  0.056158253   -2.1695128    1.0275134  1815307 
  631000   0.99008861   -2.1699837   -2.1699837   -1.1422524  0.055389836   -2.1699837    1.0277312  1815307 
  632000   0.99024185   -2.1702955   -2.1702955   -1.1424052  0.057035157   -2.1702955    1.0278903  1815307 
  633000     0.990139   -2.1701406   -2.1701406   -1.1423571  0.055848139   -2.1701406    1.0277836  1815307 
  634000   0.99097894   -2.1709964   -2.1709964    -1.142341  0.053540486   -2.1709964    1.0286554  1815307 
  635000   0.99003449   -2.1700858   -2.1700858   -1.1424107   0.05865327   -2.1700858    1.0276751  1815307 
  636000   0.99047797   -2.1705111   -2.1705111   -1.1423757  0.052459438   -2.1705111    1.0281354  1815307 
  637000   0.98979588   -2.1694786   -2.1694786   -1.1420512  0.054299773   -2.1694786    1.0274274  1815307 
  638000   0.99001563   -2.1692745   -2.1692745    -1.141619  0.053504241   -2.1692745    1.0276555  1815307 
  639000   0.99045363   -2.1695036   -2.1695036   -1.1413934   0.05332314   -2.1695036    1.0281101  1815307 
  640000   0.99000636   -2.1694628   -2.1694628   -1.1418169  0.058184794   -2.1694628    1.0276459  1815307 
  641000   0.99048592   -2.1699678   -2.1699678   -1.1418241   0.05374018   -2.1699678    1.0281437  1815307 
  642000   0.99094899   -2.1695567   -2.1695567   -1.1409324  0.057885185   -2.1695567    1.0286243  1815307 
[...]
 9832000    1.0072206   -2.1137678   -2.1137678   -1.0682532  0.063341947   -2.1137678    1.0455145  1815307 
 9833000    1.0080472   -2.1141567   -2.1141567   -1.0677842  0.063447201   -2.1141567    1.0463726  1815307 
 9834000    1.0083674   -2.1144939   -2.1144939   -1.0677889  0.067804395   -2.1144939    1.0467049  1815307 
 9835000    1.0080144   -2.1142959   -2.1142959   -1.0679573  0.066716581   -2.1142959    1.0463386  1815307 
 9836000    1.0083184   -2.1148338   -2.1148338   -1.0681797  0.064321645   -2.1148338    1.0466541  1815307 
 9837000    1.0086165   -2.1150365   -2.1150365   -1.0680729  0.064215994   -2.1150365    1.0469636  1815307 
 9838000    1.0100214    -2.116113    -2.116113   -1.0676911  0.065574683    -2.116113    1.0484219  1815307 
 9839000    1.0084521   -2.1147692   -2.1147692   -1.0679763  0.068037525   -2.1147692    1.0467929  1815307 
 9840000    1.0073309   -2.1140287   -2.1140287   -1.0683996  0.067956022   -2.1140287    1.0456291  1815307 
 9841000    1.0081025   -2.1142161   -2.1142161    -1.067786  0.067466187   -2.1142161    1.0464301  1815307 
 9842000    1.0087792   -2.1155565   -2.1155565    -1.068424  0.065386059   -2.1155565    1.0471325  1815307 
 9843000     1.008891   -2.1155559   -2.1155559   -1.0683074  0.066805294   -2.1155559    1.0472485  1815307 
 9844000    1.0082285   -2.1149943   -2.1149943   -1.0684336  0.066637106   -2.1149943    1.0465608  1815307 
 9845000    1.0077953   -2.1147359   -2.1147359   -1.0686248  0.064820684   -2.1147359    1.0461111  1815307 
 9846000    1.0077043   -2.1149165   -2.1149165   -1.0688998  0.066297165   -2.1149165    1.0460167  1815307 
 9847000    1.0080524   -2.1152822   -2.1152822   -1.0689042  0.069731657   -2.1152822     1.046378  1815307 
 9848000    1.0082737   -2.1154694   -2.1154694   -1.0688617  0.065792916   -2.1154694    1.0466077  1815307 
 9849000    1.0075976   -2.1147433   -2.1147433   -1.0688374  0.065720149   -2.1147433    1.0459059  1815307 
 9850000    1.0078718   -2.1148529   -2.1148529   -1.0686623  0.067685258   -2.1148529    1.0461906  1815307 
 9851000    1.0085951    -2.115994    -2.115994   -1.0690526  0.065886535    -2.115994    1.0469414  1815307 
 9852000    1.0082269   -2.1153847   -2.1153847   -1.0688255  0.066245219   -2.1153847    1.0465592  1815307 
 9853000    1.0084365   -2.1162399   -2.1162399   -1.0694632  0.067399969   -2.1162399    1.0467767  1815307 
 9854000    1.0075352   -2.1151879   -2.1151879   -1.0693467  0.067275663   -2.1151879    1.0458411  1815307 
 9855000    1.0084822   -2.1157974   -2.1157974   -1.0689732  0.066942417   -2.1157974    1.0468241  1815307 
 9856000    1.0084022   -2.1165103   -2.1165103   -1.0697692  0.066457715   -2.1165103    1.0467411  1815307 
 9857000    1.0080609   -2.1159988   -2.1159988    -1.069612  0.065874202   -2.1159988    1.0463868  1815307 
 9858000    1.0080401   -2.1165733   -2.1165733   -1.0702081    0.0643953   -2.1165733    1.0463652  1815307 
 9859000    1.0079637   -2.1167623   -2.1167623   -1.0704764  0.063390821   -2.1167623    1.0462859  1815307 
 9860000    1.0077691   -2.1161845   -2.1161845   -1.0701005   0.06754776   -2.1161845     1.046084  1815307 
 9861000    1.0075264   -2.1156413   -2.1156413   -1.0698093  0.067729107   -2.1156413     1.045832  1815307 
 9862000    1.0084081    -2.116525    -2.116525   -1.0697778  0.066271684    -2.116525    1.0467472  1815307 
 9863000    1.0079196   -2.1158985   -2.1158985   -1.0696584  0.070172807   -2.1158985    1.0462401  1815307 
 9864000    1.0086361   -2.1168953   -2.1168953   -1.0699114   0.06528966   -2.1168953    1.0469839  1815307 
 9865000    1.0081032   -2.1166663   -2.1166663   -1.0702355  0.067438476   -2.1166663    1.0464307  1815307 
 9866000    1.0089138   -2.1172622   -2.1172622     -1.06999  0.068999098   -2.1172622    1.0472722  1815307 
 9867000    1.0094425   -2.1175637   -2.1175637   -1.0697427  0.068046219   -2.1175637     1.047821  1815307 
 9868000    1.0091009   -2.1172205   -2.1172205   -1.0697542  0.069035857   -2.1172205    1.0474663  1815307 
 9869000    1.0088733   -2.1170941   -2.1170941    -1.069864  0.067288634   -2.1170941    1.0472302  1815307 
 9870000    1.0085497    -2.116173    -2.116173   -1.0692788  0.071450155    -2.116173    1.0468942  1815307 
 9871000    1.0091408   -2.1175438   -2.1175438    -1.070036  0.065843754   -2.1175438    1.0475077  1815307 
 9872000     1.009164   -2.1176478   -2.1176478   -1.0701159    0.0681009   -2.1176478    1.0475319  1815307 
 9873000    1.0091306   -2.1175723   -2.1175723   -1.0700751  0.066908598   -2.1175723    1.0474972  1815307 
 9874000    1.0083023   -2.1168651   -2.1168651   -1.0702277  0.066441716   -2.1168651    1.0466375  1815307 
 9875000    1.0082583   -2.1166817   -2.1166817   -1.0700899  0.067869164   -2.1166817    1.0465918  1815307 
 9876000    1.0086721   -2.1166399   -2.1166399   -1.0696186   0.06792455   -2.1166399    1.0470213  1815307 
 9877000     1.008372   -2.1161501   -2.1161501   -1.0694403  0.069618642   -2.1161501    1.0467098  1815307 
 9878000    1.0090452   -2.1171271   -2.1171271   -1.0697186  0.062695874   -2.1171271    1.0474086  1815307 
 9879000    1.0087075   -2.1170146   -2.1170146   -1.0699565  0.065042909   -2.1170146     1.047058  1815307 
 9880000    1.0076801   -2.1151648   -2.1151648   -1.0691733   0.06838641   -2.1151648    1.0459916  1815307 
 9881000    1.0078113   -2.1153135   -2.1153135   -1.0691858  0.068805692   -2.1153135    1.0461277  1815307 
 9882000    1.0088879   -2.1160514   -2.1160514   -1.0688062  0.067093766   -2.1160514    1.0472453  1815307 
 9883000    1.0074898   -2.1150151   -2.1150151    -1.069221  0.064482981   -2.1150151     1.045794  1815307 
 9884000     1.007485   -2.1149926   -2.1149926   -1.0692035  0.064619178   -2.1149926    1.0457891  1815307 
 9885000    1.0081449   -2.1153124   -2.1153124   -1.0688384  0.066661925   -2.1153124     1.046474  1815307 
 9886000    1.0081373   -2.1155417   -2.1155417   -1.0690756   0.06593429   -2.1155417    1.0464662  1815307 
 9887000     1.007386   -2.1143414   -2.1143414   -1.0686552  0.067060492   -2.1143414    1.0456862  1815307 
 9888000    1.0074552   -2.1145877   -2.1145877   -1.0688296   0.06891877   -2.1145877    1.0457581  1815307 
 9889000     1.007914    -2.114753    -2.114753   -1.0685187  0.064496482    -2.114753    1.0462343  1815307 
 9890000    1.0071666   -2.1141196   -2.1141196   -1.0686611  0.062199226   -2.1141196    1.0454585  1815307 
 9891000    1.0075689   -2.1143542   -2.1143542    -1.068478  0.066749766   -2.1143542    1.0458762  1815307 
 9892000    1.0092414    -2.115288    -2.115288   -1.0676758  0.064087891    -2.115288    1.0476122  1815307 
 9893000    1.0081933   -2.1136962   -2.1136962   -1.0671719  0.067346067   -2.1136962    1.0465243  1815307 
 9894000    1.0087044   -2.1141489   -2.1141489   -1.0670942  0.067422724   -2.1141489    1.0470548  1815307 
 9895000    1.0088651    -2.115032    -2.115032   -1.0678103  0.066945503    -2.115032    1.0472216  1815307 
 9896000    1.0085553   -2.1147317   -2.1147317   -1.0678318  0.065250933   -2.1147317       1.0469  1815307 
 9897000    1.0076428   -2.1139887   -2.1139887   -1.0680358  0.067275198   -2.1139887    1.0459528  1815307 
 9898000    1.0081755   -2.1146545   -2.1146545   -1.0681486  0.069003853   -2.1146545    1.0465058  1815307 
 9899000      1.00885   -2.1148978   -2.1148978   -1.0676918  0.064847474   -2.1148978     1.047206  1815307 
 9900000    1.0084508   -2.1139663   -2.1139663   -1.0671748  0.064435682   -2.1139663    1.0467916  1815307 
 9901000    1.0085365   -2.1138316   -2.1138316    -1.066951  0.064462701   -2.1138316    1.0468806  1815307 
 9902000    1.0079665   -2.1137799   -2.1137799   -1.0674911  0.066487208   -2.1137799    1.0462888  1815307 
 9903000    1.0088853   -2.1144661   -2.1144661   -1.0672235  0.066457952   -2.1144661    1.0472426  1815307 
 9904000    1.0093187   -2.1146132   -2.1146132   -1.0669207  0.065251697   -2.1146132    1.0476925  1815307 
 9905000    1.0083517   -2.1144743   -2.1144743   -1.0677856  0.066617006   -2.1144743    1.0466887  1815307 
 9906000    1.0089849   -2.1151049   -2.1151049   -1.0677589  0.067429691   -2.1151049    1.0473459  1815307 
 9907000    1.0086554   -2.1148823   -2.1148823   -1.0678784   0.06870868   -2.1148823    1.0470039  1815307 
 9908000      1.00897   -2.1149766   -2.1149766   -1.0676461  0.065943735   -2.1149766    1.0473305  1815307 
 9909000    1.0092009   -2.1146704   -2.1146704   -1.0671001  0.067056374   -2.1146704    1.0475702  1815307 
 9910000    1.0096788   -2.1156008   -2.1156008   -1.0675345  0.067936813   -2.1156008    1.0480663  1815307 
 9911000    1.0085603    -2.114808    -2.114808   -1.0679028  0.063594841    -2.114808    1.0469052  1815307 
 9912000    1.0090032   -2.1149468   -2.1149468   -1.0675819  0.068522046   -2.1149468    1.0473649  1815307 
 9913000    1.0093332   -2.1155201   -2.1155201   -1.0678127  0.066531278   -2.1155201    1.0477075  1815307 
 9914000    1.0096154   -2.1157936   -2.1157936   -1.0677932  0.068476535   -2.1157936    1.0480004  1815307 
 9915000    1.0089984   -2.1154528   -2.1154528   -1.0680928  0.065773625   -2.1154528      1.04736  1815307 
 9916000    1.0094122   -2.1158049   -2.1158049   -1.0680154  0.063130594   -2.1158049    1.0477895  1815307 
 9917000    1.0092778   -2.1156117   -2.1156117   -1.0679617  0.071625133   -2.1156117      1.04765  1815307 
 9918000    1.0091485   -2.1159084   -2.1159084   -1.0683926  0.068439823   -2.1159084    1.0475158  1815307 
 9919000    1.0090991   -2.1158814   -2.1158814   -1.0684168  0.064041137   -2.1158814    1.0474646  1815307 
 9920000    1.0097576    -2.116214    -2.116214   -1.0680659  0.064767017    -2.116214    1.0481481  1815307 
 9921000    1.0098578   -2.1163965   -2.1163965   -1.0681444  0.067348981   -2.1163965    1.0482521  1815307 
 9922000    1.0089183   -2.1149028   -2.1149028    -1.067626  0.066271289   -2.1149028    1.0472768  1815307 
 9923000    1.0089335   -2.1151018   -2.1151018   -1.0678091  0.064111378   -2.1151018    1.0472926  1815307 
 9924000    1.0090551   -2.1157067   -2.1157067    -1.068288  0.067613712   -2.1157067    1.0474188  1815307 
 9925000    1.0081461   -2.1147107   -2.1147107   -1.0682354  0.067538166   -2.1147107    1.0464753  1815307 
 9926000    1.0084802   -2.1151727   -2.1151727   -1.0683506  0.066878218   -2.1151727    1.0468221  1815307 
 9927000    1.0090006    -2.115693    -2.115693   -1.0683308  0.066733007    -2.115693    1.0473622  1815307 
 9928000    1.0078761   -2.1145803   -2.1145803   -1.0683853  0.066159827   -2.1145803     1.046195  1815307 
 9929000    1.0082115   -2.1151374   -2.1151374   -1.0685943   0.06528834   -2.1151374    1.0465431  1815307 
 9930000    1.0081656   -2.1147249   -2.1147249   -1.0682293  0.069939298   -2.1147249    1.0464956  1815307 
 9931000    1.0083618   -2.1142658   -2.1142658   -1.0675666  0.068464443   -2.1142658    1.0466992  1815307 
 9932000    1.0092289   -2.1155199   -2.1155199   -1.0679207  0.064780503   -2.1155199    1.0475992  1815307 
 9933000    1.0085904    -2.114474    -2.114474   -1.0675375  0.064474285    -2.114474    1.0469364  1815307 
 9934000    1.0082512   -2.1139653   -2.1139653   -1.0673809  0.067012252   -2.1139653    1.0465844  1815307 
 9935000    1.0084913   -2.1145438   -2.1145438   -1.0677102  0.064799849   -2.1145438    1.0468336  1815307 
 9936000    1.0086187   -2.1144543   -2.1144543   -1.0674884  0.062580759   -2.1144543    1.0469659  1815307 
 9937000    1.0080637   -2.1143371   -2.1143371   -1.0679474  0.065742452   -2.1143371    1.0463897  1815307 
 9938000    1.0087629   -2.1153105   -2.1153105    -1.068195  0.065860742   -2.1153105    1.0471155  1815307 
 9939000    1.0084933   -2.1151273   -2.1151273   -1.0682916  0.066871358   -2.1151273    1.0468357  1815307 
 9940000    1.0080448    -2.114524    -2.114524   -1.0681539  0.067070713    -2.114524    1.0463701  1815307 
 9941000    1.0079651   -2.1144386   -2.1144386   -1.0681512  0.068185952   -2.1144386    1.0462873  1815307 
 9942000    1.0085925   -2.1152887   -2.1152887   -1.0683501  0.064680585   -2.1152887    1.0469387  1815307 
 9943000    1.0080692    -2.114706    -2.114706   -1.0683106  0.068878002    -2.114706    1.0463954  1815307 
 9944000     1.007869   -2.1145518   -2.1145518   -1.0683642  0.068494543   -2.1145518    1.0461876  1815307 
 9945000    1.0088613   -2.1151331   -2.1151331   -1.0679154  0.071585245   -2.1151331    1.0472176  1815307 
 9946000    1.0088151   -2.1154101   -2.1154101   -1.0682405  0.071140654   -2.1154101    1.0471697  1815307 
 9947000    1.0093436   -2.1158291   -2.1158291   -1.0681108  0.066660435   -2.1158291    1.0477183  1815307 
 9948000    1.0087853   -2.1148965   -2.1148965   -1.0677578  0.069240996   -2.1148965    1.0471388  1815307 
 9949000    1.0083739    -2.114888    -2.114888   -1.0681762  0.069084442    -2.114888    1.0467117  1815307 
 9950000      1.00804   -2.1147585   -2.1147585   -1.0683934   0.06904265   -2.1147585    1.0463651  1815307 
 9951000    1.0087808   -2.1160235   -2.1160235   -1.0688893  0.068173082   -2.1160235    1.0471341  1815307 
 9952000    1.0080927   -2.1153032   -2.1153032   -1.0688833   0.07075898   -2.1153032    1.0464198  1815307 
 9953000    1.0090346   -2.1159842   -2.1159842   -1.0685867  0.062997221   -2.1159842    1.0473975  1815307 
 9954000    1.0084689   -2.1152997   -2.1152997   -1.0684894  0.071488935   -2.1152997    1.0468103  1815307 
 9955000    1.0082338   -2.1151533   -2.1151533    -1.068587  0.064722269   -2.1151533    1.0465663  1815307 
 9956000    1.0088218   -2.1156257   -2.1156257   -1.0684491  0.066200718   -2.1156257    1.0471767  1815307 
 9957000     1.008929   -2.1161126   -2.1161126   -1.0688247   0.06956281   -2.1161126    1.0472879  1815307 
 9958000    1.0090163   -2.1170187   -2.1170187   -1.0696402  0.067871349   -2.1170187    1.0473785  1815307 
 9959000    1.0086095   -2.1162984   -2.1162984   -1.0693421  0.066917485   -2.1162984    1.0469563  1815307 
 9960000    1.0079744   -2.1156104   -2.1156104   -1.0693133  0.066908245   -2.1156104    1.0462971  1815307 
 9961000    1.0085413   -2.1161802   -2.1161802   -1.0692947  0.066049329   -2.1161802    1.0468855  1815307 
 9962000    1.0076753   -2.1154088   -2.1154088   -1.0694222  0.067657435   -2.1154088    1.0459866  1815307 
 9963000    1.0078339   -2.1155223   -2.1155223   -1.0693711  0.067310945   -2.1155223    1.0461512  1815307 
 9964000    1.0081817   -2.1158652   -2.1158652    -1.069353  0.065859038   -2.1158652    1.0465122  1815307 
 9965000    1.0093867   -2.1165784   -2.1165784   -1.0688153  0.065294127   -2.1165784    1.0477631  1815307 
 9966000     1.008681    -2.116179    -2.116179   -1.0691485  0.071196287    -2.116179    1.0470305  1815307 
 9967000    1.0090721   -2.1160891   -2.1160891   -1.0686526  0.068326928   -2.1160891    1.0474365  1815307 
 9968000    1.0092712   -2.1162368   -2.1162368   -1.0685937  0.068674539   -2.1162368    1.0476431  1815307 
 9969000    1.0097237   -2.1165984   -2.1165984   -1.0684856  0.068228283   -2.1165984    1.0481129  1815307 
 9970000    1.0088581   -2.1156597   -2.1156597   -1.0684454   0.07164992   -2.1156597    1.0472143  1815307 
 9971000    1.0085797   -2.1154707   -2.1154707   -1.0685454  0.067490082   -2.1154707    1.0469253  1815307 
 9972000    1.0085003   -2.1157101   -2.1157101   -1.0688671   0.06477334   -2.1157101     1.046843  1815307 
 9973000    1.0091716   -2.1161655   -2.1161655   -1.0686258  0.063481308   -2.1161655    1.0475397  1815307 
 9974000    1.0099689   -2.1168159   -2.1168159   -1.0684485  0.066147904   -2.1168159    1.0483674  1815307 
 9975000    1.0090805   -2.1161784   -2.1161784   -1.0687331  0.068164634   -2.1161784    1.0474452  1815307 
 9976000    1.0086405   -2.1158045   -2.1158045    -1.068816  0.067909069   -2.1158045    1.0469884  1815307 
 9977000    1.0086163   -2.1154351   -2.1154351   -1.0684717  0.066216162   -2.1154351    1.0469634  1815307 
 9978000    1.0092775   -2.1166906   -2.1166906   -1.0690409  0.069082045   -2.1166906    1.0476497  1815307 
 9979000    1.0079774   -2.1151817   -2.1151817   -1.0688815  0.068829874   -2.1151817    1.0463002  1815307 
 9980000    1.0081572   -2.1150761   -2.1150761   -1.0685893  0.065273477   -2.1150761    1.0464868  1815307 
 9981000    1.0091381   -2.1157084   -2.1157084   -1.0682033  0.070085656   -2.1157084     1.047505  1815307 
 9982000    1.0089007   -2.1155221   -2.1155221   -1.0682636  0.069181647   -2.1155221    1.0472586  1815307 
 9983000    1.0089699   -2.1153025   -2.1153025   -1.0679721  0.068234149   -2.1153025    1.0473304  1815307 
 9984000    1.0092585   -2.1157722   -2.1157722   -1.0681422  0.065515592   -2.1157722    1.0476299  1815307 
 9985000    1.0088117   -2.1150686   -2.1150686   -1.0679024  0.064578683   -2.1150686    1.0471662  1815307 
 9986000    1.0094444   -2.1155769   -2.1155769    -1.067754  0.068068884   -2.1155769    1.0478229  1815307 
 9987000    1.0085118   -2.1149148   -2.1149148   -1.0680598  0.072047727   -2.1149148    1.0468549  1815307 
 9988000    1.0094146   -2.1153421   -2.1153421   -1.0675501  0.067553497   -2.1153421     1.047792  1815307 
 9989000    1.0078314    -2.114167    -2.114167   -1.0680184  0.067455075    -2.114167    1.0461486  1815307 
 9990000    1.0090085   -2.1152115   -2.1152115    -1.067841  0.069905647   -2.1152115    1.0473705  1815307 
 9991000    1.0085557   -2.1144524   -2.1144524   -1.0675519  0.067598995   -2.1144524    1.0469005  1815307 
 9992000    1.0085758    -2.114386    -2.114386   -1.0674646  0.065489213    -2.114386    1.0469214  1815307 
 9993000    1.0094887   -2.1151259   -2.1151259   -1.0672569  0.064430385   -2.1151259     1.047869  1815307 
 9994000    1.0084202   -2.1136999   -2.1136999   -1.0669402  0.065761151   -2.1136999    1.0467598  1815307 
 9995000    1.0077706   -2.1135346   -2.1135346   -1.0674491  0.066782865   -2.1135346    1.0460855  1815307 
 9996000    1.0084594   -2.1143073   -2.1143073   -1.0675068  0.065864469   -2.1143073    1.0468005  1815307 
 9997000    1.0076295   -2.1137221   -2.1137221   -1.0677831  0.063763507   -2.1137221     1.045939  1815307 
 9998000    1.0083717   -2.1144348   -2.1144348   -1.0677253  0.065700392   -2.1144348    1.0467095  1815307 
 9999000    1.0083469   -2.1141084   -2.1141084   -1.0674247   0.06839131   -2.1141084    1.0466837  1815307 
10000000    1.0083307   -2.1137972   -2.1137972   -1.0671303  0.066175101   -2.1137972    1.0466669  1815307 
Loop time of 21133.5 on 768 procs for 10000000 steps with 1815307 atoms

Performance: 204414.949 tau/day, 473.183 timesteps/s
91.1% CPU use with 768 MPI tasks x 1 OpenMP threads

MPI task timing breakdown:
Section |  min time  |  avg time  |  max time  |%varavg|  %CPU | %total
-----------------------------------------------------------------------
Pair    | 1311.9     | 4585       | 7131       |1825.0 |  93.1 | 21.70
Bond    | 6.3862     | 6.7972     | 7.2496     |   6.1 | 100.0 |  0.03
Neigh   | 1446.7     | 4340.6     | 5847.8     |1470.9 |  98.8 | 20.54
Comm    | 4205.8     | 7139.9     | 12382      |1783.0 |  88.1 | 33.78
Output  | 567.69     | 570.05     | 572.77     |   4.5 |  81.3 |  2.70
Modify  | 2839.9     | 4136.4     | 7748.1     |1149.2 |  88.7 | 19.57
Other   |            | 354.6      |            |       |       |  1.68

Nlocal:        2363.68 ave        3199 max        1878 min
Histogram: 24 109 136 206 132 86 60 13 1 1
Nghost:        5568.70 ave        9266 max        1875 min
Histogram: 64 52 42 44 81 191 159 101 31 3
Neighs:        43259.8 ave       72499 max       10988 min
Histogram: 64 4 28 89 128 166 143 78 18 50

Total # of neighbors = 33223543
Ave neighs/atom = 18.301887
Ave special neighs/atom = 0.0000000
Neighbor list builds = 1000000
Dangerous builds = 990000

Total wall time: 5:52:29
