LAMMPS (24 Dec 2020)
OMP_NUM_THREADS environment is not set. Defaulting to 1 thread. (src/comm.cpp:94)
  using 1 OpenMP thread(s) per MPI task
# Simple rigid body system
# needed variables:

#variable	startTemp equal 0.5
#variable 	temp 	  equal 0.8

units		lj
atom_style	full
dimension 	3
boundary	p p f
pair_style	lj/cut/opt 2.5


variable 	sigma		equal 1.0
variable 	epsilon 	equal 1.0

region		box block 0 100 0 100 0 200
create_box 	3 box
Created orthogonal box = (0.0000000 0.0000000 0.0000000) to (100.00000 100.00000 200.00000)
  4 by 4 by 9 MPI processor grid



lattice 	sc 0.66
Lattice spacing in x,y,z = 1.1485556 1.1485556 1.1485556
region		fluid block EDGE EDGE EDGE EDGE 2 130 units box
create_atoms 	1 region fluid
Created 867328 atoms
  create_atoms CPU = 0.048 seconds

lattice 	sc 0.045
Lattice spacing in x,y,z = 2.8114422 2.8114422 2.8114422
region		gas block EDGE EDGE EDGE EDGE 131 198 units box
create_atoms    1 region gas
Created 31104 atoms
  create_atoms CPU = 0.007 seconds

group		solvent type 1
898432 atoms in group solvent

mass		1 1.0
mass		2 1.0
mass		3 1.0



neighbor 	0.4 bin

pair_coeff	1 1 1.0 1.0
pair_coeff	2 2 0.0 0.0
pair_coeff	3 3 0.0 0.0
pair_coeff	2 3 0.0 0.0
pair_coeff	1 2*3 0.0 0.0

pair_modify 	shift yes

delete_atoms	overlap 0.5 solvent solvent
System init for delete_atoms ...
Neighbor list info ...
  update every 1 steps, delay 10 steps, check yes
  max neighbors/atom: 2000, page size: 100000
  master list distance cutoff = 2.9
  ghost atom cutoff = 2.9
  binsize = 1.45, bins = 69 69 138
  2 neighbor lists, perpetual/occasional/extra = 1 1 0
  (1) command delete_atoms, occasional
      attributes: full, newton on
      pair build: full/bin
      stencil: full/bin/3d
      bin: standard
  (2) pair lj/cut/opt, perpetual
      attributes: half, newton on
      pair build: half/bin/newton
      stencil: half/bin/3d/newton
      bin: standard
WARNING: Ignoring 'compress yes' for molecular system (src/delete_atoms.cpp:125)
Deleted 19600 atoms, new total = 878832

velocity 	solvent create ${startTemp} 563435 loop geom
velocity 	solvent create 1.0 563435 loop geom

balance 	1.05 shift z 10 1.05
Balancing ...
Neighbor list info ...
  update every 1 steps, delay 10 steps, check yes
  max neighbors/atom: 2000, page size: 100000
  master list distance cutoff = 2.9
  ghost atom cutoff = 2.9
  binsize = 1.45, bins = 69 69 138
  1 neighbor lists, perpetual/occasional/extra = 1 0 0
  (1) pair lj/cut/opt, perpetual
      attributes: half, newton on
      pair build: half/bin/newton
      stencil: half/bin/3d/newton
      bin: standard
 rebalancing time: 0.038 seconds
  iteration count = 6
  initial/final maximal load/proc = 9680.0000 6776.0000
  initial/final imbalance factor  = 1.5861052 1.1102736
  x cuts: 0.0000000 0.25000000 0.50000000 0.75000000 1.0000000
  y cuts: 0.0000000 0.25000000 0.50000000 0.75000000 1.0000000
  z cuts: 0.0000000 0.081597222 0.15451389 0.23090278 0.30208333 0.37847222 0.45486111 0.53298611 0.60243056 1.0000000


####################### WALLS ###########################


variable       epsilonWall equal 2*${epsilon}
variable       epsilonWall equal 2*1

variable       cutoffTop   equal   0.7147*${sigma}
variable       cutoffTop   equal   0.7147*1

variable       cutoffLow   equal   3*${sigma}
variable       cutoffLow   equal   3*1


fix            topWall all wall/lj93 zhi EDGE                ${epsilonWall} ${sigma} ${cutoffTop} units box
fix            topWall all wall/lj93 zhi EDGE                2 ${sigma} ${cutoffTop} units box
fix            topWall all wall/lj93 zhi EDGE                2 1 ${cutoffTop} units box
fix            topWall all wall/lj93 zhi EDGE                2 1 0.7147 units box

fix            lowWall all wall/lj93 zlo EDGE                ${epsilonWall} ${sigma} ${cutoffLow} units box
fix            lowWall all wall/lj93 zlo EDGE                2 ${sigma} ${cutoffLow} units box
fix            lowWall all wall/lj93 zlo EDGE                2 1 ${cutoffLow} units box
fix            lowWall all wall/lj93 zlo EDGE                2 1 3 units box


###################### COMPUTES ##########################

compute        bin1 solvent chunk/atom bin/1d z upper 1.0


######################	FIXES ############################


fix 		peclet solvent ave/chunk 1000 1 1000 bin1 density/number norm 		 none ave one file density.profile

fix 		 temp solvent ave/chunk 1000 1 1000 bin1 temp norm 		 none ave one file temp.profile

fix 		2 solvent nve


## Thermostat


region		regthermo block EDGE EDGE EDGE EDGE 0 20 units box

group 		thermo dynamic solvent region regthermo every 1000
dynamic group thermo defined

fix 		3 thermo langevin ${startTemp} ${temp} 10 156453
fix 		3 thermo langevin 1.0 ${temp} 10 156453
fix 		3 thermo langevin 1.0 1.0 10 156453



#### Load balancing


fix 		bal all balance 1000 1.05 shift z 10 1.05


############### Diagnostics and computes ###################
#compute 	com cube	  rigid/local	1 mol x y z
#compute 	quat cube	  rigid/local	1 mol quatw quati quatj quatk

thermo 		1000
thermo_style 	custom step temp epair evdwl etotal press pe ke atoms

dump		1 all custom 100000 dump.lammpstrj id mol type x y z
dump 		2 all image 10000 image.*.png type type
dump 		3 all movie 1000 movie.avi type type

#dump 		com cube local 1000 dump.*.xyz c_com[*]
#dump		quat cube      local 1000 dump.*.quat c_quat[*]


restart 	1000000 restart.dat
timestep 	0.005
timer 		full
New timer settings: style=full  mode=nosync  timeout=off

run		3000000
Per MPI rank memory allocation (min/avg/max) = 12.74 | 15.90 | 19.79 Mbytes
Step Temp E_pair E_vdwl TotEng Press PotEng KinEng Atoms 
       0            1    -4.085589    -4.085589   -2.5855908    -1.390929    -4.085589    1.4999983   878832 
    1000   0.86982955   -3.8581797   -3.8581797   -2.5534369 -0.040363096   -3.8581797    1.3047428   878832 
    2000   0.88196452   -3.8550946   -3.8550946   -2.5321494 -0.018885322   -3.8550946    1.3229453   878832 
    3000   0.89335524   -3.8570977   -3.8570977   -2.5170664 0.0076816036   -3.8570977    1.3400313   878832 
    4000   0.90398578    -3.860984    -3.860984   -2.5050068  0.035699432    -3.860984    1.3559771   878832 
    5000   0.91449545   -3.8673089   -3.8673089   -2.4955672  0.067192023   -3.8673089    1.3717416   878832 
    6000   0.92427028   -3.8745619   -3.8745619   -2.4881581  0.081490545   -3.8745619    1.3864038   878832 
    7000   0.92721612   -3.8746564   -3.8746564   -2.4838338  0.098039763   -3.8746564    1.3908226   878832 
    8000   0.92722806   -3.8725208   -3.8725208   -2.4816803  0.093585946   -3.8725208    1.3908405   878832 
    9000   0.92522924   -3.8704406   -3.8704406   -2.4825984  0.089932746   -3.8704406    1.3878423   878832 
   10000   0.92249602   -3.8684387   -3.8684387   -2.4846963  0.078585372   -3.8684387    1.3837425   878832 
   11000   0.91963146   -3.8669725   -3.8669725   -2.4875269  0.070384346   -3.8669725    1.3794456   878832 
   12000   0.91653678   -3.8638305   -3.8638305   -2.4890269  0.065365401   -3.8638305    1.3748036   878832 
   13000   0.91746624   -3.8660994   -3.8660994   -2.4899016  0.062422157   -3.8660994    1.3761978   878832 
   14000   0.91697686   -3.8649778   -3.8649778   -2.4895141  0.064978035   -3.8649778    1.3754637   878832 
   15000   0.91917579   -3.8664397   -3.8664397   -2.4876776  0.070725374   -3.8664397    1.3787621   878832 
   16000   0.91905391   -3.8632113   -3.8632113    -2.484632  0.071107074   -3.8632113    1.3785793   878832 
   17000   0.91960515   -3.8607041   -3.8607041    -2.481298   0.06459778   -3.8607041    1.3794062   878832 
   18000    0.9198922   -3.8567664   -3.8567664   -2.4769297  0.066860373   -3.8567664    1.3798367   878832 
   19000   0.91773452   -3.8510595   -3.8510595   -2.4744593  0.059065791   -3.8510595    1.3766002   878832 
   20000   0.91482272   -3.8445844   -3.8445844   -2.4723519  0.053241725   -3.8445844    1.3722325   878832 
   21000   0.91209353   -3.8374801   -3.8374801   -2.4693413  0.049061748   -3.8374801    1.3681387   878832 
   22000   0.91090388   -3.8336099   -3.8336099   -2.4672556  0.038008352   -3.8336099    1.3663543   878832 
   23000   0.90924191   -3.8283114   -3.8283114     -2.46445  0.037773069   -3.8283114    1.3638613   878832 
   24000   0.90810364   -3.8238622   -3.8238622   -2.4617083  0.031195787   -3.8238622    1.3621539   878832 
   25000   0.90868731   -3.8206679   -3.8206679   -2.4576385  0.029603436   -3.8206679    1.3630294   878832 
   26000   0.90783323   -3.8160967   -3.8160967   -2.4543484  0.029627968   -3.8160967    1.3617483   878832 
   27000   0.90854917   -3.8125615   -3.8125615   -2.4497393  0.033090242   -3.8125615    1.3628222   878832 
   28000   0.91012142   -3.8107498   -3.8107498   -2.4455692  0.032317175   -3.8107498    1.3651806   878832 
   29000   0.90992955   -3.8063205   -3.8063205   -2.4414277  0.032303077   -3.8063205    1.3648928   878832 
   30000   0.90922979   -3.8019833   -3.8019833   -2.4381402  0.029573804   -3.8019833    1.3638431   878832 
   31000   0.90998012    -3.798639    -3.798639   -2.4336704  0.032004724    -3.798639    1.3649686   878832 
   32000   0.90991588   -3.7956776   -3.7956776   -2.4308054   0.02976966   -3.7956776    1.3648723   878832 
   33000   0.90992915   -3.7931464   -3.7931464   -2.4282542  0.029127725   -3.7931464    1.3648922   878832 
   34000   0.91020765   -3.7910768   -3.7910768   -2.4257668  0.023184208   -3.7910768    1.3653099   878832 
   35000    0.9088669   -3.7869599   -3.7869599   -2.4236611  0.026404888   -3.7869599    1.3632988   878832 
   36000   0.90914563   -3.7848948   -3.7848948   -2.4211779  0.021683303   -3.7848948    1.3637169   878832 
   37000   0.90968492   -3.7830958   -3.7830958     -2.41857  0.022898816   -3.7830958    1.3645258   878832 
   38000   0.91087894   -3.7825625   -3.7825625   -2.4162457  0.023510995   -3.7825625    1.3663169   878832 
   39000   0.91031557   -3.7796943   -3.7796943   -2.4142225  0.024015204   -3.7796943    1.3654718   878832 
   40000   0.91100239   -3.7779152   -3.7779152   -2.4114132  0.031467541   -3.7779152     1.366502   878832 
   41000   0.91231291    -3.778432    -3.778432   -2.4099642  0.030585984    -3.778432    1.3684678   878832 
   42000   0.91177719   -3.7767233   -3.7767233   -2.4090591  0.030797857   -3.7767233    1.3676642   878832 
   43000   0.91285068   -3.7776739   -3.7776739   -2.4083995  0.026946566   -3.7776739    1.3692745   878832 
   44000   0.91239114   -3.7750615   -3.7750615   -2.4064763  0.029620313   -3.7750615    1.3685851   878832 
   45000    0.9132675   -3.7744173   -3.7744173   -2.4045176  0.028183777   -3.7744173    1.3698997   878832 
   46000   0.91330603   -3.7741814   -3.7741814   -2.4042239  0.028416788   -3.7741814    1.3699575   878832 
   47000   0.91318172   -3.7726222   -3.7726222   -2.4028511  0.027286658   -3.7726222     1.369771   878832 
   48000   0.91357301   -3.7729491   -3.7729491   -2.4025912  0.027941385   -3.7729491     1.370358   878832 
   49000    0.9134452   -3.7712721   -3.7712721   -2.4011059   0.03066058   -3.7712721    1.3701662   878832 
   50000   0.91499042   -3.7729121   -3.7729121    -2.400428  0.027893341   -3.7729121    1.3724841   878832 
   51000   0.91480831   -3.7717293   -3.7717293   -2.3995184  0.030102225   -3.7717293    1.3722109   878832 
   52000   0.91480825   -3.7707925   -3.7707925   -2.3985816  0.038294565   -3.7707925    1.3722108   878832 
   53000   0.91535262   -3.7706765   -3.7706765   -2.3976492    0.0358257   -3.7706765    1.3730274   878832 
   54000   0.91552261   -3.7693306   -3.7693306   -2.3960482  0.033877112   -3.7693306    1.3732823   878832 
   55000   0.91603966   -3.7696047   -3.7696047   -2.3955468   0.03547378   -3.7696047    1.3740579   878832 
   56000   0.91631545   -3.7707146   -3.7707146    -2.396243   0.03991636   -3.7707146    1.3744716   878832 
   57000   0.91613188   -3.7701065   -3.7701065   -2.3959103  0.035049246   -3.7701065    1.3741963   878832 
   58000   0.91655127   -3.7703313   -3.7703313    -2.395506  0.034687368   -3.7703313    1.3748253   878832 
   59000   0.91570578   -3.7684592   -3.7684592    -2.394902  0.034665221   -3.7684592    1.3735571   878832 
   60000    0.9162703   -3.7686838   -3.7686838   -2.3942799  0.032276505   -3.7686838    1.3744039   878832 
   61000   0.91573721   -3.7677238   -3.7677238   -2.3941196  0.033310854   -3.7677238    1.3736043   878832 
   62000   0.91641797   -3.7689133   -3.7689133   -2.3942879  0.035170342   -3.7689133    1.3746254   878832 
   63000   0.91589499   -3.7676592   -3.7676592   -2.3938182  0.031994862   -3.7676592    1.3738409   878832 
   64000   0.91599119   -3.7673341   -3.7673341   -2.3933489  0.032470347   -3.7673341    1.3739852   878832 
   65000   0.91648138    -3.767443    -3.767443   -2.3927225  0.031094831    -3.767443    1.3747205   878832 
   66000   0.91592924   -3.7670693   -3.7670693    -2.393177  0.034828726   -3.7670693    1.3738923   878832 
   67000   0.91662761    -3.767212    -3.767212   -2.3922722  0.033511988    -3.767212    1.3749398   878832 
   68000   0.91684842   -3.7671683   -3.7671683   -2.3918972  0.037378629   -3.7671683    1.3752711   878832 
   69000   0.91738843   -3.7669139   -3.7669139   -2.3908328  0.036957257   -3.7669139    1.3760811   878832 
   70000   0.91753944   -3.7673058   -3.7673058   -2.3909982  0.039013767   -3.7673058    1.3763076   878832 
   71000   0.91768877   -3.7677158   -3.7677158   -2.3911842  0.035855072   -3.7677158    1.3765316   878832 
   72000   0.91774594    -3.767296    -3.767296   -2.3906787  0.039910742    -3.767296    1.3766173   878832 
   73000   0.91858037   -3.7676814   -3.7676814   -2.3898124  0.035895044   -3.7676814     1.377869   878832 
   74000   0.91847252   -3.7673333   -3.7673333   -2.3896261    0.0359659   -3.7673333    1.3777072   878832 
   75000   0.91937697    -3.767967    -3.767967   -2.3889031  0.037460227    -3.767967    1.3790639   878832 
   76000   0.91983974   -3.7681112   -3.7681112   -2.3883532  0.037541216   -3.7681112     1.379758   878832 
   77000   0.91828858   -3.7652671   -3.7652671   -2.3878358  0.037248876   -3.7652671    1.3774313   878832 
   78000    0.9179891   -3.7651231   -3.7651231   -2.3881411  0.034361046   -3.7651231    1.3769821   878832 
   79000   0.91793419   -3.7648133   -3.7648133   -2.3879136  0.034289874   -3.7648133    1.3768997   878832 
   80000   0.91752933   -3.7642017   -3.7642017   -2.3879093  0.037262127   -3.7642017    1.3762924   878832 
   81000   0.91799073   -3.7642692   -3.7642692   -2.3872847  0.034633763   -3.7642692    1.3769845   878832 
   82000   0.91803504   -3.7633807   -3.7633807   -2.3863297  0.029310115   -3.7633807     1.377051   878832 
   83000   0.91822596   -3.7631619   -3.7631619   -2.3858246  0.031629697   -3.7631619    1.3773374   878832 
   84000   0.91756764   -3.7616981   -3.7616981   -2.3853482  0.038320226   -3.7616981    1.3763499   878832 
   85000   0.91811877   -3.7619512   -3.7619512   -2.3847746  0.034380741   -3.7619512    1.3771766   878832 
   86000   0.91864335   -3.7621054   -3.7621054    -2.384142   0.03908459   -3.7621054    1.3779635   878832 
   87000   0.91831967   -3.7616428   -3.7616428   -2.3841649  0.036743465   -3.7616428    1.3774779   878832 
   88000   0.91949841   -3.7625439   -3.7625439   -2.3832978  0.034372404   -3.7625439     1.379246   878832 
   89000   0.91912347   -3.7601637   -3.7601637     -2.38148  0.037114862   -3.7601637    1.3786836   878832 
   90000   0.91874556    -3.758785    -3.758785   -2.3806683   0.04154338    -3.758785    1.3781168   878832 
   91000   0.91874339   -3.7580936   -3.7580936     -2.37998  0.037265882   -3.7580936    1.3781135   878832 
   92000   0.91889424   -3.7576087   -3.7576087   -2.3792689   0.03660851   -3.7576087    1.3783398   878832 
   93000   0.91922243   -3.7576135   -3.7576135   -2.3787814  0.031545846   -3.7576135    1.3788321   878832 
   94000   0.91883012   -3.7576976   -3.7576976    -2.379454  0.034182676   -3.7576976    1.3782436   878832 
   95000   0.91883135   -3.7554866   -3.7554866   -2.3772411  0.036548679   -3.7554866    1.3782455   878832 
   96000   0.91920934   -3.7556364   -3.7556364    -2.376824  0.034704067   -3.7556364    1.3788124   878832 
   97000   0.91892181   -3.7551219   -3.7551219   -2.3767408  0.036232294   -3.7551219    1.3783811   878832 
   98000   0.91872628    -3.754689    -3.754689   -2.3766012  0.033059622    -3.754689    1.3780879   878832 
   99000    0.9177935   -3.7539131   -3.7539131   -2.3772244  0.030792438   -3.7539131    1.3766887   878832 
  100000   0.91797837   -3.7534304   -3.7534304   -2.3764644  0.029030244   -3.7534304     1.376966   878832 
  101000   0.91765837   -3.7514334   -3.7514334   -2.3749475  0.033341219   -3.7514334     1.376486   878832 
  102000   0.91881861   -3.7520086   -3.7520086   -2.3737822  0.029617792   -3.7520086    1.3782263   878832 
  103000    0.9187025    -3.750279    -3.750279   -2.3722268  0.032108273    -3.750279    1.3780522   878832 
  104000   0.91938313    -3.750948    -3.750948   -2.3718749  0.031375214    -3.750948    1.3790731   878832 
  105000   0.91964869   -3.7494568   -3.7494568   -2.3699853  0.034289732   -3.7494568    1.3794715   878832 
  106000   0.91963939   -3.7489877   -3.7489877   -2.3695302  0.035114447   -3.7489877    1.3794575   878832 
  107000   0.92081759   -3.7502821   -3.7502821   -2.3690573  0.032407176   -3.7502821    1.3812248   878832 
  108000   0.92020469    -3.748242    -3.748242   -2.3679365  0.033955744    -3.748242    1.3803055   878832 
  109000   0.92093059   -3.7485637   -3.7485637   -2.3671694  0.034221756   -3.7485637    1.3813943   878832 
  110000   0.92109915    -3.747869    -3.747869   -2.3662218  0.033851476    -3.747869    1.3816472   878832 
  111000   0.92025061   -3.7466225   -3.7466225   -2.3662482  0.034222256   -3.7466225    1.3803743   878832 
  112000   0.92012103   -3.7459225   -3.7459225   -2.3657425  0.033587154   -3.7459225      1.38018   878832 
  113000   0.91990141   -3.7448585   -3.7448585   -2.3650079  0.032818885   -3.7448585    1.3798505   878832 
  114000   0.92022792   -3.7445358   -3.7445358   -2.3641955  0.032211848   -3.7445358    1.3803403   878832 
  115000   0.92036516   -3.7449094   -3.7449094   -2.3643633  0.032181938   -3.7449094    1.3805462   878832 
  116000   0.91935264   -3.7423151   -3.7423151   -2.3632877  0.032071431   -3.7423151    1.3790274   878832 
  117000    0.9191683   -3.7423562   -3.7423562   -2.3636053  0.032176622   -3.7423562    1.3787509   878832 
  118000   0.91970116    -3.741227    -3.741227   -2.3616768  0.031325805    -3.741227    1.3795502   878832 
  119000   0.91975968   -3.7415425   -3.7415425   -2.3619046  0.031528198   -3.7415425     1.379638   878832 
  120000   0.91965985   -3.7408035   -3.7408035   -2.3613153  0.030560603   -3.7408035    1.3794882   878832 
  121000   0.92006479   -3.7403351   -3.7403351   -2.3602395  0.033056737   -3.7403351    1.3800956   878832 
  122000   0.92016222   -3.7403511   -3.7403511   -2.3601093  0.029439666   -3.7403511    1.3802418   878832 
  123000   0.92090335    -3.741642    -3.741642   -2.3602885  0.032172665    -3.741642    1.3813535   878832 
  124000   0.92052994   -3.7399645   -3.7399645   -2.3591712  0.032735234   -3.7399645    1.3807933   878832 
  125000   0.92108608   -3.7397468   -3.7397468   -2.3581193  0.035496113   -3.7397468    1.3816275   878832 
  126000   0.92134093   -3.7392604   -3.7392604   -2.3572506  0.034621747   -3.7392604    1.3820098   878832 
  127000   0.92163918   -3.7392938   -3.7392938   -2.3568366  0.034016639   -3.7392938    1.3824572   878832 
  128000    0.9216488   -3.7378462   -3.7378462   -2.3553746  0.031434103   -3.7378462    1.3824716   878832 
  129000   0.92189405   -3.7372319   -3.7372319   -2.3543924  0.037848589   -3.7372319    1.3828395   878832 
  130000   0.92291151   -3.7384466   -3.7384466   -2.3540809   0.03142884   -3.7384466    1.3843657   878832 
  131000   0.92072956   -3.7356256   -3.7356256   -2.3545328  0.033798067   -3.7356256    1.3810928   878832 
  132000   0.92055874   -3.7350444   -3.7350444   -2.3542079  0.032893132   -3.7350444    1.3808365   878832 
  133000   0.92112059   -3.7351824   -3.7351824   -2.3535031  0.032575405   -3.7351824    1.3816793   878832 
  134000   0.92112555   -3.7350085   -3.7350085   -2.3533218  0.032191205   -3.7350085    1.3816868   878832 
  135000   0.92199916   -3.7356021   -3.7356021    -2.352605  0.033258965   -3.7356021    1.3829972   878832 
  136000   0.92153746   -3.7340389   -3.7340389   -2.3517342  0.036492909   -3.7340389    1.3823046   878832 
  137000   0.92200358   -3.7339647   -3.7339647   -2.3509609   0.03396976   -3.7339647    1.3830038   878832 
  138000   0.92162007   -3.7334489   -3.7334489   -2.3510204  0.033732785   -3.7334489    1.3824285   878832 
  139000   0.92129526   -3.7327677   -3.7327677   -2.3508263  0.037079795   -3.7327677    1.3819413   878832 
  140000   0.92244569   -3.7337647   -3.7337647   -2.3500977  0.032742993   -3.7337647     1.383667   878832 
  141000   0.92185187   -3.7317295   -3.7317295   -2.3489533  0.031698022   -3.7317295    1.3827762   878832 
  142000   0.92195665   -3.7313853   -3.7313853   -2.3484519  0.035935051   -3.7313853    1.3829334   878832 
  143000   0.92141233     -3.73048     -3.73048   -2.3483631  0.032433973     -3.73048    1.3821169   878832 
  144000   0.92217111   -3.7313799   -3.7313799   -2.3481248  0.032025693   -3.7313799    1.3832551   878832 
  145000   0.92226306   -3.7312954   -3.7312954   -2.3479024  0.031506818   -3.7312954     1.383393   878832 
  146000   0.92240926   -3.7307743   -3.7307743    -2.347162  0.035815721   -3.7307743    1.3836123   878832 
  147000   0.92198534   -3.7303941   -3.7303941   -2.3474177  0.033696999   -3.7303941    1.3829764   878832 
  148000   0.92287482   -3.7304562   -3.7304562   -2.3461456  0.033455947   -3.7304562    1.3843107   878832 
  149000   0.92273116   -3.7299658   -3.7299658   -2.3458706  0.031606589   -3.7299658    1.3840952   878832 
  150000   0.92297782    -3.729111    -3.729111   -2.3446459  0.033967227    -3.729111    1.3844652   878832 
  151000   0.92208488   -3.7270662   -3.7270662   -2.3439404  0.033484242   -3.7270662    1.3831258   878832 
  152000   0.92323289   -3.7283715   -3.7283715   -2.3435238  0.032343556   -3.7283715    1.3848478   878832 
  153000   0.92411198   -3.7290755   -3.7290755   -2.3429091   0.03538225   -3.7290755    1.3861664   878832 
  154000   0.92322808   -3.7276988   -3.7276988   -2.3428582  0.035473002   -3.7276988    1.3848405   878832 
  155000   0.92358394    -3.726908    -3.726908   -2.3415337  0.036284955    -3.726908    1.3853743   878832 
  156000    0.9247085   -3.7280052   -3.7280052    -2.340944  0.036055286   -3.7280052    1.3870612   878832 
  157000    0.9244291   -3.7276498   -3.7276498   -2.3410077  0.033387465   -3.7276498    1.3866421   878832 
  158000   0.92361601   -3.7261761   -3.7261761   -2.3407536  0.036940035   -3.7261761    1.3854224   878832 
  159000   0.92328525   -3.7245122   -3.7245122   -2.3395859  0.034104882   -3.7245122    1.3849263   878832 
  160000   0.92335198   -3.7248175   -3.7248175   -2.3397911  0.036205394   -3.7248175    1.3850264   878832 
  161000   0.92380245   -3.7250278   -3.7250278   -2.3393257  0.035834286   -3.7250278    1.3857021   878832 
  162000   0.92427902   -3.7248511   -3.7248511   -2.3384342  0.032885242   -3.7248511    1.3864169   878832 
  163000   0.92299456   -3.7231742   -3.7231742   -2.3386839  0.032099321   -3.7231742    1.3844903   878832 
  164000   0.92220157   -3.7212093   -3.7212093   -2.3379085  0.034882584   -3.7212093    1.3833008   878832 
  165000   0.92324468   -3.7223239   -3.7223239   -2.3374585  0.028518974   -3.7223239    1.3848654   878832 
  166000    0.9233251   -3.7216563   -3.7216563   -2.3366702  0.030263172   -3.7216563    1.3849861   878832 
  167000    0.9236577   -3.7204136   -3.7204136   -2.3349286  0.034208866   -3.7204136     1.385485   878832 
  168000   0.92481511   -3.7217207   -3.7217207   -2.3344996  0.033199255   -3.7217207    1.3872211   878832 
  169000   0.92437046   -3.7213192   -3.7213192   -2.3347651  0.034326995   -3.7213192    1.3865541   878832 
  170000   0.92375599   -3.7201745   -3.7201745   -2.3345421  0.031585576   -3.7201745    1.3856324   878832 
  171000   0.92403931   -3.7203457   -3.7203457   -2.3342883  0.037546616   -3.7203457    1.3860574   878832 
  172000    0.9247816   -3.7202783   -3.7202783   -2.3331075  0.034620609   -3.7202783    1.3871708   878832 
  173000   0.92377481   -3.7185393   -3.7185393   -2.3328787  0.034288415   -3.7185393    1.3856606   878832 
  174000   0.92403572   -3.7178909   -3.7178909   -2.3318389  0.032963483   -3.7178909     1.386052   878832 
  175000   0.92454963   -3.7172111   -3.7172111   -2.3303882  0.027975719   -3.7172111    1.3868229   878832 
  176000   0.92448655   -3.7170197   -3.7170197   -2.3302915  0.030853517   -3.7170197    1.3867282   878832 
  177000   0.92348793   -3.7152233   -3.7152233    -2.329993   0.03095107   -3.7152233    1.3852303   878832 
  178000   0.92387327   -3.7152771   -3.7152771   -2.3294687  0.031259137   -3.7152771    1.3858083   878832 
  179000    0.9231971   -3.7144882   -3.7144882   -2.3296941  0.031264265   -3.7144882    1.3847941   878832 
  180000    0.9224879   -3.7135281   -3.7135281   -2.3297978  0.029929497   -3.7135281    1.3837303   878832 
  181000    0.9249752   -3.7155211   -3.7155211   -2.3280599  0.029411038   -3.7155211    1.3874612   878832 
  182000    0.9233191   -3.7112445   -3.7112445   -2.3262674  0.035485602   -3.7112445    1.3849771   878832 
  183000   0.92405278   -3.7113971   -3.7113971   -2.3253195  0.036130258   -3.7113971    1.3860776   878832 
  184000   0.92528671   -3.7128601   -3.7128601   -2.3249317  0.034287072   -3.7128601    1.3879285   878832 
  185000   0.92419836   -3.7116888   -3.7116888   -2.3253928   0.03291901   -3.7116888     1.386296   878832 
  186000   0.92548635   -3.7131629   -3.7131629    -2.324935  0.032044955   -3.7131629    1.3882279   878832 
  187000   0.92512197   -3.7111739   -3.7111739   -2.3234925  0.034017215   -3.7111739    1.3876814   878832 
  188000   0.92565288   -3.7111487   -3.7111487   -2.3226709  0.034834784   -3.7111487    1.3884777   878832 
  189000   0.92427622   -3.7104449   -3.7104449   -2.3240322   0.03132016   -3.7104449    1.3864127   878832 
  190000   0.92468031   -3.7095678   -3.7095678   -2.3225489  0.032261309   -3.7095678    1.3870189   878832 
  191000   0.92550502   -3.7090842   -3.7090842   -2.3208283  0.035099324   -3.7090842    1.3882559   878832 
  192000   0.92548249   -3.7087518   -3.7087518   -2.3205296  0.032240739   -3.7087518    1.3882222   878832 
  193000   0.92485156   -3.7078644   -3.7078644   -2.3205887  0.036491241   -3.7078644    1.3872758   878832 
  194000   0.92528807   -3.7082988   -3.7082988   -2.3203683  0.033871993   -3.7082988    1.3879305   878832 
  195000   0.92505627   -3.7075134   -3.7075134   -2.3199305    0.0383561   -3.7075134    1.3875828   878832 
  196000   0.92572698   -3.7079698   -3.7079698   -2.3193809   0.03346798   -3.7079698    1.3885889   878832 
  197000   0.92532353    -3.707082    -3.707082   -2.3190983   0.03416729    -3.707082    1.3879837   878832 
  198000   0.92633647   -3.7076416   -3.7076416   -2.3181385  0.035522141   -3.7076416    1.3895031   878832 
  199000   0.92638566   -3.7072234   -3.7072234   -2.3176464  0.028906281   -3.7072234    1.3895769   878832 
  200000   0.92566003    -3.706297    -3.706297   -2.3178085  0.031245993    -3.706297    1.3884885   878832 
  201000   0.92574715   -3.7061807   -3.7061807   -2.3175615  0.032658813   -3.7061807    1.3886191   878832 
  202000   0.92564249   -3.7051345   -3.7051345   -2.3166723  0.033018466   -3.7051345    1.3884622   878832 
  203000   0.92493644    -3.704175    -3.704175    -2.316772   0.03754799    -3.704175    1.3874031   878832 
  204000   0.92488224   -3.7046637   -3.7046637   -2.3173419  0.031139086   -3.7046637    1.3873218   878832 
  205000   0.92492729   -3.7038261   -3.7038261   -2.3164368  0.030867141   -3.7038261    1.3873894   878832 
  206000   0.92535248   -3.7032158   -3.7032158   -2.3151887  0.032441776   -3.7032158    1.3880271   878832 
  207000   0.92598833   -3.7030811   -3.7030811   -2.3141002  0.030653289   -3.7030811    1.3889809   878832 
  208000   0.92632305   -3.7038165   -3.7038165   -2.3143335  0.033112752   -3.7038165     1.389483   878832 
  209000   0.92679628   -3.7038613   -3.7038613   -2.3136684  0.028946469   -3.7038613    1.3901928   878832 
  210000   0.92670394   -3.7033276   -3.7033276   -2.3132733    0.0313615   -3.7033276    1.3900543   878832 
  211000   0.92744942    -3.703432    -3.703432   -2.3122595  0.034418383    -3.703432    1.3911726   878832 
  212000   0.92693737   -3.7022352   -3.7022352   -2.3118308  0.033756849   -3.7022352    1.3904045   878832 
  213000    0.9267554   -3.7010346   -3.7010346   -2.3109031  0.036157569   -3.7010346    1.3901315   878832 
  214000   0.92674531   -3.7013192   -3.7013192   -2.3112028  0.030993925   -3.7013192    1.3901164   878832 
  215000   0.92694691   -3.7010786   -3.7010786   -2.3106599  0.029000394   -3.7010786    1.3904188   878832 
  216000    0.9262043     -3.69989     -3.69989   -2.3105852  0.030307723     -3.69989    1.3893049   878832 
  217000   0.92756827    -3.702189    -3.702189   -2.3108381  0.028666473    -3.702189    1.3913508   878832 
  218000   0.92784702   -3.7010951   -3.7010951   -2.3093262  0.032452168   -3.7010951     1.391769   878832 
  219000   0.92696771   -3.6999588   -3.6999588   -2.3095088   0.03700034   -3.6999588      1.39045   878832 
  220000   0.92853981   -3.7015756   -3.7015756   -2.3087674  0.032943992   -3.7015756    1.3928081   878832 
  221000   0.92794902   -3.7004039   -3.7004039    -2.308482  0.035310555   -3.7004039    1.3919219   878832 
  222000   0.92796625   -3.6993853   -3.6993853   -2.3074375  0.037700686   -3.6993853    1.3919478   878832 
  223000   0.92825056   -3.6985318   -3.6985318   -2.3061576  0.036372738   -3.6985318    1.3923743   878832 
  224000   0.92673309   -3.6970307   -3.6970307   -2.3069327  0.037986232   -3.6970307     1.390098   878832 
  225000   0.92853895   -3.6981798   -3.6981798    -2.305373  0.034467251   -3.6981798    1.3928068   878832 
  226000   0.92817332   -3.6977078   -3.6977078   -2.3054494  0.032072321   -3.6977078    1.3922584   878832 
  227000   0.92806013   -3.6976016   -3.6976016    -2.305513  0.033662212   -3.6976016    1.3920886   878832 
  228000    0.9273297   -3.6965132   -3.6965132   -2.3055202   0.03220594   -3.6965132     1.390993   878832 
  229000   0.92702969    -3.694948    -3.694948    -2.304405  0.031984251    -3.694948    1.3905429   878832 
  230000   0.92766458   -3.6943704   -3.6943704   -2.3028751  0.031442227   -3.6943704    1.3914953   878832 
  231000    0.9277158   -3.6946199   -3.6946199   -2.3030478  0.029714816   -3.6946199    1.3915721   878832 
  232000   0.92817416   -3.6957077   -3.6957077    -2.303448  0.030500459   -3.6957077    1.3922597   878832 
  233000   0.92741678   -3.6938227   -3.6938227   -2.3026991  0.034733655   -3.6938227    1.3911236   878832 
  234000   0.92769303   -3.6940004   -3.6940004   -2.3024624  0.038526256   -3.6940004     1.391538   878832 
  235000    0.9281088   -3.6940941   -3.6940941   -2.3019325  0.032440086   -3.6940941    1.3921616   878832 
  236000   0.92799402   -3.6935533   -3.6935533   -2.3015639  0.032083127   -3.6935533    1.3919895   878832 
  237000   0.92775357   -3.6925395   -3.6925395   -2.3009107  0.031879043   -3.6925395    1.3916288   878832 
  238000   0.92744152   -3.6918555   -3.6918555   -2.3006948  0.034040643   -3.6918555    1.3911607   878832 
  239000   0.92695998   -3.6904146   -3.6904146   -2.2999762  0.033024753   -3.6904146    1.3904384   878832 
  240000   0.92917682   -3.6916627   -3.6916627   -2.2978991  0.032018647   -3.6916627    1.3937637   878832 
  241000   0.92801168   -3.6903506   -3.6903506   -2.2983347  0.030503444   -3.6903506    1.3920159   878832 
  242000   0.92828688   -3.6901694   -3.6901694   -2.2977407  0.033961138   -3.6901694    1.3924287   878832 
  243000   0.92911477   -3.6911527   -3.6911527   -2.2974821  0.030994005   -3.6911527    1.3936706   878832 
  244000   0.92734589   -3.6886588   -3.6886588   -2.2976415  0.033931915   -3.6886588    1.3910173   878832 
  245000   0.92690024   -3.6876948   -3.6876948    -2.297346  0.032217924   -3.6876948    1.3903488   878832 
  246000   0.92723614   -3.6880332   -3.6880332   -2.2971805  0.030879084   -3.6880332    1.3908526   878832 
  247000   0.92695056   -3.6874655   -3.6874655   -2.2970412  0.032079604   -3.6874655    1.3904243   878832 
  248000   0.92786052   -3.6890564   -3.6890564   -2.2972672  0.026344256   -3.6890564    1.3917892   878832 
  249000   0.92789773   -3.6880685   -3.6880685   -2.2962235  0.031889574   -3.6880685     1.391845   878832 
  250000   0.92823183   -3.6873804   -3.6873804   -2.2950342  0.029090101   -3.6873804    1.3923462   878832 
  251000    0.9276584   -3.6867498   -3.6867498   -2.2952638  0.029858894   -3.6867498     1.391486   878832 
  252000   0.92761073   -3.6866256   -3.6866256    -2.295211  0.029580382   -3.6866256    1.3914145   878832 
  253000   0.92731307   -3.6851165   -3.6851165   -2.2941485  0.033443835   -3.6851165     1.390968   878832 
  254000   0.92808741   -3.6853168   -3.6853168   -2.2931873  0.032366689   -3.6853168    1.3921295   878832 
  255000    0.9284221   -3.6851198   -3.6851198   -2.2924883  0.033489349   -3.6851198    1.3926316   878832 
  256000   0.92904105   -3.6856796   -3.6856796   -2.2921196  0.031565854   -3.6856796      1.39356   878832 
  257000   0.92831945   -3.6850664   -3.6850664   -2.2925888  0.035824164   -3.6850664    1.3924776   878832 
  258000   0.93010656   -3.6871376   -3.6871376   -2.2919794   0.03156371   -3.6871376    1.3951583   878832 
  259000   0.92881092   -3.6847419   -3.6847419   -2.2915271  0.033274486   -3.6847419    1.3932148   878832 
  260000   0.92997491   -3.6856632   -3.6856632   -2.2907024  0.033069197   -3.6856632    1.3949608   878832 
  261000   0.92958233   -3.6854957   -3.6854957   -2.2911238  0.035399508   -3.6854957    1.3943719   878832 
  262000   0.92846151   -3.6839991   -3.6839991   -2.2913085  0.033523362   -3.6839991    1.3926907   878832 
  263000   0.92939229   -3.6845653   -3.6845653   -2.2904784  0.032316261   -3.6845653    1.3940868   878832 
  264000   0.92887237   -3.6833994   -3.6833994   -2.2900924  0.031137859   -3.6833994     1.393307   878832 
  265000   0.92883376   -3.6829989   -3.6829989   -2.2897498  0.032921484   -3.6829989    1.3932491   878832 
  266000   0.93026393   -3.6842993   -3.6842993    -2.288905  0.034704977   -3.6842993    1.3953943   878832 
  267000   0.92957165   -3.6837593   -3.6837593   -2.2894034   0.03449876   -3.6837593    1.3943559   878832 
  268000   0.93002815   -3.6846325   -3.6846325   -2.2895918  0.035349823   -3.6846325    1.3950406   878832 
  269000   0.92999906   -3.6841573   -3.6841573   -2.2891603  0.035243087   -3.6841573     1.394997   878832 
  270000   0.93066995   -3.6850157   -3.6850157   -2.2890124    0.0345631   -3.6850157    1.3960033   878832 
  271000   0.93074058   -3.6846236   -3.6846236   -2.2885143   0.03391012   -3.6846236    1.3961093   878832 
  272000   0.92997886   -3.6833289   -3.6833289   -2.2883622  0.036152642   -3.6833289    1.3949667   878832 
  273000   0.92912094   -3.6817608   -3.6817608   -2.2880809   0.03301049   -3.6817608    1.3936798   878832 
  274000   0.92896131     -3.68133     -3.68133   -2.2878897  0.033700155     -3.68133    1.3934404   878832 
  275000   0.92981182   -3.6819962   -3.6819962     -2.28728  0.032767889   -3.6819962    1.3947161   878832 
  276000   0.92998668   -3.6816492   -3.6816492   -2.2866708  0.033273916   -3.6816492    1.3949784   878832 
  277000   0.92961753   -3.6805401   -3.6805401   -2.2861154  0.035490973   -3.6805401    1.3944247   878832 
  278000   0.92901914   -3.6789396   -3.6789396   -2.2854125  0.034067508   -3.6789396    1.3935271   878832 
  279000   0.93065225   -3.6805688   -3.6805688    -2.284592  0.036876333   -3.6805688    1.3959768   878832 
  280000   0.93052035   -3.6813676   -3.6813676   -2.2855886  0.029680781   -3.6813676    1.3957789   878832 
  281000   0.92954058   -3.6796178   -3.6796178   -2.2853086  0.033057708   -3.6796178    1.3943093   878832 
  282000   0.93043096   -3.6800695   -3.6800695   -2.2844247  0.034997913   -3.6800695    1.3956448   878832 
  283000   0.93025978   -3.6796003   -3.6796003   -2.2842122  0.035719499   -3.6796003    1.3953881   878832 
  284000   0.93101374   -3.6802416   -3.6802416   -2.2837226  0.035999026   -3.6802416     1.396519   878832 
  285000   0.93143633   -3.6795649   -3.6795649    -2.282412  0.038087719   -3.6795649    1.3971529   878832 
  286000   0.93034805   -3.6783433   -3.6783433   -2.2828228  0.032285342   -3.6783433    1.3955205   878832 
  287000   0.93027676   -3.6781398   -3.6781398   -2.2827262   0.02990879   -3.6781398    1.3954135   878832 
  288000   0.93069834   -3.6776561   -3.6776561   -2.2816102  0.034190978   -3.6776561    1.3960459   878832 
  289000   0.93098082   -3.6786573   -3.6786573   -2.2821877  0.030673486   -3.6786573    1.3964696   878832 
  290000   0.93027698   -3.6780868   -3.6780868   -2.2826729  0.028781249   -3.6780868    1.3954139   878832 
  291000   0.93038572   -3.6774959   -3.6774959   -2.2819189  0.031582974   -3.6774959     1.395577   878832 
  292000   0.92958031   -3.6763126   -3.6763126   -2.2819437  0.031786379   -3.6763126    1.3943689   878832 
  293000    0.9299005   -3.6759936   -3.6759936   -2.2811444  0.034571628   -3.6759936    1.3948492   878832 
  294000   0.92989068   -3.6758246   -3.6758246   -2.2809902  0.035577219   -3.6758246    1.3948344   878832 
  295000   0.92970295   -3.6747619   -3.6747619    -2.280209  0.033528009   -3.6747619    1.3945528   878832 
  296000   0.93098582   -3.6760487   -3.6760487   -2.2795716  0.030656086   -3.6760487    1.3964771   878832 
  297000   0.93021707    -3.673954    -3.673954     -2.27863  0.030599457    -3.673954     1.395324   878832 
  298000   0.93127045   -3.6756137   -3.6756137   -2.2787097  0.030374815   -3.6756137    1.3969041   878832 
  299000    0.9310935   -3.6752953   -3.6752953   -2.2786567  0.028485936   -3.6752953    1.3966387   878832 
  300000    0.9304647   -3.6744735   -3.6744735    -2.278778  0.033516692   -3.6744735    1.3956955   878832 
  301000   0.93071865   -3.6739627   -3.6739627   -2.2778863  0.037080812   -3.6739627    1.3960764   878832 
  302000   0.93014087   -3.6723954   -3.6723954   -2.2771856  0.031069293   -3.6723954    1.3952097   878832 
  303000   0.93091384    -3.672121    -3.672121   -2.2757519  0.031827965    -3.672121    1.3963692   878832 
  304000   0.93150177   -3.6732945   -3.6732945   -2.2760434  0.031948941   -3.6732945    1.3972511   878832 
  305000   0.93166155   -3.6735796   -3.6735796   -2.2760888  0.027500223   -3.6735796    1.3974907   878832 
  306000   0.93216015   -3.6734996   -3.6734996   -2.2752609  0.032823021   -3.6734996    1.3982386   878832 
  307000   0.93184395   -3.6724619   -3.6724619   -2.2746975  0.033658002   -3.6724619    1.3977643   878832 
  308000   0.93228464   -3.6726146   -3.6726146   -2.2741892  0.032947945   -3.6726146    1.3984254   878832 
  309000   0.93174786   -3.6718154   -3.6718154   -2.2741952  0.035369248   -3.6718154    1.3976202   878832 
  310000   0.93075353   -3.6698695   -3.6698695   -2.2737408  0.033211053   -3.6698695    1.3961287   878832 
  311000   0.93105935   -3.6708029   -3.6708029   -2.2742155  0.033177679   -3.6708029    1.3965874   878832 
  312000   0.93194256   -3.6714013   -3.6714013   -2.2734891   0.03412122   -3.6714013    1.3979122   878832 
  313000   0.93195226    -3.671114    -3.671114   -2.2731872  0.033205242    -3.671114    1.3979268   878832 
  314000   0.93107494   -3.6707352   -3.6707352   -2.2741244  0.032388073   -3.6707352    1.3966108   878832 
  315000   0.93169141   -3.6703143   -3.6703143   -2.2727788  0.034913027   -3.6703143    1.3975355   878832 
  316000   0.93066249   -3.6685409   -3.6685409   -2.2725487  0.034525149   -3.6685409    1.3959921   878832 
  317000   0.93209595   -3.6702455   -3.6702455   -2.2721031   0.03089995   -3.6702455    1.3981423   878832 
  318000    0.9311141   -3.6688973   -3.6688973   -2.2722277  0.030370685   -3.6688973    1.3966696   878832 
  319000   0.93145672    -3.669399    -3.669399   -2.2722155  0.032492088    -3.669399    1.3971835   878832 
  320000    0.9321787   -3.6700045   -3.6700045    -2.271738  0.033962982   -3.6700045    1.3982665   878832 
  321000   0.93230541   -3.6701444   -3.6701444   -2.2716879  0.033174576   -3.6701444    1.3984565   878832 
  322000   0.93216308   -3.6692791   -3.6692791   -2.2710361  0.033044983   -3.6692791     1.398243   878832 
  323000   0.93155131   -3.6677522   -3.6677522   -2.2704268  0.033134632   -3.6677522    1.3973254   878832 
  324000   0.93167461   -3.6673071   -3.6673071   -2.2697968  0.034155712   -3.6673071    1.3975103   878832 
  325000    0.9313627   -3.6666809   -3.6666809   -2.2696385  0.034346507   -3.6666809    1.3970425   878832 
  326000   0.93117371   -3.6665261   -3.6665261   -2.2697672  0.037154453   -3.6665261     1.396759   878832 
  327000   0.93223974   -3.6680712   -3.6680712   -2.2697132  0.030158401   -3.6680712     1.398358   878832 
  328000   0.93103835   -3.6660941   -3.6660941   -2.2695381  0.035202168   -3.6660941    1.3965559   878832 
  329000   0.93209861   -3.6674829   -3.6674829   -2.2693366  0.035107819   -3.6674829    1.3981463   878832 
  330000   0.93192722   -3.6665901   -3.6665901   -2.2687009  0.032818357   -3.6665901    1.3978892   878832 
  331000   0.93177294   -3.6662242   -3.6662242   -2.2685664  0.036407147   -3.6662242    1.3976578   878832 
  332000   0.93197103   -3.6655089   -3.6655089   -2.2675539   0.03715376   -3.6655089     1.397955   878832 
  333000   0.93342124   -3.6667956   -3.6667956   -2.2666653  0.036475815   -3.6667956    1.4001303   878832 
  334000   0.93358909   -3.6664942   -3.6664942   -2.2661121  0.032468195   -3.6664942     1.400382   878832 
  335000   0.93292028   -3.6653612   -3.6653612   -2.2659824  0.034609438   -3.6653612    1.3993788   878832 
  336000   0.93499257   -3.6683353   -3.6683353    -2.265848    0.0328102   -3.6683353    1.4024873   878832 
  337000   0.93346353   -3.6659367   -3.6659367    -2.265743  0.038048067   -3.6659367    1.4001937   878832 
  338000   0.93365431   -3.6662431   -3.6662431   -2.2657632  0.036197697   -3.6662431    1.4004799   878832 
  339000   0.93276033   -3.6643768   -3.6643768   -2.2652379  0.034667065   -3.6643768    1.3991389   878832 
  340000     0.933627   -3.6657289   -3.6657289     -2.26529  0.030756635   -3.6657289    1.4004389   878832 
  341000   0.93349749   -3.6651058   -3.6651058   -2.2648612    0.0307879   -3.6651058    1.4002446   878832 
  342000   0.93174289   -3.6628632   -3.6628632   -2.2652504  0.034862276   -3.6628632    1.3976128   878832 
  343000   0.93175889   -3.6622546   -3.6622546   -2.2646179  0.029649899   -3.6622546    1.3976367   878832 
  344000   0.93264046   -3.6621318   -3.6621318   -2.2631727  0.031983688   -3.6621318    1.3989591   878832 
  345000   0.93307364   -3.6623123   -3.6623123   -2.2627034  0.032495013   -3.6623123    1.3996089   878832 
  346000   0.93262583   -3.6615031   -3.6615031    -2.262566  0.034617643   -3.6615031    1.3989371   878832 
  347000   0.93199486   -3.6610448   -3.6610448   -2.2630541  0.039287214   -3.6610448    1.3979907   878832 
  348000   0.93368287   -3.6630012   -3.6630012   -2.2624785  0.033026364   -3.6630012    1.4005227   878832 
  349000   0.93253235   -3.6616015   -3.6616015   -2.2628046  0.033944819   -3.6616015    1.3987969   878832 
  350000   0.93256188   -3.6611137   -3.6611137   -2.2622724   0.03541007   -3.6611137    1.3988412   878832 
  351000   0.93342604   -3.6608468   -3.6608468   -2.2607093  0.033850755   -3.6608468    1.4001375   878832 
  352000   0.93265673   -3.6596188   -3.6596188   -2.2606353  0.033261256   -3.6596188    1.3989835   878832 
  353000   0.93353781   -3.6601281   -3.6601281    -2.259823  0.031771642   -3.6601281    1.4003051   878832 
  354000   0.93252524   -3.6583584   -3.6583584   -2.2595722   0.03450109   -3.6583584    1.3987863   878832 
  355000   0.93414109   -3.6596278   -3.6596278   -2.2584177  0.029507626   -3.6596278      1.40121   878832 
  356000   0.93270702   -3.6581455   -3.6581455   -2.2590866  0.032556241   -3.6581455    1.3990589   878832 
  357000   0.93256113   -3.6577465   -3.6577465   -2.2589064  0.031627052   -3.6577465    1.3988401   878832 
  358000   0.93385819    -3.659327    -3.659327   -2.2585414  0.033178296    -3.659327    1.4007857   878832 
  359000    0.9345442   -3.6594985   -3.6594985   -2.2576838  0.031655258   -3.6594985    1.4018147   878832 
  360000   0.93402019   -3.6590384   -3.6590384   -2.2580097  0.036330112   -3.6590384    1.4010287   878832 
  361000   0.93346883   -3.6581773   -3.6581773   -2.2579756   0.03486905   -3.6581773    1.4002017   878832 
  362000   0.93350027   -3.6569956   -3.6569956   -2.2567468  0.034981607   -3.6569956    1.4002488   878832 
  363000   0.93429592   -3.6567863   -3.6567863    -2.255344  0.033907274   -3.6567863    1.4014423   878832 
  364000    0.9337131   -3.6567301   -3.6567301    -2.256162  0.035705492   -3.6567301    1.4005681   878832 
  365000   0.93389591   -3.6560742   -3.6560742   -2.2552319  0.035339151   -3.6560742    1.4008423   878832 
  366000   0.93559466   -3.6585829   -3.6585829   -2.2551925  0.031155355   -3.6585829    1.4033904   878832 
  367000   0.93442491   -3.6563673   -3.6563673   -2.2547315  0.033986554   -3.6563673    1.4016358   878832 
  368000    0.9342529   -3.6562444   -3.6562444   -2.2548667  0.034150297   -3.6562444    1.4013777   878832 
  369000   0.93427911   -3.6560182   -3.6560182   -2.2546011  0.031025188   -3.6560182    1.4014171   878832 
  370000    0.9342303   -3.6550513   -3.6550513   -2.2537075  0.031235065   -3.6550513    1.4013439   878832 
  371000   0.93381932   -3.6537862   -3.6537862   -2.2530588   0.03463368   -3.6537862    1.4007274   878832 
  372000   0.93376225   -3.6530904   -3.6530904   -2.2524486   0.03444941   -3.6530904    1.4006418   878832 
  373000   0.93490838   -3.6546836   -3.6546836   -2.2523226  0.035052631   -3.6546836     1.402361   878832 
  374000   0.93384471   -3.6516349   -3.6516349   -2.2508695   0.03558486   -3.6516349    1.4007655   878832 
  375000   0.93396553   -3.6517433   -3.6517433   -2.2507966  0.033740921   -3.6517433    1.4009467   878832 
  376000   0.93562125   -3.6534188   -3.6534188   -2.2499886  0.032672137   -3.6534188    1.4034303   878832 
  377000   0.93474665   -3.6511253   -3.6511253   -2.2490069   0.03445208   -3.6511253    1.4021184   878832 
  378000   0.93473352   -3.6522943   -3.6522943   -2.2501957  0.031318709   -3.6522943    1.4020987   878832 
  379000   0.93384414   -3.6505042   -3.6505042   -2.2497396  0.032077194   -3.6505042    1.4007646   878832 
  380000   0.93513428   -3.6520428   -3.6520428    -2.249343  0.027555587   -3.6520428    1.4026998   878832 
  381000   0.93345841   -3.6492402   -3.6492402   -2.2490541  0.031931969   -3.6492402     1.400186   878832 
  382000   0.93420007    -3.649395    -3.649395   -2.2480965  0.029121422    -3.649395    1.4012985   878832 
  383000   0.93345971   -3.6485484   -3.6485484   -2.2483604  0.032146784   -3.6485484     1.400188   878832 
  384000   0.93408167   -3.6483386   -3.6483386   -2.2472177  0.030051523   -3.6483386    1.4011209   878832 
  385000   0.93508286   -3.6490367   -3.6490367   -2.2464141    0.0328611   -3.6490367    1.4026227   878832 
  386000   0.93433133   -3.6490545   -3.6490545   -2.2475591  0.035283767   -3.6490545    1.4014954   878832 
  387000   0.93460645   -3.6486774   -3.6486774   -2.2467693  0.033777586   -3.6486774    1.4019081   878832 
  388000   0.93462885   -3.6478042   -3.6478042   -2.2458625  0.033747575   -3.6478042    1.4019417   878832 
  389000   0.93511064   -3.6488032   -3.6488032   -2.2461389  0.032949504   -3.6488032    1.4026644   878832 
  390000   0.93587609   -3.6489907   -3.6489907   -2.2451781  0.031668068   -3.6489907    1.4038125   878832 
  391000   0.93465133   -3.6477562   -3.6477562   -2.2457808    0.0359822   -3.6477562    1.4019754   878832 
  392000   0.93415471   -3.6467331   -3.6467331   -2.2455027  0.033268076   -3.6467331    1.4012305   878832 
  393000   0.93461535   -3.6475447   -3.6475447   -2.2456233  0.032256609   -3.6475447    1.4019214   878832 
  394000    0.9343533   -3.6458893   -3.6458893    -2.244361  0.030254013   -3.6458893    1.4015284   878832 
  395000   0.93514606   -3.6468154   -3.6468154   -2.2440979  0.032541463   -3.6468154    1.4027175   878832 
  396000   0.93461895   -3.6461341   -3.6461341   -2.2442072  0.032789266   -3.6461341    1.4019268   878832 
  397000   0.93552959   -3.6472202   -3.6472202   -2.2439274  0.032728014   -3.6472202    1.4032928   878832 
  398000   0.93543489     -3.64759     -3.64759   -2.2444392  0.034661911     -3.64759    1.4031507   878832 
  399000   0.93596551   -3.6474091   -3.6474091   -2.2434625  0.032547431   -3.6474091    1.4039467   878832 
  400000     0.934604   -3.6453607   -3.6453607   -2.2434563  0.035355064   -3.6453607    1.4019044   878832 
  401000   0.93524057   -3.6456673   -3.6456673    -2.242808  0.033817527   -3.6456673    1.4028593   878832 
  402000   0.93563703   -3.6460006   -3.6460006   -2.2425467  0.029387015   -3.6460006     1.403454   878832 
  403000   0.93614199   -3.6451371   -3.6451371   -2.2409257  0.033602722   -3.6451371    1.4042114   878832 
  404000   0.93574177   -3.6449646   -3.6449646   -2.2413535  0.034521106   -3.6449646    1.4036111   878832 
  405000   0.93689265   -3.6473407   -3.6473407   -2.2420034   0.03265889   -3.6473407    1.4053374   878832 
  406000   0.93580058     -3.64564     -3.64564   -2.2419408  0.037521284     -3.64564    1.4036993   878832 
  407000   0.93607229   -3.6466585   -3.6466585   -2.2425517  0.034212104   -3.6466585    1.4041068   878832 
  408000   0.93568308   -3.6455572   -3.6455572   -2.2420342  0.034247724   -3.6455572     1.403523   878832 
  409000    0.9353838   -3.6449785   -3.6449785   -2.2419044  0.033693906   -3.6449785    1.4030741   878832 
  410000   0.93559346   -3.6456993   -3.6456993   -2.2423107  0.031685645   -3.6456993    1.4033886   878832 
  411000   0.93489782   -3.6449728   -3.6449728   -2.2426277  0.031395341   -3.6449728    1.4023451   878832 
  412000   0.93406983   -3.6435642   -3.6435642    -2.242461  0.035485582   -3.6435642    1.4011032   878832 
  413000   0.93580444   -3.6455979   -3.6455979   -2.2418929   0.03183853   -3.6455979    1.4037051   878832 
  414000   0.93429904   -3.6440668   -3.6440668   -2.2426198  0.031419467   -3.6440668     1.401447   878832 
  415000   0.93484073   -3.6435777   -3.6435777   -2.2413182  0.030119013   -3.6435777    1.4022595   878832 
  416000   0.93577753   -3.6450155   -3.6450155   -2.2413508  0.028672886   -3.6450155    1.4036647   878832 
  417000   0.93591119   -3.6444699   -3.6444699   -2.2406047   0.03167983   -3.6444699    1.4038652   878832 
  418000   0.93603008   -3.6450092   -3.6450092   -2.2409657  0.033292176   -3.6450092    1.4040435   878832 
  419000   0.93631777   -3.6441061   -3.6441061   -2.2396311  0.035110695   -3.6441061    1.4044751   878832 
  420000   0.93670148    -3.644032    -3.644032   -2.2389814  0.035046114    -3.644032    1.4050506   878832 
  421000   0.93757888   -3.6445167   -3.6445167     -2.23815  0.035533887   -3.6445167    1.4063667   878832 
  422000    0.9380279   -3.6439925   -3.6439925   -2.2369522   0.03609878   -3.6439925    1.4070403   878832 
  423000   0.93747412   -3.6441218   -3.6441218   -2.2379122   0.03871754   -3.6441218    1.4062096   878832 
  424000   0.93815372   -3.6447627   -3.6447627   -2.2375337  0.036156333   -3.6447627     1.407229   878832 
  425000   0.93773986   -3.6444197   -3.6444197   -2.2378115  0.038677114   -3.6444197    1.4066082   878832 
  426000   0.93782421   -3.6447491   -3.6447491   -2.2380144  0.036860748   -3.6447491    1.4067347   878832 
  427000   0.93742754   -3.6435495   -3.6435495   -2.2374098  0.035396659   -3.6435495    1.4061397   878832 
  428000   0.93704796   -3.6441933   -3.6441933   -2.2386229  0.032248488   -3.6441933    1.4055703   878832 
  429000   0.93513969   -3.6410807   -3.6410807   -2.2383728  0.033969776   -3.6410807    1.4027079   878832 
  430000   0.93580221   -3.6414869   -3.6414869   -2.2377852  0.033496472   -3.6414869    1.4037017   878832 
  431000   0.93570864   -3.6415142   -3.6415142   -2.2379529  0.029271432   -3.6415142    1.4035614   878832 
  432000   0.93558746   -3.6403451   -3.6403451   -2.2369655  0.031462748   -3.6403451    1.4033796   878832 
  433000   0.93538529   -3.6408554   -3.6408554    -2.237779  0.032528121   -3.6408554    1.4030763   878832 
  434000   0.93642831    -3.641269    -3.641269   -2.2366281  0.031109538    -3.641269    1.4046409   878832 
  435000   0.93600652   -3.6397131   -3.6397131   -2.2357049   0.03390263   -3.6397131    1.4040082   878832 
  436000   0.93824317   -3.6429967   -3.6429967   -2.2356336  0.031904658   -3.6429967    1.4073632   878832 
  437000   0.93686339   -3.6407678   -3.6407678   -2.2354743  0.035344013   -3.6407678    1.4052935   878832 
  438000    0.9372357   -3.6409944   -3.6409944   -2.2351424  0.037675348   -3.6409944     1.405852   878832 
  439000    0.9366638   -3.6395904   -3.6395904   -2.2345963  0.037322895   -3.6395904    1.4049941   878832 
  440000   0.93707644   -3.6397083   -3.6397083   -2.2340953  0.032074043   -3.6397083    1.4056131   878832 
  441000    0.9368786   -3.6397129   -3.6397129   -2.2343966  0.032377164   -3.6397129    1.4053163   878832 
  442000   0.93618684   -3.6386118   -3.6386118   -2.2343331  0.034824037   -3.6386118    1.4042787   878832 
  443000   0.93599727   -3.6376913   -3.6376913    -2.233697  0.031914837   -3.6376913    1.4039943   878832 
  444000   0.93719282   -3.6387259   -3.6387259   -2.2329383  0.031964422   -3.6387259    1.4057876   878832 
  445000   0.93593325   -3.6364226   -3.6364226   -2.2325243  0.033099073   -3.6364226    1.4038983   878832 
  446000   0.93728672   -3.6373675   -3.6373675    -2.231439  0.035817021   -3.6373675    1.4059285   878832 
  447000    0.9375065   -3.6366602   -3.6366602   -2.2304021  0.036084693   -3.6366602    1.4062581   878832 
  448000   0.93758952   -3.6373795   -3.6373795   -2.2309968  0.035582096   -3.6373795    1.4063827   878832 
  449000   0.93635531   -3.6351984   -3.6351984    -2.230667    0.0368035   -3.6351984    1.4045314   878832 
  450000   0.93756164   -3.6364566   -3.6364566   -2.2301157  0.033954277   -3.6364566    1.4063409   878832 
  451000   0.93879583   -3.6374084   -3.6374084   -2.2292162  0.038223032   -3.6374084    1.4081922   878832 
  452000   0.93806534   -3.6371062   -3.6371062   -2.2300098  0.030137733   -3.6371062    1.4070964   878832 
  453000   0.93763386   -3.6360173   -3.6360173   -2.2295682  0.031174492   -3.6360173    1.4064492   878832 
  454000   0.93752803   -3.6355349   -3.6355349   -2.2292444  0.030750768   -3.6355349    1.4062904   878832 
  455000   0.93708784   -3.6346067   -3.6346067   -2.2289766  0.032242209   -3.6346067    1.4056302   878832 
  456000   0.93683622    -3.634366    -3.634366   -2.2291133  0.028180159    -3.634366    1.4052527   878832 
  457000   0.93690868   -3.6343856   -3.6343856   -2.2290242    0.0325613   -3.6343856    1.4053614   878832 
  458000   0.93618952   -3.6336367   -3.6336367    -2.229354  0.032204083   -3.6336367    1.4042827   878832 
  459000    0.9366929   -3.6333186   -3.6333186   -2.2282809  0.032308751   -3.6333186    1.4050378   878832 
  460000   0.93770084   -3.6347368   -3.6347368   -2.2281872  0.027677186   -3.6347368    1.4065497   878832 
  461000   0.93756537    -3.633162    -3.633162   -2.2268155  0.034688643    -3.633162    1.4063465   878832 
  462000   0.93713624    -3.632849    -3.632849   -2.2271463  0.036473745    -3.632849    1.4057028   878832 
  463000   0.93693374   -3.6330196   -3.6330196   -2.2276205   0.03971035   -3.6330196     1.405399   878832 
  464000   0.93768213   -3.6341051   -3.6341051   -2.2275835  0.034628395   -3.6341051    1.4065216   878832 
  465000   0.93842127   -3.6341178   -3.6341178   -2.2264875  0.032135508   -3.6341178    1.4076303   878832 
  466000   0.93837204   -3.6341328   -3.6341328   -2.2265763  0.031753568   -3.6341328    1.4075565   878832 
  467000   0.93815995    -3.632973    -3.632973   -2.2257347  0.034323245    -3.632973    1.4072383   878832 
  468000   0.93765875   -3.6322018   -3.6322018   -2.2257152  0.033990977   -3.6322018    1.4064865   878832 
  469000   0.93854221    -3.633251    -3.633251   -2.2254393  0.032987485    -3.633251    1.4078117   878832 
  470000   0.93844777   -3.6329579   -3.6329579   -2.2252879  0.030235608   -3.6329579    1.4076701   878832 
  471000   0.93817224   -3.6311554   -3.6311554   -2.2238987  0.034857562   -3.6311554    1.4072568   878832 
  472000   0.93777971   -3.6313303   -3.6313303   -2.2246623  0.032724952   -3.6313303     1.406668   878832 
  473000   0.93760644   -3.6314069   -3.6314069   -2.2249988  0.034474661   -3.6314069    1.4064081   878832 
  474000    0.9371493   -3.6310339   -3.6310339   -2.2253115  0.031064189   -3.6310339    1.4057223   878832 
  475000   0.93851013   -3.6324065   -3.6324065   -2.2246429  0.030014183   -3.6324065    1.4077636   878832 
  476000   0.93802682   -3.6324296   -3.6324296   -2.2253909  0.034577543   -3.6324296    1.4070386   878832 
  477000   0.93780616   -3.6314922   -3.6314922   -2.2247846  0.035341638   -3.6314922    1.4067076   878832 
  478000   0.93843542   -3.6312441   -3.6312441   -2.2235926  0.035014019   -3.6312441    1.4076515   878832 
  479000   0.93918044   -3.6319947   -3.6319947   -2.2232256  0.034001875   -3.6319947    1.4087691   878832 
  480000   0.93897395   -3.6309345   -3.6309345   -2.2224751  0.034791671   -3.6309345    1.4084593   878832 
  481000   0.94007099   -3.6324811   -3.6324811   -2.2223762  0.037149247   -3.6324811    1.4101049   878832 
  482000   0.93942252   -3.6310155   -3.6310155   -2.2218834  0.036929367   -3.6310155    1.4091322   878832 
  483000   0.93975631   -3.6316692   -3.6316692   -2.2220363  0.035784952   -3.6316692    1.4096329   878832 
  484000   0.93859963   -3.6309644   -3.6309644   -2.2230666  0.037548782   -3.6309644    1.4078978   878832 
  485000   0.93857433   -3.6303921   -3.6303921   -2.2225322  0.037263001   -3.6303921    1.4078599   878832 
  486000   0.93770331   -3.6290976   -3.6290976   -2.2225443  0.033541042   -3.6290976    1.4065534   878832 
  487000   0.93790142   -3.6288405   -3.6288405   -2.2219899  0.032123412   -3.6288405    1.4068505   878832 
  488000   0.93825084   -3.6284617   -3.6284617    -2.221087  0.034187571   -3.6284617    1.4073747   878832 
  489000   0.93756863   -3.6272844   -3.6272844    -2.220933  0.031487148   -3.6272844    1.4063513   878832 
  490000   0.93772611   -3.6282793   -3.6282793   -2.2216917  0.031630191   -3.6282793    1.4065876   878832 
  491000   0.93724415   -3.6275513   -3.6275513   -2.2216867  0.033802542   -3.6275513    1.4058646   878832 
  492000   0.93887163   -3.6291696   -3.6291696   -2.2208638  0.034176567   -3.6291696    1.4083058   878832 
  493000   0.93923249   -3.6292154   -3.6292154   -2.2203683   0.03257517   -3.6292154    1.4088471   878832 
  494000   0.93953914   -3.6286963   -3.6286963   -2.2193892  0.035364842   -3.6286963    1.4093071   878832 
  495000   0.93900287   -3.6281938   -3.6281938   -2.2196911  0.036588294   -3.6281938    1.4085027   878832 
  496000    0.9392111   -3.6278492   -3.6278492   -2.2190342  0.033052797   -3.6278492     1.408815   878832 
  497000   0.93904824   -3.6280768   -3.6280768   -2.2195061  0.039275953   -3.6280768    1.4085708   878832 
  498000   0.93879937   -3.6269135   -3.6269135    -2.218716  0.032294917   -3.6269135    1.4081974   878832 
  499000   0.93839836   -3.6255719   -3.6255719   -2.2179759  0.038777781   -3.6255719    1.4075959   878832 
  500000    0.9398591   -3.6281787   -3.6281787   -2.2183916  0.033929019   -3.6281787    1.4097871   878832 
  501000   0.93960153   -3.6273065   -3.6273065   -2.2179058  0.038129299   -3.6273065    1.4094007   878832 
  502000    0.9393934   -3.6264663   -3.6264663   -2.2173778  0.036113627   -3.6264663    1.4090885   878832 
  503000   0.93904745   -3.6267174   -3.6267174   -2.2181478  0.034281523   -3.6267174    1.4085696   878832 
  504000   0.93954329   -3.6266153   -3.6266153    -2.217302  0.031150104   -3.6266153    1.4093133   878832 
  505000   0.93911899    -3.625471    -3.625471   -2.2167941  0.034173715    -3.625471    1.4086769   878832 
  506000   0.93867609   -3.6249807   -3.6249807   -2.2169681  0.032125031   -3.6249807    1.4080125   878832 
  507000   0.93906048    -3.625092    -3.625092   -2.2165029  0.035624162    -3.625092    1.4085891   878832 
  508000   0.93967102   -3.6257035   -3.6257035   -2.2161986  0.035250164   -3.6257035    1.4095049   878832 
  509000   0.93968443   -3.6247543   -3.6247543   -2.2152292   0.03533173   -3.6247543     1.409525   878832 
  510000   0.94009106   -3.6250155   -3.6250155   -2.2148805  0.036516263   -3.6250155     1.410135   878832 
  511000   0.94023683   -3.6247582   -3.6247582   -2.2144046  0.037010537   -3.6247582    1.4103536   878832 
  512000   0.94061178   -3.6259836   -3.6259836   -2.2150675  0.037987258   -3.6259836    1.4109161   878832 
  513000   0.94098378   -3.6257216   -3.6257216   -2.2142475  0.034069557   -3.6257216    1.4114741   878832 
  514000   0.94016514   -3.6245155   -3.6245155   -2.2142693  0.036522067   -3.6245155    1.4102461   878832 
  515000   0.94005859   -3.6238734   -3.6238734   -2.2137871  0.036843281   -3.6238734    1.4100863   878832 
  516000   0.93984162    -3.623323    -3.623323   -2.2135621  0.036200788    -3.623323    1.4097608   878832 
  517000   0.93908935   -3.6223106   -3.6223106   -2.2136782  0.033536191   -3.6223106    1.4086324   878832 
  518000   0.93950579   -3.6211809   -3.6211809   -2.2119238  0.031793187   -3.6211809    1.4092571   878832 
  519000   0.93912733   -3.6207125   -3.6207125   -2.2120231  0.032249286   -3.6207125    1.4086894   878832 
  520000   0.93970089   -3.6217135   -3.6217135   -2.2121637   0.03399069   -3.6217135    1.4095497   878832 
  521000   0.93935317   -3.6204574   -3.6204574   -2.2114292   0.03188274   -3.6204574    1.4090282   878832 
  522000   0.93896916   -3.6198389   -3.6198389   -2.2113867  0.037038229   -3.6198389    1.4084521   878832 
  523000   0.93918369    -3.620011    -3.620011    -2.211237  0.037109505    -3.620011    1.4087739   878832 
  524000   0.93979078   -3.6212612   -3.6212612   -2.2115767  0.031519933   -3.6212612    1.4096846   878832 
  525000   0.94027563   -3.6211732   -3.6211732   -2.2107614  0.032223396   -3.6211732    1.4104118   878832 
  526000   0.93985182   -3.6191138   -3.6191138   -2.2093377  0.037977344   -3.6191138    1.4097761   878832 
  527000   0.93908525   -3.6180297   -3.6180297   -2.2094035  0.033962316   -3.6180297    1.4086263   878832 
  528000   0.93930954   -3.6188411   -3.6188411   -2.2098784  0.035421786   -3.6188411    1.4089627   878832 
  529000   0.93926266   -3.6178227   -3.6178227   -2.2089303  0.030308065   -3.6178227    1.4088924   878832 
  530000   0.93946375    -3.617549    -3.617549   -2.2083549  0.034490903    -3.617549     1.409194   878832 
  531000   0.93798782   -3.6148756   -3.6148756   -2.2078955  0.035239406   -3.6148756    1.4069801   878832 
  532000   0.93826443   -3.6154874   -3.6154874   -2.2080923  0.032280187   -3.6154874     1.407395   878832 
  533000   0.93983283   -3.6168948   -3.6168948   -2.2071472  0.031453786   -3.6168948    1.4097476   878832 
  534000   0.94035944    -3.616837    -3.616837   -2.2062994  0.033732091    -3.616837    1.4105376   878832 
  535000   0.93995277   -3.6162096   -3.6162096   -2.2062821  0.035340166   -3.6162096    1.4099275   878832 
  536000   0.94102111   -3.6175521   -3.6175521    -2.206022  0.033850429   -3.6175521    1.4115301   878832 
  537000   0.94111607   -3.6176247   -3.6176247   -2.2059522  0.034774879   -3.6176247    1.4116725   878832 
  538000   0.94063328   -3.6171749   -3.6171749   -2.2062266  0.036881694   -3.6171749    1.4109483   878832 
  539000    0.9409687   -3.6170617   -3.6170617   -2.2056103  0.035801956   -3.6170617    1.4114515   878832 
  540000   0.94134094   -3.6173421   -3.6173421   -2.2053323  0.036933813   -3.6173421    1.4120098   878832 
  541000   0.94047196   -3.6162323   -3.6162323    -2.205526  0.033090489   -3.6162323    1.4107063   878832 
  542000   0.94033927   -3.6156305   -3.6156305   -2.2051232  0.030411998   -3.6156305    1.4105073   878832 
  543000   0.93989521   -3.6157164   -3.6157164   -2.2058752  0.031924755   -3.6157164    1.4098412   878832 
  544000   0.94057887   -3.6165961   -3.6165961   -2.2057294  0.029620015   -3.6165961    1.4108667   878832 
  545000   0.93987775   -3.6145291   -3.6145291   -2.2047141  0.034334004   -3.6145291     1.409815   878832 
  546000   0.94021055   -3.6148831   -3.6148831   -2.2045689  0.031064307   -3.6148831    1.4103142   878832 
  547000   0.94073011     -3.61568     -3.61568   -2.2045864  0.035791132     -3.61568    1.4110936   878832 
  548000     0.941169   -3.6154058   -3.6154058   -2.2036539  0.037353894   -3.6154058    1.4117519   878832 
  549000   0.94134087   -3.6155981   -3.6155981   -2.2035884  0.039613494   -3.6155981    1.4120097   878832 
  550000   0.94153983   -3.6151252   -3.6151252    -2.202817  0.036871195   -3.6151252    1.4123081   878832 
  551000   0.94160929   -3.6148926   -3.6148926   -2.2024803  0.035465833   -3.6148926    1.4124123   878832 
  552000   0.94187141   -3.6140618   -3.6140618   -2.2012563   0.03789634   -3.6140618    1.4128055   878832 
  553000   0.94231109   -3.6143464   -3.6143464   -2.2008814  0.033848692   -3.6143464     1.413465   878832 
  554000   0.94072952   -3.6123389   -3.6123389   -2.2012462  0.035757337   -3.6123389    1.4110927   878832 
  555000   0.93988157   -3.6117031   -3.6117031   -2.2018823  0.031478139   -3.6117031    1.4098208   878832 
  556000   0.94028986   -3.6132367   -3.6132367   -2.2028036  0.031254321   -3.6132367    1.4104332   878832 
  557000   0.94069027   -3.6141665   -3.6141665   -2.2031327  0.032138214   -3.6141665    1.4110338   878832 
  558000   0.94071637   -3.6131823   -3.6131823   -2.2021093  0.034960438   -3.6131823     1.411073   878832 
  559000   0.94057897   -3.6131345   -3.6131345   -2.2022677   0.03282003   -3.6131345    1.4108668   878832 
  560000   0.94070705   -3.6125803   -3.6125803   -2.2015213  0.033901945   -3.6125803     1.411059   878832 
  561000   0.93981775   -3.6115439   -3.6115439   -2.2018189  0.033446229   -3.6115439     1.409725   878832 
  562000   0.94069258   -3.6116466   -3.6116466   -2.2006094  0.035816665   -3.6116466    1.4110373   878832 
  563000   0.94252142   -3.6136314   -3.6136314   -2.1998509  0.034953922   -3.6136314    1.4137805   878832 
  564000   0.94143928   -3.6118548   -3.6118548   -2.1996975  0.033986839   -3.6118548    1.4121573   878832 
  565000   0.94089872   -3.6108968   -3.6108968   -2.1995504  0.037175088   -3.6108968    1.4113465   878832 
  566000   0.94135645   -3.6112404   -3.6112404   -2.1992073  0.034711052   -3.6112404    1.4120331   878832 
  567000   0.94214712   -3.6128353   -3.6128353   -2.1996162  0.036271423   -3.6128353    1.4132191   878832 
  568000   0.94246535   -3.6121985   -3.6121985   -2.1985021  0.034101295   -3.6121985    1.4136964   878832 
  569000   0.94127116   -3.6104627   -3.6104627   -2.1985575  0.037081564   -3.6104627    1.4119051   878832 
  570000   0.94169762   -3.6113686   -3.6113686   -2.1988237  0.033464004   -3.6113686    1.4125448   878832 
  571000   0.94172387   -3.6117663   -3.6117663   -2.1991821  0.034602158   -3.6117663    1.4125842   878832 
  572000   0.94186967    -3.610908    -3.610908   -2.1981051  0.037691353    -3.610908    1.4128029   878832 
  573000   0.94204524   -3.6113067   -3.6113067   -2.1982404  0.033917235   -3.6113067    1.4130663   878832 
  574000    0.9424528   -3.6117791   -3.6117791   -2.1981015  0.030791563   -3.6117791    1.4136776   878832 
  575000   0.94235795   -3.6124212   -3.6124212   -2.1988858  0.032732433   -3.6124212    1.4135353   878832 
  576000   0.94114016   -3.6099871   -3.6099871   -2.1982785  0.036970353   -3.6099871    1.4117086   878832 
  577000   0.94180065   -3.6112989   -3.6112989   -2.1985995   0.03554772   -3.6112989    1.4126994   878832 
  578000   0.94304877   -3.6125648   -3.6125648   -2.1979933  0.034010439   -3.6125648    1.4145715   878832 
  579000   0.94241916   -3.6120179   -3.6120179   -2.1983907  0.034202907   -3.6120179    1.4136271   878832 
  580000   0.94222543   -3.6105006   -3.6105006   -2.1971641  0.034253195   -3.6105006    1.4133365   878832 
  581000   0.94225284   -3.6101415   -3.6101415   -2.1967639  0.040085659   -3.6101415    1.4133777   878832 
  582000   0.94260329   -3.6099959   -3.6099959   -2.1960926  0.035540183   -3.6099959    1.4139033   878832 
  583000   0.94287725   -3.6105038   -3.6105038   -2.1961895  0.036189296   -3.6105038    1.4143143   878832 
  584000   0.94262307   -3.6103052   -3.6103052   -2.1963722  0.040287424   -3.6103052     1.413933   878832 
  585000   0.94232115   -3.6101191   -3.6101191    -2.196639  0.037128897   -3.6101191    1.4134801   878832 
  586000   0.94262024   -3.6102322   -3.6102322   -2.1963034  0.038445823   -3.6102322    1.4139288   878832 
  587000   0.94321952   -3.6108726   -3.6108726   -2.1960449   0.03558778   -3.6108726    1.4148277   878832 
  588000   0.94234808   -3.6095339   -3.6095339   -2.1960134  0.034050425   -3.6095339    1.4135205   878832 
  589000   0.94113273    -3.608135    -3.608135   -2.1964375  0.037932003    -3.608135    1.4116975   878832 
  590000   0.94110659   -3.6081767   -3.6081767   -2.1965184  0.031386262   -3.6081767    1.4116583   878832 
  591000   0.94158821   -3.6075428   -3.6075428   -2.1951621  0.036066637   -3.6075428    1.4123807   878832 
  592000   0.94247926   -3.6083867   -3.6083867   -2.1946694  0.032533663   -3.6083867    1.4137173   878832 
  593000   0.94317963   -3.6088735   -3.6088735   -2.1941056  0.035809268   -3.6088735    1.4147678   878832 
  594000   0.94237993    -3.607834    -3.607834   -2.1942657  0.033329769    -3.607834    1.4135683   878832 
  595000   0.94327512   -3.6092146   -3.6092146   -2.1943036   0.03267422   -3.6092146    1.4149111   878832 
  596000   0.94243154   -3.6078387   -3.6078387    -2.194193  0.037146148   -3.6078387    1.4136457   878832 
  597000   0.94230702   -3.6067641   -3.6067641   -2.1933052  0.037006799   -3.6067641    1.4134589   878832 
  598000   0.94240308   -3.6061935   -3.6061935   -2.1925905   0.04059445   -3.6061935     1.413603   878832 
  599000   0.94298468   -3.6075795   -3.6075795   -2.1931041  0.036237063   -3.6075795    1.4144754   878832 
  600000   0.94247404   -3.6068105   -3.6068105   -2.1931011  0.034523492   -3.6068105    1.4137095   878832 
  601000   0.94245098   -3.6055376   -3.6055376   -2.1918628  0.032104201   -3.6055376    1.4136749   878832 
  602000    0.9422412   -3.6058386   -3.6058386   -2.1924784  0.036003833   -3.6058386    1.4133602   878832 
  603000   0.94290916   -3.6066359   -3.6066359   -2.1922738  0.032505025   -3.6066359    1.4143621   878832 
  604000   0.94169139   -3.6046313   -3.6046313   -2.1920958  0.032142443   -3.6046313    1.4125355   878832 
  605000   0.94272232   -3.6056758   -3.6056758   -2.1915939  0.034181889   -3.6056758    1.4140819   878832 
  606000   0.94305677   -3.6054417   -3.6054417   -2.1908581  0.034334936   -3.6054417    1.4145836   878832 
  607000   0.94275845   -3.6049383   -3.6049383   -2.1908022    0.0362642   -3.6049383    1.4141361   878832 
  608000   0.94261725   -3.6052605   -3.6052605   -2.1913362  0.033140398   -3.6052605    1.4139243   878832 
  609000   0.94239308    -3.604482    -3.604482    -2.190894  0.034178515    -3.604482     1.413588   878832 
  610000   0.94246612   -3.6039199   -3.6039199   -2.1902224  0.033422073   -3.6039199    1.4136976   878832 
  611000   0.94278558   -3.6049925   -3.6049925   -2.1908157  0.036180043   -3.6049925    1.4141768   878832 
  612000   0.94297316   -3.6039843   -3.6039843   -2.1895262  0.035506374   -3.6039843    1.4144581   878832 
  613000   0.94333059   -3.6043395   -3.6043395   -2.1893452  0.032010988   -3.6043395    1.4149943   878832 
  614000   0.94272992   -3.6031623   -3.6031623    -2.189069   0.03508231   -3.6031623    1.4140933   878832 
  615000   0.94328411   -3.6040396   -3.6040396    -2.189115  0.039540385   -3.6040396    1.4149245   878832 
  616000   0.94279888   -3.6030386   -3.6030386   -2.1888418  0.034731424   -3.6030386    1.4141967   878832 
  617000   0.94224757    -3.601942    -3.601942   -2.1885722   0.03826502    -3.601942    1.4133697   878832 
  618000   0.94288783   -3.6041585   -3.6041585   -2.1898284  0.029267672   -3.6041585    1.4143301   878832 
  619000   0.94228366   -3.6032469   -3.6032469    -2.189823  0.034289039   -3.6032469    1.4134239   878832 
  620000   0.94320349   -3.6033564   -3.6033564   -2.1885528  0.034384842   -3.6033564    1.4148036   878832 
  621000   0.94347954   -3.6026804   -3.6026804   -2.1874627  0.036246785   -3.6026804    1.4152177   878832 
  622000   0.94348854   -3.6025482   -3.6025482    -2.187317  0.036009787   -3.6025482    1.4152312   878832 
  623000   0.94367383   -3.6032129   -3.6032129   -2.1877038  0.035100061   -3.6032129    1.4155091   878832 
  624000   0.94264548   -3.6014431   -3.6014431   -2.1874765  0.033920663   -3.6014431    1.4139666   878832 
  625000   0.94274787   -3.6016456   -3.6016456   -2.1875254   0.03213267   -3.6016456    1.4141202   878832 
  626000   0.94386589   -3.6024752   -3.6024752   -2.1866779  0.032941645   -3.6024752    1.4157972   878832 
  627000   0.94394926   -3.6021906   -3.6021906   -2.1862683  0.036395378   -3.6021906    1.4159223   878832 
  628000    0.9436886   -3.6009883   -3.6009883    -2.185457  0.040057065   -3.6009883    1.4155313   878832 
  629000   0.94403712   -3.6019548   -3.6019548   -2.1859008  0.036420873   -3.6019548    1.4160541   878832 
  630000   0.94457638   -3.6018816   -3.6018816   -2.1850186  0.036197244   -3.6018816     1.416863   878832 
  631000    0.9445296   -3.6016278   -3.6016278    -2.184835  0.036285543   -3.6016278    1.4167928   878832 
  632000   0.94421689   -3.6008876   -3.6008876   -2.1845639  0.035034593   -3.6008876    1.4163237   878832 
  633000   0.94420113   -3.6007561   -3.6007561    -2.184456   0.03425703   -3.6007561    1.4163001   878832 
  634000   0.94388859   -3.5994543   -3.5994543    -2.183623  0.034676156   -3.5994543    1.4158313   878832 
  635000   0.94465434   -3.6007256   -3.6007256   -2.1837457  0.036627044   -3.6007256    1.4169799   878832 
  636000    0.9444124   -3.6002655   -3.6002655   -2.1836485  0.035662055   -3.6002655     1.416617   878832 
  637000   0.94376613   -3.5988589   -3.5988589   -2.1832113  0.040365096   -3.5988589    1.4156476   878832 
  638000   0.94524003   -3.6004192   -3.6004192   -2.1825608  0.035155137   -3.6004192    1.4178584   878832 
  639000   0.94440836   -3.5983343   -3.5983343   -2.1817234  0.039251859   -3.5983343    1.4166109   878832 
  640000   0.94356768   -3.5978833   -3.5978833   -2.1825334   0.03781212   -3.5978833    1.4153499   878832 
  641000   0.94449821   -3.5986571   -3.5986571   -2.1819114  0.038798961   -3.5986571    1.4167457   878832 
  642000   0.94484584   -3.5992899   -3.5992899   -2.1820227  0.037257777   -3.5992899    1.4172671   878832 
  643000   0.94397794   -3.5984803   -3.5984803    -2.182515  0.040234746   -3.5984803    1.4159653   878832 
  644000   0.94446961   -3.5990994   -3.5990994   -2.1823966  0.033844004   -3.5990994    1.4167028   878832 
  645000   0.94432446   -3.5978682   -3.5978682   -2.1813831  0.031123988   -3.5978682    1.4164851   878832 
  646000   0.94319044   -3.5952928   -3.5952928   -2.1805088  0.036370125   -3.5952928     1.414784   878832 
  647000   0.94444549   -3.5971723   -3.5971723   -2.1805056  0.038391985   -3.5971723    1.4166666   878832 
  648000   0.94470675   -3.5975449   -3.5975449   -2.1804864  0.034613591   -3.5975449    1.4170585   878832 
  649000   0.94448374   -3.5969993   -3.5969993   -2.1802753  0.036545961   -3.5969993     1.416724   878832 
  650000   0.94503593   -3.5968816   -3.5968816   -2.1793293  0.034167513   -3.5968816    1.4175523   878832 
  651000   0.94607196   -3.5981161   -3.5981161   -2.1790098    0.0379976   -3.5981161    1.4191063   878832 
  652000   0.94476982   -3.5964918   -3.5964918   -2.1793387  0.039530797   -3.5964918    1.4171531   878832 
  653000   0.94534274   -3.5967661   -3.5967661   -2.1787536  0.036743477   -3.5967661    1.4180125   878832 
  654000   0.94568803   -3.5968046   -3.5968046   -2.1782742  0.036381762   -3.5968046    1.4185304   878832 
  655000   0.94519391   -3.5954619   -3.5954619   -2.1776726  0.038444009   -3.5954619    1.4177892   878832 
  656000   0.94548884   -3.5953249   -3.5953249   -2.1770932  0.041577049   -3.5953249    1.4182316   878832 
  657000   0.94528262    -3.595426    -3.595426   -2.1775037  0.041693999    -3.595426    1.4179223   878832 
  658000    0.9447618   -3.5951139   -3.5951139   -2.1779728  0.032554588   -3.5951139    1.4171411   878832 
  659000   0.94416107   -3.5942557   -3.5942557   -2.1780157  0.035194202   -3.5942557      1.41624   878832 
  660000   0.94387649   -3.5928049   -3.5928049   -2.1769918  0.038359191   -3.5928049    1.4158131   878832 
  661000   0.94388052   -3.5934677   -3.5934677   -2.1776485  0.033921783   -3.5934677    1.4158192   878832 
  662000   0.94473209   -3.5938168   -3.5938168   -2.1767203  0.034272538   -3.5938168    1.4170965   878832 
  663000   0.94540921    -3.594405    -3.594405   -2.1762928  0.035620599    -3.594405    1.4181122   878832 
  664000   0.94537037   -3.5938705   -3.5938705   -2.1758166  0.033337679   -3.5938705    1.4180539   878832 
  665000   0.94503477   -3.5928357   -3.5928357   -2.1752851  0.036065439   -3.5928357    1.4175505   878832 
  666000   0.94478104   -3.5934159   -3.5934159   -2.1762459  0.039041793   -3.5934159    1.4171699   878832 
  667000   0.94509271    -3.592707    -3.592707   -2.1750696  0.033314213    -3.592707    1.4176374   878832 
  668000   0.94495004   -3.5914628   -3.5914628   -2.1740393  0.037420671   -3.5914628    1.4174234   878832 
  669000   0.94455734   -3.5908437   -3.5908437   -2.1740093  0.035008154   -3.5908437    1.4168344   878832 
  670000   0.94452839   -3.5913507   -3.5913507   -2.1745597  0.035032454   -3.5913507     1.416791   878832 
  671000   0.94474032   -3.5903266   -3.5903266   -2.1732177  0.037783901   -3.5903266    1.4171089   878832 
  672000   0.94578768   -3.5914907   -3.5914907   -2.1728108  0.036089953   -3.5914907    1.4186799   878832 
  673000   0.94535419   -3.5920956   -3.5920956    -2.174066   0.03955957   -3.5920956    1.4180297   878832 
  674000   0.94557639   -3.5904348   -3.5904348   -2.1720719  0.039585856   -3.5904348     1.418363   878832 
  675000   0.94599149   -3.5904622   -3.5904622   -2.1714765  0.034322465   -3.5904622    1.4189856   878832 
[...]
 2833000   0.98240491    -3.365741    -3.365741   -1.8921353  0.049398678    -3.365741    1.4736057   878832 
 2834000    0.9829705   -3.3660809   -3.3660809   -1.8916269  0.053122681   -3.3660809    1.4744541   878832 
 2835000   0.98185733   -3.3640517   -3.3640517   -1.8912674  0.052264203   -3.3640517    1.4727843   878832 
 2836000   0.98258268   -3.3654372   -3.3654372   -1.8915649  0.051964759   -3.3654372    1.4738723   878832 
 2837000   0.98216092   -3.3648338   -3.3648338   -1.8915941  0.052881642   -3.3648338    1.4732397   878832 
 2838000   0.98293471   -3.3665868   -3.3665868   -1.8921864  0.050990461   -3.3665868    1.4744004   878832 
 2839000   0.98197294   -3.3645039   -3.3645039   -1.8915461  0.051429797   -3.3645039    1.4729577   878832 
 2840000   0.98187329   -3.3637745   -3.3637745   -1.8909663  0.047868282   -3.3637745    1.4728083   878832 
 2841000   0.98186455    -3.363389    -3.363389   -1.8905938  0.056899113    -3.363389    1.4727952   878832 
 2842000   0.98210801   -3.3635792   -3.3635792   -1.8904189  0.053747523   -3.3635792    1.4731603   878832 
 2843000   0.98239377      -3.3635      -3.3635    -1.889911  0.051555645      -3.3635     1.473589   878832 
 2844000   0.98342806   -3.3643438   -3.3643438   -1.8892033  0.050621365   -3.3643438    1.4751404   878832 
 2845000   0.98362105   -3.3648506   -3.3648506   -1.8894207  0.055172015   -3.3648506    1.4754299   878832 
 2846000   0.98423084   -3.3655385   -3.3655385   -1.8891939  0.052112632   -3.3655385    1.4763446   878832 
 2847000   0.98431121   -3.3651421   -3.3651421   -1.8886769  0.050953289   -3.3651421    1.4764651   878832 
 2848000   0.98403076   -3.3645188   -3.3645188   -1.8884743  0.054419639   -3.3645188    1.4760445   878832 
 2849000   0.98310767   -3.3628936   -3.3628936   -1.8882338  0.057079039   -3.3628936    1.4746598   878832 
 2850000   0.98340576   -3.3640058   -3.3640058   -1.8888989    0.0530668   -3.3640058     1.475107   878832 
 2851000   0.98311492   -3.3639255   -3.3639255   -1.8892548  0.050151069   -3.3639255    1.4746707   878832 
 2852000   0.98291266    -3.364186    -3.364186   -1.8898187  0.050838972    -3.364186    1.4743673   878832 
 2853000   0.98229012   -3.3626292   -3.3626292   -1.8891957  0.053905079   -3.3626292    1.4734335   878832 
 2854000   0.98231568   -3.3620434   -3.3620434   -1.8885716  0.053097285   -3.3620434    1.4734718   878832 
 2855000   0.98232618   -3.3627273   -3.3627273   -1.8892397  0.052045598   -3.3627273    1.4734876   878832 
 2856000   0.98311103   -3.3640984   -3.3640984   -1.8894335  0.051181383   -3.3640984    1.4746649   878832 
 2857000   0.98198776   -3.3622935   -3.3622935   -1.8893135  0.053316152   -3.3622935      1.47298   878832 
 2858000   0.98263061   -3.3641306   -3.3641306   -1.8901864  0.049923276   -3.3641306    1.4739442   878832 
 2859000   0.98258045   -3.3638938   -3.3638938   -1.8900248  0.050215026   -3.3638938     1.473869   878832 
 2860000   0.98250443   -3.3635924   -3.3635924   -1.8898375  0.052380832   -3.3635924     1.473755   878832 
 2861000   0.98305482   -3.3646802   -3.3646802   -1.8900996  0.051880836   -3.3646802    1.4745806   878832 
 2862000   0.98446644   -3.3668676   -3.3668676   -1.8901696  0.050110319   -3.3668676     1.476698   878832 
 2863000   0.98207468   -3.3633026   -3.3633026   -1.8901922  0.052906575   -3.3633026    1.4731103   878832 
 2864000   0.98250555   -3.3641255   -3.3641255   -1.8903689  0.053369332   -3.3641255    1.4737566   878832 
 2865000   0.98200265   -3.3637178   -3.3637178   -1.8907155  0.054922376   -3.3637178    1.4730023   878832 
 2866000   0.98229767   -3.3647676   -3.3647676   -1.8913228  0.051771142   -3.3647676    1.4734448   878832 
 2867000   0.98268151   -3.3650426   -3.3650426    -1.891022  0.053115138   -3.3650426    1.4740206   878832 
 2868000   0.98311071   -3.3653417   -3.3653417   -1.8906773  0.054340111   -3.3653417    1.4746644   878832 
 2869000    0.9845482   -3.3676823   -3.3676823   -1.8908616  0.052080385   -3.3676823    1.4768206   878832 
 2870000   0.98363763    -3.365926    -3.365926   -1.8904713  0.051420925    -3.365926    1.4754548   878832 
 2871000   0.98296859   -3.3649326   -3.3649326   -1.8904813  0.056583052   -3.3649326    1.4744512   878832 
 2872000   0.98406279   -3.3667554   -3.3667554   -1.8906629  0.052631984   -3.3667554    1.4760925   878832 
 2873000   0.98321783     -3.36558     -3.36558    -1.890755  0.056017114     -3.36558    1.4748251   878832 
 2874000    0.9842463   -3.3666599   -3.3666599   -1.8902922  0.054797745   -3.3666599    1.4763678   878832 
 2875000   0.98375576   -3.3660515   -3.3660515   -1.8904196  0.056103572   -3.3660515     1.475632   878832 
 2876000   0.98362294   -3.3662239   -3.3662239   -1.8907912  0.058657972   -3.3662239    1.4754327   878832 
 2877000   0.98450324   -3.3677612   -3.3677612    -1.891008  0.052832889   -3.3677612    1.4767532   878832 
 2878000   0.98403382   -3.3665133   -3.3665133   -1.8904642  0.052646272   -3.3665133     1.476049   878832 
 2879000   0.98406876    -3.365456    -3.365456   -1.8893546  0.059709237    -3.365456    1.4761015   878832 
 2880000   0.98478782   -3.3660448   -3.3660448   -1.8888647  0.058291637   -3.3660448    1.4771801   878832 
 2881000   0.98564382   -3.3675582   -3.3675582   -1.8890941  0.054398221   -3.3675582     1.478464   878832 
 2882000   0.98385118   -3.3656743   -3.3656743   -1.8898992  0.057589229   -3.3656743    1.4757751   878832 
 2883000   0.98472807   -3.3665634   -3.3665634    -1.889473  0.055845469   -3.3665634    1.4770904   878832 
 2884000   0.98481454   -3.3655518   -3.3655518   -1.8883317  0.053985241   -3.3655518    1.4772201   878832 
 2885000   0.98441924   -3.3651837   -3.3651837   -1.8885565  0.055663437   -3.3651837    1.4766272   878832 
 2886000   0.98475015   -3.3650593   -3.3650593   -1.8879358  0.056875108   -3.3650593    1.4771235   878832 
 2887000   0.98391516   -3.3641251   -3.3641251    -1.888254  0.057247725   -3.3641251    1.4758711   878832 
 2888000   0.98437667   -3.3651372   -3.3651372   -1.8885739  0.051174169   -3.3651372    1.4765633   878832 
 2889000   0.98420674   -3.3646577   -3.3646577   -1.8883492  0.050600315   -3.3646577    1.4763084   878832 
 2890000   0.98314988   -3.3636645   -3.3636645   -1.8889414  0.049810464   -3.3636645    1.4747231   878832 
 2891000   0.98175841   -3.3620752   -3.3620752   -1.8894393  0.054904122   -3.3620752    1.4726359   878832 
 2892000    0.9832961   -3.3640496   -3.3640496   -1.8891071  0.053059302   -3.3640496    1.4749425   878832 
 2893000   0.98327352   -3.3635238   -3.3635238   -1.8886153  0.054248411   -3.3635238    1.4749086   878832 
 2894000   0.98399829   -3.3645533   -3.3645533   -1.8885576  0.050163072   -3.3645533    1.4759958   878832 
 2895000   0.98277562   -3.3627967   -3.3627967   -1.8886349  0.051711526   -3.3627967    1.4741618   878832 
 2896000   0.98175534   -3.3617685   -3.3617685   -1.8891371  0.050036135   -3.3617685    1.4726313   878832 
 2897000   0.98231393   -3.3634972   -3.3634972    -1.890028  0.048056283   -3.3634972    1.4734692   878832 
 2898000   0.98118302   -3.3612895   -3.3612895   -1.8895166  0.049738211   -3.3612895    1.4717729   878832 
 2899000   0.98213725   -3.3622233   -3.3622233   -1.8890191  0.048192751   -3.3622233    1.4732042   878832 
 2900000   0.98240092   -3.3617882   -3.3617882   -1.8881885   0.05087661   -3.3617882    1.4735997   878832 
 2901000   0.98195908   -3.3617816   -3.3617816   -1.8888447  0.052258123   -3.3617816     1.472937   878832 
 2902000   0.98184438     -3.36154     -3.36154   -1.8887751  0.054827188     -3.36154    1.4727649   878832 
 2903000   0.98267633   -3.3621674   -3.3621674   -1.8881545  0.053369644   -3.3621674    1.4740128   878832 
 2904000   0.98368951   -3.3636225   -3.3636225   -1.8880899  0.051073195   -3.3636225    1.4755326   878832 
 2905000   0.98170602   -3.3615695   -3.3615695   -1.8890121  0.054408891   -3.3615695    1.4725574   878832 
 2906000   0.98245222   -3.3629329   -3.3629329   -1.8892562  0.051474677   -3.3629329    1.4736766   878832 
 2907000   0.98205194   -3.3609502   -3.3609502    -1.887874  0.056004708   -3.3609502    1.4730762   878832 
 2908000    0.9839506   -3.3635018   -3.3635018   -1.8875776  0.052604017   -3.3635018    1.4759242   878832 
 2909000   0.98455784   -3.3640214   -3.3640214   -1.8871863  0.049938434   -3.3640214    1.4768351   878832 
 2910000   0.98371072   -3.3625733   -3.3625733   -1.8870089  0.051918206   -3.3625733    1.4755644   878832 
 2911000    0.9831584   -3.3622338   -3.3622338   -1.8874978  0.056837349   -3.3622338    1.4747359   878832 
 2912000   0.98346616   -3.3630934   -3.3630934   -1.8878959  0.054419279   -3.3630934    1.4751976   878832 
 2913000   0.98397691   -3.3632615   -3.3632615   -1.8872978  0.055455032   -3.3632615    1.4759637   878832 
 2914000    0.9838117   -3.3623406   -3.3623406   -1.8866247   0.05473358   -3.3623406    1.4757159   878832 
 2915000   0.98337248   -3.3618497   -3.3618497   -1.8867927  0.054226126   -3.3618497     1.475057   878832 
 2916000   0.98393526   -3.3624327   -3.3624327   -1.8865315  0.054522728   -3.3624327    1.4759012   878832 
 2917000   0.98472197   -3.3628914   -3.3628914   -1.8858102  0.051682009   -3.3628914    1.4770813   878832 
 2918000   0.98321796   -3.3617956   -3.3617956   -1.8869703  0.055678807   -3.3617956    1.4748253   878832 
 2919000   0.98445166   -3.3634583   -3.3634583   -1.8867825  0.055817016   -3.3634583    1.4766758   878832 
 2920000   0.98500435   -3.3653418   -3.3653418   -1.8878369  0.056789088   -3.3653418    1.4775048   878832 
 2921000   0.98499737    -3.365956    -3.365956   -1.8884616  0.053085417    -3.365956    1.4774944   878832 
 2922000   0.98382984   -3.3637404   -3.3637404   -1.8879973  0.054890925   -3.3637404    1.4757431   878832 
 2923000   0.98428257   -3.3644245   -3.3644245   -1.8880023  0.056233544   -3.3644245    1.4764222   878832 
 2924000   0.98398384   -3.3631896   -3.3631896   -1.8872155  0.054142609   -3.3631896    1.4759741   878832 
 2925000   0.98393606   -3.3636165   -3.3636165   -1.8877141  0.051763041   -3.3636165    1.4759024   878832 
 2926000   0.98361827   -3.3633138   -3.3633138   -1.8878881  0.054192599   -3.3633138    1.4754257   878832 
 2927000   0.98233508   -3.3615041   -3.3615041   -1.8880032  0.055540706   -3.3615041    1.4735009   878832 
 2928000   0.98250649   -3.3620994   -3.3620994   -1.8883413  0.054475453   -3.3620994    1.4737581   878832 
 2929000   0.98277953   -3.3626869   -3.3626869   -1.8885193  0.053254697   -3.3626869    1.4741676   878832 
 2930000    0.9834633   -3.3636302   -3.3636302   -1.8884369  0.049281587   -3.3636302    1.4751933   878832 
 2931000   0.98231843    -3.361973    -3.361973    -1.888497  0.051782441    -3.361973     1.473476   878832 
 2932000   0.98310951   -3.3623084   -3.3623084   -1.8876459  0.050712795   -3.3623084    1.4746626   878832 
 2933000   0.98244485   -3.3608103   -3.3608103   -1.8871447  0.057442857   -3.3608103    1.4736656   878832 
 2934000   0.98296488   -3.3616727   -3.3616727   -1.8872271   0.05674077   -3.3616727    1.4744456   878832 
 2935000   0.98365878   -3.3622866   -3.3622866   -1.8868001  0.054724299   -3.3622866    1.4754865   878832 
 2936000   0.98370142   -3.3626809   -3.3626809   -1.8871304  0.052869845   -3.3626809    1.4755504   878832 
 2937000   0.98336858   -3.3622429   -3.3622429   -1.8871917  0.057552186   -3.3622429    1.4750512   878832 
 2938000   0.98346722   -3.3613302   -3.3613302    -1.886131  0.057314679   -3.3613302    1.4751992   878832 
 2939000   0.98417983   -3.3617657   -3.3617657   -1.8854976  0.056083428   -3.3617657    1.4762681   878832 
 2940000   0.98291185   -3.3615029   -3.3615029   -1.8871368  0.053481064   -3.3615029    1.4743661   878832 
 2941000   0.98297838   -3.3615932   -3.3615932   -1.8871273  0.056995313   -3.3615932    1.4744659   878832 
 2942000   0.98362317   -3.3627637   -3.3627637   -1.8873306  0.052629133   -3.3627637    1.4754331   878832 
 2943000   0.98373098   -3.3621705   -3.3621705   -1.8865757  0.053931745   -3.3621705    1.4755948   878832 
 2944000   0.98306893   -3.3611239   -3.3611239   -1.8865222  0.056062842   -3.3611239    1.4746017   878832 
 2945000   0.98343957   -3.3616575   -3.3616575   -1.8864998  0.055609324   -3.3616575    1.4751577   878832 
 2946000   0.98283326   -3.3609178   -3.3609178   -1.8866696  0.057855027   -3.3609178    1.4742482   878832 
 2947000   0.98344775   -3.3614848   -3.3614848   -1.8863149  0.052405701   -3.3614848    1.4751699   878832 
 2948000   0.98302441   -3.3610708   -3.3610708   -1.8865359   0.05487166   -3.3610708    1.4745349   878832 
 2949000    0.9827456   -3.3604316   -3.3604316   -1.8863149   0.05502236   -3.3604316    1.4741167   878832 
 2950000   0.98380596   -3.3614304   -3.3614304   -1.8857231  0.051648655   -3.3614304    1.4757073   878832 
 2951000   0.98362885   -3.3602758   -3.3602758   -1.8848342  0.055167962   -3.3602758    1.4754416   878832 
 2952000   0.98372194   -3.3605108   -3.3605108   -1.8849295  0.053521042   -3.3605108    1.4755812   878832 
 2953000   0.98347769   -3.3600494   -3.3600494   -1.8848345  0.053618037   -3.3600494    1.4752149   878832 
 2954000   0.98482385   -3.3613941   -3.3613941     -1.88416  0.053847871   -3.3613941    1.4772341   878832 
 2955000    0.9849308   -3.3613599   -3.3613599   -1.8839654  0.052770834   -3.3613599    1.4773945   878832 
 2956000   0.98425211   -3.3604638   -3.3604638   -1.8840874  0.055659168   -3.3604638    1.4763765   878832 
 2957000   0.98458593   -3.3608024   -3.3608024   -1.8839252  0.056386671   -3.3608024    1.4768772   878832 
 2958000   0.98485549   -3.3599602   -3.3599602   -1.8826786  0.054949275   -3.3599602    1.4772816   878832 
 2959000   0.98469104    -3.360085    -3.360085   -1.8830501   0.05743285    -3.360085    1.4770349   878832 
 2960000   0.98421792   -3.3605569   -3.3605569   -1.8842317  0.053094648   -3.3605569    1.4763252   878832 
 2961000    0.9832384   -3.3584695   -3.3584695   -1.8836136  0.052833752   -3.3584695    1.4748559   878832 
 2962000    0.9836046   -3.3581557   -3.3581557   -1.8827505  0.055928682   -3.3581557    1.4754052   878832 
 2963000   0.98385139   -3.3583461   -3.3583461   -1.8825707  0.054508923   -3.3583461    1.4757754   878832 
 2964000   0.98355286   -3.3587582   -3.3587582   -1.8834306  0.052921476   -3.3587582    1.4753276   878832 
 2965000   0.98413071   -3.3596425   -3.3596425   -1.8834481  0.052214528   -3.3596425    1.4761944   878832 
 2966000   0.98380165   -3.3598485   -3.3598485   -1.8841477  0.051666204   -3.3598485    1.4757008   878832 
 2967000    0.9827269   -3.3580171   -3.3580171   -1.8839284  0.054689107   -3.3580171    1.4740887   878832 
 2968000   0.98339505   -3.3591426   -3.3591426   -1.8840517  0.054333974   -3.3591426    1.4750909   878832 
 2969000   0.98216158   -3.3576898   -3.3576898   -1.8844492  0.054448263   -3.3576898    1.4732407   878832 
 2970000   0.98318867    -3.359899    -3.359899   -1.8851177  0.052273349    -3.359899    1.4747813   878832 
 2971000   0.98309239   -3.3593621   -3.3593621   -1.8847252  0.051613899   -3.3593621    1.4746369   878832 
 2972000   0.98347415   -3.3593434   -3.3593434   -1.8841339  0.055345277   -3.3593434    1.4752095   878832 
 2973000    0.9834293   -3.3590374   -3.3590374   -1.8838952  0.053805432   -3.3590374    1.4751423   878832 
 2974000   0.98261804   -3.3584493   -3.3584493    -1.884524  0.055545472   -3.3584493    1.4739254   878832 
 2975000   0.98320293   -3.3594203   -3.3594203   -1.8846176  0.049889601   -3.3594203    1.4748027   878832 
 2976000   0.98351974   -3.3595627   -3.3595627   -1.8842848  0.052898668   -3.3595627    1.4752779   878832 
 2977000   0.98396008   -3.3602307   -3.3602307   -1.8842923  0.051963173   -3.3602307    1.4759384   878832 
 2978000   0.98336809   -3.3595261   -3.3595261   -1.8844757  0.053653355   -3.3595261    1.4750505   878832 
 2979000   0.98427275   -3.3603546   -3.3603546   -1.8839471  0.054159615   -3.3603546    1.4764074   878832 
 2980000   0.98516662   -3.3611668   -3.3611668   -1.8834185   0.05654001   -3.3611668    1.4777483   878832 
 2981000   0.98425562   -3.3605941   -3.3605941   -1.8842123  0.054770259   -3.3605941    1.4763817   878832 
 2982000   0.98369851   -3.3598987   -3.3598987   -1.8843526  0.051561329   -3.3598987    1.4755461   878832 
 2983000   0.98529525   -3.3606699   -3.3606699   -1.8827287  0.056419107   -3.3606699    1.4779412   878832 
 2984000   0.98363708   -3.3588195   -3.3588195   -1.8833656  0.055655924   -3.3588195    1.4754539   878832 
 2985000   0.98459607    -3.359951    -3.359951   -1.8830585   0.05395715    -3.359951    1.4768924   878832 
 2986000   0.98382384   -3.3596541   -3.3596541     -1.88392  0.051753071   -3.3596541    1.4757341   878832 
 2987000   0.98268656   -3.3581202   -3.3581202    -1.884092  0.054205952   -3.3581202    1.4740282   878832 
 2988000   0.98443022   -3.3597717   -3.3597717   -1.8831281  0.057199855   -3.3597717    1.4766436   878832 
 2989000   0.98473848   -3.3608483   -3.3608483   -1.8837423  0.053067056   -3.3608483     1.477106   878832 
 2990000   0.98572768    -3.361996    -3.361996   -1.8834061   0.05278273    -3.361996    1.4785898   878832 
 2991000   0.98315647   -3.3584624   -3.3584624   -1.8837293  0.052762665   -3.3584624     1.474733   878832 
 2992000   0.98473474   -3.3607662   -3.3607662   -1.8836658  0.054525055   -3.3607662    1.4771004   878832 
 2993000   0.98528158   -3.3611398   -3.3611398   -1.8832191  0.052475797   -3.3611398    1.4779207   878832 
 2994000   0.98496641   -3.3608535   -3.3608535   -1.8834056  0.058167987   -3.3608535    1.4774479   878832 
 2995000      0.98566   -3.3618885   -3.3618885   -1.8834002  0.055292184   -3.3618885    1.4784883   878832 
 2996000   0.98567204   -3.3616768   -3.3616768   -1.8831704  0.057688275   -3.3616768    1.4785064   878832 
 2997000   0.98471364   -3.3602335   -3.3602335   -1.8831648  0.055694275   -3.3602335    1.4770688   878832 
 2998000   0.98462046   -3.3607361   -3.3607361    -1.883807  0.059712256   -3.3607361     1.476929   878832 
 2999000   0.98408508   -3.3602879   -3.3602879    -1.884162  0.052340343   -3.3602879    1.4761259   878832 
 3000000   0.98378862   -3.3591705   -3.3591705   -1.8834892  0.056035388   -3.3591705    1.4756812   878832 
Loop time of 11178.5 on 144 procs for 3000000 steps with 878832 atoms

Performance: 115936.792 tau/day, 268.372 timesteps/s
93.7% CPU use with 144 MPI tasks x 1 OpenMP threads

MPI task timing breakdown:
Section |  min time  |  avg time  |  max time  |%varavg|  %CPU | %total
-----------------------------------------------------------------------
Pair    | 3415.9     | 5460.3     | 6007.2     | 930.9 |  97.0 | 48.85
Bond    | 2.0095     | 2.2533     | 2.581      |   7.1 | 100.0 |  0.02
Neigh   | 1787.2     | 2577       | 2793.7     | 498.8 |  99.5 | 23.05
Comm    | 1863       | 2541.4     | 5506.5     |1905.6 |  85.4 | 22.73
Output  | 143.78     | 145.91     | 145.94     |   1.5 |  65.9 |  1.31
Modify  | 216        | 331.62     | 995.45     |1257.6 |  90.7 |  2.97
Other   |            | 120        |            |       |       |  1.07

Nlocal:        6103.00 ave        6545 max        5668 min
Histogram: 2 0 2 12 61 56 7 0 2 2
Nghost:        6048.86 ave        6579 max        4632 min
Histogram: 21 10 1 0 0 0 0 0 41 71
Neighs:        171590.0 ave      188984 max       85116 min
Histogram: 4 8 4 0 0 0 0 0 37 91

Total # of neighbors = 24709005
Ave neighs/atom = 28.115732
Ave special neighs/atom = 0.0000000
Neighbor list builds = 299999
Dangerous builds = 296994

write_data	data.lj
System init for write_data ...
WARNING: Not all mixed pair coeffs generated from mixing. Use write_data with 'pair ij' option to store all pair coeffs. (src/write_data.cpp:312)
Total wall time: 3:06:22
