LAMMPS (29 Oct 2020)
  using 1 OpenMP thread(s) per MPI task
Reading data file ...
  orthogonal box = (0.0000000 0.0000000 0.0000000) to (20.000000 20.000000 17.666000)
  2 by 4 by 2 MPI processor grid
  reading atoms ...
ERROR: Incorrect atom format in data file (src/atom.cpp:1037)
Last command: read_data       data.rigid
