LAMMPS (29 Oct 2020)
  using 1 OpenMP thread(s) per MPI task
#Read the equilibrated lj fluid and add nanocubes

units           lj
atom_style      full
atom_modify     map array first cubes
dimension       3
boundary        p p f
pair_style      lj/cut/opt 2.5

variable        sigma           equal 1.0
variable        epsilon         equal 1.0
read_restart	restart.dat.10000000
Reading restart file ...
  restart file = 24 Dec 2020, LAMMPS = 29 Oct 2020
WARNING: Restart file used different # of processors: 192 vs. 64 (src/read_restart.cpp:697)
  restoring atom style full from restart
  orthogonal box = (0.0000000 0.0000000 0.0000000) to (80.000000 80.000000 160.00000)
  2 by 4 by 8 MPI processor grid
  restoring pair style lj/cut/opt from restart
  443961 atoms
Finding 1-2 1-3 1-4 neighbors ...
  special bond factors lj:    0.0      0.0      0.0     
  special bond factors coul:  0.0      0.0      0.0     
     0 = max # of 1-2 neighbors
     0 = max # of 1-3 neighbors
     0 = max # of 1-4 neighbors
     1 = max # of special neighbors
  special bonds CPU = 1.494 seconds
  read_restart CPU = 1.897 seconds

group		solvent type 1
443961 atoms in group solvent

read_data	data_150.cubes group cubes add append
Reading data file ...
  orthogonal box = (0.0000000 0.0000000 0.0000000) to (80.000000 80.000000 160.00000)
  2 by 4 by 8 MPI processor grid
  reading atoms ...
  200025 atoms
  reading velocities ...
  200025 velocities
Finding 1-2 1-3 1-4 neighbors ...
  special bond factors lj:    0.0      0.0      0.0     
  special bond factors coul:  0.0      0.0      0.0     
     0 = max # of 1-2 neighbors
     0 = max # of 1-3 neighbors
     0 = max # of 1-4 neighbors
     1 = max # of special neighbors
  special bonds CPU = 0.022 seconds
  read_data CPU = 0.627 seconds

group 		hull  type 2
78050 atoms in group hull
group 		dummy type 3
121975 atoms in group dummy

neighbor      0.4 bin
neigh_modify  exclude molecule/intra cubes


pair_modify   shift yes

pair_coeff    1 1 1.0 1.0 #solvent
pair_coeff    2 2 1.0 1.0 1.12 #np
pair_coeff    3 3 0.0 0.0 0.0 #dummy
pair_coeff    2 3 0.0 0.0 0.0 #np dummy
pair_coeff    1 2 ${sol} 1.0  #np solvent
pair_coeff    1 2 .75 1.0  
pair_coeff    1 3 0.0 0.0 2.5 #dummy solvent

# delete solvent where the cubes are
delete_atoms  overlap 1.0 solvent cubes
System init for delete_atoms ...
Unused restart file peratom fix info:
  fix style: STORE, fix ID: bin1_COMPUTE_STORE
Neighbor list info ...
  update every 1 steps, delay 10 steps, check yes
  max neighbors/atom: 2000, page size: 100000
  master list distance cutoff = 2.9
  ghost atom cutoff = 2.9
  binsize = 1.45, bins = 56 56 111
  2 neighbor lists, perpetual/occasional/extra = 1 1 0
  (1) command delete_atoms, occasional
      attributes: full, newton on
      pair build: full/bin
      stencil: full/bin/3d
      bin: standard
  (2) pair lj/cut/opt, perpetual
      attributes: half, newton on
      pair build: half/bin/newton
      stencil: half/bin/3d/newton
      bin: standard
WARNING: Delete_atoms cutoff > minimum neighbor cutoff (src/delete_atoms.cpp:307)
WARNING: Ignoring 'compress yes' for molecular system (src/delete_atoms.cpp:125)
Deleted 136630 atoms, new total = 507356

pair_coeff    1 1 1.0 1.0 #solvent
pair_coeff    2 2 1.0 1.0 1.12 #np
pair_coeff    3 3 0.0 0.0 0.0 #dummy
pair_coeff    2 3 0.0 0.0 0.0 #np dummy
pair_coeff    1 2 ${sol} 1.0  #np solvent
pair_coeff    1 2 .75 1.0  
pair_coeff    1 3 0.0 0.0 0.0 #dummy solvent


comm_modify   mode multi cutoff/multi 1 2.5 cutoff/multi 2 2.5 cutoff/multi 3 6.95

reset_timestep 	0

balance 	1.05 shift z 10 1.05
Balancing ...
Neighbor list info ...
  update every 1 steps, delay 10 steps, check yes
  max neighbors/atom: 2000, page size: 100000
  master list distance cutoff = 2.9
  ghost atom cutoff = 6.95
  binsize = 1.45, bins = 56 56 111
  1 neighbor lists, perpetual/occasional/extra = 1 0 0
  (1) pair lj/cut/opt, perpetual
      attributes: half, newton on
      pair build: half/bin/newton
      stencil: half/bin/3d/newton
      bin: standard
 rebalancing time: 0.017 seconds
  iteration count = 4
  initial/final maximal load/proc = 10949.000 8784.0000
  initial/final imbalance factor  = 1.3811525 1.1080504
  x cuts: 0.0000000 0.5 1.0000000
  y cuts: 0.0000000 0.25 0.5 0.75 1.0000000
  z cuts: 0.0000000 0.1015625 0.1953125 0.2890625 0.3828125 0.484375 0.578125 0.671875 1.0000000

####################### WALLS ###########################

variable       epsilonWall equal 2*${epsilon}
variable       epsilonWall equal 2*1
variable       repulsive   equal   0.7147*${sigma}
variable       repulsive   equal   0.7147*1
variable       full	   equal   3*${sigma}
variable       full	   equal   3*1
region         lowWall block EDGE EDGE EDGE EDGE EDGE 2

fix            topWall all wall/lj93 zhi EDGE 	       ${epsilonWall} ${sigma} ${repulsive} units box
fix            topWall all wall/lj93 zhi EDGE 	       2 ${sigma} ${repulsive} units box
fix            topWall all wall/lj93 zhi EDGE 	       2 1 ${repulsive} units box
fix            topWall all wall/lj93 zhi EDGE 	       2 1 0.7147 units box
fix            lowSol solvent wall/lj93 zlo EDGE                ${epsilonWall} ${sigma} ${full} units box
fix            lowSol solvent wall/lj93 zlo EDGE                2 ${sigma} ${full} units box
fix            lowSol solvent wall/lj93 zlo EDGE                2 1 ${full} units box
fix            lowSol solvent wall/lj93 zlo EDGE                2 1 3 units box
fix 	       lowCub cubes wall/lj93 zlo EDGE                ${epsilonWall} ${sigma} ${repulsive} units box
fix 	       lowCub cubes wall/lj93 zlo EDGE                2 ${sigma} ${repulsive} units box
fix 	       lowCub cubes wall/lj93 zlo EDGE                2 1 ${repulsive} units box
fix 	       lowCub cubes wall/lj93 zlo EDGE                2 1 0.7147 units box


###################### COMPUTES ##########################

compute        bin1 solvent chunk/atom bin/1d z lower 1.0 units box
compute        bin3 solvent chunk/atom bin/3d x lower 1.0 y lower 1.0 z lower 1.0 units box

compute 	pe solvent 	   pe/atom
compute 	pe2 all 	   pe/atom

######################  FIXES ############################


fix             peclet solvent ave/chunk 10 10 10000 bin1 density/number norm                  none ave one file density.profile

fix              temp solvent ave/chunk 10 10 10000 bin1 temp norm                  none ave one file temp.profile

fix 		 dens solvent ave/chunk 10 10 500000 bin3 density/number norm 		 none ave one file dens3.profile

fix		 temp2 solvent ave/chunk 10 10 500000 bin3 temp norm none ave one file temp3.profile

fix 		pe solvent ave/chunk 1 1 500000 bin3 c_pe norm none ave one file pe3.profile

fix             1 cubes rigid/nve/small molecule
  create bodies CPU = 0.020 seconds
  175 rigid bodies with 200025 atoms
  6.9282032 = max distance from body owner to body atom

fix             2 solvent nve# temp ${temp} ${temp} 10


## Thermostat
region          regthermo block EDGE EDGE EDGE EDGE 0 15
group           thermo dynamic solvent region regthermo every 1000
dynamic group thermo defined
fix             3 thermo langevin ${temp} ${temp} 10 156453
fix             3 thermo langevin 1.0 ${temp} 10 156453
fix             3 thermo langevin 1.0 1.0 10 156453


#### Load balancing

fix             bal all balance 1000 1.05 shift z 10 1.05

############### Diagnostics and computes ###################

compute        	com cubes          rigid/local   1 mol x y z
compute        	quat cubes         rigid/local   1 mol quatw quati quatj quatk

compute 	cc2 cubes 	   chunk/atom 	 molecule
compute 	msd cubes 	   msd/chunk 	 cc2

fix 		msd all ave/time  1 1 10000 c_msd[*] file dump.msd ave one mode vector

dump            1 all custom 500000 dump.lammpstrj id mol type x y z vx vy vz c_pe2
dump		sol  solvent custom 500000 dump.soltrj id x y z vx vy vz c_pe
dump		cubetrj cubes custom 500000 cubes.lammpstrj id mol type x y z vx vy vz
dump            com cubes local 100000 dump.*.xyz c_com[*]
dump	        xyz hull xyz 100000 cubes.xyz
dump            quat cubes      local 100000 dump.*.quat c_quat[*]
dump		order cubes 	local 100000 dump.*.order c_com[*] c_quat[*]
#dump		mol cubes molfile 10000 mol.xyz xyz


dump            2 all image 100000 image.*.png type type zoom 1.5 size 1280 720
dump_modify     2 pad 8
dump		image cubes image 100000 image_cubes.*.png type type zoom 1.5 size 1280 720
dump_modify	image pad 8
dump            3 all movie 5000 movie.avi type type zoom 1.5 size 1280 720
dump		4 cubes movie 5000 movie_cubes.avi type type size 1280 720


thermo          1000
thermo_style    custom step temp epair evdwl etotal press pe ke atoms

restart         1000000 restart.dat
timestep        0.005
timer           full
New timer settings: style=full  mode=nosync  timeout=off

run 		10000000
Per MPI rank memory allocation (min/avg/max) = 91.64 | 101.1 | 102.9 Mbytes
Step Temp E_pair E_vdwl TotEng Press PotEng KinEng Atoms 
       0    1.0154049   -1.8920861   -1.8920861  -0.96841579  -0.10299369   -1.8920861   0.92367027   507356 
    1000    1.0229817   -1.9006951   -1.9006951  -0.97013255  0.070688487   -1.9006951   0.93056257   507356 
    2000    1.0238832   -1.9018186   -1.9018186  -0.97043598  0.058375055   -1.9018186   0.93138267   507356 
    3000    1.0240055   -1.9026486   -1.9026486  -0.97115475  0.068086485   -1.9026486   0.93149387   507356 
    4000    1.0227223   -1.9042333   -1.9042333  -0.97390671   0.06547628   -1.9042333   0.93032663   507356 
    5000    1.0238618   -1.9049584   -1.9049584  -0.97359527   0.06310886   -1.9049584   0.93136316   507356 
    6000    1.0230888   -1.9051249   -1.9051249  -0.97446497  0.065112526   -1.9051249   0.93065998   507356 
    7000    1.0224501   -1.9051001   -1.9051001  -0.97502111   0.06559367   -1.9051001     0.930079   507356 
    8000    1.0217912   -1.9052308   -1.9052308  -0.97575114   0.06189233   -1.9052308   0.92947968   507356 
    9000    1.0232834    -1.906933    -1.906933  -0.97609594  0.065786128    -1.906933   0.93083707   507356 
   10000    1.0232665   -1.9086211   -1.9086211  -0.97779945  0.068697996   -1.9086211   0.93082163   507356 
   11000    1.0234845   -1.9101091   -1.9101091  -0.97908918  0.072291281   -1.9101091   0.93101993   507356 
   12000    1.0220839   -1.9095031   -1.9095031  -0.97975727  0.060169133   -1.9095031   0.92974588   507356 
   13000     1.020181   -1.9088216   -1.9088216  -0.98080674  0.065220664   -1.9088216    0.9280149   507356 
   14000    1.0196696   -1.9087522   -1.9087522  -0.98120248  0.069720373   -1.9087522    0.9275497   507356 
   15000    1.0222824   -1.9116423   -1.9116423  -0.98171584  0.065737539   -1.9116423   0.92992648   507356 
   16000    1.0234373   -1.9136195   -1.9136195  -0.98264243  0.074301216   -1.9136195   0.93097707   507356 
   17000    1.0235594   -1.9141038   -1.9141038  -0.98301574  0.068420142   -1.9141038   0.93108808   507356 
   18000    1.0231443   -1.9142548   -1.9142548  -0.98354426  0.074486897   -1.9142548   0.93071053   507356 
   19000    1.0234899    -1.914917    -1.914917  -0.98389217  0.072786288    -1.914917   0.93102485   507356 
   20000     1.022944   -1.9153422   -1.9153422  -0.98481392  0.072033986   -1.9153422    0.9305283   507356 
   21000    1.0251061   -1.9174438   -1.9174438  -0.98494874   0.06548164   -1.9174438   0.93249505   507356 
   22000    1.0254853    -1.918329    -1.918329  -0.98548897  0.069497329    -1.918329   0.93284001   507356 
   23000    1.0238851    -1.917991    -1.917991  -0.98660669  0.069572178    -1.917991   0.93138434   507356 
   24000    1.0218746   -1.9171418   -1.9171418  -0.98758627  0.081188175   -1.9171418   0.92955552   507356 
   25000     1.024291   -1.9188732   -1.9188732  -0.98711957    0.0694943   -1.9188732    0.9317536   507356 
   26000    1.0242017   -1.9195528   -1.9195528  -0.98788043  0.067095641   -1.9195528   0.93167241   507356 
   27000    1.0239998   -1.9196533   -1.9196533   -0.9881646  0.071055778   -1.9196533   0.93148872   507356 
   28000    1.0239603    -1.920383    -1.920383  -0.98893029   0.06772952    -1.920383   0.93145275   507356 
   29000     1.024073    -1.920489    -1.920489  -0.98893368   0.06865405    -1.920489   0.93155534   507356 
   30000    1.0204283    -1.917648    -1.917648  -0.98940808  0.068549828    -1.917648   0.92823991   507356 
   31000     1.022442   -1.9199941   -1.9199941  -0.98992245  0.069033956   -1.9199941    0.9300716   507356 
   32000    1.0209584   -1.9193524   -1.9193524  -0.99063034  0.069246559   -1.9193524   0.92872209   507356 
   33000    1.0214437   -1.9197665   -1.9197665    -0.990603   0.06492899   -1.9197665   0.92916354   507356 
   34000    1.0213284    -1.919227    -1.919227  -0.99016829   0.07325117    -1.919227   0.92905868   507356 
   35000    1.0235848   -1.9215395   -1.9215395  -0.99042833  0.070543926   -1.9215395   0.93111119   507356 
   36000    1.0228148   -1.9211689   -1.9211689  -0.99075814  0.063125307   -1.9211689   0.93041073   507356 
   37000    1.0237338   -1.9217136   -1.9217136  -0.99046691  0.063858275   -1.9217136   0.93124674   507356 
   38000    1.0208127   -1.9196741   -1.9196741  -0.99108455  0.066461351   -1.9196741   0.92858954   507356 
   39000    1.0210332   -1.9185968   -1.9185968  -0.98980661  0.064300625   -1.9185968   0.92879015   507356 
   40000    1.0201566   -1.9187807   -1.9187807  -0.99078797  0.070673673   -1.9187807    0.9279927   507356 
   41000    1.0191295   -1.9183995   -1.9183995   -0.9913411  0.063932134   -1.9183995   0.92705842   507356 
   42000    1.0180575   -1.9178624   -1.9178624  -0.99177912  0.070001626   -1.9178624   0.92608327   507356 
   43000    1.0188079   -1.9198543   -1.9198543  -0.99308844  0.058514261   -1.9198543   0.92676582   507356 
   44000    1.0184221   -1.9188016   -1.9188016  -0.99238676  0.064489424   -1.9188016   0.92641488   507356 
   45000    1.0195745   -1.9204582   -1.9204582  -0.99299493  0.062237639   -1.9204582   0.92746324   507356 
   46000    1.0168427   -1.9181147   -1.9181147   -0.9931365  0.065304799   -1.9181147   0.92497819   507356 
   47000    1.0208817   -1.9214994   -1.9214994   -0.9928471  0.060180712   -1.9214994   0.92865227   507356 
   48000    1.0207776   -1.9201208   -1.9201208  -0.99156313  0.055877559   -1.9201208   0.92855764   507356 
   49000    1.0195746    -1.919067    -1.919067  -0.99160373  0.055790774    -1.919067   0.92746328   507356 
   50000    1.0197477   -1.9193924   -1.9193924  -0.99177168   0.06863882   -1.9193924   0.92762075   507356 
   51000    1.0210114   -1.9207778   -1.9207778   -0.9920076  0.060706634   -1.9207778   0.92877025   507356 
   52000    1.0205648   -1.9202205   -1.9202205  -0.99185644  0.062764713   -1.9202205   0.92836407   507356 
   53000    1.0212703   -1.9201585   -1.9201585  -0.99115275   0.07403544   -1.9201585   0.92900577   507356 
   54000    1.0209188   -1.9204117   -1.9204117  -0.99172569  0.065963315   -1.9204117   0.92868605   507356 
   55000    1.0201911   -1.9197498   -1.9197498  -0.99172573  0.067643416   -1.9197498   0.92802409   507356 
   56000    1.0217362   -1.9204536   -1.9204536  -0.99102398  0.062209493   -1.9204536   0.92942959   507356 
   57000    1.0208198   -1.9205123   -1.9205123  -0.99191628  0.063533609   -1.9205123   0.92859604   507356 
   58000    1.0207985   -1.9208075   -1.9208075  -0.99223086  0.072966833   -1.9208075   0.92857662   507356 
   59000     1.021394   -1.9213133   -1.9213133    -0.992195  0.061329734   -1.9213133   0.92911829   507356 
   60000    1.0216076   -1.9217391   -1.9217391  -0.99242649  0.069710584   -1.9217391   0.92931264   507356 
   61000    1.0213924   -1.9223171   -1.9223171  -0.99320017  0.068479077   -1.9223171    0.9291169   507356 
   62000    1.0211848   -1.9224517   -1.9224517  -0.99352366   0.07116427   -1.9224517     0.928928   507356 
   63000    1.0223892   -1.9224494   -1.9224494  -0.99242577  0.075922687   -1.9224494   0.93002359   507356 
   64000    1.0230833   -1.9236632   -1.9236632  -0.99300823   0.06416831   -1.9236632   0.93065498   507356 
   65000    1.0224644   -1.9236818   -1.9236818   -0.9935898  0.061218606   -1.9236818   0.93009201   507356 
   66000    1.0228737   -1.9241711   -1.9241711  -0.99370679  0.070134644   -1.9241711   0.93046432   507356 
   67000    1.0231085    -1.924699    -1.924699  -0.99402114  0.070736515    -1.924699    0.9306779   507356 
   68000    1.0218329   -1.9240725   -1.9240725  -0.99455493  0.076130439   -1.9240725   0.92951754   507356 
   69000    1.0201809   -1.9233262   -1.9233262  -0.99531136  0.060375489   -1.9233262   0.92801487   507356 
   70000    1.0212412   -1.9245956   -1.9245956  -0.99561628  0.068101704   -1.9245956   0.92897937   507356 
   71000    1.0218725   -1.9234884   -1.9234884  -0.99393478  0.078290907   -1.9234884   0.92955364   507356 
   72000    1.0210927   -1.9231363   -1.9231363  -0.99429202  0.063925587   -1.9231363   0.92884427   507356 
   73000    1.0221822   -1.9241898   -1.9241898  -0.99435445  0.069694684   -1.9241898   0.92983533   507356 
   74000    1.0227401   -1.9256174   -1.9256174  -0.99527453  0.069099153   -1.9256174   0.93034284   507356 
   75000    1.0207599   -1.9247778   -1.9247778  -0.99623623  0.068849525   -1.9247778   0.92854156   507356 
   76000    1.0203534   -1.9243867   -1.9243867  -0.99621499  0.074212109   -1.9243867   0.92817173   507356 
   77000     1.022155   -1.9260461   -1.9260461   -0.9962355  0.066440619   -1.9260461    0.9298106   507356 
   78000     1.020827   -1.9240641   -1.9240641  -0.99546158  0.064095329   -1.9240641   0.92860253   507356 
   79000     1.022569   -1.9246668   -1.9246668  -0.99447964  0.063421514   -1.9246668   0.93018715   507356 
   80000    1.0197505   -1.9222253   -1.9222253  -0.99460198  0.068277186   -1.9222253   0.92762329   507356 
   81000     1.020655   -1.9227958   -1.9227958  -0.99434968  0.071152404   -1.9227958   0.92844611   507356 
   82000    1.0194326   -1.9227356   -1.9227356  -0.99540155  0.066083999   -1.9227356   0.92733408   507356 
   83000    1.0189715    -1.922098    -1.922098  -0.99518325  0.068890552    -1.922098   0.92691471   507356 
   84000    1.0186974   -1.9224266   -1.9224266  -0.99576127  0.064463944   -1.9224266   0.92666532   507356 
   85000    1.0173417   -1.9209759   -1.9209759  -0.99554379  0.070732868   -1.9209759   0.92543215   507356 
   86000    1.0167659   -1.9204848   -1.9204848  -0.99557642  0.068695674   -1.9204848   0.92490839   507356 
   87000    1.0203381   -1.9234861   -1.9234861  -0.99532825   0.06614311   -1.9234861   0.92815782   507356 
   88000    1.0203947   -1.9238516   -1.9238516  -0.99564224  0.066641629   -1.9238516   0.92820935   507356 
   89000    1.0172331   -1.9213254   -1.9213254  -0.99599206  0.054739083   -1.9213254   0.92533332   507356 
   90000    1.0196125   -1.9239073   -1.9239073  -0.99640953  0.065438259   -1.9239073   0.92749774   507356 
   91000    1.0204308   -1.9241426   -1.9241426  -0.99590042  0.064434135   -1.9241426   0.92824214   507356 
   92000     1.021164   -1.9244725   -1.9244725  -0.99556345  0.063734079   -1.9244725   0.92890907   507356 
   93000     1.019712   -1.9238698   -1.9238698  -0.99628151  0.070312626   -1.9238698   0.92758828   507356 
   94000    1.0187052   -1.9235211   -1.9235211  -0.99684859  0.066038119   -1.9235211   0.92667247   507356 
   95000    1.0205453   -1.9243683   -1.9243683  -0.99602196  0.063782884   -1.9243683   0.92834632   507356 
   96000     1.019058   -1.9241751   -1.9241751  -0.99718176  0.068950419   -1.9241751   0.92699335   507356 
   97000    1.0199422   -1.9242486   -1.9242486   -0.9964509  0.069782277   -1.9242486   0.92779767   507356 
   98000    1.0196056   -1.9246951   -1.9246951  -0.99720354  0.074332785   -1.9246951   0.92749154   507356 
   99000    1.0207941   -1.9255987   -1.9255987  -0.99702612  0.070957367   -1.9255987    0.9285726   507356 
  100000    1.0213848   -1.9263618   -1.9263618  -0.99725184  0.062799634   -1.9263618   0.92910993   507356 
  101000    1.0209506   -1.9257889   -1.9257889  -0.99707393  0.071783928   -1.9257889   0.92871501   507356 
  102000    1.0193865   -1.9258056   -1.9258056  -0.99851346  0.072287188   -1.9258056   0.92729216   507356 
  103000    1.0208611   -1.9267672   -1.9267672  -0.99813368  0.057971219   -1.9267672   0.92863355   507356 
  104000    1.0208154   -1.9269736   -1.9269736  -0.99838165  0.059405039   -1.9269736   0.92859198   507356 
  105000    1.0204688   -1.9263223   -1.9263223  -0.99804554   0.07809256   -1.9263223   0.92827672   507356 
  106000    1.0220782   -1.9275941   -1.9275941  -0.99785337  0.073338883   -1.9275941   0.92974073   507356 
  107000    1.0212014   -1.9270112   -1.9270112   -0.9980681  0.064312709   -1.9270112   0.92894311   507356 
  108000    1.0196557   -1.9255362   -1.9255362  -0.99799917  0.076844976   -1.9255362   0.92753704   507356 
  109000    1.0215763   -1.9274428   -1.9274428  -0.99815859  0.069403303   -1.9274428   0.92928419   507356 
  110000    1.0194137   -1.9266976   -1.9266976  -0.99938068  0.065754971   -1.9266976   0.92731694   507356 
  111000    1.0188111    -1.925935    -1.925935  -0.99916624  0.078139781    -1.925935   0.92676877   507356 
  112000     1.021241   -1.9281638   -1.9281638  -0.99918466  0.070937581   -1.9281638   0.92897917   507356 
  113000    1.0200295   -1.9255305   -1.9255305  -0.99765339  0.072561754   -1.9255305   0.92787712   507356 
  114000    1.0202943   -1.9268864   -1.9268864  -0.99876848  0.080326398   -1.9268864   0.92811795   507356 
  115000    1.0192694   -1.9264226   -1.9264226  -0.99923695  0.069363331   -1.9264226   0.92718563   507356 
  116000    1.0192277   -1.9264176   -1.9264176  -0.99926989  0.071321168   -1.9264176    0.9271477   507356 
  117000    1.0184075   -1.9257096   -1.9257096  -0.99930802  0.074117726   -1.9257096   0.92640161   507356 
  118000    1.0191915   -1.9261579   -1.9261579  -0.99904315  0.074275543   -1.9261579   0.92711476   507356 
  119000    1.0178881   -1.9256026   -1.9256026  -0.99967337  0.072196558   -1.9256026    0.9259292   507356 
  120000    1.0191275   -1.9268872   -1.9268872  -0.99983062  0.062546925   -1.9268872   0.92705658   507356 
  121000    1.0187748   -1.9264244   -1.9264244   -0.9996886  0.067147224   -1.9264244   0.92673576   507356 
  122000    1.0191462   -1.9269978   -1.9269978  -0.99992417  0.064047934   -1.9269978   0.92707363   507356 
  123000    1.0196826   -1.9276817   -1.9276817   -1.0001201  0.062683724   -1.9276817   0.92756153   507356 
  124000    1.0192933   -1.9265488   -1.9265488  -0.99934135   0.07241938   -1.9265488   0.92720742   507356 
  125000     1.019868   -1.9267779   -1.9267779  -0.99904778  0.072720787   -1.9267779   0.92773015   507356 
  126000    1.0188454   -1.9257625   -1.9257625  -0.99896248  0.064934377   -1.9257625   0.92679997   507356 
  127000    1.0184627   -1.9259249   -1.9259249  -0.99947305  0.057467498   -1.9259249   0.92645182   507356 
  128000    1.0178603   -1.9252663   -1.9252663  -0.99936241  0.063318088   -1.9252663   0.92590392   507356 
  129000    1.0195507   -1.9268203   -1.9268203  -0.99937871  0.059961093   -1.9268203   0.92744157   507356 
  130000    1.0162894   -1.9242709   -1.9242709  -0.99979597  0.068005759   -1.9242709    0.9244749   507356 
  131000    1.0189791   -1.9256157   -1.9256157  -0.99869406  0.071754549   -1.9256157   0.92692159   507356 
  132000    1.0187852   -1.9258056   -1.9258056  -0.99906035  0.065042247   -1.9258056   0.92674522   507356 
  133000    1.0191723   -1.9261326   -1.9261326  -0.99903523   0.07724937   -1.9261326   0.92709739   507356 
  134000    1.0212375   -1.9272271   -1.9272271  -0.99825108  0.053753243   -1.9272271   0.92897599   507356 
  135000    1.0195129   -1.9252861   -1.9252861  -0.99787896  0.071617504   -1.9252861   0.92740716   507356 
  136000    1.0183599   -1.9252944   -1.9252944  -0.99893599   0.07134839   -1.9252944   0.92635837   507356 
  137000    1.0188604   -1.9248862   -1.9248862  -0.99807256  0.070653862   -1.9248862   0.92681364   507356 
  138000    1.0206562   -1.9255675   -1.9255675  -0.99712036  0.071048266   -1.9255675   0.92844717   507356 
  139000    1.0207327    -1.926154    -1.926154  -0.99763719  0.074382303    -1.926154   0.92851677   507356 
  140000    1.0189758    -1.925348    -1.925348  -0.99842935  0.078821918    -1.925348    0.9269186   507356 
  141000    1.0205382   -1.9270097   -1.9270097  -0.99866986  0.066075285   -1.9270097   0.92833981   507356 
  142000    1.0196226   -1.9274697   -1.9274697  -0.99996277  0.065199621   -1.9274697   0.92750694   507356 
  143000    1.0185712   -1.9270453   -1.9270453   -1.0004947  0.070157755   -1.9270453   0.92655059   507356 
  144000    1.0162314   -1.9254942   -1.9254942   -1.0010721  0.066569507   -1.9254942   0.92442211   507356 
  145000    1.0174056   -1.9265844   -1.9265844   -1.0010942   0.06581908   -1.9265844   0.92549024   507356 
  146000    1.0175868    -1.927358    -1.927358    -1.001703  0.072338464    -1.927358   0.92565505   507356 
  147000    1.0184884   -1.9280264   -1.9280264   -1.0015511  0.068725819   -1.9280264   0.92647524   507356 
  148000    1.0198367   -1.9292533   -1.9292533   -1.0015516  0.069428839   -1.9292533   0.92770171   507356 
  149000    1.0171559   -1.9274633   -1.9274633   -1.0022002  0.068897241   -1.9274633    0.9252631   507356 
  150000    1.0179124   -1.9283619   -1.9283619   -1.0024107  0.066549863   -1.9283619   0.92595127   507356 
  151000    1.0190095   -1.9283913   -1.9283913    -1.001442  0.077286694   -1.9283913   0.92694928   507356 
  152000    1.0198124   -1.9283789   -1.9283789   -1.0006993  0.074159664   -1.9283789   0.92767963   507356 
  153000    1.0200913    -1.928493    -1.928493   -1.0005596  0.072259167    -1.928493   0.92793335   507356 
  154000    1.0193393    -1.927634    -1.927634   -1.0003848  0.061731364    -1.927634   0.92724923   507356 
  155000    1.0192137   -1.9274008   -1.9274008   -1.0002659   0.06835322   -1.9274008   0.92713496   507356 
  156000     1.019266   -1.9274601   -1.9274601   -1.0002775  0.069630856   -1.9274601   0.92718255   507356 
  157000    1.0206309   -1.9288244   -1.9288244   -1.0004002  0.072384159   -1.9288244    0.9284242   507356 
  158000    1.0201266   -1.9296754   -1.9296754     -1.00171  0.063468747   -1.9296754   0.92796541   507356 
  159000    1.0187879   -1.9284957   -1.9284957   -1.0017481  0.066313889   -1.9284957   0.92674763   507356 
  160000      1.01739    -1.927711    -1.927711   -1.0022349  0.072114759    -1.927711   0.92547606   507356 
  161000    1.0186619   -1.9289541   -1.9289541    -1.002321  0.065813909   -1.9289541   0.92663309   507356 
  162000    1.0184607   -1.9281435   -1.9281435   -1.0016934  0.068218053   -1.9281435   0.92645007   507356 
  163000    1.0199019   -1.9290461   -1.9290461    -1.001285  0.075579767   -1.9290461   0.92776105   507356 
  164000    1.0188339   -1.9281678   -1.9281678   -1.0013783  0.060534021   -1.9281678   0.92678954   507356 
  165000    1.0202769   -1.9300099   -1.9300099   -1.0019077  0.060900296   -1.9300099   0.92810217   507356 
  166000    1.0206653   -1.9303984   -1.9303984   -1.0019429  0.064513776   -1.9303984   0.92845546   507356 
  167000    1.0195336   -1.9289176   -1.9289176   -1.0014916  0.073154322   -1.9289176   0.92742598   507356 
  168000    1.0200153   -1.9302284   -1.9302284   -1.0023643  0.072923973   -1.9302284   0.92786417   507356 
  169000    1.0184106   -1.9286907   -1.9286907   -1.0022863  0.073437296   -1.9286907   0.92640447   507356 
  170000    1.0192431   -1.9294748   -1.9294748   -1.0023131  0.062420702   -1.9294748   0.92716171   507356 
  171000    1.0193623   -1.9296777   -1.9296777   -1.0024076  0.070837703   -1.9296777   0.92727015   507356 
  172000    1.0198699    -1.930385    -1.930385   -1.0026532  0.067370382    -1.930385   0.92773189   507356 
  173000    1.0188178   -1.9296983   -1.9296983   -1.0029234  0.074207213   -1.9296983   0.92677487   507356 
  174000    1.0197521   -1.9301344   -1.9301344   -1.0025096  0.067568512   -1.9301344   0.92762475   507356 
  175000    1.0206748   -1.9312211   -1.9312211    -1.002757  0.066931184   -1.9312211   0.92846412   507356 
  176000    1.0193589   -1.9299693   -1.9299693   -1.0027022  0.073673322   -1.9299693    0.9272671   507356 
  177000    1.0215032   -1.9321487   -1.9321487   -1.0029311  0.066949271   -1.9321487   0.92921764   507356 
  178000    1.0202816   -1.9319153   -1.9319153   -1.0038089  0.067989803   -1.9319153   0.92810642   507356 
  179000     1.019478   -1.9313535   -1.9313535   -1.0039781  0.068081354   -1.9313535   0.92737544   507356 
  180000    1.0187627   -1.9301226   -1.9301226   -1.0033979   0.07889357   -1.9301226   0.92672473   507356 
  181000    1.0205038   -1.9320202   -1.9320202   -1.0037116  0.073226342   -1.9320202   0.92830853   507356 
  182000    1.0211553   -1.9332817   -1.9332817   -1.0043805  0.063176391   -1.9332817   0.92890121   507356 
  183000    1.0177935   -1.9299861   -1.9299861    -1.004143  0.068040813   -1.9299861   0.92584313   507356 
  184000    1.0210364   -1.9331464   -1.9331464   -1.0043534  0.065587548   -1.9331464   0.92879303   507356 
  185000    1.0179146   -1.9302828   -1.9302828   -1.0043295  0.069932991   -1.9302828   0.92595326   507356 
  186000    1.0171845   -1.9310646   -1.9310646   -1.0057755  0.071126926   -1.9310646   0.92528912   507356 
  187000    1.0183571   -1.9324337   -1.9324337   -1.0060778  0.070319654   -1.9324337   0.92635582   507356 
  188000    1.0187143   -1.9325178   -1.9325178   -1.0058371  0.061434495   -1.9325178   0.92668069   507356 
  189000    1.0178446   -1.9317997   -1.9317997   -1.0059101  0.064645658   -1.9317997   0.92588957   507356 
  190000     1.020252    -1.933676    -1.933676   -1.0055965  0.062971233    -1.933676   0.92807953   507356 
  191000    1.0169311   -1.9309107   -1.9309107   -1.0058521  0.071743726   -1.9309107    0.9250586   507356 
  192000    1.0166913   -1.9311662   -1.9311662   -1.0063257  0.071176215   -1.9311662   0.92484045   507356 
  193000    1.0198267   -1.9336015   -1.9336015   -1.0059088  0.076023638   -1.9336015   0.92769265   507356 
  194000    1.0197922   -1.9336408   -1.9336408   -1.0059796  0.062569086   -1.9336408    0.9276612   507356 
  195000    1.0205899    -1.933839    -1.933839    -1.005452  0.072931261    -1.933839   0.92838692   507356 
  196000    1.0205606   -1.9342408   -1.9342408   -1.0058806  0.059132971   -1.9342408   0.92836018   507356 
  197000     1.017291    -1.931432    -1.931432   -1.0060459  0.066961247    -1.931432   0.92538602   507356 
  198000    1.0194829    -1.933581    -1.933581   -1.0062011  0.067396352    -1.933581   0.92737993   507356 
  199000    1.0177307   -1.9322499   -1.9322499   -1.0064639  0.074685356   -1.9322499   0.92578602   507356 
  200000    1.0181346   -1.9330346   -1.9330346   -1.0068812  0.079997301   -1.9330346   0.92615338   507356 
  201000    1.0201517   -1.9356966   -1.9356966   -1.0077083   0.06348475   -1.9356966   0.92798825   507356 
  202000    1.0190349    -1.934792    -1.934792   -1.0078197  0.069883973    -1.934792   0.92697237   507356 
  203000     1.017921   -1.9331448   -1.9331448   -1.0071857  0.076014337   -1.9331448   0.92595912   507356 
  204000    1.0194248   -1.9340712   -1.9340712   -1.0067442  0.068184324   -1.9340712   0.92732702   507356 
  205000    1.0179833   -1.9343314   -1.9343314   -1.0083157  0.066290977   -1.9343314   0.92601574   507356 
  206000    1.0184901   -1.9349159   -1.9349159   -1.0084392   0.06431249   -1.9349159   0.92647677   507356 
  207000    1.0180325   -1.9344245   -1.9344245   -1.0083639    0.0679461   -1.9344245   0.92606055   507356 
  208000     1.017568   -1.9333972   -1.9333972   -1.0077592  0.065402379   -1.9333972   0.92563794   507356 
  209000    1.0171252   -1.9331291   -1.9331291   -1.0078938  0.066040065   -1.9331291   0.92523522   507356 
  210000    1.0155464   -1.9327373   -1.9327373   -1.0089383  0.067401194   -1.9327373   0.92379901   507356 
  211000    1.0186038   -1.9353066   -1.9353066   -1.0087264  0.066178492   -1.9353066   0.92658023   507356 
  212000    1.0167422   -1.9337713   -1.9337713   -1.0088845  0.064819077   -1.9337713   0.92488678   507356 
  213000    1.0166532   -1.9341279   -1.9341279    -1.009322  0.061059544   -1.9341279   0.92480587   507356 
  214000    1.0164603   -1.9339935   -1.9339935   -1.0093631  0.063593601   -1.9339935   0.92463035   507356 
  215000    1.0179764   -1.9353395   -1.9353395     -1.00933  0.073155461   -1.9353395   0.92600946   507356 
  216000    1.0185552   -1.9351403   -1.9351403   -1.0086043  0.073093614   -1.9351403   0.92653599   507356 
  217000     1.019052   -1.9351978   -1.9351978     -1.00821  0.061170948   -1.9351978   0.92698787   507356 
  218000    1.0192551   -1.9356928   -1.9356928   -1.0085201  0.066853095   -1.9356928   0.92717267   507356 
  219000    1.0195907   -1.9350215   -1.9350215   -1.0075435  0.072864961   -1.9350215   0.92747794   507356 
  220000    1.0192914   -1.9350917   -1.9350917   -1.0078861  0.072432269   -1.9350917   0.92720569   507356 
  221000    1.0209786   -1.9372511   -1.9372511   -1.0085106  0.065626469   -1.9372511   0.92874045   507356 
  222000    1.0196204   -1.9369518   -1.9369518   -1.0094469  0.063345834   -1.9369518   0.92750493   507356 
  223000    1.0194562   -1.9371419   -1.9371419   -1.0097863  0.077385561   -1.9371419   0.92735563   507356 
  224000     1.018238   -1.9360445   -1.9360445   -1.0097971   0.06757426   -1.9360445   0.92624741   507356 
  225000    1.0152757   -1.9337898   -1.9337898    -1.010237  0.070549452   -1.9337898   0.92355276   507356 
  226000    1.0160826   -1.9347364   -1.9347364   -1.0104496  0.064632422   -1.9347364    0.9242868   507356 
  227000    1.0171344   -1.9357887   -1.9357887   -1.0105451  0.062561813   -1.9357887   0.92524357   507356 
  228000    1.0158711   -1.9345919   -1.9345919   -1.0104975  0.061481916   -1.9345919   0.92409438   507356 
  229000    1.0168339   -1.9339964   -1.9339964   -1.0090263  0.071050916   -1.9339964   0.92497018   507356 
  230000    1.0178559   -1.9352918   -1.9352918   -1.0093919  0.070311022   -1.9352918   0.92589987   507356 
  231000    1.0187843   -1.9364199   -1.9364199   -1.0096755  0.064467061   -1.9364199   0.92674444   507356 
  232000    1.0176571   -1.9343008   -1.9343008   -1.0085817  0.070032265   -1.9343008   0.92571906   507356 
  233000     1.020447   -1.9364112   -1.9364112   -1.0081543  0.067831223   -1.9364112   0.92825691   507356 
  234000    1.0217418   -1.9367417   -1.9367417   -1.0073069  0.063992955   -1.9367417   0.92943474   507356 
  235000    1.0194442   -1.9353681   -1.9353681   -1.0080234  0.070320577   -1.9353681   0.92734469   507356 
  236000    1.0207186    -1.935657    -1.935657   -1.0071531  0.069298696    -1.935657   0.92850392   507356 
  237000    1.0199011   -1.9346484   -1.9346484   -1.0068881  0.071637007   -1.9346484   0.92776026   507356 
  238000    1.0183774   -1.9347913   -1.9347913   -1.0084171  0.072553112   -1.9347913   0.92637426   507356 
  239000    1.0181638   -1.9354698   -1.9354698   -1.0092898  0.066997537   -1.9354698   0.92617996   507356 
  240000    1.0184567   -1.9344643   -1.9344643   -1.0080179  0.072972625   -1.9344643   0.92644641   507356 
  241000    1.0180984   -1.9343183   -1.9343183   -1.0081978  0.059242082   -1.9343183    0.9261205   507356 
  242000    1.0180084   -1.9351249   -1.9351249   -1.0090863  0.066521931   -1.9351249   0.92603863   507356 
  243000    1.0160942   -1.9336153   -1.9336153   -1.0093179  0.075772601   -1.9336153   0.92429737   507356 
  244000    1.0197095     -1.93638     -1.93638    -1.008794  0.071382416     -1.93638   0.92758598   507356 
  245000    1.0167211   -1.9335775   -1.9335775   -1.0087098  0.068821903   -1.9335775   0.92486763   507356 
  246000    1.0183842   -1.9357164   -1.9357164    -1.009336  0.069812782   -1.9357164    0.9263804   507356 
  247000    1.0181804   -1.9346937   -1.9346937   -1.0084987  0.069089834   -1.9346937   0.92619502   507356 
  248000    1.0174587   -1.9340218   -1.9340218   -1.0084833  0.074385041   -1.9340218   0.92553852   507356 
  249000    1.0181263   -1.9340945   -1.9340945   -1.0079487  0.071426466   -1.9340945   0.92614584   507356 
  250000    1.0198544   -1.9351901   -1.9351901   -1.0074723  0.079316321   -1.9351901   0.92771785   507356 
  251000     1.019441   -1.9345306   -1.9345306   -1.0071889  0.075096773   -1.9345306   0.92734172   507356 
  252000    1.0217731   -1.9374667   -1.9374667   -1.0080035  0.066107159   -1.9374667   0.92946315   507356 
  253000    1.0198267   -1.9354417   -1.9354417   -1.0077491  0.069227264   -1.9354417   0.92769265   507356 
  254000    1.0193593   -1.9344936   -1.9344936   -1.0072262  0.071679487   -1.9344936   0.92726744   507356 
  255000    1.0194211   -1.9356067   -1.9356067   -1.0082831  0.070821532   -1.9356067   0.92732365   507356 
  256000    1.0183257   -1.9358948   -1.9358948   -1.0095675  0.067595248   -1.9358948   0.92632727   507356 
  257000    1.0166626   -1.9339246   -1.9339246   -1.0091102  0.065589567   -1.9339246   0.92481438   507356 
  258000    1.0161335   -1.9333119   -1.9333119   -1.0089789  0.072000156   -1.9333119   0.92433306   507356 
  259000    1.0189569   -1.9362109   -1.9362109   -1.0093095  0.068352497   -1.9362109   0.92690144   507356 
  260000    1.0182932   -1.9350572   -1.9350572   -1.0087595   0.07369838   -1.9350572   0.92629767   507356 
  261000    1.0172535   -1.9345053   -1.9345053   -1.0091534   0.07648727   -1.9345053   0.92535191   507356 
  262000    1.0168066   -1.9347202   -1.9347202   -1.0097748  0.064957484   -1.9347202   0.92494537   507356 
  263000    1.0182693    -1.936739    -1.936739   -1.0104631  0.065275539    -1.936739    0.9262759   507356 
  264000    1.0187733    -1.937301    -1.937301   -1.0105666  0.067262356    -1.937301   0.92673436   507356 
  265000    1.0177693   -1.9373327   -1.9373327   -1.0115117  0.056403512   -1.9373327   0.92582107   507356 
  266000    1.0171312   -1.9361381   -1.9361381   -1.0108975  0.067155287   -1.9361381   0.92524066   507356 
  267000    1.0183879   -1.9369744   -1.9369744   -1.0105906  0.071564918   -1.9369744   0.92638379   507356 
  268000    1.0182894   -1.9367561   -1.9367561   -1.0104619  0.067334874   -1.9367561    0.9262942   507356 
  269000    1.0152575   -1.9341448   -1.9341448   -1.0106085  0.073058128   -1.9341448   0.92353623   507356 
  270000    1.0185714   -1.9367179   -1.9367179   -1.0101673  0.068851869   -1.9367179   0.92655069   507356 
  271000    1.0180165   -1.9355042   -1.9355042   -1.0094582  0.069862854   -1.9355042     0.926046   507356 
  272000    1.0167611    -1.933655    -1.933655    -1.008751  0.074229092    -1.933655     0.924904   507356 
  273000    1.0182447   -1.9363749   -1.9363749   -1.0101214  0.083322374   -1.9363749   0.92625353   507356 
  274000    1.0184154   -1.9366448   -1.9366448    -1.010236  0.074050547   -1.9366448   0.92640886   507356 
  275000    1.0193547   -1.9376691   -1.9376691   -1.0104058  0.068690002   -1.9376691   0.92726328   507356 
  276000     1.019314   -1.9371141   -1.9371141   -1.0098879   0.06589734   -1.9371141   0.92722624   507356 
  277000    1.0194543   -1.9370908   -1.9370908   -1.0097369  0.069052573   -1.9370908   0.92735382   507356 
  278000     1.018949   -1.9383551   -1.9383551   -1.0114608  0.069582306   -1.9383551   0.92689426   507356 
  279000    1.0187248   -1.9382533   -1.9382533   -1.0115631    0.0654536   -1.9382533   0.92669026   507356 
  280000    1.0183478   -1.9378967   -1.9378967   -1.0115493  0.067120126   -1.9378967   0.92634737   507356 
  281000    1.0189254    -1.938165    -1.938165   -1.0112922   0.06566491    -1.938165   0.92687279   507356 
  282000    1.0171181   -1.9365582   -1.9365582   -1.0113295  0.077082372   -1.9365582   0.92522873   507356 
  283000    1.0173044   -1.9367029   -1.9367029   -1.0113047  0.070763199   -1.9367029   0.92539822   507356 
  284000    1.0175822   -1.9375583   -1.9375583   -1.0119074  0.069767858   -1.9375583   0.92565089   507356 
  285000    1.0148183    -1.935654    -1.935654   -1.0125173  0.068391787    -1.935654    0.9231367   507356 
  286000    1.0168534   -1.9376529   -1.9376529   -1.0126649   0.07371204   -1.9376529   0.92498798   507356 
  287000    1.0159726   -1.9371883   -1.9371883   -1.0130016  0.068582152   -1.9371883   0.92418669   507356 
  288000    1.0170519   -1.9374699   -1.9374699   -1.0123014  0.062517684   -1.9374699   0.92516851   507356 
  289000    1.0175704     -1.93724     -1.93724   -1.0115998  0.063467038     -1.93724   0.92564019   507356 
  290000    1.0159496    -1.936519    -1.936519   -1.0123532  0.074172225    -1.936519   0.92416581   507356 
  291000     1.017385   -1.9361841   -1.9361841   -1.0107125  0.067862352   -1.9361841   0.92547155   507356 
  292000    1.0185708   -1.9374209   -1.9374209   -1.0108708  0.064616561   -1.9374209   0.92655019   507356 
  293000    1.0192383   -1.9375481   -1.9375481   -1.0103907  0.067185606   -1.9375481   0.92715738   507356 
  294000    1.0178191   -1.9365011   -1.9365011   -1.0106347  0.071866822   -1.9365011   0.92586638   507356 
  295000    1.0195127   -1.9381612   -1.9381612   -1.0107542  0.065306352   -1.9381612   0.92740702   507356 
  296000     1.018212   -1.9378453   -1.9378453   -1.0116215   0.06792476   -1.9378453   0.92622381   507356 
  297000    1.0174545   -1.9368132   -1.9368132   -1.0112785  0.071651261   -1.9368132   0.92553469   507356 
  298000     1.019326   -1.9393513   -1.9393513   -1.0121141  0.070360494   -1.9393513   0.92723718   507356 
  299000    1.0200561   -1.9389276   -1.9389276   -1.0110263  0.064891184   -1.9389276   0.92790132   507356 
  300000    1.0178605   -1.9385267   -1.9385267   -1.0126227  0.070501427   -1.9385267   0.92590402   507356 
  301000    1.0162197   -1.9370455   -1.9370455   -1.0126341  0.067496737   -1.9370455   0.92441145   507356 
  302000    1.0191271   -1.9395337   -1.9395337   -1.0124775  0.074599833   -1.9395337   0.92705627   507356 
  303000    1.0155811   -1.9360981   -1.9360981   -1.0122676  0.076814943   -1.9360981   0.92383056   507356 
  304000    1.0170017   -1.9373175   -1.9373175   -1.0121947  0.076947256   -1.9373175   0.92512283   507356 
  305000    1.0178791   -1.9384784   -1.9384784   -1.0125573  0.068366918   -1.9384784   0.92592102   507356 
  306000    1.0181179   -1.9378485   -1.9378485   -1.0117103  0.062030338   -1.9378485    0.9261382   507356 
  307000    1.0203037   -1.9403194   -1.9403194   -1.0121929  0.069797424   -1.9403194   0.92812656   507356 
  308000    1.0193415   -1.9382437   -1.9382437   -1.0109924  0.065730103   -1.9382437   0.92725128   507356 
  309000    1.0164729   -1.9369909   -1.9369909   -1.0123491  0.068016452   -1.9369909    0.9246418   507356 
  310000    1.0165459   -1.9365934   -1.9365934   -1.0118851  0.075464204   -1.9365934   0.92470826   507356 
  311000    1.0182599   -1.9378459   -1.9378459   -1.0115786  0.068758268   -1.9378459   0.92626736   507356 
  312000    1.0185355   -1.9372068   -1.9372068   -1.0106888  0.065132261   -1.9372068   0.92651803   507356 
  313000     1.018818   -1.9377311   -1.9377311   -1.0109561  0.075450464   -1.9377311   0.92677504   507356 
  314000    1.0180583   -1.9369443   -1.9369443   -1.0108603  0.069163488   -1.9369443   0.92608401   507356 
  315000     1.017121   -1.9361247   -1.9361247   -1.0108933  0.071397328   -1.9361247   0.92523135   507356 
  316000    1.0181553   -1.9365563   -1.9365563   -1.0103841  0.064152317   -1.9365563    0.9261722   507356 
  317000     1.018298   -1.9376719   -1.9376719   -1.0113699  0.067021857   -1.9376719   0.92630204   507356 
  318000    1.0178133   -1.9366025   -1.9366025   -1.0107414  0.071113897   -1.9366025   0.92586108   507356 
  319000    1.0207785   -1.9398278   -1.9398278   -1.0112694  0.075266392   -1.9398278   0.92855841   507356 
  320000    1.0187924    -1.937897    -1.937897   -1.0111452  0.067865691    -1.937897   0.92675175   507356 
  321000    1.0176997   -1.9372632   -1.9372632   -1.0115054  0.061343004   -1.9372632   0.92575782   507356 
  322000    1.0187593   -1.9382707   -1.9382707    -1.011549  0.067625705   -1.9382707    0.9267217   507356 
  323000    1.0176881   -1.9369928   -1.9369928   -1.0112456  0.068090238   -1.9369928   0.92574722   507356 
  324000    1.0187728   -1.9379511   -1.9379511   -1.0112171  0.067948939   -1.9379511   0.92673397   507356 
  325000    1.0173601   -1.9367999   -1.9367999   -1.0113511  0.066032291   -1.9367999   0.92544882   507356 
  326000    1.0184142   -1.9379967   -1.9379967   -1.0115889   0.06755159   -1.9379967   0.92640772   507356 
  327000    1.0165742   -1.9370286   -1.9370286   -1.0122947  0.075658068   -1.9370286   0.92473395   507356 
  328000     1.017404       -1.938       -1.938   -1.0125112  0.074748941       -1.938   0.92548878   507356 
  329000    1.0174888   -1.9371025   -1.9371025   -1.0115366  0.079186836   -1.9371025   0.92556596   507356 
  330000    1.0186209   -1.9375904   -1.9375904   -1.0109946  0.072732208   -1.9375904   0.92659578   507356 
  331000    1.0180897   -1.9371769   -1.9371769   -1.0110644  0.071503812   -1.9371769    0.9261125   507356 
  332000    1.0186253   -1.9379425   -1.9379425   -1.0113427  0.063890408   -1.9379425   0.92659979   507356 
  333000    1.0154818   -1.9358194   -1.9358194   -1.0120792   0.07360098   -1.9358194   0.92374025   507356 
  334000    1.0181728   -1.9392258   -1.9392258   -1.0130376  0.066456216   -1.9392258   0.92618817   507356 
  335000    1.0187559   -1.9394427   -1.9394427   -1.0127241  0.070433971   -1.9394427   0.92671853   507356 
  336000    1.0186643   -1.9382269   -1.9382269   -1.0115916  0.072564698   -1.9382269   0.92663528   507356 
  337000    1.0187694   -1.9395831   -1.9395831   -1.0128522  0.068028714   -1.9395831   0.92673086   507356 
  338000    1.0195801   -1.9395444   -1.9395444   -1.0120761  0.064354381   -1.9395444   0.92746828   507356 
  339000    1.0191521    -1.939304    -1.939304   -1.0122251  0.058438211    -1.939304   0.92707895   507356 
  340000    1.0165473   -1.9373914   -1.9373914   -1.0126819  0.078887112   -1.9373914   0.92470952   507356 
  341000    1.0179655   -1.9389082   -1.9389082   -1.0129086  0.066275066   -1.9389082   0.92599958   507356 
  342000    1.0179874   -1.9389791   -1.9389791   -1.0129596  0.079564331   -1.9389791    0.9260195   507356 
  343000    1.0182844   -1.9396105   -1.9396105   -1.0133208   0.06844154   -1.9396105   0.92628968   507356 
  344000    1.0171969   -1.9386623   -1.9386623   -1.0133619  0.068815984   -1.9386623   0.92530038   507356 
  345000    1.0170625   -1.9386045   -1.9386045   -1.0134263  0.061716792   -1.9386045   0.92517817   507356 
  346000     1.018509   -1.9397813   -1.9397813   -1.0132873  0.072987275   -1.9397813   0.92649395   507356 
  347000    1.0169021   -1.9398807   -1.9398807   -1.0148485  0.069737381   -1.9398807    0.9250322   507356 
  348000     1.017568   -1.9398003   -1.9398003   -1.0141623  0.067697747   -1.9398003   0.92563794   507356 
  349000    1.0185443   -1.9403435   -1.9403435   -1.0138175  0.060575113   -1.9403435   0.92652603   507356 
  350000    1.0156919   -1.9387088   -1.9387088   -1.0147774  0.074964286   -1.9387088   0.92393138   507356 
  351000    1.0153672   -1.9385152   -1.9385152   -1.0148792   0.06814384   -1.9385152   0.92363601   507356 
  352000    1.0172948    -1.939131    -1.939131   -1.0137416  0.077696774    -1.939131   0.92538948   507356 
  353000    1.0190956   -1.9400647   -1.9400647   -1.0130371  0.065038507   -1.9400647   0.92702759   507356 
  354000    1.0178819    -1.939065    -1.939065   -1.0131415  0.069980339    -1.939065   0.92592349   507356 
  355000    1.0206609   -1.9415033   -1.9415033   -1.0130518  0.064666874   -1.9415033    0.9284515   507356 
  356000     1.018596   -1.9400811   -1.9400811    -1.013508  0.068346433   -1.9400811    0.9265731   507356 
  357000    1.0176008   -1.9386222   -1.9386222   -1.0129543  0.067741818   -1.9386222   0.92566785   507356 
  358000    1.0184175   -1.9401509   -1.9401509   -1.0137402  0.064980246   -1.9401509    0.9264107   507356 
  359000    1.0178573   -1.9391962   -1.9391962   -1.0132951  0.080389113   -1.9391962   0.92590111   507356 
  360000    1.0206667   -1.9420452   -1.9420452   -1.0135885  0.071337821   -1.9420452   0.92845671   507356 
  361000    1.0181862   -1.9407363   -1.9407363    -1.014536  0.076532252   -1.9407363   0.92620031   507356 
  362000    1.0198499   -1.9414149   -1.9414149   -1.0137011  0.062976663   -1.9414149   0.92771371   507356 
  363000    1.0195771   -1.9420693   -1.9420693   -1.0146037  0.065365022   -1.9420693   0.92746554   507356 
  364000    1.0185567   -1.9412591   -1.9412591   -1.0147217  0.071434924   -1.9412591   0.92653737   507356 
  365000    1.0169026   -1.9404466   -1.9404466   -1.0154139  0.070687317   -1.9404466   0.92503271   507356 
  366000    1.0169769   -1.9404434   -1.9404434    -1.015343  0.061347322   -1.9404434   0.92510031   507356 
  367000    1.0166982   -1.9398366   -1.9398366   -1.0149898  0.069031463   -1.9398366   0.92484674   507356 
  368000    1.0179432   -1.9404765   -1.9404765   -1.0144973   0.07122033   -1.9404765   0.92597924   507356 
  369000    1.0188518   -1.9412637   -1.9412637    -1.014458  0.069194753   -1.9412637   0.92680577   507356 
  370000    1.0171889   -1.9409102   -1.9409102    -1.015617  0.076122304   -1.9409102   0.92529314   507356 
  371000    1.0203651   -1.9435833   -1.9435833   -1.0154009  0.066292364   -1.9435833   0.92818238   507356 
  372000    1.0188467   -1.9420629   -1.9420629   -1.0152618  0.071723322   -1.9420629   0.92680115   507356 
  373000    1.0184153   -1.9417622   -1.9417622   -1.0153535  0.075579496   -1.9417622   0.92640874   507356 
  374000    1.0174085   -1.9408505   -1.9408505   -1.0153576  0.067133334   -1.9408505   0.92549287   507356 
  375000    1.0193061   -1.9410491   -1.9410491     -1.01383  0.064440322   -1.9410491   0.92721906   507356 
  376000    1.0200679   -1.9418627   -1.9418627   -1.0139506  0.062661802   -1.9418627   0.92791203   507356 
  377000    1.0178148   -1.9398033   -1.9398033   -1.0139409  0.073039766   -1.9398033   0.92586245   507356 
  378000    1.0187578    -1.941124    -1.941124   -1.0144038  0.065702438    -1.941124   0.92672026   507356 
  379000    1.0163234   -1.9384794   -1.9384794   -1.0139735  0.073597294   -1.9384794   0.92450585   507356 
  380000    1.0171997   -1.9399884   -1.9399884   -1.0146854  0.074917338   -1.9399884   0.92530295   507356 
  381000    1.0177363   -1.9399477   -1.9399477   -1.0141566  0.074358821   -1.9399477   0.92579111   507356 
  382000    1.0177959   -1.9400321   -1.9400321   -1.0141868   0.07013888   -1.9400321   0.92584527   507356 
  383000    1.0184734   -1.9406493   -1.9406493   -1.0141877  0.068071243   -1.9406493    0.9264616   507356 
  384000    1.0190987   -1.9413239   -1.9413239   -1.0142935   0.06284613   -1.9413239   0.92703035   507356 
  385000    1.0155644   -1.9388205   -1.9388205    -1.015005  0.074215904   -1.9388205   0.92381542   507356 
  386000    1.0146778   -1.9386623   -1.9386623   -1.0156535  0.071361805   -1.9386623   0.92300888   507356 
  387000    1.0156827   -1.9397699   -1.9397699   -1.0158469  0.073839163   -1.9397699   0.92392297   507356 
  388000    1.0168783   -1.9407646   -1.9407646    -1.015754  0.072674273   -1.9407646   0.92501058   507356 
  389000    1.0179137   -1.9414338   -1.9414338   -1.0154814  0.059781067   -1.9414338   0.92595242   507356 
  390000    1.0166149   -1.9395633   -1.9395633   -1.0147923  0.065964319   -1.9395633   0.92477094   507356 
  391000    1.0169459   -1.9392653   -1.9392653   -1.0141932  0.066704452   -1.9392653   0.92507212   507356 
  392000    1.0183758   -1.9406521   -1.9406521   -1.0142794  0.068904475   -1.9406521   0.92637276   507356 
  393000    1.0183476   -1.9408356   -1.9408356   -1.0144885  0.073920485   -1.9408356   0.92634716   507356 
  394000    1.0172976   -1.9396608   -1.9396608   -1.0142689   0.07496557   -1.9396608   0.92539197   507356 
  395000    1.0177539   -1.9399841   -1.9399841    -1.014177   0.07392309   -1.9399841   0.92580707   507356 
  396000    1.0163966    -1.938377    -1.938377   -1.0138046  0.068706361    -1.938377   0.92457239   507356 
  397000    1.0164329   -1.9383615   -1.9383615   -1.0137561  0.072520091   -1.9383615   0.92460542   507356 
  398000    1.0180027   -1.9402496   -1.9402496   -1.0142162  0.068796624   -1.9402496   0.92603344   507356 
  399000    1.0163537   -1.9392194   -1.9392194    -1.014686  0.071917195   -1.9392194   0.92453342   507356 
  400000    1.0178383   -1.9409857   -1.9409857   -1.0151018  0.058004454   -1.9409857    0.9258839   507356 
  401000    1.0169903   -1.9399391   -1.9399391   -1.0148266  0.069957796   -1.9399391   0.92511247   507356 
  402000    1.0162922   -1.9388679   -1.9388679   -1.0143905  0.075677272   -1.9388679    0.9244774   507356 
  403000    1.0177108   -1.9409725   -1.9409725   -1.0152046  0.062320865   -1.9409725   0.92576786   507356 
  404000    1.0198821   -1.9419871   -1.9419871   -1.0142441  0.060277345   -1.9419871   0.92774303   507356 
  405000    1.0166614   -1.9401881   -1.9401881   -1.0153748  0.072465247   -1.9401881   0.92481327   507356 
  406000    1.0178017   -1.9410624   -1.9410624   -1.0152118  0.072189752   -1.9410624   0.92585055   507356 
  407000    1.0174372   -1.9401537   -1.9401537   -1.0146346  0.074890171   -1.9401537   0.92551903   507356 
  408000    1.0163539   -1.9404516   -1.9404516    -1.015918  0.072963412   -1.9404516   0.92453361   507356 
  409000    1.0176669   -1.9419779   -1.9419779     -1.01625  0.068679775   -1.9419779   0.92572794   507356 
  410000    1.0169435   -1.9414415   -1.9414415   -1.0163716  0.081793071   -1.9414415   0.92506988   507356 
  411000    1.0176088   -1.9429334   -1.9429334   -1.0172584  0.063128252   -1.9429334   0.92567507   507356 
  412000    1.0168588   -1.9418323   -1.9418323   -1.0168395  0.057485436   -1.9418323   0.92499286   507356 
  413000    1.0181552   -1.9436861   -1.9436861    -1.017514  0.064067797   -1.9436861   0.92617217   507356 
  414000    1.0170359   -1.9425342   -1.9425342   -1.0173803  0.083953592   -1.9425342   0.92515393   507356 
  415000    1.0166467   -1.9417095   -1.9417095   -1.0169096  0.083690707   -1.9417095   0.92479993   507356 
  416000    1.0187476   -1.9442649   -1.9442649   -1.0175539  0.069343206   -1.9442649   0.92671102   507356 
  417000    1.0172542   -1.9427877   -1.9427877   -1.0174353  0.076608881   -1.9427877   0.92535249   507356 
  418000    1.0172937   -1.9434653   -1.9434653   -1.0180769  0.074801481   -1.9434653   0.92538843   507356 
  419000    1.0205642      -1.9451      -1.9451   -1.0167365  0.062451748      -1.9451   0.92836352   507356 
  420000    1.0167636   -1.9437772   -1.9437772   -1.0188709   0.07021533   -1.9437772   0.92490627   507356 
  421000    1.0182537   -1.9447079   -1.9447079   -1.0184461  0.075003505   -1.9447079   0.92626178   507356 
  422000     1.017597     -1.94446     -1.94446   -1.0187956  0.070739025     -1.94446   0.92566438   507356 
  423000    1.0164817   -1.9433943   -1.9433943   -1.0187445  0.076445008   -1.9433943   0.92464982   507356 
  424000    1.0167032    -1.944322    -1.944322   -1.0194707  0.077175947    -1.944322   0.92485132   507356 
  425000    1.0187164   -1.9452996   -1.9452996    -1.018617   0.06816276   -1.9452996   0.92668263   507356 
  426000    1.0174099   -1.9441823   -1.9441823   -1.0186881  0.068097122   -1.9441823   0.92549414   507356 
  427000    1.0156069   -1.9434667   -1.9434667   -1.0196126  0.072409729   -1.9434667   0.92385409   507356 
  428000    1.0176967   -1.9447235   -1.9447235   -1.0189684  0.075950586   -1.9447235   0.92575508   507356 
  429000    1.0169611   -1.9440656   -1.9440656   -1.0189797   0.06616831   -1.9440656   0.92508587   507356 
  430000    1.0178404   -1.9435826   -1.9435826   -1.0176968   0.07444384   -1.9435826   0.92588579   507356 
  431000    1.0177986   -1.9433701   -1.9433701   -1.0175224  0.065866908   -1.9433701   0.92584776   507356 
  432000    1.0179058   -1.9435535   -1.9435535   -1.0176082  0.071053982   -1.9435535    0.9259453   507356 
  433000    1.0179264   -1.9431531   -1.9431531   -1.0171891  0.073448054   -1.9431531   0.92596402   507356 
  434000    1.0187067   -1.9428014   -1.9428014   -1.0161276  0.069574789   -1.9428014   0.92667382   507356 
  435000    1.0200729   -1.9442432   -1.9442432   -1.0163266  0.066736771   -1.9442432    0.9279166   507356 
  436000    1.0187295   -1.9432884   -1.9432884   -1.0165939  0.075252345   -1.9432884   0.92669452   507356 
  437000    1.0183749   -1.9442549   -1.9442549   -1.0178829  0.056905385   -1.9442549   0.92637203   507356 
  438000    1.0173795   -1.9424298   -1.9424298   -1.0169633  0.069146671   -1.9424298   0.92546651   507356 
  439000    1.0165307   -1.9425936   -1.9425936   -1.0178991   0.06363967   -1.9425936   0.92469441   507356 
  440000     1.017314   -1.9422869   -1.9422869     -1.01688  0.066085077   -1.9422869    0.9254069   507356 
  441000    1.0189602   -1.9430866   -1.9430866   -1.0161821   0.07240208   -1.9430866   0.92690441   507356 
  442000    1.0184564   -1.9433811   -1.9433811   -1.0169349  0.072358401   -1.9433811   0.92644613   507356 
  443000    1.0158799   -1.9410528   -1.9410528   -1.0169504  0.066758179   -1.9410528   0.92410236   507356 
  444000    1.0179437   -1.9430794   -1.9430794   -1.0170996  0.064750309   -1.9430794   0.92597973   507356 
  445000    1.0158681   -1.9415614   -1.9415614   -1.0174697  0.068430027   -1.9415614   0.92409165   507356 
  446000    1.0165473   -1.9417487   -1.9417487   -1.0170392  0.068142746   -1.9417487   0.92470953   507356 
  447000    1.0161295   -1.9419958   -1.9419958   -1.0176664  0.073279705   -1.9419958   0.92432941   507356 
  448000    1.0158574   -1.9422635   -1.9422635   -1.0181816  0.069216719   -1.9422635   0.92408192   507356 
  449000    1.0166268   -1.9425596   -1.9425596   -1.0177778  0.071520702   -1.9425596   0.92478182   507356 
  450000    1.0158327   -1.9421935   -1.9421935    -1.018134  0.073643034   -1.9421935   0.92405946   507356 
  451000    1.0153159   -1.9423504   -1.9423504   -1.0187611  0.068834122   -1.9423504   0.92358931   507356 
  452000      1.01273   -1.9402295   -1.9402295   -1.0189924  0.072474524   -1.9402295   0.92123708   507356 
  453000    1.0162802    -1.943202    -1.943202   -1.0187354  0.068528997    -1.943202   0.92446655   507356 
  454000    1.0151945   -1.9433529   -1.9433529    -1.019874   0.06987637   -1.9433529   0.92347894   507356 
  455000    1.0169978   -1.9451269   -1.9451269   -1.0200076  0.062093904   -1.9451269   0.92511927   507356 
  456000    1.0175723   -1.9455209   -1.9455209    -1.019879  0.068774638   -1.9455209   0.92564191   507356 
  457000    1.0173516   -1.9456437   -1.9456437   -1.0202026  0.071605517   -1.9456437    0.9254411   507356 
  458000    1.0175951    -1.945231    -1.945231   -1.0195684   0.05990495    -1.945231   0.92566264   507356 
  459000    1.0172744   -1.9459707   -1.9459707   -1.0205997  0.080015882   -1.9459707   0.92537094   507356 
  460000    1.0159237   -1.9451089   -1.9451089   -1.0209666   0.07620954   -1.9451089   0.92414222   507356 
  461000    1.0165722   -1.9463663   -1.9463663   -1.0216341  0.077470799   -1.9463663   0.92473217   507356 
  462000    1.0163129   -1.9462169   -1.9462169   -1.0217207  0.073276095   -1.9462169   0.92449627   507356 
  463000    1.0173109   -1.9466758   -1.9466758   -1.0212717  0.071993593   -1.9466758   0.92540409   507356 
  464000    1.0170294   -1.9475663   -1.9475663   -1.0224182  0.072571404   -1.9475663   0.92514805   507356 
  465000    1.0191886   -1.9492189   -1.9492189   -1.0221067  0.067497291   -1.9492189   0.92711218   507356 
  466000    1.0177729   -1.9477822   -1.9477822   -1.0219579  0.066364247   -1.9477822   0.92582437   507356 
  467000    1.0160952   -1.9465577   -1.9465577   -1.0222595  0.079200734   -1.9465577   0.92429826   507356 
  468000    1.0174454   -1.9478712   -1.9478712   -1.0223448  0.075579032   -1.9478712   0.92552649   507356 
  469000    1.0184447   -1.9472669   -1.9472669   -1.0208315  0.073169039   -1.9472669   0.92643544   507356 
  470000    1.0192449   -1.9479513   -1.9479513   -1.0207879  0.075927432   -1.9479513   0.92716337   507356 
  471000    1.0176546   -1.9460543   -1.9460543   -1.0203376  0.075802312   -1.9460543   0.92571674   507356 
  472000    1.0195437   -1.9492323   -1.9492323   -1.0217971  0.065845381   -1.9492323   0.92743521   507356 
  473000    1.0168191   -1.9468757   -1.9468757    -1.021919  0.076691658   -1.9468757    0.9249567   507356 
  474000    1.0162767   -1.9462677   -1.9462677   -1.0218044  0.067497741   -1.9462677   0.92446335   507356 
  475000    1.0154937   -1.9454379   -1.9454379   -1.0216868  0.077329316   -1.9454379   0.92375107   507356 
  476000    1.0164604    -1.945957    -1.945957   -1.0213266  0.069895329    -1.945957   0.92463049   507356 
  477000    1.0175206   -1.9467775   -1.9467775   -1.0211826  0.067784232   -1.9467775   0.92559487   507356 
  478000    1.0136837   -1.9441242   -1.9441242   -1.0220196  0.069259024   -1.9441242   0.92210459   507356 
  479000     1.014545   -1.9453916   -1.9453916   -1.0225035  0.066241555   -1.9453916   0.92288809   507356 
  480000    1.0169506   -1.9472269   -1.9472269   -1.0221506  0.066987027   -1.9472269   0.92507634   507356 
  481000    1.0146601   -1.9458449   -1.9458449   -1.0228522  0.063482956   -1.9458449   0.92299277   507356 
  482000     1.015941   -1.9466272   -1.9466272   -1.0224692  0.068776258   -1.9466272   0.92415801   507356 
  483000     1.017451   -1.9472548   -1.9472548   -1.0217233  0.067623145   -1.9472548   0.92553154   507356 
  484000    1.0156607   -1.9463606   -1.9463606   -1.0224577  0.060515651   -1.9463606   0.92390296   507356 
  485000    1.0155364   -1.9457242   -1.9457242   -1.0219343  0.066244729   -1.9457242   0.92378992   507356 
  486000    1.0157432   -1.9459046   -1.9459046   -1.0219266  0.068942033   -1.9459046   0.92397803   507356 
  487000    1.0148129   -1.9452062   -1.9452062   -1.0220744  0.071294309   -1.9452062    0.9231318   507356 
  488000     1.014053   -1.9441306   -1.9441306     -1.02169  0.070951247   -1.9441306   0.92244055   507356 
  489000    1.0156204   -1.9457632   -1.9457632   -1.0218969  0.068087025   -1.9457632   0.92386637   507356 
  490000    1.0170935     -1.94727     -1.94727   -1.0220636  0.073901354     -1.94727   0.92520637   507356 
  491000    1.0166078    -1.945934    -1.945934   -1.0211695  0.075830759    -1.945934    0.9247645   507356 
  492000    1.0171803   -1.9464568   -1.9464568   -1.0211715   0.06600055   -1.9464568   0.92528527   507356 
  493000     1.018988   -1.9480789   -1.9480789   -1.0211492  0.080040565   -1.9480789   0.92692968   507356 
  494000    1.0164358   -1.9462317   -1.9462317   -1.0216237  0.075655009   -1.9462317   0.92460804   507356 
  495000    1.0189326   -1.9479049   -1.9479049   -1.0210255  0.070603121   -1.9479049   0.92687933   507356 
  496000    1.0167613   -1.9463198   -1.9463198   -1.0214156  0.067979009   -1.9463198   0.92490416   507356 
  497000    1.0174908   -1.9472293   -1.9472293   -1.0216615  0.074868019   -1.9472293   0.92556778   507356 
  498000    1.0147852    -1.944299    -1.944299   -1.0211924  0.071807366    -1.944299   0.92310659   507356 
  499000    1.0160804   -1.9450775   -1.9450775   -1.0207927   0.07605243   -1.9450775   0.92428475   507356 
  500000    1.0153169   -1.9449697   -1.9449697   -1.0213794  0.077774324   -1.9449697   0.92359027   507356 
  501000    1.0153957   -1.9453198   -1.9453198   -1.0216579  0.064722123   -1.9453198   0.92366193   507356 
  502000    1.0158385   -1.9449603   -1.9449603   -1.0208955  0.071105927   -1.9449603   0.92406477   507356 
  503000    1.0170442    -1.946607    -1.946607   -1.0214455   0.06577983    -1.946607   0.92516147   507356 
  504000    1.0161344   -1.9456625   -1.9456625   -1.0213286  0.066017413   -1.9456625   0.92433387   507356 
  505000    1.0172093   -1.9474329   -1.9474329   -1.0221212  0.070279854   -1.9474329   0.92531166   507356 
  506000    1.0170547     -1.94679     -1.94679   -1.0216189   0.07478213     -1.94679    0.9251711   507356 
  507000    1.0147556   -1.9450313   -1.9450313   -1.0219517  0.068846053   -1.9450313   0.92307963   507356 
  508000     1.015305   -1.9456743   -1.9456743   -1.0220949  0.064710554   -1.9456743    0.9235794   507356 
  509000    1.0143154    -1.943796    -1.943796   -1.0211168  0.072367493    -1.943796   0.92267921   507356 
  510000    1.0150437   -1.9454451   -1.9454451   -1.0221034  0.064015411   -1.9454451   0.92334171   507356 
  511000     1.016797   -1.9469676   -1.9469676   -1.0220309  0.076374399   -1.9469676   0.92493665   507356 
  512000    1.0151262   -1.9442308   -1.9442308    -1.020814  0.073438258   -1.9442308   0.92341681   507356 
  513000    1.0160145   -1.9453228   -1.9453228    -1.021098  0.070076404   -1.9453228   0.92422479   507356 
  514000    1.0158481   -1.9465996   -1.9465996   -1.0225261   0.06359981   -1.9465996   0.92407344   507356 
  515000    1.0149103    -1.945159    -1.945159   -1.0219387  0.077879621    -1.945159   0.92322038   507356 
  516000    1.0162122   -1.9464875   -1.9464875   -1.0220828  0.057557014   -1.9464875   0.92440465   507356 
  517000    1.0149567   -1.9458807   -1.9458807   -1.0226182  0.065359133   -1.9458807   0.92326256   507356 
  518000      1.01604   -1.9466828   -1.9466828   -1.0224348  0.071842866   -1.9466828   0.92424803   507356 
  519000    1.0150508     -1.94615     -1.94615   -1.0228018  0.068999606     -1.94615    0.9233482   507356 
  520000    1.0140128   -1.9466694   -1.9466694   -1.0242654   0.05767463   -1.9466694   0.92240395   507356 
  521000    1.0153222   -1.9464387   -1.9464387   -1.0228436  0.067703143   -1.9464387   0.92359511   507356 
  522000    1.0148357   -1.9467026   -1.9467026   -1.0235501  0.065131688   -1.9467026   0.92315249   507356 
  523000    1.0156459   -1.9475699   -1.9475699   -1.0236803  0.073362713   -1.9475699   0.92388955   507356 
  524000     1.014354   -1.9459964   -1.9459964   -1.0232821  0.073374932   -1.9459964   0.92271433   507356 
  525000    1.0156425   -1.9479579   -1.9479579   -1.0240714  0.069853019   -1.9479579   0.92388644   507356 
  526000    1.0170913   -1.9491825   -1.9491825   -1.0239781  0.071921902   -1.9491825   0.92520436   507356 
  527000    1.0152027   -1.9475455   -1.9475455   -1.0240591   0.06499729   -1.9475455   0.92348639   507356 
  528000    1.0174857   -1.9496285   -1.9496285   -1.0240654  0.067399133   -1.9496285   0.92556311   507356 
  529000    1.0177227   -1.9498959   -1.9498959   -1.0241172  0.068356458   -1.9498959    0.9257787   507356 
  530000    1.0179952   -1.9504457   -1.9504457   -1.0244191  0.065047289   -1.9504457   0.92602661   507356 
  531000    1.0172605   -1.9505277   -1.9505277   -1.0251694  0.066838808   -1.9505277   0.92535829   507356 
  532000    1.0168235   -1.9507154   -1.9507154   -1.0257547  0.076528072   -1.9507154   0.92496071   507356 
  533000    1.0132162    -1.947833    -1.947833   -1.0261536  0.072707515    -1.947833   0.92167936   507356 
  534000    1.0142931   -1.9496368   -1.9496368   -1.0269778  0.072287715   -1.9496368   0.92265896   507356 
  535000    1.0153683   -1.9507247   -1.9507247   -1.0270877  0.069355848   -1.9507247   0.92363702   507356 
  536000    1.0154261   -1.9493324   -1.9493324   -1.0256429   0.07145763   -1.9493324   0.92368955   507356 
  537000    1.0147631    -1.948168    -1.948168   -1.0250815  0.070958686    -1.948168   0.92308651   507356 
  538000    1.0164821    -1.949161    -1.949161   -1.0245108  0.081815877    -1.949161   0.92465021   507356 
  539000    1.0169436   -1.9493339   -1.9493339   -1.0242639  0.068148973   -1.9493339   0.92507001   507356 
  540000    1.0169356   -1.9503165   -1.9503165   -1.0252538  0.073165898   -1.9503165   0.92506276   507356 
  541000    1.0166818   -1.9498502   -1.9498502   -1.0250184  0.070093531   -1.9498502   0.92483182   507356 
  542000    1.0172996   -1.9499713   -1.9499713   -1.0245775  0.072571199   -1.9499713   0.92539381   507356 
  543000    1.0166587   -1.9489255   -1.9489255   -1.0241147  0.070221051   -1.9489255    0.9248108   507356 
  544000    1.0168788   -1.9496581   -1.9496581   -1.0246471  0.068210628   -1.9496581     0.925011   507356 
  545000    1.0157096   -1.9484381   -1.9484381   -1.0244907  0.066722964   -1.9484381   0.92394745   507356 
  546000    1.0145027    -1.948078    -1.948078   -1.0252284  0.071668041    -1.948078   0.92284964   507356 
  547000    1.0166218   -1.9498972   -1.9498972   -1.0251199  0.063408285   -1.9498972    0.9247773   507356 
  548000    1.0147435   -1.9479409   -1.9479409   -1.0248722  0.075111924   -1.9479409   0.92306864   507356 
  549000    1.0145604   -1.9479987   -1.9479987   -1.0250966  0.057160753   -1.9479987   0.92290213   507356 
  550000    1.0151979   -1.9473774   -1.9473774   -1.0238953   0.06819604   -1.9473774   0.92348201   507356 
  551000    1.0160637   -1.9494449   -1.9494449   -1.0251753   0.07555701   -1.9494449   0.92426956   507356 
  552000    1.0170897   -1.9495744   -1.9495744   -1.0243715  0.069121515   -1.9495744   0.92520289   507356 
  553000    1.0184413   -1.9497979   -1.9497979   -1.0233655  0.071562473   -1.9497979   0.92643241   507356 
  554000    1.0165135   -1.9491209   -1.9491209   -1.0244422  0.073155152   -1.9491209   0.92467877   507356 
  555000     1.015973   -1.9480427   -1.9480427   -1.0238556  0.067088138   -1.9480427   0.92418712   507356 
  556000    1.0138385   -1.9467158   -1.9467158   -1.0244703  0.069487991   -1.9467158   0.92224546   507356 
  557000     1.012491   -1.9462841   -1.9462841   -1.0252645  0.068722088   -1.9462841   0.92101961   507356 
  558000    1.0140121   -1.9479351   -1.9479351   -1.0255317  0.067489387   -1.9479351   0.92240336   507356 
  559000    1.0137423   -1.9471859   -1.9471859   -1.0250279  0.073164039   -1.9471859   0.92215793   507356 
  560000    1.0138044   -1.9466105   -1.9466105   -1.0243962  0.062779534   -1.9466105   0.92221439   507356 
  561000    1.0125421   -1.9455475   -1.9455475   -1.0244813  0.068253729   -1.9455475   0.92106616   507356 
  562000    1.0156745   -1.9472772   -1.9472772   -1.0233616  0.071772103   -1.9472772   0.92391558   507356 
  563000    1.0138595   -1.9459524   -1.9459524   -1.0236879  0.071658098   -1.9459524   0.92226447   507356 
  564000    1.0138896   -1.9461702   -1.9461702   -1.0238783  0.070904448   -1.9461702   0.92229189   507356 
  565000    1.0165584   -1.9482282   -1.9482282   -1.0235086  0.061870541   -1.9482282   0.92471957   507356 
  566000    1.0162485   -1.9475131   -1.9475131   -1.0230754  0.078095446   -1.9475131   0.92443769   507356 
  567000    1.0155099   -1.9458699   -1.9458699   -1.0221041  0.062268174   -1.9458699   0.92376585   507356 
  568000    1.0160306   -1.9468243   -1.9468243   -1.0225848  0.073060351   -1.9468243   0.92423951   507356 
  569000    1.0162865   -1.9472075   -1.9472075   -1.0227352  0.068081284   -1.9472075   0.92447227   507356 
  570000    1.0154062   -1.9469896   -1.9469896   -1.0233181  0.068797384   -1.9469896    0.9236715   507356 
  571000    1.0148027   -1.9475024   -1.9475024   -1.0243799  0.064119733   -1.9475024   0.92312249   507356 
  572000    1.0169137   -1.9492411   -1.9492411   -1.0241983  0.065966146   -1.9492411   0.92504284   507356 
  573000    1.0172851   -1.9490316   -1.9490316    -1.023651  0.070258797   -1.9490316   0.92538065   507356 
  574000    1.0154655   -1.9475136   -1.9475136   -1.0237882  0.071117346   -1.9475136   0.92372542   507356 
  575000    1.0134281   -1.9451822   -1.9451822     -1.02331   0.08826086   -1.9451822   0.92187214   507356 
  576000    1.0162411   -1.9482159   -1.9482159   -1.0237849  0.067712446   -1.9482159     0.924431   507356 
  577000    1.0157199   -1.9489267   -1.9489267   -1.0249698  0.072129579   -1.9489267   0.92395688   507356 
  578000    1.0163176   -1.9488153   -1.9488153   -1.0243147  0.084803239   -1.9488153   0.92450059   507356 
  579000    1.0166924   -1.9493388   -1.9493388   -1.0244973  0.069739285   -1.9493388   0.92484149   507356 
  580000    1.0169153   -1.9484071   -1.9484071   -1.0233628  0.069683764   -1.9484071   0.92504425   507356 
  581000    1.0177262   -1.9497606   -1.9497606   -1.0239787  0.071687128   -1.9497606   0.92578192   507356 
  582000    1.0165784   -1.9492201   -1.9492201   -1.0244823  0.074814491   -1.9492201   0.92473775   507356 
  583000    1.0168491   -1.9505258   -1.9505258   -1.0255418  0.072304335   -1.9505258   0.92498398   507356 
  584000    1.0172498    -1.950481    -1.950481   -1.0251325  0.073646162    -1.950481   0.92534857   507356 
  585000    1.0160178    -1.949958    -1.949958   -1.0257301  0.063368101    -1.949958   0.92422787   507356 
  586000    1.0148022    -1.949431    -1.949431    -1.026309  0.074233193    -1.949431   0.92312201   507356 
  587000    1.0134936   -1.9478749   -1.9478749   -1.0259432  0.070034611   -1.9478749    0.9219317   507356 
  588000    1.0122854   -1.9471922   -1.9471922   -1.0263595  0.070675457   -1.9471922   0.92083265   507356 
  589000    1.0143547   -1.9485567   -1.9485567   -1.0258417  0.079536079   -1.9485567   0.92271502   507356 
  590000    1.0132333   -1.9476124   -1.9476124   -1.0259175  0.069225631   -1.9476124    0.9216949   507356 
  591000    1.0140965   -1.9474573   -1.9474573   -1.0249772  0.073569311   -1.9474573   0.92248013   507356 
  592000    1.0152799   -1.9488271   -1.9488271   -1.0252704  0.067672541   -1.9488271   0.92355664   507356 
  593000    1.0168858   -1.9485047   -1.9485047   -1.0234873  0.076468535   -1.9485047   0.92501738   507356 
  594000    1.0162609   -1.9478253   -1.9478253   -1.0233763  0.075938296   -1.9478253   0.92444894   507356 
  595000    1.0164438   -1.9490492   -1.9490492   -1.0244339  0.068581378   -1.9490492   0.92461536   507356 
  596000    1.0168286   -1.9488778   -1.9488778   -1.0239124  0.071146066   -1.9488778   0.92496538   507356 
  597000    1.0165015   -1.9493782   -1.9493782   -1.0247103  0.062648352   -1.9493782   0.92466787   507356 
  598000    1.0163596   -1.9490112   -1.9490112   -1.0244725  0.068089779   -1.9490112   0.92453875   507356 
  599000    1.0168481   -1.9491077   -1.9491077   -1.0241246  0.074277362   -1.9491077   0.92498312   507356 
  600000    1.0183397   -1.9500604   -1.9500604   -1.0237204  0.068244325   -1.9500604   0.92633993   507356 
  601000    1.0153063   -1.9488843   -1.9488843   -1.0253037  0.062835327   -1.9488843   0.92358063   507356 
  602000    1.0165357   -1.9497072   -1.9497072   -1.0250082  0.080515056   -1.9497072   0.92469897   507356 
  603000    1.0149526   -1.9484687   -1.9484687   -1.0252099  0.074589561   -1.9484687   0.92325884   507356 
  604000    1.0142939   -1.9477095   -1.9477095   -1.0250498   0.07049858   -1.9477095   0.92265966   507356 
  605000    1.0153967   -1.9484385   -1.9484385   -1.0247756   0.06933208   -1.9484385   0.92366288   507356 
  606000    1.0156775   -1.9490321   -1.9490321   -1.0251138  0.069235106   -1.9490321   0.92391829   507356 
  607000    1.0170663   -1.9499693   -1.9499693   -1.0247877  0.073854973   -1.9499693   0.92518157   507356 
  608000    1.0166484   -1.9496668   -1.9496668   -1.0248654  0.069411505   -1.9496668   0.92480145   507356 
  609000    1.0183351   -1.9501809   -1.9501809   -1.0238451  0.067907862   -1.9501809   0.92633579   507356 
  610000    1.0182102   -1.9500662   -1.9500662   -1.0238441  0.069399265   -1.9500662   0.92622212   507356 
  611000    1.0160993    -1.949517    -1.949517   -1.0252151   0.06618407    -1.949517   0.92430193   507356 
  612000    1.0132762   -1.9472196   -1.9472196   -1.0254857  0.082308895   -1.9472196   0.92173394   507356 
  613000    1.0157288   -1.9498738   -1.9498738   -1.0259088  0.075459448   -1.9498738   0.92396497   507356 
  614000    1.0140441   -1.9491522   -1.9491522   -1.0267197  0.066550655   -1.9491522   0.92243243   507356 
  615000    1.0150663   -1.9492168   -1.9492168   -1.0258545  0.070698462   -1.9492168   0.92336232   507356 
  616000    1.0158734   -1.9507906   -1.9507906   -1.0266941  0.066226506   -1.9507906    0.9240965   507356 
  617000    1.0132497    -1.949497    -1.949497   -1.0277871  0.072445058    -1.949497   0.92170984   507356 
  618000    1.0157125   -1.9526028   -1.9526028   -1.0286527  0.073158394   -1.9526028   0.92395016   507356 
  619000    1.0144815    -1.950938    -1.950938   -1.0281077   0.06278837    -1.950938   0.92283031   507356 
  620000    1.0144051   -1.9507802   -1.9507802   -1.0280194  0.074091422   -1.9507802   0.92276082   507356 
  621000     1.014001   -1.9499789   -1.9499789   -1.0275856   0.06941138   -1.9499789   0.92239327   507356 
  622000    1.0147797   -1.9516969   -1.9516969   -1.0285953  0.065546281   -1.9516969   0.92310156   507356 
  623000    1.0134469   -1.9499463   -1.9499463   -1.0280572   0.06287207   -1.9499463   0.92188916   507356 
  624000    1.0162156   -1.9521864   -1.9521864   -1.0277787  0.072548525   -1.9521864   0.92440778   507356 
  625000      1.01508   -1.9514537   -1.9514537   -1.0280789   0.06763699   -1.9514537    0.9233748   507356 
  626000    1.0145765   -1.9514999   -1.9514999   -1.0285831  0.064586778   -1.9514999   0.92291677   507356 
  627000    1.0156498   -1.9512602   -1.9512602   -1.0273671  0.074757805   -1.9512602   0.92389308   507356 
  628000    1.0162494   -1.9518646   -1.9518646   -1.0274261    0.0796095   -1.9518646   0.92443852   507356 
  629000     1.016231   -1.9514792   -1.9514792   -1.0270575  0.073358223   -1.9514792   0.92442174   507356 
  630000    1.0165654   -1.9520134   -1.9520134   -1.0272874  0.082393984   -1.9520134   0.92472596   507356 
  631000    1.0169677   -1.9525401   -1.9525401   -1.0274482  0.065596773   -1.9525401   0.92509193   507356 
  632000    1.0157375   -1.9518262   -1.9518262   -1.0278534  0.075250624   -1.9518262   0.92397283   507356 
  633000    1.0138363   -1.9508944   -1.9508944   -1.0286509  0.077610263   -1.9508944   0.92224343   507356 
  634000    1.0159431   -1.9526238   -1.9526238    -1.028464   0.06256689   -1.9526238   0.92415986   507356 
  635000    1.0151001   -1.9521833   -1.9521833   -1.0287902  0.068780452   -1.9521833   0.92339303   507356 
  636000    1.0155617   -1.9523771   -1.9523771   -1.0285642  0.076996717   -1.9523771   0.92381293   507356 
  637000    1.0147584   -1.9510501   -1.9510501   -1.0279679  0.076289646   -1.9510501   0.92308217   507356 
  638000     1.014926   -1.9518989   -1.9518989   -1.0286642  0.074479934   -1.9518989   0.92323471   507356 
  639000    1.0156296   -1.9526206   -1.9526206   -1.0287459  0.064461654   -1.9526206   0.92387468   507356 
  640000    1.0159082   -1.9523133   -1.9523133   -1.0281852  0.064108109   -1.9523133   0.92412811   507356 
  641000    1.0137832   -1.9500878   -1.9500878   -1.0278927  0.072645489   -1.9500878   0.92219509   507356 
  642000    1.0148497   -1.9514671   -1.9514671   -1.0283018  0.072279167   -1.9514671   0.92316527   507356 
  643000    1.0146095   -1.9509889   -1.9509889   -1.0280421  0.074307516   -1.9509889   0.92294674   507356 
  644000    1.0152439   -1.9517312   -1.9517312   -1.0282073  0.070306755   -1.9517312   0.92352382   507356 
[...]
 9832000    1.0089186   -1.9941325   -1.9941325   -1.0763625  0.072481083   -1.9941325   0.91776998   507356 
 9833000    1.0084778   -1.9946723   -1.9946723   -1.0773033  0.072459149   -1.9946723   0.91736904   507356 
 9834000    1.0079349   -1.9940212   -1.9940212    -1.077146  0.065892804   -1.9940212    0.9168752   507356 
 9835000    1.0097896   -1.9949482   -1.9949482   -1.0763859  0.068841499   -1.9949482   0.91856231   507356 
 9836000    1.0089924   -1.9943275   -1.9943275   -1.0764903  0.073288826   -1.9943275   0.91783711   507356 
 9837000    1.0074667   -1.9935131   -1.9935131   -1.0770639  0.067096924   -1.9935131   0.91644925   507356 
 9838000    1.0097408   -1.9946367   -1.9946367   -1.0761188  0.072924176   -1.9946367   0.91851788   507356 
 9839000    1.0083602   -1.9935638   -1.9935638   -1.0763017  0.071680848   -1.9935638   0.91726205   507356 
 9840000    1.0101523   -1.9950787   -1.9950787   -1.0761864  0.076087379   -1.9950787   0.91889228   507356 
 9841000    1.0084822   -1.9941603   -1.9941603   -1.0767872  0.074424474   -1.9941603   0.91737306   507356 
 9842000    1.0086775   -1.9937118   -1.9937118   -1.0761611  0.063361308   -1.9937118    0.9175507   507356 
 9843000    1.0081378   -1.9933391   -1.9933391   -1.0762794  0.073010328   -1.9933391   0.91705971   507356 
 9844000    1.0077437    -1.992594    -1.992594   -1.0758927  0.081240592    -1.992594   0.91670122   507356 
 9845000    1.0080841   -1.9923286   -1.9923286   -1.0753177  0.070764002   -1.9923286   0.91701084   507356 
 9846000    1.0086335   -1.9925968   -1.9925968   -1.0750862  0.072066727   -1.9925968   0.91751062   507356 
 9847000    1.0082142   -1.9933805   -1.9933805   -1.0762514  0.064287345   -1.9933805    0.9171292   507356 
 9848000    1.0105777   -1.9950911   -1.9950911   -1.0758119   0.06018562   -1.9950911   0.91927921   507356 
 9849000    1.0097846   -1.9933607   -1.9933607    -1.074803  0.069460681   -1.9933607   0.91855773   507356 
 9850000    1.0073894    -1.991095    -1.991095   -1.0747161  0.062948084    -1.991095   0.91637893   507356 
 9851000    1.0080602   -1.9917479   -1.9917479   -1.0747588  0.067950276   -1.9917479   0.91698913   507356 
 9852000    1.0080371   -1.9909315   -1.9909315   -1.0739634  0.081070761   -1.9909315   0.91696811   507356 
 9853000    1.0090914   -1.9922333   -1.9922333   -1.0743061  0.074462207   -1.9922333   0.91792723   507356 
 9854000     1.009086   -1.9926482   -1.9926482    -1.074726  0.064694166   -1.9926482   0.91792226   507356 
 9855000    1.0077042   -1.9916021   -1.9916021   -1.0749368  0.059666722   -1.9916021   0.91666533   507356 
 9856000    1.0082908   -1.9922352   -1.9922352   -1.0750362  0.068666864   -1.9922352   0.91719891   507356 
 9857000    1.0059246   -1.9900922   -1.9900922   -1.0750458  0.067314593   -1.9900922   0.91504644   507356 
 9858000     1.007985    -1.991879    -1.991879   -1.0749583  0.060170987    -1.991879   0.91692071   507356 
 9859000    1.0079005   -1.9910441   -1.9910441   -1.0742003   0.06533177   -1.9910441   0.91684385   507356 
 9860000    1.0092211   -1.9915537   -1.9915537   -1.0735086  0.078899446   -1.9915537   0.91804514   507356 
 9861000    1.0089214   -1.9915833   -1.9915833   -1.0738107  0.065984129   -1.9915833   0.91777258   507356 
 9862000    1.0067564   -1.9902873   -1.9902873   -1.0744842  0.073265168   -1.9902873   0.91580312   507356 
 9863000    1.0092723    -1.992234    -1.992234   -1.0741423  0.066628593    -1.992234   0.91809173   507356 
 9864000    1.0099744   -1.9927025   -1.9927025   -1.0739721  0.058966296   -1.9927025   0.91873037   507356 
 9865000    1.0108862   -1.9924972   -1.9924972   -1.0729374  0.068966428   -1.9924972   0.91955985   507356 
 9866000    1.0073738     -1.99112     -1.99112   -1.0747552  0.061360671     -1.99112   0.91636478   507356 
 9867000    1.0081127   -1.9918623   -1.9918623   -1.0748254  0.062446624   -1.9918623   0.91703691   507356 
 9868000    1.0092146   -1.9922685   -1.9922685   -1.0742292   0.07389149   -1.9922685   0.91803928   507356 
 9869000    1.0078301   -1.9917814   -1.9917814   -1.0750016  0.074183825   -1.9917814    0.9167798   507356 
 9870000    1.0089122   -1.9930881   -1.9930881    -1.075324  0.068040286   -1.9930881   0.91776418   507356 
 9871000    1.0087459   -1.9934595   -1.9934595   -1.0758466  0.074189555   -1.9934595   0.91761289   507356 
 9872000    1.0084958   -1.9936312   -1.9936312   -1.0762458  0.064096928   -1.9936312   0.91738543   507356 
 9873000    1.0075115   -1.9927078   -1.9927078   -1.0762178  0.059315337   -1.9927078   0.91649003   507356 
 9874000    1.0087241   -1.9937933   -1.9937933   -1.0762002  0.067047158   -1.9937933   0.91759307   507356 
 9875000    1.0083388   -1.9927487   -1.9927487   -1.0755061  0.070766593   -1.9927487   0.91724259   507356 
 9876000    1.0083425   -1.9925198   -1.9925198   -1.0752738  0.070016576   -1.9925198   0.91724596   507356 
 9877000    1.0062338   -1.9920174   -1.9920174   -1.0766897  0.076980173   -1.9920174   0.91532773   507356 
 9878000    1.0081738   -1.9930738   -1.9930738   -1.0759813  0.066235922   -1.9930738   0.91709249   507356 
 9879000    1.0088104   -1.9941213   -1.9941213   -1.0764497  0.068500741   -1.9941213   0.91767158   507356 
 9880000    1.0088682   -1.9938359   -1.9938359   -1.0761117  0.070939298   -1.9938359   0.91772418   507356 
 9881000    1.0095545   -1.9934086   -1.9934086   -1.0750602  0.068255896   -1.9934086   0.91834846   507356 
 9882000    1.0099847   -1.9946728   -1.9946728   -1.0759331  0.072261532   -1.9946728   0.91873974   507356 
 9883000    1.0101496   -1.9947315   -1.9947315   -1.0758417  0.070827853   -1.9947315   0.91888977   507356 
 9884000    1.0090007   -1.9942632   -1.9942632   -1.0764185  0.075384153   -1.9942632    0.9178447   507356 
 9885000     1.008449   -1.9941065   -1.9941065   -1.0767638  0.079607717   -1.9941065   0.91734279   507356 
 9886000    1.0090827   -1.9947639   -1.9947639   -1.0768446  0.068591746   -1.9947639    0.9179193   507356 
 9887000    1.0100442   -1.9950158   -1.9950158   -1.0762219  0.073111188   -1.9950158   0.91879387   507356 
 9888000    1.0088418   -1.9944977   -1.9944977   -1.0767976  0.064996493   -1.9944977   0.91770017   507356 
 9889000    1.0072651   -1.9938392   -1.9938392   -1.0775733  0.062310095   -1.9938392    0.9162659   507356 
 9890000    1.0085623   -1.9941525   -1.9941525   -1.0767066  0.072044402   -1.9941525   0.91744592   507356 
 9891000    1.0075418   -1.9938467   -1.9938467   -1.0773292  0.066253468   -1.9938467   0.91651759   507356 
 9892000    1.0090149    -1.994475    -1.994475   -1.0766174  0.074429676    -1.994475   0.91785758   507356 
 9893000     1.008652   -1.9935666   -1.9935666   -1.0760391  0.082352338   -1.9935666   0.91752752   507356 
 9894000    1.0098634   -1.9946088   -1.9946088   -1.0759794  0.062829844   -1.9946088    0.9186294   507356 
 9895000    1.0078076    -1.992779    -1.992779   -1.0760197  0.064935175    -1.992779   0.91675933   507356 
 9896000    1.0116103   -1.9960765   -1.9960765    -1.075858  0.074902006   -1.9960765    0.9202185   507356 
 9897000    1.0083062   -1.9937544   -1.9937544   -1.0765415  0.066185676   -1.9937544   0.91721289   507356 
 9898000    1.0081184   -1.9922734   -1.9922734   -1.0752314  0.064335634   -1.9922734   0.91704204   507356 
 9899000    1.0077867   -1.9922697   -1.9922697   -1.0755294  0.073756176   -1.9922697   0.91674033   507356 
 9900000    1.0083747   -1.9919114   -1.9919114   -1.0746361   0.05929295   -1.9919114   0.91727526   507356 
 9901000    1.0090092   -1.9926145   -1.9926145    -1.074762  0.071426019   -1.9926145   0.91785244   507356 
 9902000    1.0080174   -1.9933243   -1.9933243    -1.076374  0.064910479   -1.9933243   0.91695025   507356 
 9903000    1.0058237   -1.9916189   -1.9916189   -1.0766641  0.071485287   -1.9916189   0.91495473   507356 
 9904000    1.0082472   -1.9929035   -1.9929035   -1.0757442  0.070854785   -1.9929035   0.91715927   507356 
 9905000    1.0078435   -1.9926855   -1.9926855   -1.0758936   0.07052911   -1.9926855   0.91679198   507356 
 9906000    1.0075936   -1.9930243   -1.9930243   -1.0764596  0.078152699   -1.9930243   0.91656469   507356 
 9907000    1.0077093   -1.9928824   -1.9928824   -1.0762125  0.068890474   -1.9928824   0.91666995   507356 
 9908000    1.0065069   -1.9917912   -1.9917912    -1.076215  0.063295255   -1.9917912   0.91557616   507356 
 9909000    1.0095251   -1.9944359   -1.9944359   -1.0761143   0.05942289   -1.9944359   0.91832168   507356 
 9910000    1.0077336   -1.9929488   -1.9929488   -1.0762567   0.07573595   -1.9929488   0.91669209   507356 
 9911000    1.0080592    -1.993604    -1.993604   -1.0766157  0.071887195    -1.993604   0.91698825   507356 
 9912000    1.0110634   -1.9955476   -1.9955476   -1.0758265  0.072590664   -1.9955476   0.91972105   507356 
 9913000    1.0080885    -1.994286    -1.994286   -1.0772711  0.069017563    -1.994286    0.9170149   507356 
 9914000    1.0082998   -1.9945503   -1.9945503   -1.0773432  0.070177794   -1.9945503    0.9172071   507356 
 9915000    1.0084577   -1.9940063   -1.9940063   -1.0766556  0.066687499   -1.9940063   0.91735077   507356 
 9916000    1.0088204   -1.9941528   -1.9941528   -1.0764721  0.082160139   -1.9941528   0.91768064   507356 
 9917000     1.011311   -1.9955611   -1.9955611   -1.0756148  0.060662163   -1.9955611    0.9199463   507356 
 9918000    1.0115429     -1.99612     -1.99612   -1.0759628  0.072008213     -1.99612   0.92015721   507356 
 9919000    1.0095204   -1.9947924   -1.9947924   -1.0764749  0.072578779   -1.9947924   0.91831745   507356 
 9920000    1.0106204   -1.9956043   -1.9956043   -1.0762862  0.073087718   -1.9956043   0.91931807   507356 
 9921000    1.0100321   -1.9958965   -1.9958965   -1.0771136  0.076932352   -1.9958965    0.9187829   507356 
 9922000    1.0116489   -1.9971086   -1.9971086   -1.0768549  0.055081518   -1.9971086   0.92025367   507356 
 9923000    1.0110906   -1.9971724   -1.9971724   -1.0774267  0.071615003   -1.9971724   0.91974577   507356 
 9924000    1.0110077    -1.996751    -1.996751   -1.0770807  0.064270679    -1.996751   0.91967035   507356 
 9925000    1.0096151   -1.9953068   -1.9953068   -1.0769033  0.064978268   -1.9953068   0.91840354   507356 
 9926000    1.0080897    -1.994868    -1.994868   -1.0778521  0.067155601    -1.994868   0.91701594   507356 
 9927000    1.0083806   -1.9947948   -1.9947948   -1.0775141  0.067634006   -1.9947948   0.91728063   507356 
 9928000    1.0093913   -1.9958075   -1.9958075   -1.0776075  0.069231048   -1.9958075   0.91820001   507356 
 9929000    1.0075724   -1.9930547   -1.9930547   -1.0765094   0.07943037   -1.9930547   0.91654538   507356 
 9930000    1.0090273   -1.9936941   -1.9936941   -1.0758252  0.072399746   -1.9936941    0.9178689   507356 
 9931000    1.0076827   -1.9936168   -1.9936168   -1.0769711  0.066666456   -1.9936168   0.91664573   507356 
 9932000    1.0076965   -1.9929623   -1.9929623    -1.076304  0.074059947   -1.9929623   0.91665833   507356 
 9933000    1.0079819   -1.9929012   -1.9929012   -1.0759833  0.067512923   -1.9929012   0.91691795   507356 
 9934000    1.0069656   -1.9915596   -1.9915596   -1.0755662  0.061422654   -1.9915596   0.91599341   507356 
 9935000    1.0071704   -1.9916419   -1.9916419   -1.0754622  0.074770725   -1.9916419   0.91617976   507356 
 9936000    1.0074602   -1.9902133   -1.9902133   -1.0737699  0.060862159   -1.9902133   0.91644336   507356 
 9937000    1.0076681   -1.9908317   -1.9908317   -1.0741993  0.065334514   -1.9908317   0.91663244   507356 
 9938000    1.0093512   -1.9923149   -1.9923149   -1.0741513  0.069006595   -1.9923149   0.91816351   507356 
 9939000    1.0080498    -1.990616    -1.990616   -1.0736363  0.069573732    -1.990616   0.91697972   507356 
 9940000    1.0086772   -1.9913834   -1.9913834    -1.073833  0.069308632   -1.9913834    0.9175504   507356 
 9941000    1.0085619   -1.9908594   -1.9908594   -1.0734139    0.0678319   -1.9908594   0.91744551   507356 
 9942000    1.0081279   -1.9910756   -1.9910756   -1.0740249  0.071191752   -1.9910756    0.9170507   507356 
 9943000    1.0087798   -1.9915176   -1.9915176   -1.0738739   0.06532492   -1.9915176   0.91764376   507356 
 9944000    1.0089791   -1.9910556   -1.9910556   -1.0732306  0.063975093   -1.9910556   0.91782502   507356 
 9945000    1.0085284    -1.991257    -1.991257    -1.073842  0.065970883    -1.991257   0.91741501   507356 
 9946000    1.0072087   -1.9912128   -1.9912128   -1.0749982   0.06628538   -1.9912128   0.91621459   507356 
 9947000    1.0087194   -1.9921184   -1.9921184   -1.0745296  0.066446894   -1.9921184    0.9175888   507356 
 9948000      1.00868   -1.9917074   -1.9917074   -1.0741544  0.075498902   -1.9917074   0.91755296   507356 
 9949000    1.0083687   -1.9924017   -1.9924017    -1.075132  0.059198481   -1.9924017   0.91726973   507356 
 9950000    1.0079476   -1.9919825   -1.9919825   -1.0750959  0.064339357   -1.9919825   0.91688668   507356 
 9951000    1.0070717   -1.9921611   -1.9921611   -1.0760712  0.067384352   -1.9921611   0.91608997   507356 
 9952000    1.0075748   -1.9913511   -1.9913511   -1.0748035  0.069383175   -1.9913511    0.9165476   507356 
 9953000    1.0084277   -1.9923192   -1.9923192   -1.0749957  0.064553414   -1.9923192   0.91732348   507356 
 9954000    1.0077393   -1.9912521   -1.9912521   -1.0745549   0.06605424   -1.9912521   0.91669726   507356 
 9955000    1.0093332   -1.9919352   -1.9919352   -1.0737881  0.078855368   -1.9919352    0.9181471   507356 
 9956000    1.0096971   -1.9922865   -1.9922865   -1.0738083  0.075400512   -1.9922865   0.91847814   507356 
 9957000    1.0090447   -1.9930764   -1.9930764   -1.0751917  0.067295996   -1.9930764   0.91788472   507356 
 9958000    1.0089836   -1.9925077   -1.9925077   -1.0746785  0.067874051   -1.9925077   0.91782914   507356 
 9959000    1.0092433   -1.9927851   -1.9927851   -1.0747198  0.072667271   -1.9927851   0.91806536   507356 
 9960000    1.0091353   -1.9926118   -1.9926118   -1.0746446  0.065892359   -1.9926118   0.91796713   507356 
 9961000     1.008651   -1.9923598   -1.9923598   -1.0748332  0.057340028   -1.9923598   0.91752658   507356 
 9962000    1.0055831   -1.9909117   -1.9909117   -1.0761758   0.06832848   -1.9909117   0.91473583   507356 
 9963000    1.0072841   -1.9918671   -1.9918671   -1.0755839  0.066873875   -1.9918671   0.91628317   507356 
 9964000    1.0089354   -1.9924437   -1.9924437   -1.0746585  0.067071393   -1.9924437   0.91778523   507356 
 9965000    1.0085948   -1.9916754   -1.9916754      -1.0742  0.072341445   -1.9916754   0.91747543   507356 
 9966000    1.0094259   -1.9922077   -1.9922077   -1.0739762  0.069967077   -1.9922077    0.9182315   507356 
 9967000    1.0119109   -1.9936729   -1.9936729   -1.0731809  0.070232232   -1.9936729   0.92049196   507356 
 9968000    1.0095541   -1.9900426   -1.9900426   -1.0716946  0.087076643   -1.9900426   0.91834807   507356 
 9969000    1.0100755   -1.9918151   -1.9918151   -1.0729927   0.07907958   -1.9918151    0.9188224   507356 
 9970000    1.0088743   -1.9909851   -1.9909851   -1.0732554  0.070607341   -1.9909851   0.91772972   507356 
 9971000    1.0077442   -1.9925334   -1.9925334   -1.0758318  0.055354448   -1.9925334   0.91670166   507356 
 9972000    1.0075213   -1.9917793   -1.9917793   -1.0752804  0.079757353   -1.9917793    0.9164989   507356 
 9973000    1.0071544   -1.9924512   -1.9924512   -1.0762861  0.073753551   -1.9924512   0.91616517   507356 
 9974000     1.006522   -1.9921492   -1.9921492   -1.0765592  0.067662631   -1.9921492   0.91558994   507356 
 9975000    1.0056872   -1.9919503   -1.9919503   -1.0771197  0.059148075   -1.9919503   0.91483052   507356 
 9976000    1.0057763   -1.9908313   -1.9908313   -1.0759197  0.065749367   -1.9908313    0.9149116   507356 
 9977000     1.006623   -1.9917807   -1.9917807    -1.076099  0.064699423   -1.9917807   0.91568179   507356 
 9978000    1.0076112   -1.9925687   -1.9925687    -1.075988  0.070327339   -1.9925687   0.91658075   507356 
 9979000    1.0073635   -1.9911905   -1.9911905   -1.0748351  0.068874898   -1.9911905   0.91635538   507356 
 9980000     1.005602   -1.9909451   -1.9909451    -1.076192  0.068068873   -1.9909451   0.91475306   507356 
 9981000    1.0094846   -1.9942777   -1.9942777   -1.0759928  0.069717411   -1.9942777   0.91828489   507356 
 9982000    1.0081278   -1.9930234   -1.9930234   -1.0759728   0.07065905   -1.9930234   0.91705063   507356 
 9983000    1.0096987   -1.9936649   -1.9936649   -1.0751853  0.066271096   -1.9936649   0.91847959   507356 
 9984000    1.0083921   -1.9927472   -1.9927472   -1.0754561  0.076357392   -1.9927472    0.9172911   507356 
 9985000    1.0087545   -1.9920923   -1.9920923   -1.0744715  0.073014432   -1.9920923   0.91762073   507356 
 9986000    1.0111814   -1.9945479   -1.9945479   -1.0747195  0.071814589   -1.9945479   0.91982838   507356 
 9987000    1.0101916   -1.9935343   -1.9935343   -1.0746062   0.06229064   -1.9935343   0.91892802   507356 
 9988000    1.0096438   -1.9935086   -1.9935086   -1.0750789  0.069605455   -1.9935086   0.91842968   507356 
 9989000    1.0088177   -1.9923689   -1.9923689   -1.0746907   0.07318865   -1.9923689   0.91767822   507356 
 9990000    1.0096768   -1.9945868   -1.9945868   -1.0761271  0.074449661   -1.9945868   0.91845972   507356 
 9991000    1.0093321   -1.9934757   -1.9934757   -1.0753296  0.069886769   -1.9934757   0.91814612   507356 
 9992000    1.0094312   -1.9928549   -1.9928549   -1.0746186  0.076179427   -1.9928549   0.91823625   507356 
 9993000    1.0106281    -1.993949    -1.993949   -1.0746239  0.068134796    -1.993949   0.91932509   507356 
 9994000    1.0112362   -1.9944794   -1.9944794   -1.0746012  0.067184007   -1.9944794   0.91987824   507356 
 9995000    1.0109049   -1.9930287   -1.9930287   -1.0734519  0.068798744   -1.9930287   0.91957684   507356 
 9996000     1.010038   -1.9922351   -1.9922351   -1.0734468  0.070692824   -1.9922351   0.91878829   507356 
 9997000    1.0120304   -1.9929967   -1.9929967    -1.072396  0.074614674   -1.9929967   0.92060065   507356 
 9998000    1.0107182   -1.9937384   -1.9937384   -1.0743314  0.073075179   -1.9937384   0.91940698   507356 
 9999000    1.0097471   -1.9936512   -1.9936512   -1.0751276  0.073673928   -1.9936512   0.91852361   507356 
10000000    1.0091655   -1.9917223   -1.9917223   -1.0737277  0.067232674   -1.9917223   0.91799457   507356 
Loop time of 80752.6 on 64 procs for 10000000 steps with 507356 atoms

Performance: 53496.703 tau/day, 123.835 timesteps/s
98.8% CPU use with 64 MPI tasks x 1 OpenMP threads

MPI task timing breakdown:
Section |  min time  |  avg time  |  max time  |%varavg|  %CPU | %total
-----------------------------------------------------------------------
Pair    | 12567      | 19572      | 28628      |3012.1 |  98.4 | 24.24
Bond    | 3.7943     | 4.3492     | 6.7785     |  24.4 | 100.0 |  0.01
Neigh   | 8138.7     | 16278      | 28935      |2745.4 |  99.9 | 20.16
Comm    | 13768      | 33138      | 47792      |3593.4 |  98.5 | 41.04
Output  | 412.92     | 416.87     | 426.09     |  24.3 |  97.3 |  0.52
Modify  | 8361.2     | 10516      | 12672      |1100.5 |  98.6 | 13.02
Other   |            | 827.1      |            |       |       |  1.02

Nlocal:        7927.44 ave        9069 max        7050 min
Histogram: 3 3 10 11 15 10 6 3 2 1
Nghost:        12472.1 ave       16992 max        6797 min
Histogram: 4 8 4 2 2 9 11 11 11 2
Neighs:       138479.0 ave      227182 max       88887 min
Histogram: 6 11 13 15 9 2 0 0 0 8

Total # of neighbors = 8862638
Ave neighs/atom = 17.468283
Ave special neighs/atom = 0.0000000
Neighbor list builds = 1000000
Dangerous builds = 990000

Total wall time: 22:25:59
