LAMMPS (29 Oct 2020)
  using 1 OpenMP thread(s) per MPI task
#Read the equilibrated lj fluid and add nanocubes

units           lj
atom_style      full
#atom_modify     map array first cubes
dimension       3
boundary        p p f
pair_style      lj/cut/opt 2.5

variable        sigma           equal 1.0
variable        epsilon         equal 1.0
read_restart	restart.dat.10000000
Reading restart file ...
  restart file = 29 Oct 2020, LAMMPS = 29 Oct 2020
WARNING: Restart file used different # of processors: 64 vs. 128 (src/read_restart.cpp:697)
  restoring atom style full from restart
  orthogonal box = (0.0000000 0.0000000 0.0000000) to (80.000000 80.000000 160.00000)
  4 by 4 by 8 MPI processor grid
  restoring pair style lj/cut/opt from restart
  507356 atoms
Finding 1-2 1-3 1-4 neighbors ...
  special bond factors lj:    0.0      0.0      0.0     
  special bond factors coul:  0.0      0.0      0.0     
     0 = max # of 1-2 neighbors
     0 = max # of 1-3 neighbors
     0 = max # of 1-4 neighbors
     1 = max # of special neighbors
  special bonds CPU = 12.827 seconds
  read_restart CPU = 13.738 seconds

group		solvent type 1
307331 atoms in group solvent
group 		hull  type 2
78050 atoms in group hull
group 		dummy type 3
121975 atoms in group dummy

neighbor      0.4 bin
neigh_modify  exclude molecule/intra cubes

pair_modify   shift yes

pair_coeff    1 1 1.0 1.0 #solvent
pair_coeff    2 2 1.0 1.0 1.12 #np
pair_coeff    3 3 0.0 0.0 0.0 #dummy
pair_coeff    2 3 0.0 0.0 0.0 #np dummy
pair_coeff    1 2 ${sol} 1.0  #np solvent
pair_coeff    1 2 0.55 1.0  
pair_coeff    1 3 0.0 0.0 0.0 #dummy solvent


comm_modify   mode multi cutoff/multi 1 2.5 cutoff/multi 2 2.5 cutoff/multi 3 6.95

reset_timestep 	0

balance 	1.05 shift z 10 1.05
Balancing ...
Unused restart file global fix info:
  fix style: STORE, fix ID: msd_COMPUTE_STORE
Unused restart file peratom fix info:
  fix style: STORE, fix ID: bin1_COMPUTE_STORE
  fix style: STORE, fix ID: bin3_COMPUTE_STORE
Neighbor list info ...
  update every 1 steps, delay 10 steps, check yes
  max neighbors/atom: 2000, page size: 100000
  master list distance cutoff = 2.9
  ghost atom cutoff = 6.95
  binsize = 1.45, bins = 56 56 111
  1 neighbor lists, perpetual/occasional/extra = 1 0 0
  (1) pair lj/cut/opt, perpetual
      attributes: half, newton on
      pair build: half/bin/newton
      stencil: half/bin/3d/newton
      bin: standard
 rebalancing time: 0.014 seconds
  iteration count = 3
  initial/final maximal load/proc = 5684.0000 5306.0000
  initial/final imbalance factor  = 1.4340069 1.3386419
  x cuts: 0.0000000 0.25 0.5 0.75 1.0000000
  y cuts: 0.0000000 0.25 0.5 0.75 1.0000000
  z cuts: 0.0000000 0.109375 0.203125 0.296875 0.390625 0.46875 0.59375 0.71875 1.0000000

####################### WALLS ###########################

variable       epsilonWall equal 2*${epsilon}
variable       epsilonWall equal 2*1
variable       repulsive   equal   0.7147*${sigma}
variable       repulsive   equal   0.7147*1
variable       full	   equal   3*${sigma}
variable       full	   equal   3*1
region         lowWall block EDGE EDGE EDGE EDGE EDGE 2

fix            topWall all wall/lj93 zhi EDGE 	       ${epsilonWall} ${sigma} ${repulsive} units box
fix            topWall all wall/lj93 zhi EDGE 	       2 ${sigma} ${repulsive} units box
fix            topWall all wall/lj93 zhi EDGE 	       2 1 ${repulsive} units box
fix            topWall all wall/lj93 zhi EDGE 	       2 1 0.7147 units box
fix            lowSol solvent wall/lj93 zlo EDGE                ${epsilonWall} ${sigma} ${full} units box
fix            lowSol solvent wall/lj93 zlo EDGE                2 ${sigma} ${full} units box
fix            lowSol solvent wall/lj93 zlo EDGE                2 1 ${full} units box
fix            lowSol solvent wall/lj93 zlo EDGE                2 1 3 units box
fix 	       lowCub cubes wall/lj93 zlo EDGE                ${epsilonWall} ${sigma} ${repulsive} units box
fix 	       lowCub cubes wall/lj93 zlo EDGE                2 ${sigma} ${repulsive} units box
fix 	       lowCub cubes wall/lj93 zlo EDGE                2 1 ${repulsive} units box
fix 	       lowCub cubes wall/lj93 zlo EDGE                2 1 0.7147 units box


###################### COMPUTES ##########################

compute        bin1 solvent chunk/atom bin/1d z lower 1.0 units box
compute        bin3 solvent chunk/atom bin/3d x lower 5.0 y lower 5.0 z lower 5.0 units box

compute 	pe solvent 	   pe/atom
compute 	pe2 all 	   pe/atom

######################  FIXES ############################


fix             peclet solvent ave/chunk 10 10 10000 bin1 density/number norm                  none ave one file density.profile

fix              temp solvent ave/chunk 10 10 10000 bin1 temp norm                  none ave one file temp.profile

fix 		 dens solvent ave/chunk 10 10 500000 bin3 density/number norm 		 none ave one file dens3.profile

fix		 temp2 solvent ave/chunk 10 10 500000 bin3 temp norm none ave one file temp3.profile

fix 		pe solvent ave/chunk 1 1 500000 bin3 c_pe norm none ave one file pe3.profile



################### INTEGRATION

fix             1 cubes rigid/nve/small molecule
  create bodies CPU = 0.020 seconds
  175 rigid bodies with 200025 atoms
  6.9282032 = max distance from body owner to body atom

fix             2 solvent nve



## Thermostat
region          regthermo block EDGE EDGE EDGE EDGE 0 15
group           thermo dynamic solvent region regthermo every 1000
dynamic group thermo defined
fix             3 thermo langevin ${temp} ${temp} 10 156453
fix             3 thermo langevin 1.0 ${temp} 10 156453
fix             3 thermo langevin 1.0 1.0 10 156453

## Evaporation
region		regevap block EDGE EDGE EDGE EDGE 140 EDGE
fix 		4 solvent evaporate ${evap} 1 regevap 156415
fix 		4 solvent evaporate 85 1 regevap 156415


#### Load balancing

fix             bal all balance 1000 1.05 shift z 10 1.05

############### Diagnostics and computes ###################

compute        	com cubes          rigid/local   1 mol x y z
compute        	quat cubes         rigid/local   1 mol quatw quati quatj quatk

compute 	cc2 cubes 	   chunk/atom 	 molecule
compute 	msd cubes 	   msd/chunk 	 cc2

fix 		msd all ave/time  1 1 10000 c_msd[*] file dump.msd ave one mode vector

dump            1 all custom 500000 dump.lammpstrj id mol type x y z vx vy vz c_pe2
dump		sol  solvent custom 500000 dump.soltrj id x y z vx vy vz c_pe
dump		cubetrj cubes custom 500000 cubes.lammpstrj id mol type x y z vx vy vz
dump            com cubes local 500000 dump.*.xyz c_com[*]
dump	        xyz hull xyz 500000 cubes.xyz
#dump            quat cubes      local 100000 dump.*.quat c_quat[*]
dump		order cubes 	local 100000 dump.*.order c_com[*] c_quat[*]
#dump		mol cubes molfile 10000 mol.xyz xyz


dump            2 all image 100000 image.*.png type type zoom 1.5 size 1280 720
dump_modify     2 pad 8
dump		image cubes image 100000 image_cubes.*.png type type zoom 1.5 size 1280 720
dump_modify	image pad 8
dump            3 all movie 5000 movie.avi type type zoom 1.5 size 1280 720
dump		4 cubes movie 5000 movie_cubes.avi type type size 1280 720


thermo          1000
thermo_style    custom step temp epair evdwl etotal press pe ke atoms

restart         1000000 restart.dat
timestep        0.005
timer           full
New timer settings: style=full  mode=nosync  timeout=off

run 		${steps}
run 		30000000
Per MPI rank memory allocation (min/avg/max) = 19.23 | 26.21 | 28.09 Mbytes
Step Temp E_pair E_vdwl TotEng Press PotEng KinEng Atoms 
       0     1.012376    -1.826882    -1.826882  -0.90596695  0.074262862    -1.826882   0.92091508   507356 
    1000    1.0116336   -1.8252724   -1.8252724  -0.90501278  0.073973695   -1.8252724   0.92025965   507345 
    2000    1.0083795   -1.8225986   -1.8225986  -0.90527743  0.077919392   -1.8225986   0.91732115   507333 
    3000    1.0103305   -1.8262364   -1.8262364  -0.90711865  0.063468355   -1.8262364   0.91911772   507321 
    4000    1.0107917   -1.8261957   -1.8261957  -0.90663659  0.065586025   -1.8261957   0.91955907   507309 
    5000    1.0108327    -1.826268    -1.826268  -0.90665166  0.073194556    -1.826268    0.9196163   507298 
    6000    1.0083989    -1.825328    -1.825328  -0.90790419  0.080390745    -1.825328   0.91742381   507286 
    7000    1.0111964   -1.8276336   -1.8276336  -0.90764292  0.067538214   -1.8276336   0.91999066   507274 
    8000     1.009353   -1.8259222   -1.8259222  -0.90758692  0.072425228   -1.8259222   0.91833532   507262 
    9000    1.0087251   -1.8266421   -1.8266421  -0.90885821  0.070026669   -1.8266421   0.91778392   507251 
   10000    1.0099236   -1.8267307   -1.8267307  -0.90783456  0.083571561   -1.8267307   0.91889614   507239 
   11000    1.0115077   -1.8285693   -1.8285693  -0.90821007  0.069121558   -1.8285693   0.92035921   507227 
   12000    1.0102174   -1.8278256   -1.8278256  -0.90861867  0.074224433   -1.8278256   0.91920688   507215 
   13000    1.0109098   -1.8281776   -1.8281776  -0.90832074  0.077485479   -1.8281776   0.91985685   507204 
   14000    1.0107016    -1.828861    -1.828861  -0.90917179  0.071937518    -1.828861   0.91968917   507192 
   15000    1.0104338   -1.8281558   -1.8281558  -0.90868852  0.064794316   -1.8281558   0.91946726   507180 
   16000    1.0098257   -1.8288419   -1.8288419  -0.90990629  0.075940066   -1.8288419   0.91893564   507168 
   17000     1.010436   -1.8289773   -1.8289773  -0.90946455  0.071922456   -1.8289773    0.9195128   507156 
   18000    1.0126854   -1.8305095   -1.8305095  -0.90892969  0.068243024   -1.8305095   0.92157979   507145 
   19000    1.0117044    -1.830172    -1.830172   -0.9094632  0.076632676    -1.830172   0.92070879   507133 
   20000    1.0108919   -1.8298528   -1.8298528  -0.90986166  0.077055505   -1.8298528   0.91999114   507121 
   21000    1.0089552   -1.8299956   -1.8299956  -0.91174528  0.073764887   -1.8299956   0.91825036   507109 
   22000    1.0109623   -1.8310134   -1.8310134  -0.91091651  0.073957899   -1.8310134   0.92009691   507098 
   23000    1.0104162   -1.8296451   -1.8296451  -0.91002348   0.07252141   -1.8296451   0.91962165   507086 
   24000    1.0111993   -1.8302324   -1.8302324  -0.90987614  0.074928282   -1.8302324   0.92035625   507074 
   25000    1.0129714   -1.8316498   -1.8316498  -0.90965885  0.073296609   -1.8316498   0.92199096   507062 
   26000    1.0106177     -1.83042     -1.83042  -0.91055143  0.075341156     -1.83042   0.91986854   507051 
   27000    1.0101279   -1.8299368   -1.8299368  -0.91049229  0.075738696   -1.8299368    0.9194445   507039 
   28000    1.0105529   -1.8305429   -1.8305429  -0.91068979  0.067738708   -1.8305429   0.91985314   507027 
   29000    1.0091077   -1.8287918   -1.8287918  -0.91023245  0.068369814   -1.8287918   0.91855937   507015 
   30000    1.0075333   -1.8279285   -1.8279285   -0.9107823  0.068040989   -1.8279285   0.91714615   507004 
   31000    1.0110906   -1.8310527   -1.8310527  -0.91064654  0.073430576   -1.8310527   0.92040614   506992 
   32000    1.0090743   -1.8304745   -1.8304745  -0.91188208  0.065380521   -1.8304745   0.91859237   506980 
   33000    1.0069238   -1.8288845   -1.8288845  -0.91222806  0.069923367   -1.8288845   0.91665644   506968 
   34000    1.0079747   -1.8289277   -1.8289277  -0.91129287  0.070767042   -1.8289277   0.91763483   506956 
   35000    1.0075872   -1.8285236   -1.8285236  -0.91122172  0.080561784   -1.8285236   0.91730192   506945 
   36000     1.008123   -1.8298569   -1.8298569  -0.91204545  0.070944784   -1.8298569   0.91781148   506933 
   37000    1.0097158   -1.8304188   -1.8304188  -0.91113547  0.074092553   -1.8304188   0.91928337   506921 
   38000    1.0083124   -1.8293053   -1.8293053  -0.91127791   0.07320617   -1.8293053   0.91802737   506909 
   39000     1.006135   -1.8274304   -1.8274304  -0.91136564  0.071523794   -1.8274304   0.91606478   506898 
   40000     1.010179   -1.8300752   -1.8300752   -0.9103066  0.073127791   -1.8300752   0.91976861   506886 
   41000    1.0106196   -1.8306995   -1.8306995  -0.91050794  0.073196353   -1.8306995   0.92019155   506874 
   42000    1.0093806   -1.8306543   -1.8306543  -0.91156914  0.079947544   -1.8306543   0.91908513   506862 
   43000    1.0092901   -1.8293948   -1.8293948  -0.91037215   0.07494851   -1.8293948   0.91902268   506851 
   44000    1.0089846   -1.8287386   -1.8287386   -0.9099724  0.073665422   -1.8287386   0.91876623   506839 
   45000    1.0095976   -1.8286221   -1.8286221  -0.90927591   0.07230383   -1.8286221   0.91934623   506827 
   46000    1.0093321   -1.8266166   -1.8266166  -0.90749041  0.070741054   -1.8266166    0.9191262   506815 
   47000    1.0097308     -1.82697     -1.82697   -0.9074607  0.068754195     -1.82697   0.91950928   506804 
   48000    1.0096544    -1.826141    -1.826141  -0.90667957  0.084865199    -1.826141   0.91946142   506792 
   49000    1.0111348    -1.827576    -1.827576  -0.90674456  0.067122042    -1.827576   0.92083142   506780 
   50000    1.0096281   -1.8261005   -1.8261005  -0.90661948   0.07491928   -1.8261005   0.91948106   506768 
   51000    1.0108576   -1.8281324   -1.8281324   -0.9075098  0.069225902   -1.8281324   0.92062258   506756 
   52000    1.0111904   -1.8282759   -1.8282759  -0.90733026  0.074735201   -1.8282759   0.92094565   506745 
   53000     1.009426   -1.8265707   -1.8265707  -0.90721021  0.065817749   -1.8265707   0.91936049   506733 
   54000    1.0075072   -1.8252979   -1.8252979  -0.90766331   0.07569794   -1.8252979    0.9176346   506721 
   55000    1.0103892   -1.8273343   -1.8273343  -0.90705295  0.060520669   -1.8273343   0.92028136   506709 
   56000    1.0097613   -1.8252447   -1.8252447  -0.90551532  0.065567115   -1.8252447    0.9197294   506698 
   57000     1.010537   -1.8262692   -1.8262692  -0.90581155  0.072826099   -1.8262692   0.92045768   506686 
   58000      1.00885   -1.8243984   -1.8243984  -0.90545555  0.082125534   -1.8243984   0.91894285   506674 
   59000    1.0093169   -1.8246023   -1.8246023  -0.90521238  0.068643184   -1.8246023   0.91938989   506662 
   60000    1.0100902   -1.8260183   -1.8260183  -0.90590396  0.069170361   -1.8260183   0.92011431   506651 
   61000    1.0094163   -1.8251782   -1.8251782  -0.90565593   0.07291155   -1.8251782   0.91952225   506639 
   62000    1.0081635   -1.8245058   -1.8245058  -0.90610313  0.072377043   -1.8245058   0.91840271   506627 
   63000    1.0095012     -1.82536     -1.82536  -0.90571691  0.077126469     -1.82536   0.91964308   506615 
   64000    1.0106773   -1.8257925   -1.8257925  -0.90505802  0.068717765   -1.8257925   0.92073452   506604 
   65000    1.0103507   -1.8252014   -1.8252014  -0.90474259  0.078525051   -1.8252014   0.92045881   506592 
   66000    1.0083854    -1.824363    -1.824363   -0.9056729  0.068100981    -1.824363   0.91869012   506580 
   67000    1.0069303   -1.8236331   -1.8236331  -0.90624694   0.07355679   -1.8236331   0.91738617   506568 
   68000    1.0085626   -1.8252603   -1.8252603  -0.90636524  0.068855852   -1.8252603   0.91889506   506556 
   69000    1.0096825   -1.8256383   -1.8256383  -0.90570293  0.071222821   -1.8256383   0.91993541   506545 
   70000    1.0098078   -1.8265242   -1.8265242  -0.90645286  0.068760786   -1.8265242   0.92007135   506533 
   71000    1.0075324    -1.825108    -1.825108  -0.90708808  0.075434929    -1.825108   0.91801988   506521 
   72000    1.0067461   -1.8245347   -1.8245347  -0.90720947  0.073035823   -1.8245347   0.91732522   506509 
   73000    1.0063123   -1.8249615   -1.8249615  -0.90801174  0.069879171   -1.8249615   0.91694979   506498 
   74000    1.0083687   -1.8265716   -1.8265716  -0.90772622   0.07400504   -1.8265716   0.91884542   506486 
   75000    1.0074548   -1.8256714   -1.8256714  -0.90763705  0.075297913   -1.8256714   0.91803439   506474 
   76000    1.0090904    -1.827775    -1.827775  -0.90822846  0.070621626    -1.827775   0.91954655   506462 
   77000    1.0070572   -1.8255241   -1.8255241  -0.90781039  0.079669413   -1.8255241   0.91771374   506451 
   78000    1.0075866   -1.8264277   -1.8264277  -0.90820977  0.074212641   -1.8264277   0.91821792   506439 
   79000    1.0098143   -1.8283592   -1.8283592  -0.90808933  0.071081909   -1.8283592   0.92026983   506427 
   80000    1.0089972   -1.8274166   -1.8274166  -0.90786965  0.065499847   -1.8274166   0.91954697   506415 
   81000    1.0093606   -1.8274527   -1.8274527  -0.90755451  0.071642893   -1.8274527   0.91989817   506404 
   82000    1.0059976   -1.8267282   -1.8267282  -0.90987327  0.071841799   -1.8267282   0.91685494   506392 
   83000    1.0049971   -1.8253315   -1.8253315  -0.90936675  0.077068521   -1.8253315   0.91596477   506380 
   84000    1.0072627   -1.8268661   -1.8268661  -0.90881461  0.067004686   -1.8268661   0.91805147   506368 
   85000    1.0054795   -1.8258728   -1.8258728  -0.90942489  0.064608286   -1.8258728   0.91644793   506356 
   86000    1.0045386    -1.825293    -1.825293  -0.90968278  0.073049693    -1.825293   0.91561021   506345 
   87000    1.0072928   -1.8273372   -1.8273372  -0.90919478  0.068824627   -1.8273372   0.91814239   506333 
   88000    1.0079447   -1.8280545   -1.8280545  -0.90929618  0.069613552   -1.8280545   0.91875833   506321 
   89000    1.0053759   -1.8267529   -1.8267529  -0.91031435  0.067141999   -1.8267529   0.91643851   506309 
   90000    1.0081651   -1.8295946   -1.8295946   -0.9105936  0.067445275   -1.8295946   0.91900097   506298 
   91000    1.0045143   -1.8265507   -1.8265507  -0.91085591   0.07499451   -1.8265507   0.91569475   506286 
   92000    1.0071665   -1.8273866   -1.8273866  -0.90925234  0.077471039   -1.8273866   0.91813425   506274 
   93000    1.0081434   -1.8287183   -1.8287183  -0.90967178  0.074236164   -1.8287183   0.91904654   506262 
   94000    1.0071782   -1.8288001   -1.8288001  -0.91061351  0.067186234   -1.8288001   0.91818659   506251 
   95000    1.0084747   -1.8298038   -1.8298038  -0.91041349  0.071872905   -1.8298038   0.91939036   506239 
   96000    1.0079709   -1.8293045   -1.8293045  -0.91035166  0.065852786   -1.8293045   0.91895279   506227 
   97000    1.0078894    -1.830133    -1.830133  -0.91123269  0.072894775    -1.830133   0.91890027   506215 
   98000    1.0073079   -1.8300899   -1.8300899  -0.91169983   0.06808949   -1.8300899   0.91839008   506204 
   99000    1.0080374   -1.8309748   -1.8309748  -0.91189785  0.061504629   -1.8309748   0.91907698   506192 
  100000    1.0044066   -1.8290136   -1.8290136  -0.91322529  0.070955694   -1.8290136   0.91578836   506180 
  101000    1.0056171   -1.8298185   -1.8298185  -0.91290475  0.073647711   -1.8298185   0.91691378   506168 
  102000    1.0063512   -1.8309638   -1.8309638  -0.91335899  0.076480962   -1.8309638   0.91760484   506156 
  103000    1.0067951    -1.830229    -1.830229  -0.91219942   0.07769081    -1.830229   0.91802959   506145 
  104000    1.0065748   -1.8302402   -1.8302402  -0.91238978  0.076962755   -1.8302402   0.91785041   506133 
  105000    1.0092269   -1.8319002   -1.8319002  -0.91160963  0.070798889   -1.8319002   0.92029061   506121 
  106000    1.0088618   -1.8308007   -1.8308007  -0.91082116  0.073477327   -1.8308007   0.91997952   506109 
  107000    1.0076904   -1.8294292   -1.8294292  -0.91049796  0.078156884   -1.8294292   0.91893123   506098 
  108000    1.0073527   -1.8299458   -1.8299458  -0.91130065  0.074014411   -1.8299458   0.91864511   506086 
  109000    1.0071089   -1.8294748   -1.8294748   -0.9110302  0.068955586   -1.8294748   0.91844457   506074 
  110000     1.004442   -1.8281824   -1.8281824  -0.91214829  0.069933659   -1.8281824   0.91603414   506062 
  111000    1.0039928   -1.8276545   -1.8276545  -0.91201017  0.065408967   -1.8276545   0.91564435   506051 
  112000    1.0048015   -1.8284183   -1.8284183  -0.91201462  0.070920343   -1.8284183   0.91640365   506039 
  113000     1.004772   -1.8273627   -1.8273627  -0.91096425   0.07124417   -1.8273627   0.91639845   506027 
  114000     1.004658   -1.8269553   -1.8269553  -0.91063907  0.067363464   -1.8269553   0.91631619   506015 
  115000    1.0049437   -1.8264318   -1.8264318  -0.90983504  0.070438486   -1.8264318   0.91659677   506004 
  116000     1.004736   -1.8270846   -1.8270846  -0.91065549   0.06403689   -1.8270846   0.91642907   505992 
  117000    1.0069725   -1.8289664   -1.8289664  -0.91047566  0.060230768   -1.8289664   0.91849074   505980 
  118000    1.0048926    -1.827073    -1.827073  -0.91045764  0.075571294    -1.827073   0.91661536   505968 
  119000    1.0059072   -1.8285586   -1.8285586  -0.91099606  0.070501089   -1.8285586   0.91756255   505956 
  120000    1.0057381   -1.8282243   -1.8282243  -0.91079595  0.070747801   -1.8282243   0.91742832   505945 
  121000    1.0066551   -1.8294761   -1.8294761  -0.91118948  0.071738838   -1.8294761   0.91828657   505933 
  122000    1.0052838   -1.8265081   -1.8265081  -0.90945067   0.07731578   -1.8265081   0.91705739   505921 
  123000    1.0067956   -1.8283621   -1.8283621  -0.90990385  0.064493729   -1.8283621   0.91845826   505909 
  124000    1.0056647   -1.8270315   -1.8270315   -0.9095849  0.072931928   -1.8270315   0.91744656   505898 
  125000    1.0061422   -1.8291289   -1.8291289  -0.91122495  0.064692017   -1.8291289   0.91790397   505886 
  126000    1.0045697    -1.826214    -1.826214  -0.90972299  0.065243755    -1.826214   0.91649104   505874 
  127000     1.004056   -1.8260474   -1.8260474   -0.9100032  0.075781286   -1.8260474   0.91604416   505862 
  128000    1.0036146   -1.8273167   -1.8273167  -0.91165535   0.06644562   -1.8273167   0.91566136   505851 
  129000    1.0045025   -1.8269358   -1.8269358  -0.91044267  0.069178361   -1.8269358   0.91649318   505839 
  130000    1.0064003   -1.8287297   -1.8287297  -0.91048322  0.068511398   -1.8287297   0.91824647   505827 
  131000    1.0034072   -1.8270501   -1.8270501  -0.91151283  0.063905037   -1.8270501   0.91553731   505815 
  132000    1.0048586    -1.828166    -1.828166  -0.91128444  0.071452051    -1.828166   0.91688154   505804 
  133000    1.0036617   -1.8274076   -1.8274076  -0.91159646  0.070660132   -1.8274076   0.91581116   505792 
  134000    1.0050063   -1.8277533   -1.8277533  -0.91069352  0.074629354   -1.8277533   0.91705979   505780 
  135000    1.0049515   -1.8270994   -1.8270994  -0.91006782  0.070309134   -1.8270994   0.91703156   505768 
  136000    1.0048499   -1.8271335   -1.8271335  -0.91017293  0.068530949   -1.8271335   0.91696061   505756 
  137000    1.0047293   -1.8270098   -1.8270098  -0.91013925  0.072908843   -1.8270098   0.91687053   505745 
  138000    1.0047617    -1.827163    -1.827163  -0.91024115  0.071750395    -1.827163    0.9169218   505733 
  139000    1.0048738   -1.8269505   -1.8269505  -0.90990464  0.073102906   -1.8269505   0.91704588   505721 
  140000    1.0071514   -1.8280618   -1.8280618  -0.90891557  0.076056637   -1.8280618   0.91914624   505709 
  141000    1.0064437   -1.8284355   -1.8284355  -0.90991509  0.073123423   -1.8284355   0.91852037   505698 
  142000    1.0050188   -1.8283353   -1.8283353  -0.91109353  0.062129559   -1.8283353   0.91724172   505686 
  143000    1.0050726   -1.8280897   -1.8280897  -0.91077719  0.072515911   -1.8280897   0.91731253   505674 
  144000    1.0053958   -1.8294128   -1.8294128  -0.91178348  0.072316506   -1.8294128   0.91762932   505662 
  145000     1.004654   -1.8273259   -1.8273259  -0.91035363   0.07596128   -1.8273259   0.91697225   505651 
  146000     1.004524   -1.8282345   -1.8282345  -0.91135916  0.073673375   -1.8282345   0.91687535   505639 
  147000    1.0043578   -1.8283934   -1.8283934  -0.91164798  0.072956045   -1.8283934   0.91674542   505627 
  148000    1.0034155   -1.8280633   -1.8280633  -0.91215629  0.071385489   -1.8280633   0.91590696   505615 
  149000    1.0039865   -1.8295641   -1.8295641  -0.91311596  0.071743714   -1.8295641   0.91644817   505604 
  150000    1.0028995   -1.8278373   -1.8278373  -0.91235963  0.069661148   -1.8278373   0.91547768   505592 
  151000    1.0027313   -1.8279426   -1.8279426  -0.91259681  0.068245723   -1.8279426   0.91534582   505580 
  152000     1.003729   -1.8283678   -1.8283678  -0.91208946  0.072314711   -1.8283678   0.91627833   505568 
  153000    1.0037156   -1.8291785   -1.8291785  -0.91289068  0.068445787   -1.8291785   0.91628782   505556 
  154000    1.0051372   -1.8300544   -1.8300544  -0.91244881  0.072686479   -1.8300544    0.9176056   505545 
  155000    1.0052553   -1.8302103   -1.8302103  -0.91247502  0.069583376   -1.8302103   0.91773524   505533 
  156000    1.0037373   -1.8291844   -1.8291844  -0.91281325   0.07240092   -1.8291844   0.91637114   505521 
  157000    1.0035016   -1.8287918   -1.8287918  -0.91261414  0.074289477   -1.8287918   0.91617769   505509 
  158000     1.005104   -1.8295627   -1.8295627  -0.91190207  0.073144499   -1.8295627   0.91766059   505498 
  159000    1.0044726   -1.8285583   -1.8285583  -0.91145232  0.073937572   -1.8285583   0.91710593   505486 
  160000    1.0055542   -1.8300202   -1.8300202  -0.91190502  0.069708739   -1.8300202   0.91811519   505474 
  161000    1.0045615   -1.8289127   -1.8289127  -0.91168209  0.068954988   -1.8289127   0.91723061   505462 
  162000    1.0035688   -1.8286816   -1.8286816  -0.91233749   0.07552529   -1.8286816   0.91634413   505451 
  163000    1.0048537   -1.8287349   -1.8287349  -0.91119569  0.076035718   -1.8287349   0.91753917   505439 
  164000    1.0051483   -1.8281537   -1.8281537  -0.91032373  0.072472123   -1.8281537   0.91782997   505427 
  165000    1.0061825   -1.8295899   -1.8295899  -0.91079373  0.070223431   -1.8295899   0.91879617   505415 
  166000    1.0052027   -1.8286831   -1.8286831  -0.91076166  0.068685312   -1.8286831   0.91792141   505404 
  167000    1.0076951   -1.8297415   -1.8297415  -0.90952224  0.075530367   -1.8297415   0.92021928   505392 
  168000    1.0047578    -1.826188    -1.826188  -0.90862933  0.076870154    -1.826188    0.9175587   505380 
  169000    1.0033284   -1.8251165   -1.8251165  -0.90884134  0.079549088   -1.8251165   0.91627516   505368 
  170000    1.0047666   -1.8252983   -1.8252983  -0.90768793  0.077545245   -1.8252983   0.91761036   505356 
  171000    1.0045794   -1.8252606   -1.8252606  -0.90780127  0.078630053   -1.8252606   0.91745933   505345 
  172000    1.0015735   -1.8232248   -1.8232248  -0.90848896  0.073476967   -1.8232248   0.91473586   505333 
  173000    1.0032893   -1.8246806   -1.8246806  -0.90835592  0.067963842   -1.8246806   0.91632466   505321 
  174000    1.0059304   -1.8266824   -1.8266824  -0.90792369  0.076653157   -1.8266824   0.91875866   505309 
  175000    1.0060718   -1.8260295   -1.8260295  -0.90712169  0.071204271   -1.8260295   0.91890777   505298 
  176000    1.0041681   -1.8238132   -1.8238132  -0.90662238  0.077564513   -1.8238132   0.91719083   505286 
  177000    1.0036452   -1.8240832   -1.8240832  -0.90734825  0.067808834   -1.8240832   0.91673494   505274 
  178000    1.0038621   -1.8245767   -1.8245767  -0.90762188  0.079215036   -1.8245767   0.91695486   505262 
  179000    1.0059453    -1.826158    -1.826158  -0.90728026  0.064642892    -1.826158   0.91887772   505251 
  180000    1.0052267   -1.8258679   -1.8258679  -0.90762475  0.066123012   -1.8258679   0.91824312   505239 
  181000     1.002633    -1.823031    -1.823031  -0.90713536  0.067518778    -1.823031   0.91589563   505227 
  182000    1.0008472   -1.8229128   -1.8229128  -0.90862683  0.072127916   -1.8229128   0.91428597   505215 
  183000    1.0013932   -1.8232496   -1.8232496  -0.90844497  0.063067232   -1.8232496   0.91480466   505204 
  184000    1.0007123   -1.8222295   -1.8222295  -0.90802514  0.071342533   -1.8222295    0.9142044   505192 
  185000    1.0010419   -1.8231457   -1.8231457   -0.9086185  0.065969069   -1.8231457   0.91452725   505180 
  186000   0.99995893   -1.8234117   -1.8234117  -0.90985218  0.067155799   -1.8234117   0.91355954   505168 
  187000   0.99916626   -1.8232323   -1.8232323  -0.91037525  0.069839207   -1.8232323   0.91285704   505156 
  188000    1.0004943   -1.8241943   -1.8241943  -0.91010404  0.069746536   -1.8241943    0.9140903   505145 
  189000   0.99906251   -1.8234336   -1.8234336  -0.91062983  0.066262787   -1.8234336   0.91280382   505133 
  190000    1.0006126   -1.8248803   -1.8248803   -0.9106385  0.067218462   -1.8248803   0.91424177   505121 
  191000    1.0008712   -1.8254918   -1.8254918  -0.91099209  0.067535121   -1.8254918   0.91449975   505109 
  192000   0.99823226   -1.8228658   -1.8228658  -0.91075738  0.068570866   -1.8228658   0.91210845   505098 
  193000   0.99984923   -1.8243124   -1.8243124  -0.91070483  0.069224506   -1.8243124   0.91360761   505086 
  194000    1.0022807   -1.8256175   -1.8256175  -0.90976641  0.070307226   -1.8256175   0.91585112   505074 
  195000    1.0000554   -1.8245388   -1.8245388  -0.91069937   0.06872041   -1.8245388   0.91383941   505062 
  196000    1.0019799   -1.8261687   -1.8261687  -0.91055078  0.072060016   -1.8261687   0.91561791   505051 
  197000     1.003016   -1.8272628   -1.8272628  -0.91067627   0.06115632   -1.8272628   0.91658654   505039 
  198000    1.0012811   -1.8254263   -1.8254263  -0.91040348  0.068377358   -1.8254263   0.91502284   505027 
  199000    1.0002365   -1.8250082   -1.8250082  -0.91091821  0.074109393   -1.8250082   0.91408999   505015 
  200000    1.0012236   -1.8264255   -1.8264255  -0.91141347  0.070474474   -1.8264255     0.915012   505004 
  201000    1.0025624   -1.8269463   -1.8269463  -0.91068904  0.072856513   -1.8269463   0.91625725   504992 
  202000    1.0041885   -1.8281784   -1.8281784  -0.91041312  0.062775573   -1.8281784   0.91776525   504980 
  203000    1.0025019   -1.8260529   -1.8260529  -0.90980733  0.073703533   -1.8260529   0.91624556   504968 
  204000    1.0027749   -1.8282743   -1.8282743  -0.91175746  0.072694549   -1.8282743   0.91651684   504956 
  205000    1.0035298   -1.8295221   -1.8295221  -0.91229528  0.068781912   -1.8295221    0.9172268   504945 
  206000     1.000778   -1.8274771   -1.8274771  -0.91274379  0.069965781   -1.8274771   0.91473333   504933 
  207000    1.0023578   -1.8280998   -1.8280998  -0.91190068    0.0698211   -1.8280998   0.91619915   504921 
  208000    1.0036914   -1.8286965   -1.8286965  -0.91125666  0.072167173   -1.8286965   0.91743985   504909 
  209000    1.0036825     -1.83007     -1.83007  -0.91261828  0.076764962     -1.83007   0.91745177   504898 
  210000     1.002056    -1.829053    -1.829053  -0.91306627  0.079183962    -1.829053   0.91598677   504886 
  211000    1.0017311   -1.8294697   -1.8294697  -0.91375819  0.074195859   -1.8294697    0.9157115   504874 
  212000    1.0007232   -1.8295066   -1.8295066  -0.91469465   0.06689776   -1.8295066   0.91481191   504862 
  213000    1.0015553   -1.8293693   -1.8293693  -0.91377684  0.066508202   -1.8293693    0.9155925   504851 
  214000    1.0009423   -1.8289154   -1.8289154  -0.91386152  0.071085144   -1.8289154   0.91505385   504839 
  215000   0.99939608   -1.8284249   -1.8284249  -0.91476285  0.071821872   -1.8284249   0.91366206   504827 
  216000    1.0023347   -1.8300471   -1.8300471  -0.91367665  0.072989691   -1.8300471    0.9163704   504815 
  217000    1.0014162   -1.8295456   -1.8295456  -0.91399492  0.073199245   -1.8295456   0.91555063   504804 
  218000    1.0010058    -1.829708    -1.829708   -0.9145108  0.064605008    -1.829708   0.91519715   504792 
  219000    1.0009188   -1.8284322   -1.8284322  -0.91329279  0.070848212   -1.8284322    0.9151394   504780 
  220000    1.0014612   -1.8287658   -1.8287658  -0.91310881  0.078921436   -1.8287658   0.91565704   504768 
  221000    1.0011332   -1.8298059   -1.8298059  -0.91442702  0.071316697   -1.8298059   0.91537888   504756 
  222000    1.0012366   -1.8302717   -1.8302717  -0.91477836  0.074936208   -1.8302717   0.91549338   504745 
  223000    1.0017395   -1.8309225   -1.8309225  -0.91494751  0.072096076   -1.8309225   0.91597501   504733 
  224000    1.0011739   -1.8302977   -1.8302977  -0.91481812   0.06836056   -1.8302977   0.91547958   504721 
  225000   0.99934058   -1.8283456   -1.8283456  -0.91452069  0.072723727   -1.8283456   0.91382493   504709 
  226000    1.0003304   -1.8296037   -1.8296037  -0.91485376  0.070889595   -1.8296037   0.91474998   504698 
  227000    1.0012111   -1.8293556   -1.8293556  -0.91377843  0.071848634   -1.8293556   0.91557714   504686 
  228000    1.0006439   -1.8297285   -1.8297285   -0.9146484  0.071460214   -1.8297285   0.91508015   504674 
  229000     1.001665   -1.8300056   -1.8300056  -0.91396993  0.067257847   -1.8300056    0.9160357   504662 
  230000   0.99936278   -1.8281905   -1.8281905  -0.91424028  0.067492476   -1.8281905   0.91395026   504651 
  231000    1.0014096   -1.8297219   -1.8297219   -0.9138779  0.073063738   -1.8297219   0.91584396   504639 
  232000    1.0010174    -1.827326    -1.827326  -0.91181905  0.075554946    -1.827326   0.91550699   504627 
  233000    1.0016013   -1.8272189   -1.8272189  -0.91115607  0.075385857   -1.8272189   0.91606282   504615 
  234000    1.0020523   -1.8281872   -1.8281872  -0.91169192  0.058244493   -1.8281872   0.91649524   504604 
  235000    1.0009187   -1.8276714   -1.8276714  -0.91219113  0.072243173   -1.8276714   0.91548024   504592 
  236000    1.0022851   -1.8297785   -1.8297785  -0.91302669  0.069372166   -1.8297785   0.91675178   504580 
  237000   0.99988691   -1.8266629   -1.8266629  -0.91208289  0.077138996   -1.8266629   0.91458001   504568 
  238000    1.0018687   -1.8279533   -1.8279533  -0.91153873  0.066597499   -1.8279533   0.91641454   504556 
  239000    1.0001417   -1.8261458   -1.8261458  -0.91129103  0.074143039   -1.8261458   0.91485477   504545 
  240000    1.0000868   -1.8255403   -1.8255403  -0.91071395  0.063035666   -1.8255403    0.9148263   504533 
  241000   0.99994045   -1.8265139   -1.8265139  -0.91179975  0.068165979   -1.8265139   0.91471419   504521 
  242000   0.99873856   -1.8251996   -1.8251996  -0.91156315  0.062209913   -1.8251996   0.91363647   504509 
  243000   0.99765486   -1.8248544   -1.8248544  -0.91218939  0.064842436   -1.8248544   0.91266501   504498 
  244000   0.99946376   -1.8258189   -1.8258189  -0.91147735  0.066650981   -1.8258189   0.91434155   504486 
  245000    0.9986225   -1.8247207   -1.8247207  -0.91112701  0.067578002   -1.8247207   0.91359368   504474 
  246000   0.99879036   -1.8250809   -1.8250809   -0.9113119  0.067144493   -1.8250809   0.91376898   504462 
  247000    1.0005293   -1.8257047   -1.8257047  -0.91032485  0.072990016   -1.8257047    0.9153799   504451 
  248000      1.00166   -1.8267594   -1.8267594  -0.91032324  0.068356426   -1.8267594   0.91643616   504439 
  249000   0.99977897   -1.8237635   -1.8237635  -0.90902663  0.072484049   -1.8237635    0.9147369   504427 
  250000    1.0019893   -1.8263841   -1.8263841  -0.90960306  0.068641065   -1.8263841   0.91678106   504415 
  251000    1.0012412   -1.8262444   -1.8262444  -0.91012785  0.070857919   -1.8262444   0.91611651   504404 
  252000    1.0001671   -1.8257606   -1.8257606  -0.91060512  0.068072223   -1.8257606    0.9151555   504392 
  253000    1.0012958   -1.8274209   -1.8274209  -0.91121086  0.069074973   -1.8274209   0.91621008   504380 
  254000    1.0009228   -1.8261991   -1.8261991  -0.91030854   0.07178993   -1.8261991    0.9158906   504368 
  255000    1.0027233   -1.8288652   -1.8288652  -0.91130527  0.070322021   -1.8288652    0.9175599   504356 
  256000    1.0024134    -1.827377    -1.827377   -0.9100806  0.072164579    -1.827377   0.91729635   504345 
  257000    1.0004238   -1.8260663   -1.8260663  -0.91056883  0.073746556   -1.8260663   0.91549745   504333 
  258000    1.0022476   -1.8274492   -1.8274492  -0.91026089  0.067046018   -1.8274492   0.91718831   504321 
  259000   0.99980155   -1.8262718   -1.8262718  -0.91130019  0.079958517   -1.8262718   0.91497159   504309 
  260000   0.99979131   -1.8258189   -1.8258189  -0.91083672  0.072142442   -1.8258189   0.91498218   504298 
  261000   0.99809717   -1.8256429   -1.8256429  -0.91218937  0.071854097   -1.8256429   0.91345349   504286 
  262000   0.99783686   -1.8260244   -1.8260244  -0.91278743  0.064346362   -1.8260244   0.91323699   504274 
  263000   0.99940355   -1.8255222   -1.8255222  -0.91082956   0.07608244   -1.8255222   0.91469262   504262 
  264000   0.99710397    -1.823656    -1.823656   -0.9110481  0.072001126    -1.823656   0.91260785   504251 
  265000    1.0000119   -1.8257219   -1.8257219  -0.91043082  0.075130278   -1.8257219   0.91529112   504239 
  266000     1.001354   -1.8269342   -1.8269342  -0.91039287  0.071031423   -1.8269342   0.91654133   504227 
  267000     1.001724   -1.8257799   -1.8257799  -0.90887809  0.080011201   -1.8257799   0.91690185   504215 
  268000    1.0023934   -1.8269454   -1.8269454  -0.90941084  0.076724404   -1.8269454   0.91753455   504204 
  269000     1.002136   -1.8266025   -1.8266025  -0.90928164   0.07477538   -1.8266025   0.91732082   504192 
  270000   0.99970536   -1.8249494   -1.8249494  -0.90983173  0.077369061   -1.8249494   0.91511765   504180 
  271000   0.99877958   -1.8237492   -1.8237492   -0.9094572  0.068833856   -1.8237492   0.91429196   504168 
  272000   0.99881119   -1.8234958   -1.8234958  -0.90915314  0.068741633   -1.8234958   0.91434266   504156 
  273000     1.000935   -1.8246323   -1.8246323   -0.9083254  0.069222496   -1.8246323   0.91630687   504145 
  274000    1.0011791   -1.8252575   -1.8252575  -0.90870539  0.075535732   -1.8252575   0.91655214   504133 
  275000    1.0001941     -1.82451     -1.82451  -0.90883786  0.071364823     -1.82451   0.91567216   504121 
  276000   0.99994206   -1.8250822   -1.8250822  -0.90961891  0.058486677   -1.8250822   0.91546324   504109 
  277000   0.99906414   -1.8235739   -1.8235739  -0.90889444  0.068412064   -1.8235739   0.91467945   504098 
  278000    0.9972677   -1.8214048   -1.8214048  -0.90834832  0.069117852   -1.8214048   0.91305648   504086 
  279000   0.99927261   -1.8231723   -1.8231723  -0.90825844  0.068377607   -1.8231723   0.91491387   504074 
  280000   0.99987182   -1.8247324   -1.8247324   -0.9092481  0.069787467   -1.8247324   0.91548429   504062 
  281000   0.99759009   -1.8235618   -1.8235618   -0.9101467  0.066937973   -1.8235618   0.91341507   504051 
  282000    0.9992108   -1.8256183   -1.8256183  -0.91069749  0.068091294   -1.8256183    0.9149208   504039 
  283000   0.99941322   -1.8251999   -1.8251999  -0.91007192    0.0707293   -1.8251999   0.91512794   504027 
  284000   0.99857971   -1.8247847   -1.8247847  -0.91039816  0.072763911   -1.8247847    0.9143865   504015 
  285000   0.99941892   -1.8239924   -1.8239924  -0.90881748  0.068015871   -1.8239924   0.91517492   504004 
  286000   0.99807638   -1.8227449   -1.8227449  -0.90877762  0.070694609   -1.8227449   0.91396731   503992 
  287000    0.9994145   -1.8244428   -1.8244428  -0.90922834  0.064143137   -1.8244428   0.91521445   503980 
  288000   0.99799501   -1.8243465   -1.8243465  -0.91041017  0.068173698   -1.8243465   0.91393632   503968 
  289000   0.99757615    -1.824908    -1.824908  -0.91133355    0.0636678    -1.824908   0.91357449   503956 
  290000   0.99708391   -1.8235358   -1.8235358  -0.91039217  0.076361495   -1.8235358   0.91314362   503945 
  291000   0.99742681   -1.8242138   -1.8242138  -0.91073442  0.065909384   -1.8242138   0.91347941   503933 
  292000   0.99681518   -1.8234124   -1.8234124  -0.91047136  0.072865878   -1.8234124     0.912941   503921 
  293000   0.99658171   -1.8239642   -1.8239642  -0.91121531  0.069828445   -1.8239642   0.91274891   503909 
  294000   0.99756171    -1.825267    -1.825267  -0.91160062  0.066385438    -1.825267   0.91366641   503898 
  295000   0.99662743   -1.8246618   -1.8246618  -0.91182938  0.070114808   -1.8246618   0.91283245   503886 
  296000   0.99521869    -1.824526    -1.824526  -0.91296214  0.065951483    -1.824526   0.91156386   503874 
  297000   0.99823948   -1.8263311   -1.8263311  -0.91197856  0.070134406   -1.8263311   0.91435251   503862 
  298000   0.99665165   -1.8256008   -1.8256008  -0.91268278  0.075782928   -1.8256008   0.91291804   503851 
  299000   0.99607802   -1.8244605   -1.8244605  -0.91204621  0.075193987   -1.8244605   0.91241433   503839 
  300000    0.9979272   -1.8255193   -1.8255193  -0.91138938  0.062891561   -1.8255193   0.91412997   503827 
  301000   0.99603965   -1.8243347   -1.8243347  -0.91191209   0.07119238   -1.8243347   0.91242266   503815 
  302000   0.99841536    -1.825442    -1.825442  -0.91082308  0.064329777    -1.825442    0.9146189   503804 
  303000   0.99729502   -1.8251919   -1.8251919  -0.91157754   0.07383234   -1.8251919   0.91361435   503792 
  304000   0.99678062   -1.8251947   -1.8251947   -0.9120298  0.062972149   -1.8251947   0.91316485   503780 
  305000   0.99597599   -1.8247192   -1.8247192  -0.91226972  0.057243432   -1.8247192   0.91244946   503768 
  306000   0.99743714   -1.8253302   -1.8253302  -0.91152036  0.066277688   -1.8253302   0.91380983   503756 
  307000   0.99814518   -1.8254347   -1.8254347  -0.91095622  0.078787679   -1.8254347   0.91447849   503745 
  308000   0.99824703   -1.8255949   -1.8255949  -0.91100133  0.069738843   -1.8255949   0.91459358   503733 
  309000   0.99953416   -1.8270176   -1.8270176  -0.91122288  0.068046128   -1.8270176   0.91579467   503721 
  310000   0.99696728   -1.8258073   -1.8258073  -0.91234267  0.072118145   -1.8258073    0.9134646   503709 
  311000   0.99686421   -1.8254978   -1.8254978  -0.91210775  0.068701015   -1.8254978    0.9133901   503698 
  312000   0.99454299   -1.8241326   -1.8241326   -0.9128476  0.068454099   -1.8241326   0.91128497   503686 
  313000   0.99390379   -1.8231287   -1.8231287   -0.9124077  0.067238622   -1.8231287   0.91072097   503674 
  314000   0.99428598   -1.8241971   -1.8241971  -0.91310424  0.072880037   -1.8241971   0.91109289   503662 
  315000   0.99443875   -1.8252011   -1.8252011  -0.91394837  0.074402501   -1.8252011   0.91125277   503651 
  316000   0.99568591   -1.8264023   -1.8264023  -0.91398491  0.070152947   -1.8264023   0.91241735   503639 
  317000   0.99620227   -1.8272414   -1.8272414  -0.91432916  0.068478641   -1.8272414   0.91291228   503627 
  318000   0.99728352   -1.8278662   -1.8278662  -0.91394132   0.06950649   -1.8278662    0.9139249   503615 
  319000   0.99748916   -1.8282034   -1.8282034  -0.91407007  0.067927411   -1.8282034   0.91413332   503604 
  320000   0.99482924   -1.8258544   -1.8258544    -0.914137  0.071826072   -1.8258544   0.91171741   503592 
  321000   0.99575811     -1.82672     -1.82672  -0.91412962    0.0660529     -1.82672   0.91259042   503580 
  322000   0.99512824   -1.8266508   -1.8266508  -0.91461594  0.068255547   -1.8266508   0.91203489   503568 
  323000   0.99773038   -1.8276138   -1.8276138  -0.91317228  0.070438987   -1.8276138   0.91444154   503556 
  324000   0.99685139   -1.8268967   -1.8268967   -0.9132408    0.0753623   -1.8268967   0.91365589   503545 
  325000   0.99711015   -1.8274828   -1.8274828  -0.91356795   0.07044112   -1.8274828   0.91391483   503533 
  326000   0.99724895   -1.8272648   -1.8272648    -0.913201  0.071415528   -1.8272648   0.91406384   503521 
  327000   0.99539228   -1.8261083   -1.8261083  -0.91372449  0.064955176   -1.8261083   0.91238378   503509 
  328000   0.99416925   -1.8248262   -1.8248262  -0.91354359  0.077111248   -1.8248262   0.91128265   503498 
  329000   0.99578006   -1.8278635   -1.8278635  -0.91508259  0.068718046   -1.8278635   0.91278092   503486 
  330000   0.99431385   -1.8265509   -1.8265509  -0.91509224  0.066740864   -1.8265509   0.91145864   503474 
  331000   0.99532374   -1.8254469   -1.8254469  -0.91304073  0.075753616   -1.8254469   0.91240613   503462 
  332000   0.99561337   -1.8264853   -1.8264853  -0.91379375  0.067435944   -1.8264853   0.91269157   503451 
  333000    0.9967311   -1.8271895   -1.8271895  -0.91345155  0.069499756   -1.8271895   0.91373799   503439 
  334000     1.000537   -1.8302497   -1.8302497  -0.91300089  0.071137343   -1.8302497   0.91724881   503427 
  335000   0.99628156   -1.8256967   -1.8256967  -0.91232733  0.073470536   -1.8256967   0.91336941   503415 
  336000    0.9968069   -1.8265485   -1.8265485  -0.91267748  0.068288367   -1.8265485   0.91387101   503404 
  337000    0.9952031   -1.8254822   -1.8254822  -0.91305984  0.070192393   -1.8254822    0.9124224   503392 
  338000   0.99518007   -1.8243756   -1.8243756   -0.9119526  0.064978043   -1.8243756   0.91242303   503380 
  339000   0.99480846   -1.8248121   -1.8248121  -0.91270802  0.072229629   -1.8248121   0.91210407   503368 
  340000    0.9955541   -1.8251488   -1.8251488  -0.91233929  0.071694244   -1.8251488   0.91280948   503356 
  341000   0.99474074   -1.8238792   -1.8238792  -0.91179555  0.067667414   -1.8238792   0.91208365   503345 
  342000   0.99768526   -1.8262046   -1.8262046   -0.9113993  0.074136048   -1.8262046   0.91480531   503333 
  343000   0.99798698   -1.8256058   -1.8256058  -0.91050203  0.075556822   -1.8256058   0.91510379   503321 
  344000   0.99864622   -1.8271584   -1.8271584  -0.91142832  0.073499504   -1.8271584   0.91573011   503309 
  345000   0.99770953   -1.8264451   -1.8264451  -0.91155387  0.063578707   -1.8264451   0.91489119   503298 
  346000   0.99673366   -1.8252351   -1.8252351  -0.91121695  0.065270731   -1.8252351   0.91401812   503286 
  347000   0.99481918   -1.8244997   -1.8244997  -0.91221541  0.075893255   -1.8244997   0.91228425   503274 
  348000   0.99418661   -1.8244752   -1.8244752  -0.91274933  0.066427943   -1.8244752   0.91172591   503262 
  349000   0.99555291   -1.8256615   -1.8256615   -0.9126627  0.071654566   -1.8256615   0.91299884   503251 
  350000   0.99391065   -1.8247265   -1.8247265  -0.91321197  0.064969957   -1.8247265    0.9115145   503239 
  351000   0.99542592   -1.8252141   -1.8252141  -0.91228817  0.070941225   -1.8252141   0.91292592   503227 
  352000   0.99538656   -1.8259675   -1.8259675  -0.91305593  0.063963484   -1.8259675   0.91291159   503215 
  353000   0.99399324   -1.8252947   -1.8252947  -0.91364103  0.070399331   -1.8252947   0.91165365   503204 
  354000   0.99065332    -1.823643    -1.823643  -0.91503089  0.064262683    -1.823643   0.90861207   503192 
  355000   0.99268907   -1.8250022   -1.8250022   -0.9145013  0.064030686   -1.8250022   0.91050093   503180 
  356000   0.99366963   -1.8259114   -1.8259114  -0.91448934  0.067628633   -1.8259114   0.91142205   503168 
  357000   0.99512843    -1.827412    -1.827412   -0.9146301    0.0743759    -1.827412   0.91278186   503156 
  358000   0.99301951   -1.8258715   -1.8258715   -0.9150041  0.068182753   -1.8258715   0.91086737   503145 
  359000   0.99282325    -1.825547    -1.825547  -0.91483794  0.064382283    -1.825547   0.91070907   503133 
  360000   0.99357893   -1.8262598   -1.8262598  -0.91483583  0.067507516   -1.8262598   0.91142398   503121 
  361000   0.99302711   -1.8261576   -1.8261576  -0.91521805  0.069950038   -1.8261576   0.91093952   503109 
  362000   0.99391267   -1.8268252   -1.8268252  -0.91505341  0.066870067   -1.8268252   0.91177182   503098 
  363000     0.993116   -1.8258663   -1.8258663  -0.91480358   0.06915932   -1.8258663   0.91106272   503086 
  364000   0.99255974   -1.8259225   -1.8259225  -0.91534835   0.06927221   -1.8259225   0.91057414   503074 
  365000   0.99346562   -1.8266845   -1.8266845  -0.91525753  0.063712613   -1.8266845   0.91142693   503062 
  366000   0.99482119   -1.8267526   -1.8267526  -0.91406207  0.067199184   -1.8267526   0.91269052   503051 
  367000    0.9955114   -1.8271445   -1.8271445  -0.91379902  0.068860564   -1.8271445   0.91334553   503039 
  368000   0.99609975   -1.8277178   -1.8277178  -0.91381065  0.070933774   -1.8277178   0.91390712   503027 
  369000   0.99582742   -1.8269371   -1.8269371  -0.91325808  0.068694352   -1.8269371   0.91367906   503015 
  370000   0.99500223   -1.8264206   -1.8264206   -0.9134787  0.069212694   -1.8264206   0.91294191   503004 
  371000   0.99374278   -1.8252157   -1.8252157  -0.91340767  0.068567836   -1.8252157   0.91180808   502992 
  372000   0.99375661    -1.825124    -1.825124  -0.91328148   0.06984617    -1.825124   0.91184252   502980 
  373000   0.99393828   -1.8259697   -1.8259697  -0.91393872  0.064715662   -1.8259697   0.91203098   502968 
  374000   0.99437521   -1.8261142   -1.8261142  -0.91366058  0.073648403   -1.8261142   0.91245367   502956 
  375000   0.99437719   -1.8266534   -1.8266534  -0.91417796  0.067026662   -1.8266534   0.91247544   502945 
  376000   0.99539508   -1.8274068   -1.8274068  -0.91397549  0.068688558   -1.8274068   0.91343129   502933 
  377000   0.99562921   -1.8281019   -1.8281019  -0.91443398  0.071730547   -1.8281019   0.91366794   502921 
  378000    0.9955653     -1.82846     -1.82846  -0.91482891  0.070005363     -1.82846   0.91363109   502909 
  379000   0.99451132   -1.8261382   -1.8261382   -0.9134544   0.06742742   -1.8261382   0.91268382   502898 
  380000   0.99539268   -1.8258447   -1.8258447  -0.91233022  0.071570642   -1.8258447   0.91351446   502886 
  381000   0.99374541   -1.8253523   -1.8253523  -0.91332782  0.072225096   -1.8253523   0.91202444   502874 
  382000   0.99419058   -1.8264002   -1.8264002  -0.91394537  0.063810435   -1.8264002   0.91245479   502862 
  383000   0.99405771   -1.8270775   -1.8270775  -0.91472469  0.066574449   -1.8270775   0.91235279   502851 
  384000   0.99230988   -1.8251677   -1.8251677  -0.91439735  0.068281268   -1.8251677   0.91077036   502839 
  385000   0.99392941   -1.8262355   -1.8262355  -0.91395696  0.059455473   -1.8262355   0.91227858   502827 
  386000   0.99180668   -1.8262684   -1.8262684  -0.91591645  0.069163466   -1.8262684   0.91035196   502815 
  387000   0.99175639   -1.8244646   -1.8244646  -0.91413885   0.07436882   -1.8244646   0.91032571   502804 
  388000   0.99279814   -1.8243571   -1.8243571  -0.91305346  0.066832007   -1.8243571   0.91130368   502792 
  389000   0.99212193   -1.8247192   -1.8247192  -0.91401446  0.067096673   -1.8247192   0.91070471   502780 
  390000   0.99210159   -1.8255649   -1.8255649  -0.91485716  0.065383845   -1.8255649   0.91070777   502768 
  391000   0.99119637   -1.8239576   -1.8239576  -0.91405907  0.066279874   -1.8239576   0.90989853   502756 
  392000    0.9914555   -1.8238217   -1.8238217  -0.91366534  0.068826995   -1.8238217   0.91015632   502745 
  393000   0.99275908    -1.824427    -1.824427  -0.91305228  0.070082891    -1.824427   0.91137476   502733 
  394000    0.9934582   -1.8258499   -1.8258499  -0.91381153  0.067366977   -1.8258499   0.91203835   502721 
  395000   0.99364872   -1.8245178   -1.8245178  -0.91228277  0.063361327   -1.8245178   0.91223503   502709 
  396000   0.99355841   -1.8250216   -1.8250216  -0.91284952  0.061921106   -1.8250216   0.91217207   502698 
  397000   0.99315799   -1.8245837   -1.8245837   -0.9127575  0.065685315   -1.8245837   0.91182622   502686 
  398000   0.99300432   -1.8236281   -1.8236281  -0.91192119  0.074420552   -1.8236281    0.9117069   502674 
  399000   0.99480842   -1.8249259   -1.8249259  -0.91154084  0.063210471   -1.8249259    0.9133851   502662 
  400000   0.99300333   -1.8219978   -1.8219978  -0.91025013  0.067500907   -1.8219978   0.91174771   502651 
  401000   0.99378701    -1.824056    -1.824056  -0.91156696  0.067622117    -1.824056   0.91248904   502639 
  402000   0.99293374   -1.8245759   -1.8245759  -0.91284855  0.067677952   -1.8245759   0.91172735   502627 
  403000   0.99328024    -1.823942    -1.823942  -0.91187471  0.067051261    -1.823942   0.91206728   502615 
  404000   0.99177544   -1.8230645   -1.8230645  -0.91235903   0.07573651   -1.8230645   0.91070545   502604 
  405000   0.99122967   -1.8224094   -1.8224094  -0.91218341  0.067788096   -1.8224094   0.91022603   502592 
  406000   0.99343176   -1.8232991   -1.8232991  -0.91102917  0.072290139   -1.8232991   0.91226994   502580 
  407000   0.99357634   -1.8225907   -1.8225907   -0.9101662  0.073024846   -1.8225907   0.91242449   502568 
  408000   0.99323897    -1.823921    -1.823921  -0.91178453  0.067191665    -1.823921   0.91213646   502556 
  409000   0.99196635   -1.8233769   -1.8233769  -0.91238922  0.067979046   -1.8233769   0.91098769   502545 
  410000   0.99092205   -1.8210586   -1.8210586  -0.91100823  0.067056701   -1.8210586   0.91005037   502533 
  411000   0.99112372   -1.8224936   -1.8224936  -0.91223625  0.067779446   -1.8224936   0.91025732   502521 
  412000   0.99256351   -1.8230229   -1.8230229  -0.91142147  0.063013754   -1.8230229   0.91160141   502509 
  413000   0.99425048   -1.8246552   -1.8246552   -0.9114844  0.064065273   -1.8246552   0.91317076   502498 
  414000   0.98990248   -1.8210364   -1.8210364   -0.9118374  0.071790829   -1.8210364   0.90919904   502486 
  415000   0.99115156    -1.822393    -1.822393  -0.91202497  0.062848426    -1.822393   0.91036804   502474 
  416000   0.99022244   -1.8215068   -1.8215068  -0.91197043  0.060802266   -1.8215068   0.90953636   502462 
  417000   0.98981306   -1.8209855   -1.8209855  -0.91180521  0.067643853   -1.8209855   0.90918024   502451 
  418000   0.99124215   -1.8226995   -1.8226995  -0.91218482  0.065953935   -1.8226995   0.91051466   502439 
  419000   0.99060948   -1.8226906   -1.8226906  -0.91273539  0.060093287   -1.8226906   0.90995525   502427 
  420000    0.9917836   -1.8232769   -1.8232769  -0.91222138  0.067418336   -1.8232769   0.91105554   502415 
  421000   0.99176416   -1.8225115   -1.8225115  -0.91145392  0.062895954   -1.8225115   0.91105763   502404 
  422000   0.98953625   -1.8203904   -1.8203904  -0.91135765  0.068557029   -1.8203904   0.90903273   502392 
  423000   0.99012414   -1.8214464   -1.8214464  -0.91185189  0.070321511   -1.8214464   0.90959452   502380 
  424000   0.98893061   -1.8201299   -1.8201299  -0.91161017  0.067552258   -1.8201299   0.90851976   502368 
  425000   0.99092722   -1.8226904   -1.8226904  -0.91231467  0.068956514   -1.8226904   0.91037577   502356 
  426000   0.99094725    -1.821665    -1.821665  -0.91125091  0.067075032    -1.821665   0.91041411   502345 
  427000   0.99105937   -1.8213217   -1.8213217  -0.91078286  0.061678256   -1.8213217   0.91053887   502333 
  428000   0.99218291   -1.8223673   -1.8223673  -0.91077439  0.069459627   -1.8223673    0.9115929   502321 
  429000   0.99146201   -1.8211368   -1.8211368  -0.91018452  0.071832876   -1.8211368   0.91095231   502309 
  430000   0.99224739   -1.8217573   -1.8217573  -0.91006343  0.071143951   -1.8217573   0.91169388   502298 
  431000   0.99249592    -1.821439    -1.821439  -0.90949493  0.071504228    -1.821439   0.91194403   502286 
  432000   0.99149834   -1.8215991   -1.8215991  -0.91054995  0.067151493   -1.8215991   0.91104917   502274 
  433000   0.99260115   -1.8218495   -1.8218495  -0.90976522  0.073977309   -1.8218495   0.91208429   502262 
  434000   0.99208828   -1.8217677   -1.8217677  -0.91013467  0.068854986   -1.8217677     0.911633   502251 
  435000   0.99178767   -1.8213698   -1.8213698  -0.90999124  0.068032641   -1.8213698   0.91137854   502239 
  436000   0.98972472   -1.8185818   -1.8185818   -0.9090772  0.069244841   -1.8185818   0.90950457   502227 
  437000   0.99099128   -1.8196013   -1.8196013  -0.90891104  0.073994823   -1.8196013   0.91069024   502215 
  438000   0.99063858   -1.8197013   -1.8197013  -0.90931521  0.062669795   -1.8197013   0.91038605   502204 
  439000   0.98758773   -1.8180936   -1.8180936  -0.91048952  0.064738235   -1.8180936   0.90760404   502192 
  440000   0.99035608    -1.820313    -1.820313  -0.91014309  0.063907377    -1.820313   0.91016993   502180 
  441000   0.98950053   -1.8187873   -1.8187873  -0.90938187  0.069296579   -1.8187873   0.90940539   502168 
  442000   0.99075386   -1.8207194   -1.8207194  -0.91014038  0.059532969   -1.8207194   0.91057903   502156 
  443000   0.99153728   -1.8201257   -1.8201257  -0.90880664   0.06927399   -1.8201257   0.91131902   502145 
  444000   0.98958413   -1.8189306   -1.8189306  -0.90938498   0.06548168   -1.8189306   0.90954561   502133 
  445000   0.98916993   -1.8182424   -1.8182424  -0.90905575  0.068194476   -1.8182424   0.90918665   502121 
  446000   0.98974575   -1.8187494   -1.8187494  -0.90901175  0.071001805   -1.8187494   0.90973764   502109 
  447000   0.99217645   -1.8195593   -1.8195593  -0.90756747  0.064092399   -1.8195593   0.91199184   502098 
  448000   0.99181341   -1.8193314   -1.8193314  -0.90765146  0.065830842   -1.8193314   0.91167992   502086 
  449000   0.99225802   -1.8191655   -1.8191655  -0.90705511  0.072775808   -1.8191655   0.91211041   502074 
  450000   0.99018135   -1.8174609   -1.8174609  -0.90723771  0.071099411   -1.8174609   0.91022323   502062 
  451000   0.98982892   -1.8171568   -1.8171568  -0.90723756  0.068816092   -1.8171568    0.9099192   502051 
  452000   0.98812946   -1.8161795   -1.8161795  -0.90780089  0.067008955   -1.8161795   0.90837865   502039 
  453000   0.99066207   -1.8188631   -1.8188631  -0.90813445  0.062804791   -1.8188631   0.91072862   502027 
  454000   0.99039218   -1.8190009   -1.8190009  -0.90849859  0.068091993   -1.8190009   0.91050227   502015 
  455000   0.99139885    -1.819456    -1.819456  -0.90800831  0.067371052    -1.819456   0.91144771   502004 
  456000   0.99244603   -1.8207417   -1.8207417  -0.90830944  0.062058349   -1.8207417   0.91243225   501992 
  457000   0.99357398    -1.821312    -1.821312  -0.90782087  0.065378594    -1.821312    0.9134911   501980 
  458000     0.991943   -1.8191303   -1.8191303  -0.90711696  0.065824392   -1.8191303   0.91201338   501968 
  459000   0.99075586   -1.8187723   -1.8187723  -0.90782865  0.061748697   -1.8187723   0.91094368   501956 
  460000    0.9938178   -1.8215794   -1.8215794  -0.90780045  0.064276265   -1.8215794   0.91377898   501945 
  461000   0.98752779   -1.8169784   -1.8169784  -0.90896116  0.074295151   -1.8169784   0.90801725   501933 
  462000   0.98892077   -1.8181936   -1.8181936  -0.90887379  0.064174325   -1.8181936   0.90931982   501921 
  463000    0.9893947   -1.8190623   -1.8190623  -0.90928492  0.071974998   -1.8190623   0.90977735   501909 
  464000   0.98935982   -1.8188495   -1.8188495  -0.90908428  0.069546081   -1.8188495   0.90976522   501898 
  465000   0.99103077   -1.8215202   -1.8215202  -0.91019671  0.062897553   -1.8215202   0.91132353   501886 
  466000   0.98964277   -1.8208294   -1.8208294  -0.91076045  0.065729517   -1.8208294   0.91006892   501874 
  467000   0.98971054   -1.8210657   -1.8210657  -0.91091266   0.06659759   -1.8210657   0.91015301   501862 
  468000    0.9876905     -1.81834     -1.81834  -0.91002478  0.073300838     -1.81834   0.90831526   501851 
  469000   0.98968245   -1.8195746   -1.8195746  -0.90940574  0.074007508   -1.8195746   0.91016889   501839 
  470000   0.99067365   -1.8205467   -1.8205467  -0.90944445  0.066074517   -1.8205467   0.91110224   501827 
  471000   0.98924879   -1.8184662   -1.8184662  -0.90865263  0.062792054   -1.8184662   0.90981358   501815 
  472000   0.99011289   -1.8192119   -1.8192119  -0.90858368  0.074103653   -1.8192119   0.91062826   501804 
  473000   0.98848626   -1.8178655   -1.8178655   -0.9087115  0.068820337   -1.8178655   0.90915395   501792 
  474000   0.99015855   -1.8195632   -1.8195632  -0.90884936  0.067116431   -1.8195632   0.91071381   501780 
  475000   0.98801113   -1.8186575   -1.8186575  -0.90989712  0.065723323   -1.8186575   0.90876042   501768 
  476000   0.98871517   -1.8192886   -1.8192886  -0.90985882  0.076125509   -1.8192886   0.90942973   501756 
  477000   0.98841938   -1.8190198   -1.8190198  -0.90984224  0.067241828   -1.8190198    0.9091776   501745 
  478000   0.99044189   -1.8216927   -1.8216927  -0.91063296  0.075415868   -1.8216927   0.91105975   501733 
  479000   0.99064972    -1.820509    -1.820509  -0.90923626  0.067881196    -1.820509   0.91127271   501721 
  480000    0.9901469   -1.8212935   -1.8212935  -0.91046153  0.074005402   -1.8212935   0.91083197   501709 
  481000   0.98985093   -1.8200736   -1.8200736  -0.90949396  0.067066706   -1.8200736   0.91057968   501698 
  482000   0.98844788   -1.8195222   -1.8195222  -0.91021142   0.07128419   -1.8195222   0.90931074   501686 
  483000   0.98900766   -1.8198168   -1.8198168  -0.90996931  0.067048841   -1.8198168   0.90984746   501674 
  484000    0.9892999   -1.8207526   -1.8207526  -0.91061452  0.072589652   -1.8207526   0.91013808   501662 
  485000   0.98905272   -1.8208439   -1.8208439  -0.91091324  0.069355127   -1.8208439   0.90993064   501651 
  486000   0.98980636    -1.821552    -1.821552  -0.91090627  0.070378713    -1.821552   0.91064576   501639 
  487000   0.99089465   -1.8223602   -1.8223602  -0.91069137  0.064658808   -1.8223602   0.91166883   501627 
  488000   0.98933491   -1.8202159   -1.8202159   -0.9099603  0.070189437   -1.8202159   0.91025557   501615 
  489000   0.99114497   -1.8216631   -1.8216631  -0.90972214  0.071205326   -1.8216631   0.91194095   501604 
  490000   0.99084167   -1.8232082   -1.8232082  -0.91152448   0.05866785   -1.8232082    0.9116837   501592 
  491000   0.98940695   -1.8216676   -1.8216676  -0.91128221  0.072157011   -1.8216676   0.91038537   501580 
  492000   0.99005766    -1.822219    -1.822219  -0.91121312  0.065435325    -1.822219   0.91100591   501568 
  493000   0.98987302   -1.8216437   -1.8216437  -0.91078591  0.066097459   -1.8216437   0.91085781   501556 
  494000   0.98965088   -1.8224295   -1.8224295  -0.91175608  0.069838789   -1.8224295   0.91067337   501545 
  495000   0.98745682   -1.8196365   -1.8196365  -0.91096033  0.067046258   -1.8196365   0.90867614   501533 
  496000   0.98810578   -1.8214024   -1.8214024  -0.91210732  0.069516964   -1.8214024   0.90929508   501521 
  497000   0.98592372   -1.8190191   -1.8190191  -0.91171035  0.067537645   -1.8190191   0.90730877   501509 
  498000   0.98602178   -1.8195069   -1.8195069  -0.91208798  0.064979822   -1.8195069   0.90741891   501498 
  499000   0.98659399   -1.8202392   -1.8202392  -0.91227198  0.064154574   -1.8202392   0.90796724   501486 
  500000   0.98786193   -1.8206969   -1.8206969  -0.91154101  0.069040801   -1.8206969   0.90915588   501474 
  501000    0.9871728   -1.8210271   -1.8210271  -0.91248368  0.062090963   -1.8210271    0.9085434   501462 
  502000    0.9856684   -1.8202481   -1.8202481  -0.91306933  0.060421344   -1.8202481   0.90717873   501451 
  503000   0.98896264   -1.8221552   -1.8221552  -0.91192282  0.069806164   -1.8221552   0.91023243   501439 
  504000   0.98739371   -1.8214719   -1.8214719  -0.91266176  0.067749125   -1.8214719   0.90881015   501427 
  505000   0.98755396   -1.8218479   -1.8218479  -0.91286847   0.06700294   -1.8218479    0.9089794   501415 
  506000   0.98678652   -1.8212123   -1.8212123  -0.91291932  0.061547282   -1.8212123   0.90829294   501404 
  507000   0.98765225   -1.8213549   -1.8213549  -0.91224334   0.06544643   -1.8213549   0.90911157   501392 
  508000   0.98707579   -1.8202527   -1.8202527  -0.91164997  0.066631074   -1.8202527   0.90860269   501380 
  509000   0.98620254    -1.819165    -1.819165  -0.91134438  0.068543013    -1.819165   0.90782059   501368 
  510000    0.9877524   -1.8204463   -1.8204463  -0.91117722  0.062659348   -1.8204463   0.90926904   501356 
  511000   0.98682568   -1.8193726   -1.8193726  -0.91093669  0.060787617   -1.8193726   0.90843588   501345 
  512000   0.98626962   -1.8197058   -1.8197058  -0.91176007  0.061908947   -1.8197058   0.90794573   501333 
  513000   0.98673838   -1.8196934   -1.8196934  -0.91129439   0.06169365   -1.8196934     0.908399   501321 
  514000   0.98586398   -1.8185525   -1.8185525  -0.91093678  0.065946821   -1.8185525   0.90761575   501309 
  515000   0.98665245   -1.8189877   -1.8189877  -0.91062609  0.072276357   -1.8189877   0.90836157   501298 
  516000   0.98726221     -1.82043     -1.82043  -0.91148528  0.068059811     -1.82043    0.9089447   501286 
  517000   0.98594612    -1.818852    -1.818852  -0.91109723  0.072378681    -1.818852   0.90775475   501274 
  518000   0.98671355   -1.8197548   -1.8197548  -0.91127173  0.066108807   -1.8197548   0.90848307   501262 
  519000   0.98600818   -1.8189899   -1.8189899  -0.91113638  0.066952407   -1.8189899   0.90785354   501251 
  520000   0.98475441   -1.8184217   -1.8184217  -0.91170087  0.072561496   -1.8184217   0.90672086   501239 
  521000   0.98794275   -1.8196481   -1.8196481  -0.90996978  0.067782792   -1.8196481   0.90967833   501227 
  522000   0.98563972   -1.8183591   -1.8183591   -0.9107796  0.064204832   -1.8183591   0.90757947   501215 
  523000   0.98713967   -1.8207575   -1.8207575  -0.91177695  0.072690545   -1.8207575   0.90898058   501204 
  524000   0.98722167   -1.8205537   -1.8205537  -0.91147583  0.068412331   -1.8205537   0.90907785   501192 
  525000   0.98579097   -1.8194463   -1.8194463  -0.91166414  0.064628164   -1.8194463   0.90778214   501180 
  526000    0.9863989   -1.8204324   -1.8204324   -0.9120687   0.07251598   -1.8204324    0.9083637   501168 
  527000   0.98706462   -1.8208352   -1.8208352  -0.91183669  0.070361358   -1.8208352   0.90899852   501156 
  528000   0.98625799   -1.8210214   -1.8210214  -0.91274576  0.064923165   -1.8210214   0.90827563   501145 
  529000   0.98656272   -1.8207258   -1.8207258  -0.91214783  0.066444171   -1.8207258   0.90857801   501133 
  530000    0.9837511   -1.8185777   -1.8185777  -0.91256738  0.070648159   -1.8185777   0.90601034   501121 
  531000   0.98580167   -1.8205339   -1.8205339  -0.91261328  0.069040899   -1.8205339   0.90792061   501109 
  532000   0.98654128   -1.8212661   -1.8212661  -0.91264434  0.068126117   -1.8212661   0.90862173   501098 
  533000   0.98513837   -1.8206257   -1.8206257  -0.91327434  0.065073426   -1.8206257   0.90735135   501086 
  534000   0.98568174   -1.8202934   -1.8202934  -0.91241984  0.056915501   -1.8202934   0.90787356   501074 
  535000   0.98323427   -1.8177385   -1.8177385  -0.91209753  0.062538498   -1.8177385   0.90564098   501062 
  536000   0.98183081   -1.8174171   -1.8174171  -0.91304893  0.069514656   -1.8174171   0.90436813   501051 
  537000   0.98423915   -1.8182504   -1.8182504  -0.91164221   0.06080449   -1.8182504   0.90660818   501039 
  538000   0.98436702   -1.8186426   -1.8186426   -0.9118949  0.059384909   -1.8186426   0.90674767   501027 
  539000   0.98282456   -1.8176047   -1.8176047   -0.9122562  0.061278648   -1.8176047   0.90534853   501015 
  540000   0.98569099   -1.8201298   -1.8201298  -0.91212085   0.05643282   -1.8201298   0.90800893   501004 
  541000   0.98531753   -1.8192676   -1.8192676  -0.91158094  0.066105586   -1.8192676   0.90768665   500992 
  542000   0.98390347   -1.8170078   -1.8170078   -0.9106021  0.062103615   -1.8170078   0.90640571   500980 
  543000   0.98327395   -1.8175261   -1.8175261  -0.91167868  0.060940206   -1.8175261   0.90584746   500968 
  544000   0.98379733   -1.8179281   -1.8179281  -0.91157672  0.068554992   -1.8179281   0.90635135   500956 
  545000   0.98404722   -1.8179541   -1.8179541  -0.91135266  0.069846048   -1.8179541   0.90660147   500945 
  546000   0.98577936   -1.8189716   -1.8189716   -0.9107526  0.068971285   -1.8189716   0.90821904   500933 
  547000   0.98497812   -1.8190178   -1.8190178  -0.91151517  0.067258896   -1.8190178   0.90750259   500921 
  548000   0.98611439    -1.819672    -1.819672  -0.91110072  0.062667907    -1.819672   0.90857124   500909 
  549000   0.98397156   -1.8177772   -1.8177772  -0.91116033   0.06914031   -1.8177772   0.90661682   500898 
  550000   0.98583373   -1.8189053   -1.8189053  -0.91055095   0.06747667   -1.8189053   0.90835436   500886 
  551000   0.98485831    -1.818596    -1.818596  -0.91111864  0.065377059    -1.818596   0.90747735   500874 
  552000   0.98478152   -1.8185189   -1.8185189  -0.91109058  0.068670191   -1.8185189   0.90742833   500862 
  553000   0.98426437   -1.8195072   -1.8195072  -0.91253552  0.070308752   -1.8195072   0.90697172   500851 
  554000    0.9838554   -1.8197779   -1.8197779  -0.91316129  0.068525429   -1.8197779   0.90661659   500839 
  555000   0.98432929    -1.820556    -1.820556  -0.91348104  0.065717294    -1.820556     0.907075   500827 
  556000   0.98547069   -1.8198962   -1.8198962  -0.91174764  0.065302146   -1.8198962   0.90814859   500815 
  557000   0.98467488   -1.8203585   -1.8203585  -0.91292335  0.064149819   -1.8203585   0.90743514   500804 
  558000   0.98332401   -1.8197092   -1.8197092  -0.91349729  0.061006755   -1.8197092   0.90621195   500792 
  559000   0.98334875   -1.8200254   -1.8200254  -0.91376893  0.067543541   -1.8200254   0.90625647   500780 
  560000   0.98346401   -1.8202677   -1.8202677   -0.9138833  0.066993251   -1.8202677   0.90638441   500768 
  561000   0.98395251   -1.8212838   -1.8212838  -0.91442743  0.058895834   -1.8212838   0.90685636   500756 
  562000   0.98606736   -1.8225833   -1.8225833  -0.91375779  0.072735591   -1.8225833   0.90882547   500745 
  563000   0.98320299   -1.8209597   -1.8209597  -0.91475255  0.073385335   -1.8209597   0.90620719   500733 
  564000   0.98500239   -1.8226415   -1.8226415  -0.91475408  0.065366227   -1.8226415   0.90788744   500721 
  565000   0.98325043   -1.8220298   -1.8220298  -0.91573547  0.067345637   -1.8220298   0.90629435   500709 
  566000   0.98228095   -1.8215638   -1.8215638  -0.91614313  0.061064457   -1.8215638   0.90542064   500698 
  567000   0.98264338   -1.8214202   -1.8214202   -0.9156438   0.06675813   -1.8214202   0.90577642   500686 
  568000   0.98285094    -1.821349    -1.821349   -0.9153595  0.064314462    -1.821349   0.90598946   500674 
  569000   0.98200179   -1.8205176   -1.8205176  -0.91528923  0.071600345   -1.8205176   0.90522841   500662 
  570000   0.98175523   -1.8206851   -1.8206851  -0.91566405  0.066019556   -1.8206851   0.90502101   500651 
  571000   0.98231953   -1.8221574   -1.8221574  -0.91659444  0.065288859   -1.8221574   0.90556291   500639 
  572000   0.98263576    -1.822277    -1.822277  -0.91640084  0.068899127    -1.822277   0.90587615   500627 
  573000   0.98341685   -1.8219794   -1.8219794  -0.91536141  0.067715473   -1.8219794   0.90661795   500615 
  574000   0.97956957   -1.8199177   -1.8199177  -0.91682669  0.065123711   -1.8199177   0.90309097   500604 
  575000   0.98085858   -1.8220557   -1.8220557   -0.9177547  0.067654416   -1.8220557   0.90430101   500592 
  576000   0.98301345   -1.8239648   -1.8239648  -0.91765537   0.06166889   -1.8239648   0.90630941   500580 
  577000   0.98237842    -1.823038    -1.823038  -0.91729238  0.064510404    -1.823038   0.90574565   500568 
  578000   0.98241378   -1.8230909   -1.8230909  -0.91729092  0.060425274   -1.8230909   0.90579997   500556 
  579000   0.98089744   -1.8217503   -1.8217503  -0.91732857  0.063357045   -1.8217503   0.90442175   500545 
  580000   0.98074807   -1.8215108   -1.8215108  -0.91720506  0.065189112   -1.8215108   0.90430571   500533 
  581000   0.98193442   -1.8223416   -1.8223416  -0.91692027  0.065299419   -1.8223416    0.9054213   500521 
  582000   0.98100981   -1.8210502   -1.8210502  -0.91645978  0.066771694   -1.8210502   0.90459042   500509 
  583000   0.98176293   -1.8208343   -1.8208343  -0.91552953  0.056962897   -1.8208343   0.90530477   500498 
  584000   0.98046332   -1.8202391   -1.8202391  -0.91611108  0.061434442   -1.8202391   0.90412805   500486 
  585000   0.98133287    -1.821255    -1.821255  -0.91630344   0.06980313    -1.821255    0.9049516   500474 
  586000   0.98150018   -1.8202875   -1.8202875  -0.91515987  0.062282023   -1.8202875   0.90512759   500462 
  587000   0.98238829   -1.8220616   -1.8220616  -0.91609507  0.062075687   -1.8220616    0.9059665   500451 
  588000   0.98092666   -1.8216261   -1.8216261  -0.91698584  0.065833658   -1.8216261   0.90464027   500439 
  589000   0.98183199    -1.822579    -1.822579  -0.91708213  0.062303202    -1.822579    0.9054969   500427 
  590000   0.98264449   -1.8225091   -1.8225091  -0.91624117  0.064707058   -1.8225091   0.90626797   500415 
  591000   0.98095792   -1.8203017   -1.8203017  -0.91556937  0.073680192   -1.8203017   0.90473238   500404 
  592000   0.98105363   -1.8213078   -1.8213078  -0.91646542  0.069058283   -1.8213078   0.90484234   500392 
  593000   0.98001689   -1.8208432   -1.8208432  -0.91693541  0.067189751   -1.8208432   0.90390782   500380 
  594000   0.97950448   -1.8198255   -1.8198255  -0.91636867  0.068781792   -1.8198255   0.90345687   500368 
  595000   0.97912287   -1.8190277   -1.8190277  -0.91590119  0.059548423   -1.8190277   0.90312655   500356 
  596000   0.98099404   -1.8192472   -1.8192472  -0.91437478  0.056104469   -1.8192472   0.90487237   500345 
  597000   0.98250458   -1.8206546   -1.8206546  -0.91436714  0.063309475   -1.8206546   0.90628744   500333 
  598000   0.98340045   -1.8215587   -1.8215587  -0.91442317  0.059396024   -1.8215587   0.90713557   500321 
  599000   0.98156365   -1.8178358   -1.8178358  -0.91237291   0.07214108   -1.8178358   0.90546293   500309 
  600000   0.98423306   -1.8196796   -1.8196796  -0.91173429  0.067748059   -1.8196796   0.90794535   500298 
  601000   0.98375067   -1.8197341   -1.8197341  -0.91221195  0.061535517   -1.8197341   0.90752212   500286 
  602000    0.9841168   -1.8202269   -1.8202269  -0.91234525  0.065359252   -1.8202269   0.90788165   500274 
  603000   0.98102534   -1.8174407   -1.8174407  -0.91238929  0.065656039   -1.8174407   0.90505138   500262 
  604000   0.98128394   -1.8180164   -1.8180164  -0.91270657   0.06087339   -1.8180164   0.90530986   500251 
  605000   0.98021779     -1.81855     -1.81855  -0.91420202  0.063559663     -1.81855   0.90434795   500239 
  606000   0.98128926   -1.8189812   -1.8189812  -0.91362297  0.071447498   -1.8189812   0.90535821   500227 
  607000   0.98078375   -1.8175801   -1.8175801  -0.91266658  0.064438267   -1.8175801   0.90491352   500215 
  608000   0.98087541   -1.8188026   -1.8188026  -0.91378465  0.064952212   -1.8188026   0.90501799   500204 
  609000   0.98042386    -1.818769    -1.818769  -0.91414589  0.065540357    -1.818769   0.90462307   500192 
  610000   0.98236807   -1.8211634   -1.8211634  -0.91472468  0.071851402   -1.8211634    0.9064387   500180 
  611000   0.98060299   -1.8205832   -1.8205832  -0.91575145  0.064830962   -1.8205832   0.90483176   500168 
  612000   0.98201323   -1.8219041   -1.8219041  -0.91574931  0.065779492   -1.8219041   0.90615477   500156 
  613000      0.98076   -1.8220325   -1.8220325  -0.91701428  0.066547317   -1.8220325   0.90501825   500145 
  614000   0.98156078   -1.8222971   -1.8222971  -0.91651814  0.069271915   -1.8222971   0.90577892   500133 
  615000   0.98033514   -1.8215926   -1.8215926  -0.91692303  0.069450837   -1.8215926   0.90466961   500121 
  616000   0.97910278   -1.8195489   -1.8195489  -0.91599488  0.063200541   -1.8195489   0.90355406   500109 
  617000   0.98066486   -1.8208424   -1.8208424  -0.91582692  0.066616308   -1.8208424   0.90501551   500098 
  618000   0.97948215   -1.8193359   -1.8193359  -0.91539018  0.064434354   -1.8193359   0.90394573   500086 
  619000   0.98005631   -1.8202657   -1.8202657  -0.91576843  0.065685828   -1.8202657   0.90449731   500074 
  620000   0.97951273   -1.8197576   -1.8197576  -0.91574028  0.063536638   -1.8197576   0.90401733   500062 
  621000   0.97761655   -1.8183956   -1.8183956  -0.91610845  0.065355069   -1.8183956   0.90228715   500051 
  622000   0.97912377   -1.8189304   -1.8189304  -0.91523047  0.070157942   -1.8189304   0.90369992   500039 
  623000   0.98092583   -1.8198287   -1.8198287  -0.91444379   0.06845815   -1.8198287   0.90538489   500027 
  624000   0.97905051   -1.8185653   -1.8185653  -0.91488967  0.060948816   -1.8185653   0.90367567   500015 
  625000   0.97993168   -1.8202027   -1.8202027  -0.91569383  0.070353937   -1.8202027    0.9045089   500004 
  626000   0.98092302   -1.8203339   -1.8203339  -0.91488827  0.063831014   -1.8203339   0.90544568   499992 
  627000   0.98014228   -1.8203967   -1.8203967  -0.91564995  0.072779345   -1.8203967   0.90474672   499980 
  628000   0.97774408   -1.8188844   -1.8188844  -0.91632976   0.06371069   -1.8188844   0.90255466   499968 
  629000   0.97775287   -1.8183242   -1.8183242  -0.91573972  0.069218841   -1.8183242   0.90258444   499956 
  630000   0.97884105   -1.8200442   -1.8200442  -0.91643538  0.068817317   -1.8200442   0.90360884   499945 
  631000   0.98028553   -1.8218636   -1.8218636  -0.91689961  0.057661572   -1.8218636   0.90496402   499933 
  632000   0.98041246   -1.8216922   -1.8216922  -0.91658929  0.061574423   -1.8216922   0.90510292   499921 
  633000   0.98140381   -1.8221568   -1.8221568   -0.9161169  0.066981054   -1.8221568   0.90603987   499909 
  634000   0.97941082   -1.8209323   -1.8209323  -0.91671246  0.062668469   -1.8209323   0.90421982   499898 
  635000   0.98031309    -1.820732    -1.820732  -0.91565748  0.073113831    -1.820732   0.90507456   499886 
  636000   0.97911849   -1.8208678   -1.8208678  -0.91687444  0.071232063   -1.8208678   0.90399334   499874 
  637000   0.98043152   -1.8218073   -1.8218073  -0.91657999  0.069940871   -1.8218073   0.90522735   499862 
  638000   0.98221278   -1.8229565   -1.8229565  -0.91606451  0.069625565   -1.8229565   0.90689194   499851 
  639000   0.98071485   -1.8212152   -1.8212152  -0.91568463  0.067134368   -1.8212152   0.90553062   499839 
  640000    0.9794041   -1.8206534   -1.8206534  -0.91631132  0.071662522   -1.8206534   0.90434207   499827 
  641000   0.98134352   -1.8220127   -1.8220127  -0.91585808  0.065530757   -1.8220127    0.9061546   499815 
  642000   0.98211076   -1.8224497   -1.8224497  -0.91556668  0.067634278   -1.8224497   0.90688302   499804 
  643000   0.98237218   -1.8225242   -1.8225242    -0.915378  0.064495536   -1.8225242   0.90714619   499792 
  644000   0.98054312   -1.8222598   -1.8222598   -0.9167809  0.067871749   -1.8222598   0.90547893   499780 
  645000   0.98112058   -1.8231466   -1.8231466  -0.91711267  0.062168159   -1.8231466   0.90603394   499768 
  646000   0.98159268   -1.8234379   -1.8234379  -0.91694622  0.075777244   -1.8234379   0.90649168   499756 
  647000   0.98161734   -1.8218035   -1.8218035  -0.91526907  0.069073378   -1.8218035   0.90653441   499745 
  648000   0.98131343   -1.8227053   -1.8227053  -0.91642982  0.065252113   -1.8227053    0.9062755   499733 
  649000   0.98067666   -1.8230982   -1.8230982  -0.91738902  0.067753499   -1.8230982   0.90570917   499721 
  650000   0.98034614   -1.8221074   -1.8221074  -0.91668171  0.066963968   -1.8221074   0.90542566   499709 
  651000   0.98180856   -1.8224516   -1.8224516  -0.91565537  0.061509262   -1.8224516   0.90679627   499698 
  652000   0.98143113    -1.822039    -1.822039  -0.91556959  0.068652666    -1.822039   0.90646946   499686 
  653000   0.98015088   -1.8204618   -1.8204618  -0.91515305  0.067659408   -1.8204618   0.90530873   499674 
  654000   0.97963702   -1.8208288   -1.8208288  -0.91597292  0.067443018   -1.8208288   0.90485584   499662 
  655000   0.97865045   -1.8193243   -1.8193243  -0.91535978  0.069656646   -1.8193243   0.90396448   499651 
  656000   0.97924391   -1.8195773   -1.8195773  -0.91504289  0.067674093   -1.8195773   0.90453437   499639 
  657000   0.97761627   -1.8187054   -1.8187054  -0.91565282   0.06113597   -1.8187054    0.9030526   499627 
[...]
 1835000   0.92613407   -1.7981432   -1.7981432  -0.91823878  0.058256508   -1.7981432   0.87990439   485768 
 1836000   0.92536306   -1.7977446   -1.7977446  -0.91855104  0.058319242   -1.7977446   0.87919359   485756 
 1837000   0.92468792   -1.7969929   -1.7969929  -0.91842085  0.056702043   -1.7969929   0.87857203   485745 
 1838000   0.92597603   -1.7981139   -1.7981139  -0.91829623  0.056270467   -1.7981139   0.87981763   485733 
 1839000   0.92564932   -1.7974917   -1.7974917  -0.91796277  0.056033891   -1.7974917   0.87952894   485721 
 1840000   0.92596071   -1.7975049   -1.7975049   -0.9176584  0.058200621   -1.7975049   0.87984654   485709 
 1841000   0.92630009   -1.7976502   -1.7976502   -0.9174612  0.054786935   -1.7976502   0.88018896   485698 
 1842000    0.9254618   -1.7960005   -1.7960005  -0.91658633  0.063274316   -1.7960005   0.87941413   485686 
 1843000   0.92458826   -1.7964354   -1.7964354  -0.91782963  0.053454177   -1.7964354   0.87860576   485674 
 1844000   0.92503046   -1.7963088   -1.7963088  -0.91726109  0.051938711   -1.7963088   0.87904769   485662 
 1845000   0.92354249   -1.7946671   -1.7946671  -0.91701357  0.051930513   -1.7946671   0.87765356   485651 
 1846000   0.92556711   -1.7962825   -1.7962825  -0.91668319  0.061424495   -1.7962825   0.87959932   485639 
 1847000   0.92499724   -1.7958844   -1.7958844   -0.9168049  0.058249901   -1.7958844   0.87907947   485627 
 1848000   0.92329977   -1.7946516   -1.7946516  -0.91716361  0.056721579   -1.7946516   0.87748795   485615 
 1849000   0.92416502   -1.7945179   -1.7945179  -0.91618769  0.058022812   -1.7945179   0.87833016   485604 
 1850000   0.92193871   -1.7938664   -1.7938664  -0.91763048   0.05948615   -1.7938664   0.87623592   485592 
 1851000    0.9232399   -1.7942461   -1.7942461  -0.91675184  0.052196496   -1.7942461   0.87749429   485580 
 1852000   0.92392539   -1.7954967   -1.7954967  -0.91732916  0.059093028   -1.7954967   0.87816752   485568 
 1853000   0.92541015   -1.7968981   -1.7968981  -0.91729766  0.047239058   -1.7968981   0.87960049   485556 
 1854000   0.92235991   -1.7955352   -1.7955352  -0.91881407  0.062631597   -1.7955352   0.87672109   485545 
 1855000   0.92221477   -1.7944424   -1.7944424  -0.91783762  0.053266209   -1.7944424    0.8766048   485533 
 1856000   0.92434387   -1.7957536   -1.7957536  -0.91710329  0.055091374   -1.7957536   0.87865032   485521 
 1857000   0.92374216   -1.7964797   -1.7964797  -0.91837966   0.05810902   -1.7964797   0.87810006   485509 
 1858000   0.92470092   -1.7964906   -1.7964906  -0.91745921  0.066468689   -1.7964906   0.87903136   485498 
 1859000   0.92295358   -1.7954957   -1.7954957  -0.91810373  0.058382602   -1.7954957   0.87739201   485486 
 1860000   0.92374629   -1.7958886   -1.7958886  -0.91772127  0.056051461   -1.7958886    0.8781673   485474 
 1861000   0.92420915   -1.7965256   -1.7965256  -0.91789653  0.064379657   -1.7965256   0.87862903   485462 
 1862000   0.92147858   -1.7949255   -1.7949255  -0.91887257  0.057233388   -1.7949255   0.87605298   485451 
 1863000   0.92530685   -1.7972748   -1.7972748  -0.91756055  0.059424569   -1.7972748   0.87971427   485439 
 1864000    0.9258953   -1.7986513   -1.7986513  -0.91835578  0.052291496   -1.7986513   0.88029549   485427 
 1865000   0.92434696   -1.7974223   -1.7974223  -0.91857713  0.058586691   -1.7974223   0.87884513   485415 
 1866000   0.92299309   -1.7958896   -1.7958896  -0.91831182  0.056415147   -1.7958896   0.87757779   485404 
 1867000   0.92352203   -1.7960085   -1.7960085  -0.91790611    0.0537158   -1.7960085   0.87810242   485392 
 1868000   0.92362133   -1.7961885   -1.7961885  -0.91796996  0.058516229   -1.7961885   0.87821854   485380 
 1869000   0.92532319   -1.7971981   -1.7971981  -0.91733965  0.058859879   -1.7971981   0.87985849   485368 
 1870000   0.92537768   -1.7979167   -1.7979167  -0.91798461  0.052184793   -1.7979167   0.87993206   485356 
 1871000   0.92589299   -1.7982521   -1.7982521  -0.91781007  0.055945359   -1.7982521   0.88044202   485345 
 1872000   0.92529822    -1.798703    -1.798703  -0.91880475  0.059180179    -1.798703    0.8798982   485333 
 1873000   0.92408198   -1.7982165   -1.7982165  -0.91945314  0.056788958   -1.7982165   0.87876336   485321 
 1874000    0.9252756   -1.7990583   -1.7990583  -0.91913806   0.05559482   -1.7990583    0.8799202   485309 
 1875000   0.92325253   -1.7966658   -1.7966658  -0.91864964   0.06163049   -1.7966658    0.8780162   485298 
 1876000   0.92369807   -1.7970677   -1.7970677  -0.91860609  0.054443627   -1.7970677   0.87846163   485286 
 1877000   0.92425444   -1.7969368   -1.7969368  -0.91792434  0.056654943   -1.7969368   0.87901249   485274 
 1878000   0.92495607   -1.7977275   -1.7977275  -0.91802596  0.052370803   -1.7977275   0.87970153   485262 
 1879000   0.92520116   -1.7979224   -1.7979224  -0.91796785  0.052464803   -1.7979224   0.87995458   485251 
 1880000   0.92511721   -1.7976972   -1.7976972  -0.91780067  0.055572978   -1.7976972   0.87989649   485239 
 1881000   0.92516424   -1.7970926   -1.7970926  -0.91712959  0.065020934   -1.7970926   0.87996299   485227 
 1882000   0.92507124   -1.7970279   -1.7970279  -0.91713165  0.060184708   -1.7970279   0.87989629   485215 
 1883000   0.92265245   -1.7966613   -1.7966613  -0.91904574  0.056378758   -1.7966613   0.87761551   485204 
 1884000   0.92416078   -1.7973487   -1.7973487  -0.91827677    0.0591635   -1.7973487   0.87907196   485192 
 1885000   0.92326132   -1.7964584   -1.7964584  -0.91822026  0.059362233   -1.7964584    0.8782381   485180 
 1886000     0.922675   -1.7953656   -1.7953656  -0.91766354   0.06124654   -1.7953656   0.87770209   485168 
 1887000   0.92465961   -1.7970451   -1.7970451  -0.91743335  0.057595941   -1.7970451   0.87961172   485156 
 1888000   0.92277956   -1.7954385   -1.7954385  -0.91759533  0.062761962   -1.7954385   0.87784316   485145 
 1889000   0.92231666   -1.7951405   -1.7951405  -0.91771598  0.054167625   -1.7951405   0.87742451   485133 
 1890000   0.92153013   -1.7945198   -1.7945198  -0.91782189  0.061566786   -1.7945198   0.87669795   485121 
 1891000    0.9240599   -1.7971284   -1.7971284  -0.91800199  0.058911669   -1.7971284   0.87912639   485109 
 1892000   0.92363089   -1.7970225   -1.7970225  -0.91828434  0.057689648   -1.7970225   0.87873817   485098 
 1893000   0.92396278   -1.7970697   -1.7970697  -0.91799399  0.058969243   -1.7970697   0.87907568   485086 
 1894000   0.92278117   -1.7960863   -1.7960863  -0.91811315  0.057716733   -1.7960863   0.87797319   485074 
 1895000   0.92309704   -1.7963528   -1.7963528   -0.9180574  0.050470325   -1.7963528   0.87829545   485062 
 1896000   0.92130395   -1.7949738   -1.7949738  -0.91836458  0.053478484   -1.7949738   0.87660926   485051 
 1897000   0.92076018   -1.7947159   -1.7947159  -0.91860238  0.057476236   -1.7947159   0.87611354   485039 
 1898000   0.92089616   -1.7941901   -1.7941901  -0.91792547  0.051255884   -1.7941901   0.87626461   485027 
 1899000   0.92156636   -1.7951087   -1.7951087  -0.91818472  0.057554966   -1.7951087   0.87692403   485015 
 1900000   0.92454858    -1.797179    -1.797179  -0.91739731  0.055359185    -1.797179   0.87978174   485004 
 1901000   0.92245434   -1.7957776   -1.7957776  -0.91796696  0.061256266   -1.7957776   0.87781062   484992 
 1902000   0.92241703   -1.7963566   -1.7963566  -0.91855972  0.051815775   -1.7963566   0.87779684   484980 
 1903000   0.92083746   -1.7963877   -1.7963877  -0.92007232   0.05388058   -1.7963877   0.87631535   484968 
 1904000   0.92030824    -1.795614    -1.795614  -0.91978062  0.055150308    -1.795614   0.87583339   484956 
 1905000   0.92273565   -1.7975775   -1.7975775  -0.91941409  0.056011885   -1.7975775   0.87816341   484945 
 1906000   0.92027723   -1.7957612   -1.7957612  -0.91991579  0.053610535   -1.7957612   0.87584542   484933 
 1907000   0.92318957   -1.7991034   -1.7991034  -0.92046446  0.058847354   -1.7991034   0.87863889   484921 
 1908000   0.92431036   -1.7997548   -1.7997548  -0.92002745  0.053587287   -1.7997548   0.87972737   484909 
 1909000   0.92031148   -1.7959317   -1.7959317  -0.91999048  0.057945057   -1.7959317   0.87594123   484898 
 1910000   0.92336726   -1.7974849   -1.7974849  -0.91861344  0.062862221   -1.7974849   0.87887144   484886 
 1911000    0.9208282   -1.7965819   -1.7965819  -0.92010546  0.056258147   -1.7965819   0.87647642   484874 
 1912000   0.92305744   -1.7988932   -1.7988932  -0.92027319  0.054753374   -1.7988932   0.87862004   484862 
 1913000   0.92237064   -1.7980617   -1.7980617  -0.92007551  0.061292798   -1.7980617   0.87798622   484851 
 1914000    0.9220322   -1.7980622   -1.7980622  -0.92037637   0.06036413   -1.7980622   0.87768579   484839 
 1915000   0.92296528   -1.8000878   -1.8000878  -0.92149206  0.056811525   -1.8000878   0.87859574   484827 
 1916000   0.92000746   -1.7978039   -1.7978039  -0.92200211  0.061133933   -1.7978039   0.87580179   484815 
 1917000   0.92238492   -1.7990022   -1.7990022   -0.9209173  0.059690067   -1.7990022   0.87808494   484804 
 1918000   0.92224443   -1.8003336   -1.8003336  -0.92236066  0.058992469   -1.8003336   0.87797293   484792 
 1919000   0.92262952   -1.8013855   -1.8013855  -0.92302426  0.057919633   -1.8013855   0.87836127   484780 
 1920000   0.92021571   -1.7976771   -1.7976771  -0.92159213   0.06175091   -1.7976771   0.87608497   484768 
 1921000   0.92104614   -1.7989879   -1.7989879  -0.92209064  0.057556869   -1.7989879   0.87689727   484756 
 1922000   0.92145255   -1.7997536   -1.7997536  -0.92244947  0.052498846   -1.7997536   0.87730411   484745 
 1923000   0.92113708   -1.7988468   -1.7988468  -0.92182135  0.067938692   -1.7988468   0.87702547   484733 
 1924000   0.92417328   -1.8022444   -1.8022444  -0.92230631  0.056816122   -1.8022444   0.87993806   484721 
 1925000   0.92313348    -1.799649    -1.799649  -0.92067922  0.058787396    -1.799649   0.87896978   484709 
 1926000   0.92284904   -1.7990578   -1.7990578  -0.92033889  0.059332143   -1.7990578   0.87871889   484698 
 1927000    0.9229791   -1.8004985   -1.8004985  -0.92163398  0.060307764   -1.8004985   0.87886449   484686 
 1928000   0.92080039   -1.7987171   -1.7987171   -0.9219055  0.049668009   -1.7987171   0.87681162   484674 
 1929000    0.9200454   -1.7983738   -1.7983738  -0.92225942  0.058357117   -1.7983738   0.87611439   484662 
 1930000   0.92115095   -1.7985858   -1.7985858  -0.92139874  0.058696476   -1.7985858   0.87718707   484651 
 1931000   0.92174754   -1.7981987   -1.7981987  -0.92042183   0.05610994   -1.7981987   0.87777691   484639 
 1932000   0.92119009   -1.7978229   -1.7978229  -0.92055508  0.054626391   -1.7978229   0.87726777   484627 
 1933000   0.92038446   -1.7968575   -1.7968575  -0.92033528  0.061289243   -1.7968575   0.87652226   484615 
 1934000   0.92053344   -1.7972595   -1.7972595  -0.92057546  0.050040405   -1.7972595   0.87668404   484604 
 1935000   0.92065725   -1.7964603   -1.7964603  -0.91963664   0.05857181   -1.7964603   0.87682366   484592 
 1936000   0.92142508   -1.7973332   -1.7973332  -0.91975648  0.054166585   -1.7973332   0.87757668   484580 
 1937000   0.92113795   -1.7968442   -1.7968442  -0.91951929  0.055238958   -1.7968442   0.87732493   484568 
 1938000    0.9185158   -1.7954738   -1.7954738  -0.92062466  0.048512765   -1.7954738   0.87484916   484556 
 1939000   0.92102589   -1.7963109   -1.7963109  -0.91905102  0.057736989   -1.7963109   0.87725984   484545 
 1940000   0.92019264   -1.7961106   -1.7961106  -0.91962268  0.059285391   -1.7961106   0.87648789   484533 
 1941000   0.92014285   -1.7963542   -1.7963542  -0.91989203  0.061342953   -1.7963542   0.87646217   484521 
 1942000   0.92181162   -1.7971334   -1.7971334  -0.91905989  0.063768093   -1.7971334   0.87807347   484509 
 1943000   0.92330335   -1.7995355   -1.7995355   -0.9200211  0.054384432   -1.7995355   0.87951438   484498 
 1944000   0.92191152   -1.7969736   -1.7969736  -0.91876326  0.053885833   -1.7969736   0.87821032   484486 
 1945000   0.91953027   -1.7964042   -1.7964042  -0.92044051  0.059631149   -1.7964042   0.87596364   484474 
 1946000   0.92015658   -1.7973668   -1.7973668  -0.92078485  0.054478079   -1.7973668   0.87658199   484462 
 1947000   0.91991711   -1.7973401   -1.7973401  -0.92096634  0.056447105   -1.7973401   0.87637376   484451 
 1948000    0.9194052   -1.7968317   -1.7968317  -0.92092392  0.049838387   -1.7968317   0.87590777   484439 
 1949000   0.92087174   -1.7982214   -1.7982214  -0.92089473   0.05846452   -1.7982214   0.87732666   484427 
 1950000   0.92111025   -1.7980547   -1.7980547  -0.92047908   0.05707979   -1.7980547   0.87757563   484415 
 1951000   0.91989363   -1.7965003   -1.7965003  -0.92006385  0.055495881   -1.7965003   0.87643642   484404 
 1952000   0.92046075   -1.7970154   -1.7970154  -0.92001696  0.059433682   -1.7970154   0.87699847   484392 
 1953000   0.91901895   -1.7940442   -1.7940442  -0.91839778   0.05587162   -1.7940442   0.87564645   484380 
 1954000   0.91828748   -1.7933327   -1.7933327  -0.91836148   0.05749161   -1.7933327   0.87497118   484368 
 1955000   0.91969473   -1.7947279   -1.7947279  -0.91839418   0.05524258   -1.7947279   0.87633375   484356 
 1956000   0.91981509   -1.7940985   -1.7940985  -0.91763018  0.057988255   -1.7940985   0.87646835   484345 
 1957000   0.92121884   -1.7957942   -1.7957942  -0.91796648  0.059939258   -1.7957942   0.87782769   484333 
 1958000   0.91968063   -1.7951468   -1.7951468  -0.91876314  0.050608818   -1.7951468   0.87638364   484321 
 1959000   0.91981128   -1.7957811   -1.7957811  -0.91925124  0.049784566   -1.7957811   0.87652987   484309 
 1960000   0.91973751   -1.7956645   -1.7956645  -0.91918498  0.052225017   -1.7956645   0.87647948   484298 
 1961000   0.91828356   -1.7956399   -1.7956399  -0.92052429   0.05767711   -1.7956399   0.87511559   484286 
 1962000   0.91891415   -1.7964352   -1.7964352  -0.92069693  0.055807948   -1.7964352   0.87573823   484274 
 1963000   0.91912818   -1.7961234   -1.7961234  -0.92015944  0.056272837   -1.7961234   0.87596392   484262 
 1964000   0.91825828   -1.7951489   -1.7951489  -0.91999413  0.045355558   -1.7951489   0.87515475   484251 
 1965000   0.91745032   -1.7945545   -1.7945545  -0.92014816  0.056059197   -1.7945545   0.87440638   484239 
 1966000   0.91913828   -1.7970373   -1.7970373  -0.92100046  0.050031111   -1.7970373   0.87603686   484227 
 1967000   0.91912884   -1.7963127   -1.7963127  -0.92026309  0.060349357   -1.7963127   0.87604957   484215 
 1968000   0.92039535   -1.7977671   -1.7977671  -0.92049045  0.055808664   -1.7977671   0.87727665   484204 
 1969000   0.91986116   -1.7967126   -1.7967126  -0.91992344  0.058547513   -1.7967126   0.87678921   484192 
 1970000   0.91924045   -1.7967552   -1.7967552  -0.92053592  0.047894448   -1.7967552   0.87621928   484180 
 1971000    0.9194017   -1.7967165   -1.7967165  -0.92032179   0.05094852   -1.7967165    0.8763947   484168 
 1972000    0.9171386   -1.7954384   -1.7954384  -0.92117921  0.056828913   -1.7954384   0.87425914   484156 
 1973000   0.91763463   -1.7958947   -1.7958947  -0.92114289  0.057923545   -1.7958947   0.87475185   484145 
 1974000   0.91785628   -1.7962343   -1.7962343  -0.92124944   0.05117043   -1.7962343   0.87498483   484133 
 1975000   0.91665152   -1.7948068   -1.7948068  -0.92094877  0.052704425   -1.7948068     0.873858   484121 
 1976000   0.91756765   -1.7956366   -1.7956366  -0.92088353  0.051306413   -1.7956366   0.87475305   484109 
 1977000   0.91659412   -1.7958028   -1.7958028  -0.92195802  0.052953302   -1.7958028   0.87384479   484098 
 1978000   0.91743878   -1.7962989   -1.7962989  -0.92162716   0.05405219   -1.7962989   0.87467174   484086 
 1979000   0.91763238   -1.7964756   -1.7964756  -0.92159757  0.059711831   -1.7964756     0.874878   484074 
 1980000   0.91676263   -1.7947769   -1.7947769  -0.92070642  0.056167176   -1.7947769   0.87407045   484062 
 1981000   0.91763888   -1.7953954   -1.7953954  -0.92046958  0.056423378   -1.7953954   0.87492578   484051 
 1982000   0.91861907   -1.7953399   -1.7953399  -0.91945788  0.058542215   -1.7953399   0.87588206   484039 
 1983000   0.91930624   -1.7955209   -1.7955209  -0.91896187  0.056888022   -1.7955209   0.87655899   484027 
 1984000   0.91673108   -1.7946451   -1.7946451  -0.92051988  0.058193213   -1.7946451   0.87412524   484015 
 1985000   0.91818352   -1.7961923   -1.7961923  -0.92066222  0.061083865   -1.7961923   0.87553007   484004 
 1986000   0.91826889    -1.795326    -1.795326  -0.91969281  0.053672097    -1.795326   0.87563319   483992 
 1987000   0.91721119   -1.7951243   -1.7951243  -0.92047797  0.054477404   -1.7951243   0.87464628   483980 
 1988000   0.91612038   -1.7939227   -1.7939227  -0.92029499  0.057662694   -1.7939227   0.87362776   483968 
 1989000     0.917338   -1.7948506   -1.7948506  -0.92004003  0.057969277   -1.7948506   0.87481059   483956 
 1990000   0.91608755   -1.7934094   -1.7934094  -0.91977144  0.061827798   -1.7934094   0.87363796   483945 
 1991000   0.91790657   -1.7963303   -1.7963303  -0.92093586  0.053476724   -1.7963303    0.8753944   483933 
 1992000   0.91611987   -1.7943207   -1.7943207   -0.9206086  0.050396331   -1.7943207   0.87371212   483921 
 1993000   0.91977453   -1.7968226   -1.7968226  -0.91960326  0.056820516   -1.7968226   0.87721935   483909 
 1994000   0.91711256   -1.7965922   -1.7965922   -0.9218918  0.060733435   -1.7965922   0.87470043   483898 
 1995000   0.91699762   -1.7956485   -1.7956485  -0.92103601  0.064346427   -1.7956485   0.87461249   483886 
 1996000   0.91805014   -1.7966173   -1.7966173  -0.92097926  0.059860726   -1.7966173   0.87563808   483874 
 1997000   0.91818498   -1.7964098   -1.7964098  -0.92062138  0.055988892   -1.7964098   0.87578841   483862 
 1998000   0.92073894   -1.7982761   -1.7982761  -0.92003167  0.063003486   -1.7982761   0.87824441   483851 
 1999000   0.91942157   -1.7970426   -1.7970426  -0.92003305  0.055321622   -1.7970426   0.87700959   483839 
 2000000    0.9210454   -1.7988442   -1.7988442  -0.92026388  0.061523868   -1.7988442    0.8785803   483827 
 2001000   0.91578447   -1.7950184   -1.7950184  -0.92143478  0.054114823   -1.7950184    0.8735836   483815 
 2002000   0.91541461   -1.7953121   -1.7953121  -0.92206142  0.057141624   -1.7953121   0.87325064   483804 
 2003000   0.91674065   -1.7963619   -1.7963619  -0.92182462  0.061859047   -1.7963619    0.8745373   483792 
 2004000   0.91768666    -1.796913    -1.796913  -0.92145153  0.057895418    -1.796913   0.87546147   483780 
 2005000   0.91945436   -1.7984299   -1.7984299  -0.92126033  0.059077928   -1.7984299   0.87716958   483768 
 2006000   0.91824882   -1.7967754   -1.7967754  -0.92073423  0.053870633   -1.7967754   0.87604122   483756 
 2007000   0.91905778   -1.7982218   -1.7982218  -0.92138888  0.058942343   -1.7982218   0.87683293   483745 
 2008000    0.9176812   -1.7976985   -1.7976985  -0.92215723  0.059892947   -1.7976985   0.87554131   483733 
 2009000   0.91680291   -1.7971012   -1.7971012  -0.92237614  0.051924498   -1.7971012   0.87472506   483721 
 2010000   0.91607756   -1.7959426   -1.7959426  -0.92188791  0.056179147   -1.7959426   0.87405469   483709 
 2011000   0.91538936   -1.7962836   -1.7962836  -0.92286572  0.051779845   -1.7962836   0.87341792   483698 
 2012000   0.91582702   -1.7962271   -1.7962271  -0.92236988   0.05230162   -1.7962271   0.87385718   483686 
 2013000   0.91554006    -1.796657    -1.796657  -0.92305196  0.059577873    -1.796657   0.87360505   483674 
 2014000   0.91658564   -1.7965994   -1.7965994  -0.92197496  0.047385666   -1.7965994   0.87462443   483662 
 2015000   0.91631991   -1.7960245   -1.7960245  -0.92163371  0.057902896   -1.7960245   0.87439076   483651 
 2016000   0.91381308   -1.7949031   -1.7949031  -0.92288287  0.054492348   -1.7949031