LAMMPS (24 Dec 2020)
OMP_NUM_THREADS environment is not set. Defaulting to 1 thread. (src/comm.cpp:94)
  using 1 OpenMP thread(s) per MPI task
# Simple rigid body system
# needed variables: startTemp, temp

units		lj
atom_style	full
dimension 	3
boundary	p p f
pair_style	lj/cut/opt 2.5

variable 	gcmcdisplace	equal 0
variable 	sigma		equal 1.0
variable 	epsilon 	equal 1.0


read_restart	restart.dat.3000000
Reading restart file ...
  restart file = 24 Dec 2020, LAMMPS = 24 Dec 2020
WARNING: Restart file used different # of processors: 48 vs. 192 (src/read_restart.cpp:697)
  restoring atom style full from restart
  orthogonal box = (0.0000000 0.0000000 0.0000000) to (80.000000 80.000000 160.00000)
  6 by 4 by 8 MPI processor grid
  restoring pair style lj/cut/opt from restart
  439061 atoms
Finding 1-2 1-3 1-4 neighbors ...
  special bond factors lj:    0        0        0       
  special bond factors coul:  0        0        0       
     0 = max # of 1-2 neighbors
     0 = max # of 1-3 neighbors
     0 = max # of 1-4 neighbors
     1 = max # of special neighbors
  special bonds CPU = 1.417 seconds
  read_restart CPU = 1.719 seconds

mass		1 1.0
mass		2 1.0
mass		3 1.0


group		solvent type 1
439061 atoms in group solvent


neighbor 	0.4 bin

pair_coeff	1 1 1.0 1.0
pair_coeff	2 2 0.0 0.0
pair_coeff	3 3 0.0 0.0
pair_coeff	2 3 0.0 0.0
pair_coeff	1 2*3 0.0 0.0

pair_modify 	shift yes


balance 	1.05 shift z 10 1.05
Balancing ...
Neighbor list info ...
  update every 1 steps, delay 10 steps, check yes
  max neighbors/atom: 2000, page size: 100000
  master list distance cutoff = 2.9
  ghost atom cutoff = 2.9
  binsize = 1.45, bins = 56 56 111
  1 neighbor lists, perpetual/occasional/extra = 1 0 0
  (1) pair lj/cut/opt, perpetual
      attributes: half, newton on
      pair build: half/bin/newton
      stencil: half/bin/3d/newton
      bin: standard
 rebalancing time: 0.025 seconds
  iteration count = 5
  initial/final maximal load/proc = 3162.0000 2575.0000
  initial/final imbalance factor  = 1.3827327 1.1260394
  x cuts: 0.0000000 0.16666667 0.33333333 0.50000000 0.66666667 0.83333333 1.0000000
  y cuts: 0.0000000 0.25000000 0.50000000 0.75000000 1.0000000
  z cuts: 0.0000000 0.097656250 0.18359375 0.27734375 0.37890625 0.47656250 0.57031250 0.67968750 1.0000000


####################### WALLS ###########################


variable       epsilonWall equal 2*${epsilon}
variable       epsilonWall equal 2*1

variable       cutoffTop   equal   0.7147*${sigma}
variable       cutoffTop   equal   0.7147*1

variable       cutoffLow   equal   3*${sigma}
variable       cutoffLow   equal   3*1


fix            topWall all wall/lj93 zhi EDGE                ${epsilonWall} ${sigma} ${cutoffTop} units box
fix            topWall all wall/lj93 zhi EDGE                2 ${sigma} ${cutoffTop} units box
fix            topWall all wall/lj93 zhi EDGE                2 1 ${cutoffTop} units box
fix            topWall all wall/lj93 zhi EDGE                2 1 0.7147 units box

fix            lowWall all wall/lj93 zlo EDGE                ${epsilonWall} ${sigma} ${cutoffLow} units box
fix            lowWall all wall/lj93 zlo EDGE                2 ${sigma} ${cutoffLow} units box
fix            lowWall all wall/lj93 zlo EDGE                2 1 ${cutoffLow} units box
fix            lowWall all wall/lj93 zlo EDGE                2 1 3 units box


###################### COMPUTES ##########################

compute        bin1 solvent chunk/atom bin/1d z upper 1.0



######################	FIXES ############################


fix 		peclet solvent ave/chunk 1000 1 1000 bin1 density/number norm 		 none ave one file density.profile

fix 		 temp solvent ave/chunk 1000 1 1000 bin1 temp norm none ave one file temp.profile

fix 		2 solvent nve

## Thermostat


region		regthermo block EDGE EDGE EDGE EDGE 0 20

group 		thermo dynamic solvent region regthermo every 1000
dynamic group thermo defined

fix 		3 thermo langevin ${startTemp} ${temp} 10 156453
fix 		3 thermo langevin 1.0 ${temp} 10 156453
fix 		3 thermo langevin 1.0 1.0 10 156453


## Evaporation

region		regevap block EDGE EDGE EDGE EDGE 140 158
fix 		gcmc solvent gcmc 100 100 0 1 780493 ${temp} ${mu} ${gcmcdisplace} region regevap
fix 		gcmc solvent gcmc 100 100 0 1 780493 1.0 ${mu} ${gcmcdisplace} region regevap
fix 		gcmc solvent gcmc 100 100 0 1 780493 1.0 -3.2 ${gcmcdisplace} region regevap
fix 		gcmc solvent gcmc 100 100 0 1 780493 1.0 -3.2 0 region regevap


#### Load balancing

fix 		bal all balance 1000 1.05 shift z 10 1.05

############### Diagnostics and computes ###################
#compute 	com cube	  rigid/local	1 mol x y z
#compute 	quat cube	  rigid/local	1 mol quatw quati quatj quatk

thermo 		1000
thermo_style 	custom step temp epair etotal press pe ke atoms

dump		1 all custom 100000 dump.lammpstrj id mol type x y z
dump 		2 all image 10000 image.*.png type type
dump 		3 all movie 1000 movie.avi type type
#dump 		com cube local 1000 dump.*.xyz c_com[*]
#dump		quat cube      local 1000 dump.*.quat c_quat[*]


restart 	1000000 restart.dat
timestep 	0.005
timer 		full
New timer settings: style=full  mode=nosync  timeout=off


run		5000000
Per MPI rank memory allocation (min/avg/max) = 9.923 | 9.986 | 10.01 Mbytes
Step Temp E_pair TotEng Press PotEng KinEng Atoms 
 3000000     1.016004   -3.1352716   -1.6112691  0.079025997   -3.1352716    1.5240025   439061 
 3001000    1.0150734   -3.1348273    -1.612082  0.073912019   -3.1348273    1.5227453   439021 
 3002000     1.015078   -3.1365692   -1.6136816  0.073849183   -3.1365692    1.5228876   438982 
 3003000    1.0136682   -3.1351859   -1.6141986  0.072802294   -3.1351859    1.5209873   438920 
 3004000    1.0144475     -3.13668    -1.614395  0.074059711     -3.13668     1.522285   438883 
 3005000    1.0145973   -3.1372681   -1.6145884  0.071301616   -3.1372681    1.5226797   438834 
 3006000    1.0150386   -3.1378737   -1.6144345  0.071587334   -3.1378737    1.5234392   438806 
 3007000    1.0140471   -3.1348955   -1.6126773  0.080244862   -3.1348955    1.5222182   438729 
 3008000    1.0149364   -3.1378879   -1.6141124  0.075979209   -3.1378879    1.5237755   438665 
 3009000    1.0145623    -3.138537   -1.6151878  0.072384831    -3.138537    1.5233492   438626 
 3010000    1.0141896   -3.1383181   -1.6153583  0.077179176   -3.1383181    1.5229598   438577 
 3011000    1.0143394   -3.1382811   -1.6148846  0.072910967   -3.1382811    1.5233965   438516 
 3012000    1.0144095   -3.1385412   -1.6148725  0.073288525   -3.1385412    1.5236687   438468 
 3013000    1.0135268   -3.1374026   -1.6149487   0.08116385   -3.1374026    1.5224539   438436 
 3014000    1.0146477   -3.1397854   -1.6155852  0.079892029   -3.1397854    1.5242002   438418 
 3015000    1.0136808   -3.1379223   -1.6150426  0.068675362   -3.1379223    1.5228797   438380 
 3016000     1.012042   -3.1359806   -1.6152991  0.075277982   -3.1359806    1.5206814   438304 
 3017000    1.0135717    -3.139933   -1.6167967  0.073197018    -3.139933    1.5231362   438259 
 3018000    1.0129583   -3.1403748   -1.6179971  0.073997157   -3.1403748    1.5223777   438212 
 3019000    1.0120344    -3.138136   -1.6171225  0.070203794    -3.138136    1.5210135   438205 
 3020000    1.0137264   -3.1414353   -1.6177501  0.074074586   -3.1414353    1.5236852   438168 
 3021000    1.0127939   -3.1400046   -1.6174743  0.076339724   -3.1400046    1.5225303   438097 
 3022000     1.011663   -3.1385989    -1.617543  0.073271066   -3.1385989    1.5210559   438032 
 3023000    1.0112372   -3.1386474   -1.6180581  0.071417005   -3.1386474    1.5205892   437982 
 3024000    1.0111115   -3.1391736   -1.6184436  0.075996024   -3.1391736      1.52073   437887 
 3025000    1.0117664   -3.1410272   -1.6191696  0.068187859   -3.1410272    1.5218576   437846 
 3026000    1.0103954   -3.1401045   -1.6200002  0.075680589   -3.1401045    1.5201043   437757 
 3027000    1.0103187   -3.1387618   -1.6185784   0.07519879   -3.1387618    1.5201834   437701 
 3028000      1.01043   -3.1402062   -1.6198101  0.073682329   -3.1402062     1.520396   437688 
 3029000    1.0101154   -3.1407203   -1.6206587  0.072372762   -3.1407203    1.5200616   437648 
 3030000    1.0092753   -3.1394458   -1.6205651  0.070163963   -3.1394458    1.5188806   437624 
 3031000    1.0095452   -3.1389517   -1.6194703  0.073616109   -3.1389517    1.5194813   437568 
 3032000    1.0086799   -3.1383104   -1.6199859   0.07250143   -3.1383104    1.5183245   437526 
 3033000    1.0078267   -3.1372296   -1.6199916    0.0723666   -3.1372296     1.517238   437469 
 3034000    1.0089321   -3.1391739   -1.6202093  0.068260995   -3.1391739    1.5189646   437451 
 3035000      1.00979   -3.1404236   -1.6199449  0.074196168   -3.1404236    1.5204786   437387 
 3036000    1.0098904   -3.1406356   -1.6198875  0.068624544   -3.1406356    1.5207481   437353 
 3037000    1.0076302   -3.1387507   -1.6210487  0.073775877   -3.1387507     1.517702   437250 
 3038000    1.0094199   -3.1422108    -1.621601  0.075440362   -3.1422108    1.5206097   437189 
 3039000     1.007262   -3.1387165   -1.6211283  0.074646856   -3.1387165    1.5175882   437123 
 3040000    1.0080066   -3.1403955   -1.6215812  0.071091685   -3.1403955    1.5188143   437093 
 3041000    1.0079144   -3.1407872   -1.6219868  0.070849566   -3.1407872    1.5188004   437057 
 3042000    1.0085131   -3.1417293   -1.6219642  0.066083344   -3.1417293    1.5197651   437039 
 3043000    1.0084478   -3.1409919   -1.6212486  0.071718239   -3.1409919    1.5197433   437017 
 3044000    1.0084095   -3.1410136   -1.6212793  0.068438702   -3.1410136    1.5197342   437003 
 3045000    1.0092145   -3.1424369   -1.6213259  0.073645717   -3.1424369     1.521111   436956 
 3046000    1.0072674   -3.1418296   -1.6234101  0.073314367   -3.1418296    1.5184195   436886 
 3047000    1.0082991    -3.142913   -1.6228303  0.074099967    -3.142913    1.5200826   436855 
 3048000    1.0075189   -3.1424174   -1.6233058  0.074819344   -3.1424174    1.5191116   436796 
 3049000     1.006757   -3.1414467   -1.6234074  0.070942932   -3.1414467    1.5180393   436774 
 3050000    1.0073462   -3.1432688   -1.6242055  0.074908016   -3.1432688    1.5190633   436735 
 3051000    1.0067444   -3.1412225   -1.6228233  0.072880144   -3.1412225    1.5183992   436665 
 3052000    1.0075865   -3.1429908   -1.6230744  0.069264754   -3.1429908    1.5199164   436594 
 3053000    1.0069517   -3.1444064   -1.6251692  0.071179179   -3.1444064    1.5192372   436514 
 3054000    1.0048621   -3.1416617   -1.6253721  0.072204156   -3.1416617    1.5162895   436455 
 3055000    1.0059763   -3.1437433    -1.625616   0.07185371   -3.1437433    1.5181273   436410 
 3056000    1.0072164   -3.1449122   -1.6249413  0.073541436   -3.1449122    1.5199708   436418 
 3057000    1.0078403   -3.1439654   -1.6229902  0.074238429   -3.1439654    1.5209751   436400 
 3058000    1.0062177    -3.142322   -1.6235486  0.072520561    -3.142322    1.5187735   436329 
 3059000    1.0063534   -3.1424311   -1.6233413   0.07205499   -3.1424311    1.5190897   436297 
 3060000    1.0071464   -3.1436905   -1.6233689  0.068870452   -3.1436905    1.5203216   436287 
 3061000    1.0083357   -3.1445402   -1.6222383   0.06866833   -3.1445402    1.5223019   436234 
 3062000    1.0070217   -3.1431586   -1.6227151  0.070357796   -3.1431586    1.5204435   436198 
 3063000    1.0065626    -3.142379   -1.6226322  0.075646684    -3.142379    1.5197468   436199 
 3064000    1.0058654   -3.1420242   -1.6232847   0.07195391   -3.1420242    1.5187394   436186 
 3065000    1.0050762   -3.1428203   -1.6250776  0.070278352   -3.1428203    1.5177428   436130 
 3066000    1.0055182   -3.1426556   -1.6240747  0.069273153   -3.1426556    1.5185809   436081 
 3067000     1.005295   -3.1419348   -1.6236945  0.071563101   -3.1419348    1.5182403   436082 
 3068000    1.0055015   -3.1423172     -1.62357  0.072888829   -3.1423172    1.5187471   436026 
 3069000    1.0045743    -3.141002    -1.623464  0.070846242    -3.141002    1.5175381   435971 
 3070000    1.0056519   -3.1445575    -1.625158  0.069071141   -3.1445575    1.5193995   435904 
 3071000    1.0039012   -3.1423228   -1.6253318  0.068757555   -3.1423228     1.516991   435836 
 3072000    1.0035634   -3.1412155    -1.624568  0.068857359   -3.1412155    1.5166475   435788 
 3073000    1.0035335   -3.1415608    -1.624753  0.068262267   -3.1415608    1.5168078   435729 
 3074000    1.0041549   -3.1428942   -1.6249834  0.069524222   -3.1428942    1.5179108   435682 
 3075000    1.0051964   -3.1445213    -1.624977  0.072830786   -3.1445213    1.5195443   435665 
 3076000     1.002982   -3.1433636   -1.6269648  0.067117661   -3.1433636    1.5163988   435607 
 3077000    1.0034003    -3.144739   -1.6274849  0.072246831    -3.144739    1.5172541   435543 
 3078000    1.0023689   -3.1435648   -1.6277242  0.072432468   -3.1435648    1.5158407   435501 
 3079000    1.0024958   -3.1425741   -1.6264128  0.068681049   -3.1425741    1.5161613   435464 
 3080000    1.0019609   -3.1424914   -1.6270381  0.072706568   -3.1424914    1.5154533   435435 
 3081000    1.0044952   -3.1461182   -1.6266852  0.067729596   -3.1461182     1.519433   435393 
 3082000    1.0032949   -3.1439526   -1.6261679  0.075994429   -3.1439526    1.5177847   435345 
 3083000    1.0023058   -3.1438863   -1.6273575  0.064556097   -3.1438863    1.5165288   435276 
 3084000    1.0035405   -3.1463808   -1.6278198  0.069690637   -3.1463808     1.518561   435229 
 3085000    1.0041491   -3.1475348   -1.6279657  0.061367556   -3.1475348    1.5195692   435204 
 3086000    1.0023684   -3.1474633   -1.6305296  0.070259279   -3.1474633    1.5169336   435187 
 3087000    1.0026678   -3.1475322   -1.6298909  0.068373053   -3.1475322    1.5176413   435114 
 3088000    1.0039984   -3.1495755   -1.6298782  0.068509153   -3.1495755    1.5196972   435102 
 3089000    1.0019431   -3.1479542   -1.6313714  0.062610901   -3.1479542    1.5165828   435103 
 3090000    1.0033411    -3.149277    -1.630463  0.072598694    -3.149277     1.518814   435070 
 3091000    1.0004058   -3.1451006   -1.6305872  0.071036969   -3.1451006    1.5145134   435029 
 3092000    1.0020183   -3.1480645   -1.6310506  0.074332328   -3.1480645    1.5170139   435012 
 3093000    1.0020656   -3.1477026   -1.6305369  0.070986148   -3.1477026    1.5171657   434989 
 3094000    1.0028331   -3.1491619   -1.6306701  0.072350733   -3.1491619    1.5184917   434942 
 3095000    1.0038217   -3.1516729    -1.631485  0.073214582   -3.1516729    1.5201879   434885 
 3096000    1.0038687     -3.15097   -1.6303963  0.076308217     -3.15097    1.5205738   434795 
 3097000    1.0031433   -3.1503898   -1.6306527  0.071362344   -3.1503898    1.5197371   434720 
 3098000    1.0003102   -3.1471183   -1.6316104  0.075946852   -3.1471183    1.5155079   434702 
 3099000    1.0013313   -3.1493781   -1.6321941  0.071298746   -3.1493781     1.517184   434665 
 3100000    1.0023148   -3.1524096   -1.6338053  0.072462329   -3.1524096    1.5186042   434685 
 3101000    1.0022818   -3.1523202   -1.6336157  0.063432071   -3.1523202    1.5187045   434642 
 3102000    1.0012791   -3.1514846   -1.6341564  0.069539035   -3.1514846    1.5173283   434601 
 3103000    1.0015891   -3.1514124   -1.6334815  0.072448747   -3.1514124    1.5179308   434563 
 3104000    1.0013687   -3.1517743   -1.6339575  0.071880351   -3.1517743    1.5178168   434500 
 3105000    1.0008171   -3.1518033   -1.6345187  0.068020837   -3.1518033    1.5172846   434413 
 3106000   0.99994065   -3.1502091   -1.6341416  0.072690415   -3.1502091    1.5160675   434381 
 3107000   0.99982319   -3.1500068     -1.63388  0.067059107   -3.1500068    1.5161267   434313 
 3108000   0.99784896   -3.1490573   -1.6357465  0.071593721   -3.1490573    1.5133107   434262 
 3109000   0.99941055   -3.1502592   -1.6344929   0.07003371   -3.1502592    1.5157663   434237 
 3110000   0.99958333    -3.151506   -1.6352927  0.070824462    -3.151506    1.5162134   434184 
 3111000   0.99904368   -3.1515991   -1.6360856  0.065591799   -3.1515991    1.5155135   434150 
 3112000   0.99823716   -3.1496112    -1.635213  0.068412399   -3.1496112    1.5143982   434119 
 3113000   0.99808411   -3.1504576   -1.6361277  0.070930425   -3.1504576    1.5143299   434072 
 3114000   0.99816719   -3.1503728   -1.6357738  0.067790923   -3.1503728     1.514599   434031 
 3115000   0.99703306   -3.1479527   -1.6350013  0.069518355   -3.1479527    1.5129513   434010 
 3116000   0.99782291   -3.1484153   -1.6339583  0.070058014   -3.1484153    1.5144569   433922 
 3117000   0.99802949   -3.1491008   -1.6340894  0.067795588   -3.1491008    1.5150114   433853 
 3118000   0.99760754   -3.1489622    -1.634319  0.064613702   -3.1489622    1.5146432   433775 
 3119000   0.99829666   -3.1500368   -1.6342774  0.070443445   -3.1500368    1.5157594   433755 
 3120000   0.99695584   -3.1497954   -1.6359532  0.066468698   -3.1497954    1.5138422   433721 
 3121000   0.99717846   -3.1496363   -1.6353967  0.064823917   -3.1496363    1.5142396   433704 
 3122000   0.99692658   -3.1506095   -1.6365115  0.063751055   -3.1506095     1.514098   433635 
 3123000   0.99773411   -3.1522697   -1.6367461  0.065657674   -3.1522697    1.5155236   433578 
 3124000   0.99597572   -3.1499554    -1.636834  0.068662777   -3.1499554    1.5131214   433501 
 3125000   0.99547828   -3.1502366    -1.637686  0.070321006   -3.1502366    1.5125506   433448 
 3126000   0.99489151   -3.1494375   -1.6376842  0.061844201   -3.1494375    1.5117532   433421 
 3127000   0.99695751   -3.1511653   -1.6361749  0.063960992   -3.1511653    1.5149904   433393 
 3128000   0.99596194   -3.1506248   -1.6369411  0.068031563   -3.1506248    1.5136836   433334 
 3129000   0.99514627   -3.1495982   -1.6370461   0.07045878   -3.1495982    1.5125521   433303 
 3130000   0.99642024   -3.1523888   -1.6378479  0.067944199   -3.1523888    1.5145409   433288 
 3131000   0.99742759   -3.1530651   -1.6369371  0.067406763   -3.1530651    1.5161281   433272 
 3132000   0.99704429   -3.1529235   -1.6371611  0.067210191   -3.1529235    1.5157623   433210 
 3133000   0.99718416   -3.1540353   -1.6378154  0.065125308   -3.1540353      1.51622   433140 
 3134000   0.99726314   -3.1556204   -1.6390352  0.067441187   -3.1556204    1.5165852   433070 
 3135000   0.99571869   -3.1543342   -1.6400558  0.065792962   -3.1543342    1.5142784   433058 
 3136000   0.99534768   -3.1537063   -1.6399852   0.06654759   -3.1537063    1.5137212   433056 
 3137000   0.99642892   -3.1534816   -1.6380671  0.070814104   -3.1534816    1.5154145   433042 
 3138000    0.9966739   -3.1528544   -1.6370744  0.069144167   -3.1528544    1.5157801   433044 
 3139000   0.99415089   -3.1516921    -1.639571  0.070029853   -3.1516921    1.5121211   432993 
 3140000   0.99614249   -3.1547249   -1.6393576  0.071055751   -3.1547249    1.5153673   432931 
 3141000   0.99515401    -3.155411   -1.6414425  0.072132459    -3.155411    1.5139685   432901 
 3142000    0.9954896   -3.1565842   -1.6419617  0.070492306   -3.1565842    1.5146225   432860 
 3143000   0.99656853   -3.1571468   -1.6407356  0.066844691   -3.1571468    1.5164112   432818 
 3144000   0.99420281   -3.1536891   -1.6409126  0.071371794   -3.1536891    1.5127765   432828 
 3145000   0.99436658    -3.156151    -1.642982  0.068625151    -3.156151     1.513169   432787 
 3146000   0.99485574   -3.1560916   -1.6421187  0.070260608   -3.1560916    1.5139729   432770 
 3147000   0.99576366   -3.1576024   -1.6422268  0.064281873   -3.1576024    1.5153756   432764 
 3148000   0.99532649   -3.1577428    -1.642812  0.060916208   -3.1577428    1.5149308   432701 
 3149000   0.99417419   -3.1572726   -1.6439943  0.064376823   -3.1572726    1.5132784   432672 
 3150000   0.99558884   -3.1590263   -1.6434825  0.065952921   -3.1590263    1.5155438   432640 
 3151000   0.99448302   -3.1579209    -1.643966  0.065779086   -3.1579209    1.5139549   432613 
 3152000   0.99292962   -3.1555165   -1.6438006  0.069167433   -3.1555165    1.5117159   432577 
 3153000   0.99289014   -3.1547185   -1.6427866  0.066256133   -3.1547185    1.5119319   432498 
 3154000    0.9946038   -3.1561096   -1.6414912  0.067506717   -3.1561096    1.5146184   432476 
 3155000   0.99334949   -3.1557884   -1.6429017  0.072308582   -3.1557884    1.5128867   432425 
 3156000   0.99322357     -3.15645   -1.6435976   0.06989373     -3.15645    1.5128524   432380 
 3157000   0.99308559   -3.1555197   -1.6429265  0.065495332   -3.1555197    1.5125932   432394 
 3158000   0.99254554   -3.1550026   -1.6430116  0.064247999   -3.1550026     1.511991   432331 
 3159000   0.99186529   -3.1546077   -1.6435132  0.069172773   -3.1546077    1.5110945   432291 
 3160000   0.99396777   -3.1560655   -1.6416523  0.066961296   -3.1560655    1.5144132   432258 
 3161000   0.99318816   -3.1547912   -1.6414643  0.066567115   -3.1547912    1.5133269   432229 
 3162000   0.99055274   -3.1531265   -1.6437174  0.064438487   -3.1531265    1.5094091   432201 
 3163000    0.9925787   -3.1572594   -1.6446826  0.062102549   -3.1572594    1.5125768   432178 
 3164000   0.99325999   -3.1579282   -1.6442222  0.065635718   -3.1579282     1.513706   432152 
 3165000   0.99247418   -3.1578887   -1.6451246  0.067015771   -3.1578887     1.512764   432079 
 3166000   0.99226588    -3.156538   -1.6438079  0.064673345    -3.156538    1.5127301   431998 
 3167000   0.99122982   -3.1559102   -1.6445672  0.067996052   -3.1559102     1.511343   431943 
 3168000   0.99235022   -3.1588226   -1.6456101  0.065063164   -3.1588226    1.5132125   431897 
 3169000   0.99214451   -3.1588093   -1.6458054  0.065408592   -3.1588093    1.5130039   431867 
 3170000   0.99173645   -3.1585192   -1.6459275  0.066535673   -3.1585192    1.5125918   431807 
 3171000   0.99035409   -3.1572362   -1.6465359  0.061974734   -3.1572362    1.5107003   431745 
 3172000   0.99225593   -3.1604501   -1.6466734  0.068089253   -3.1604501    1.5137767   431695 
 3173000   0.99188112   -3.1612584   -1.6479343  0.066168916   -3.1612584    1.5133241   431661 
 3174000   0.99165753   -3.1602917   -1.6473578  0.063633574   -3.1602917    1.5129339   431675 
 3175000    0.9891528    -3.157276   -1.6479887  0.064571967    -3.157276    1.5092873   431625 
 3176000   0.98965154   -3.1590053   -1.6487925   0.06019672   -3.1590053    1.5102128   431578 
 3177000   0.99020332    -3.158774   -1.6477857  0.069786114    -3.158774    1.5109883   431597 
 3178000   0.98836877   -3.1575048   -1.6491027  0.066152078   -3.1575048    1.5084021   431536 
 3179000   0.99091586   -3.1614905   -1.6491242  0.062836045   -3.1614905    1.5123664   431514 
 3180000   0.99180269     -3.16157   -1.6477729  0.064324212     -3.16157    1.5137971   431492 
 3181000   0.98956894   -3.1597703   -1.6493021  0.063819202   -3.1597703    1.5104682   431469 
 3182000   0.99034907   -3.1601246   -1.6484095  0.065374084   -3.1601246    1.5117151   431453 
 3183000   0.99091787   -3.1623116   -1.6496862  0.066551851   -3.1623116    1.5126254   431441 
 3184000   0.98863121   -3.1590806   -1.6498514  0.073230967   -3.1590806    1.5092292   431414 
 3185000   0.98949869   -3.1598068   -1.6491097  0.064306997   -3.1598068    1.5106971   431373 
 3186000   0.98979871   -3.1600714    -1.648755  0.069224847   -3.1600714    1.5113163   431327 
 3187000   0.99069098   -3.1617306   -1.6490589  0.067856995   -3.1617306    1.5126717   431329 
 3188000   0.98968238   -3.1592417   -1.6480084  0.067487033   -3.1592417    1.5112333   431300 
 3189000   0.98902025   -3.1588857   -1.6484393  0.067663565   -3.1588857    1.5104464   431236 
 3190000   0.98855866   -3.1592985    -1.649438  0.059183837   -3.1592985    1.5098605   431202 
 3191000   0.99043102   -3.1620783   -1.6492529  0.060229607   -3.1620783    1.5128254   431172 
 3192000    0.9905956   -3.1626894   -1.6493809   0.06862542   -3.1626894    1.5133085   431106 
 3193000   0.98798817   -3.1607713   -1.6513201   0.06529168   -3.1607713    1.5094512   431070 
 3194000   0.98998987   -3.1621712   -1.6495952  0.066123332   -3.1621712    1.5125761   431051 
 3195000    0.9874081   -3.1593706   -1.6506097   0.06801525   -3.1593706     1.508761   431014 
 3196000   0.98766894   -3.1604784   -1.6511437  0.064142553   -3.1604784    1.5093346   430964 
 3197000   0.98749503   -3.1611459   -1.6520141  0.064051992   -3.1611459    1.5091319   430946 
 3198000   0.98971356   -3.1639392   -1.6511993  0.059963116   -3.1639392      1.51274   430884 
 3199000    0.9896518   -3.1640127   -1.6512337  0.067627338   -3.1640127     1.512779   430846 
 3200000   0.98947374   -3.1635719   -1.6510335  0.064484742   -3.1635719    1.5125384   430837 
 3201000   0.98772634   -3.1631008   -1.6531214  0.068603574   -3.1631008    1.5099794   430805 
 3202000    0.9885935   -3.1633061    -1.651787    0.0676844   -3.1633061    1.5115191   430744 
 3203000   0.98891738   -3.1660969   -1.6540966    0.0659366   -3.1660969    1.5120003   430748 
 3204000   0.98867759   -3.1652178   -1.6536052  0.067201169   -3.1652178    1.5116126   430754 
 3205000   0.98848133   -3.1648659   -1.6534165  0.063563208   -3.1648659    1.5114494   430715 
 3206000   0.98723174   -3.1646276   -1.6550188   0.06202991   -3.1646276    1.5096088   430695 
 3207000   0.98702545   -3.1639784   -1.6545939  0.065954231   -3.1639784    1.5093845   430669 
 3208000   0.98859439   -3.1669996   -1.6551667  0.066216549   -3.1669996    1.5118329   430655 
 3209000   0.98774922   -3.1658669   -1.6551091  0.064629774   -3.1658669    1.5107579   430593 
 3210000   0.98723554   -3.1667026   -1.6565129  0.060619653   -3.1667026    1.5101896   430531 
 3211000   0.98676146   -3.1651165   -1.6555819  0.067103568   -3.1651165    1.5095346   430511 
 3212000   0.98592011   -3.1634202   -1.6549554  0.067752895   -3.1634202    1.5084647   430449 
 3213000   0.98658127   -3.1654595   -1.6557903  0.067372644   -3.1654595    1.5096692   430394 
 3214000   0.98695615   -3.1668524   -1.6565148  0.061860592   -3.1668524    1.5103376   430367 
 3215000   0.98491989   -3.1655162   -1.6583122  0.066659232   -3.1655162     1.507204   430372 
 3216000   0.98553753   -3.1672646   -1.6590594  0.065067511   -3.1672646    1.5082052   430356 
 3217000   0.98675917   -3.1677113   -1.6574576  0.068497339   -3.1677113    1.5102537   430305 
 3218000   0.98588576   -3.1670569   -1.6579962  0.066765238   -3.1670569    1.5090607   430264 
 3219000   0.98547713    -3.168137   -1.6594844  0.069096826    -3.168137    1.5086526   430202 
 3220000   0.98508189   -3.1682049   -1.6599084   0.06605496   -3.1682049    1.5082965   430131 
 3221000   0.98592894   -3.1680032   -1.6582904  0.068865656   -3.1680032    1.5097128   430097 
 3222000   0.98617665   -3.1692371   -1.6589799  0.063627923   -3.1692371    1.5102571   430050 
 3223000   0.98610666   -3.1681156    -1.657899  0.067989374   -3.1681156    1.5102167   430031 
 3224000   0.98533472   -3.1667663   -1.6575388  0.066166651   -3.1667663    1.5092275   429976 
 3225000   0.98618955   -3.1680215   -1.6572141   0.07144938   -3.1680215    1.5108074   429899 
 3226000   0.98593482   -3.1678799    -1.657382  0.065938101   -3.1678799    1.5104979   429876 
 3227000   0.98673889   -3.1688037   -1.6570668  0.064212803   -3.1688037    1.5117368   429874 
 3228000   0.98594572   -3.1675305   -1.6570124   0.07190209   -3.1675305    1.5105182   429875 
 3229000   0.98652569   -3.1694301   -1.6578124  0.064777526   -3.1694301    1.5116177   429815 
 3230000   0.98604054   -3.1702756   -1.6593029  0.062655164   -3.1702756    1.5109727   429787 
 3231000   0.98507184   -3.1688004   -1.6591786  0.062616348   -3.1688004    1.5096218   429749 
 3232000   0.98436849   -3.1674527   -1.6587263  0.061402742   -3.1674527    1.5087265   429697 
 3233000   0.98491749   -3.1680451    -1.658428  0.061351562   -3.1680451    1.5096171   429683 
 3234000   0.98325932   -3.1667489   -1.6596382  0.065327928   -3.1667489    1.5071107   429673 
 3235000   0.98546285    -3.171149   -1.6605237  0.057902846    -3.171149    1.5106253   429634 
 3236000   0.98394325   -3.1691968   -1.6607008  0.066169461   -3.1691968     1.508496   429577 
 3237000   0.98423182   -3.1685931   -1.6595809  0.065752839   -3.1685931    1.5090122   429556 
 3238000   0.98402295   -3.1683063   -1.6595582  0.062064804   -3.1683063    1.5087481   429540 
 3239000   0.98533814   -3.1688773   -1.6581338  0.060518568   -3.1688773    1.5107435   429546 
 3240000   0.98702702   -3.1711763    -1.657794  0.066822666   -3.1711763    1.5133823   429532 
 3241000   0.98710568   -3.1707004   -1.6571481   0.06317888   -3.1707004    1.5135522   429518 
 3242000   0.98549358   -3.1681757   -1.6570039  0.067736833   -3.1681757    1.5111718   429492 
 3243000   0.98678986   -3.1692831   -1.6560354  0.069703247   -3.1692831    1.5132477   429467 
 3244000    0.9869791   -3.1689879   -1.6553583  0.069396307   -3.1689879    1.5136295   429441 
 3245000   0.98673083   -3.1694285   -1.6562044  0.072621066   -3.1694285    1.5132241   429448 
 3246000   0.98573203   -3.1693996    -1.657503  0.067190383   -3.1693996    1.5118965   429390 
 3247000   0.98613222   -3.1696911   -1.6572371  0.066078635   -3.1696911     1.512454   429406 
 3248000   0.98637239   -3.1702077   -1.6572057  0.064500359   -3.1702077     1.513002   429355 
 3249000   0.98654283   -3.1710573   -1.6575577  0.069433477   -3.1710573    1.5134997   429288 
 3250000    0.9851479   -3.1707326    -1.659292   0.06612404   -3.1707326    1.5114406   429265 
 3251000   0.98530317   -3.1698393   -1.6580654  0.067474762   -3.1698393    1.5117739   429238 
 3252000   0.98592701   -3.1710534   -1.6581743  0.068210808   -3.1710534    1.5128791   429196 
 3253000   0.98522335   -3.1715415   -1.6596118   0.06605976   -3.1715415    1.5119297   429159 
 3254000    0.9848568   -3.1706212    -1.659099  0.064464351   -3.1706212    1.5115222   429115 
 3255000   0.98572646   -3.1734372   -1.6604075  0.062709218   -3.1734372    1.5130297   429066 
 3256000   0.98450961   -3.1716566   -1.6605017  0.064080218   -3.1716566    1.5111548   429068 
 3257000   0.98486279   -3.1721936   -1.6603064  0.063225376   -3.1721936    1.5118872   429014 
 3258000   0.98186643   -3.1695691   -1.6620111  0.067034856   -3.1695691     1.507558   428937 
 3259000   0.98414548   -3.1720832   -1.6608745  0.065466949   -3.1720832    1.5112088   428894 
 3260000   0.98364508   -3.1712705   -1.6606963  0.066742922   -3.1712705    1.5105742   428856 
 3261000   0.98192995   -3.1692597   -1.6611752  0.065413924   -3.1692597    1.5080845   428815 
 3262000   0.98309532   -3.1708083   -1.6608319  0.061278206   -3.1708083    1.5099764   428786 
 3263000   0.98346505   -3.1711997   -1.6605815  0.069276836   -3.1711997    1.5106183   428765 
 3264000   0.98333774   -3.1707108   -1.6601295  0.067272011   -3.1707108    1.5105813   428720 
 3265000    0.9831416     -3.17067   -1.6602491  0.066477314     -3.17067    1.5104209   428680 
 3266000   0.98397462   -3.1714667   -1.6597872  0.058815043   -3.1714667    1.5116795   428686 
 3267000   0.98354534   -3.1717063   -1.6605982  0.065509972   -3.1717063    1.5111081   428661 
 3268000   0.98226504   -3.1698163   -1.6605415   0.06422058   -3.1698163    1.5092749   428623 
 3269000    0.9823016    -3.171717   -1.6621641  0.066097442    -3.171717     1.509553   428560 
 3270000   0.98185653   -3.1717487   -1.6629219  0.067030186   -3.1717487    1.5088267   428572 
 3271000   0.98107589   -3.1710986   -1.6633765  0.070099582   -3.1710986    1.5077221   428545 
 3272000   0.98227975   -3.1728134   -1.6632095  0.064143392   -3.1728134    1.5096039   428536 
 3273000   0.98178681   -3.1730923   -1.6639184  0.061415411   -3.1730923    1.5091739   428443 
 3274000   0.98158992   -3.1748738   -1.6659287  0.063102463   -3.1748738    1.5089452   428422 
 3275000    0.9820705   -3.1752062   -1.6654342  0.059505832   -3.1752062     1.509772   428397 
 3276000   0.98143492   -3.1726985   -1.6639987    0.0642098   -3.1726985    1.5086999   428424 
 3277000   0.98314861   -3.1749403   -1.6635885  0.059592542   -3.1749403    1.5113518   428419 
 3278000    0.9827913   -3.1740417   -1.6631298  0.065623265   -3.1740417    1.5109119   428388 
 3279000   0.98371846   -3.1765759   -1.6643658  0.063031092   -3.1765759    1.5122102   428424 
 3280000   0.98220968   -3.1747189     -1.66474  0.061487006   -3.1747189    1.5099789   428399 
 3281000   0.98178221   -3.1738584   -1.6643957  0.073505199   -3.1738584    1.5094627   428359 
 3282000   0.98339516   -3.1757383   -1.6636015  0.070219095   -3.1757383    1.5121368   428304 
 3283000   0.98218514   -3.1751003   -1.6647007  0.064190921   -3.1751003    1.5103996   428269 
 3284000   0.98188968   -3.1758378   -1.6655999  0.063391575   -3.1758378    1.5102379   428186 
 3285000   0.98230986   -3.1769519   -1.6660219  0.064520196   -3.1769519      1.51093   428173 
 3286000   0.98268665   -3.1779002   -1.6662883  0.063743531   -3.1779002     1.511612   428144 
 3287000   0.98092991   -3.1760978   -1.6671141  0.067016176   -3.1760978    1.5089837   428123 
 3288000   0.98032829   -3.1753928   -1.6671585  0.061213952   -3.1753928    1.5082344   428073 
 3289000   0.98101225   -3.1765949   -1.6671673  0.066490039   -3.1765949    1.5094277   428033 
 3290000   0.98165975   -3.1779118   -1.6674949  0.065614296   -3.1779118    1.5104169   428035 
 3291000   0.98241114    -3.178548   -1.6668691  0.065608022    -3.178548     1.511679   428005 
 3292000   0.98103859   -3.1770878   -1.6672598  0.062177218   -3.1770878     1.509828   427931 
 3293000   0.98163773   -3.1777513   -1.6670542  0.066293292   -3.1777513    1.5106971   427946 
 3294000   0.98161576   -3.1777645   -1.6668999  0.064466747   -3.1777645    1.5108645   427889 
 3295000   0.98135278   -3.1790058   -1.6684613  0.060460014   -3.1790058    1.5105445   427865 
 3296000   0.98074862   -3.1790176    -1.669156  0.061566907   -3.1790176    1.5098616   427795 
 3297000   0.98148408   -3.1806857   -1.6696636  0.066419246   -3.1806857    1.5110221   427787 
 3298000   0.98002346   -3.1794211   -1.6705031  0.069412645   -3.1794211     1.508918   427746 
 3299000   0.97984992   -3.1791046   -1.6704149  0.064568509   -3.1791046    1.5086896   427735 
 3300000    0.9792203   -3.1788792   -1.6709969  0.070170536   -3.1788792    1.5078824   427689 
 3301000   0.98005472   -3.1802769   -1.6711378  0.062741939   -3.1802769     1.509139   427697 
 3302000   0.97834284   -3.1788303   -1.6722499  0.062472537   -3.1788303    1.5065805   427675 
 3303000   0.97888259    -3.179461   -1.6718484  0.065193951    -3.179461    1.5076126   427618 
 3304000   0.98095087   -3.1810609   -1.6702805  0.061274566   -3.1810609    1.5107804   427623 
 3305000   0.97980115   -3.1813138   -1.6723112  0.058565112   -3.1813138    1.5090026   427625 
 3306000   0.97906521   -3.1811105   -1.6731426  0.066333144   -3.1811105    1.5079679   427597 
 3307000   0.97914436   -3.1811017   -1.6729202  0.060485415   -3.1811017    1.5081815   427571 
 3308000    0.9811522   -3.1829522   -1.6715366  0.064649228   -3.1829522    1.5114156   427531 
 3309000   0.98001317   -3.1836974   -1.6739198  0.061668853   -3.1836974    1.5097775   427498 
 3310000   0.98105247   -3.1852954   -1.6737577  0.059555631   -3.1852954    1.5115378   427453 
 3311000   0.97805541   -3.1811727   -1.6741821  0.063199699   -3.1811727    1.5069906   427433 
 3312000   0.97891353   -3.1831519   -1.6747509  0.061648178   -3.1831519     1.508401   427408 
 3313000   0.98030337   -3.1836233   -1.6729323  0.061165485   -3.1836233    1.5106911   427366 
 3314000   0.97924475   -3.1825754   -1.6735192  0.065756794   -3.1825754    1.5090561   427367 
 3315000   0.98024574   -3.1841453   -1.6734476  0.060018519   -3.1841453    1.5106977   427339 
 3316000   0.97900436   -3.1833368   -1.6743333  0.061240442   -3.1833368    1.5090035   427277 
 3317000   0.97932106   -3.1828209   -1.6731597  0.065384503   -3.1828209    1.5096612   427229 
 3318000   0.97707943   -3.1818775   -1.6754921  0.066747382   -3.1818775    1.5063855   427178 
 3319000   0.97734758   -3.1822846   -1.6752422  0.065115243   -3.1822846    1.5070423   427109 
 3320000   0.97986268   -3.1850097   -1.6739866  0.064573092   -3.1850097    1.5110231   427080 
 3321000   0.97840827   -3.1842274   -1.6754047  0.068391525   -3.1842274    1.5088227   427068 
 3322000   0.97783588    -3.185035   -1.6770455  0.066049854    -3.185035    1.5079895   427054 
 3323000   0.97955161   -3.1870287   -1.6761138  0.063846643   -3.1870287    1.5109149   426975 
 3324000   0.97883596    -3.186197   -1.6763506   0.06781878    -3.186197    1.5098464   426965 
 3325000   0.97786438   -3.1850662   -1.6767184   0.06577019   -3.1850662    1.5083478   426965 
 3326000   0.97822758   -3.1853953   -1.6763989  0.071076834   -3.1853953    1.5089964   426940 
 3327000   0.97834638   -3.1863468   -1.6770823   0.06671687   -3.1863468    1.5092645   426916 
 3328000   0.97665607    -3.183663   -1.6770344  0.064112497    -3.183663    1.5066286   426924 
 3329000   0.97755194   -3.1854979   -1.6774025  0.062642137   -3.1854979    1.5080954   426900 
 3330000   0.97674121   -3.1845667   -1.6777361  0.062235493   -3.1845667    1.5068306   426904 
 3331000   0.97649455   -3.1832355    -1.676722  0.065331139   -3.1832355    1.5065136   426886 
 3332000   0.97727164   -3.1857189   -1.6778617   0.06193669   -3.1857189    1.5078573   426845 
 3333000   0.97693028   -3.1840489   -1.6766442  0.068632869   -3.1840489    1.5074047   426824 
 3334000   0.97812293   -3.1854462   -1.6761588  0.059745218   -3.1854462    1.5092874   426812 
 3335000   0.97617518   -3.1825622   -1.6762096    0.0618014   -3.1825622    1.5063525   426792 
 3336000   0.97639449   -3.1824798   -1.6757323  0.064934732   -3.1824798    1.5067474   426776 
 3337000   0.97806268   -3.1855837   -1.6760391  0.065815914   -3.1855837    1.5095446   426713 
 3338000   0.97654323   -3.1828314   -1.6756143  0.067935914   -3.1828314    1.5072171   426708 
 3339000   0.97607176   -3.1820304   -1.6755056  0.064124436   -3.1820304    1.5065248   426698 
 3340000    0.9761539   -3.1836048   -1.6767449  0.063512382   -3.1836048    1.5068599   426639 
 3341000   0.97514225    -3.183224   -1.6778941  0.065341937    -3.183224      1.50533   426630 
 3342000   0.97595166   -3.1824636   -1.6758206  0.059991213   -3.1824636    1.5066431   426612 
 3343000   0.97738758    -3.186261   -1.6771713  0.063918338    -3.186261    1.5090897   426547 
 3344000   0.97621852   -3.1837584   -1.6762794  0.064267842   -3.1837584     1.507479   426492 
 3345000   0.97563395   -3.1822493   -1.6755635   0.06354822   -3.1822493    1.5066859   426461 
 3346000   0.97736614   -3.1859235    -1.676421  0.060272497   -3.1859235    1.5095025   426421 
 3347000    0.9766411   -3.1854187   -1.6768485  0.063393936   -3.1854187    1.5085702   426368 
 3348000   0.97675702    -3.184146   -1.6753649  0.065254064    -3.184146    1.5087811   426359 
 3349000   0.97606638   -3.1837601   -1.6761024  0.067073376   -3.1837601    1.5076577   426375 
 3350000   0.97703998   -3.1852901   -1.6760754  0.058853279   -3.1852901    1.5092147   426360 
 3351000   0.97587823   -3.1839216   -1.6764024   0.06860572   -3.1839216    1.5075191   426332 
 3352000   0.97494136   -3.1834405   -1.6772273  0.065213795   -3.1834405    1.5062132   426292 
 3353000   0.97623331   -3.1855774   -1.6771984  0.063562432   -3.1855774     1.508379   426244 
 3354000   0.97467161   -3.1835881   -1.6773535  0.063578562   -3.1835881    1.5062346   426168 
 3355000   0.97510244   -3.1846799   -1.6776239  0.063013167   -3.1846799     1.507056   426124 
 3356000   0.97311441    -3.182482   -1.6783292  0.060317952    -3.182482    1.5041528   426076 
 3357000   0.97408979   -3.1845271   -1.6787041  0.064755001   -3.1845271     1.505823   426030 
 3358000   0.97314535   -3.1845735   -1.6802105  0.062484478   -3.1845735    1.5043631   426030 
 3359000   0.97606181   -3.1880183    -1.679044   0.06359215   -3.1880183    1.5089743   426001 
 3360000   0.97524703   -3.1881445   -1.6803803  0.061006652   -3.1881445    1.5077642   425987 
 3361000   0.97418141   -3.1869593   -1.6807754  0.059496574   -3.1869593    1.5061839   425968 
 3362000   0.97309464   -3.1858952   -1.6813245  0.064878576   -3.1858952    1.5045707   425949 
 3363000    0.9732437   -3.1862228   -1.6812308  0.058212811   -3.1862228     1.504992   425895 
 3364000   0.97484418    -3.188703   -1.6811334  0.064329098    -3.188703    1.5075696   425866 
 3365000   0.97413497   -3.1877714   -1.6811465  0.067108967   -3.1877714    1.5066249   425823 
 3366000   0.97469201    -3.189324   -1.6818092  0.058338446    -3.189324    1.5075148   425815 
 3367000   0.97411848   -3.1867843   -1.6801424  0.064645817   -3.1867843    1.5066419   425811 
 3368000   0.97518084   -3.1894171   -1.6811179  0.064665072   -3.1894171    1.5082992   425807 
 3369000   0.97607387   -3.1893638   -1.6796763    0.0688916   -3.1893638    1.5096875   425805 
 3370000   0.97547065   -3.1898339   -1.6809412  0.062747537   -3.1898339    1.5088927   425766 
 3371000   0.97597646   -3.1910619   -1.6813726  0.065085482   -3.1910619    1.5096893   425762 
 3372000   0.97610781   -3.1913364   -1.6813871  0.065141532   -3.1913364    1.5099492   425746 
 3373000   0.97512328   -3.1891904   -1.6809555  0.068641468   -3.1891904    1.5082349   425800 
 3374000   0.97661562   -3.1914865   -1.6810533   0.05985117   -3.1914865    1.5104332   425831 
 3375000   0.97297288   -3.1868229   -1.6821331  0.062951468   -3.1868229    1.5046898   425862 
 3376000    0.9720629   -3.1860205   -1.6824449  0.060098347   -3.1860205    1.5035756   425779 
 3377000   0.97283536   -3.1881725   -1.6832996     0.059656   -3.1881725    1.5048729   425750 
 3378000   0.97512571    -3.189047   -1.6805249  0.064165047    -3.189047    1.5085221   425720 
 3379000   0.97545025   -3.1891015   -1.6800738  0.065741289   -3.1891015    1.5090277   425719 
 3380000   0.97549632    -3.188515   -1.6794727  0.067089798    -3.188515    1.5090423   425735 
 3381000   0.97295569   -3.1866578   -1.6813972   0.06371235   -3.1866578    1.5052606   425693 
 3382000   0.97266706    -3.188698   -1.6835587  0.061526816    -3.188698    1.5051393   425601 
 3383000   0.97275352   -3.1894627    -1.684048  0.059293245   -3.1894627    1.5054146   425561 
 3384000    0.9731839   -3.1892903   -1.6833725  0.064734655   -3.1892903    1.5059179   425607 
 3385000   0.97328106   -3.1906943   -1.6845942  0.066300046   -3.1906943    1.5061001   425598 
 3386000   0.97140883   -3.1885436   -1.6852065  0.058485264   -3.1885436    1.5033371   425560 
 3387000    0.9714772    -3.188447   -1.6850819  0.060260424    -3.188447    1.5033652   425582 
 3388000   0.97332456   -3.1907738    -1.684479  0.054924257   -3.1907738    1.5062948   425562 
 3389000    0.9731168   -3.1909654   -1.6849497   0.05882136   -3.1909654    1.5060157   425550 
 3390000   0.97213049   -3.1894463   -1.6848651  0.062764814   -3.1894463    1.5045812   425524 
 3391000   0.97350515   -3.1907845   -1.6839482  0.061826408   -3.1907845    1.5068363   425488 
 3392000   0.97460271   -3.1923646   -1.6837692   0.05823098   -3.1923646    1.5085954   425471 
 3393000   0.97304641   -3.1905968   -1.6844316  0.065107565   -3.1905968    1.5061652   425477 
 3394000   0.97430517   -3.1923645   -1.6841801  0.062920417   -3.1923645    1.5081845   425457 
 3395000   0.97519007    -3.192791   -1.6831551  0.061614114    -3.192791    1.5096359   425434 
 3396000   0.97515583   -3.1934627   -1.6837201  0.066579018   -3.1934627    1.5097426   425389 
 3397000   0.97544524   -3.1950185   -1.6847746  0.062072229   -3.1950185    1.5102439   425374 
 3398000   0.97404544   -3.1922832   -1.6840754  0.067926503   -3.1922832    1.5082078   425337 
 3399000    0.9739571   -3.1935971   -1.6854161  0.065043704   -3.1935971    1.5081809   425306 
 3400000   0.97335225    -3.194593   -1.6872459  0.067795368    -3.194593    1.5073471   425277 
 3401000   0.97151314   -3.1914068   -1.6869255  0.065560859   -3.1914068    1.5044814   425282 
 3402000   0.96953392   -3.1894547   -1.6878971  0.062348367   -3.1894547    1.5015576   425242 
 3403000   0.96997756   -3.1909464   -1.6886629  0.063831684   -3.1909464    1.5022835   425231 
 3404000   0.97100461   -3.1918891   -1.6878769   0.06847744   -3.1918891    1.5040121   425192 
 3405000   0.97181941   -3.1938244   -1.6884334  0.069264476   -3.1938244     1.505391   425159 
 3406000   0.97066294    -3.193562   -1.6897927  0.054466625    -3.193562    1.5037694   425111 
 3407000   0.96998431   -3.1929816   -1.6901858  0.062266562   -3.1929816    1.5027958   425089 
 3408000   0.96897019   -3.1917624   -1.6904813   0.06358432   -3.1917624    1.5012811   425073 
 3409000   0.97130421   -3.1939755   -1.6889896  0.062882629   -3.1939755    1.5049859   425048 
 3410000   0.96941991   -3.1926121   -1.6903126  0.066205563   -3.1926121    1.5022995   424982 
 3411000   0.96994345   -3.1947694   -1.6916232  0.060297314   -3.1947694    1.5031462   424972 
 3412000   0.97035501   -3.1958942   -1.6918482  0.051691805   -3.1958942    1.5040459   424898 
 3413000   0.97091853   -3.1957102   -1.6907944  0.060827496   -3.1957102    1.5049158   424899 
 3414000   0.96984561   -3.1946243   -1.6913997  0.060978786   -3.1946243    1.5032245   424907 
 3415000   0.97099605   -3.1971482   -1.6921334  0.061176716   -3.1971482    1.5050147   424905 
 3416000    0.9700664   -3.1966013   -1.6929673  0.062196691   -3.1966013     1.503634   424888 
 3417000   0.96923757   -3.1960147   -1.6936301  0.064868838   -3.1960147    1.5023846   424878 
 3418000   0.97025357   -3.1982682   -1.6943087  0.064175506   -3.1982682    1.5039595   424878 
 3419000   0.97093521   -3.1976514   -1.6924653  0.063225024   -3.1976514    1.5051861   424830 
 3420000   0.96985146   -3.1980545   -1.6943821  0.060670749   -3.1980545    1.5036724   424783 
 3421000   0.96829871   -3.1950422   -1.6936252  0.067127323   -3.1950422     1.501417   424740 
 3422000   0.97070714   -3.1970522   -1.6919539  0.068778247   -3.1970522    1.5050983   424755 
 3423000   0.97125955   -3.1986204   -1.6925841  0.067158138   -3.1986204    1.5060363   424732 
 3424000   0.96988032   -3.1957351   -1.6918268  0.067690345   -3.1957351    1.5039083   424729 
 3425000   0.97010324   -3.1969859   -1.6925442  0.062292283   -3.1969859    1.5044417   424676 
 3426000   0.96902251   -3.1978096   -1.6950439  0.066988783   -3.1978096    1.5027657   424676 
 3427000    0.9708302   -3.2010004   -1.6952186  0.057373522   -3.2010004    1.5057818   424616 
 3428000   0.96756204   -3.1957498   -1.6950122  0.063215417   -3.1957498    1.5007376   424609 
 3429000    0.9709707   -3.2002308   -1.6941282  0.062681045   -3.2002308    1.5061026   424587 
 3430000    0.9700007   -3.1984295   -1.6937571  0.063209165   -3.1984295    1.5046724   424566 
 3431000   0.96766605   -3.1967556   -1.6956304  0.061149243   -3.1967556    1.5011252   424545 
 3432000   0.96836493   -3.1973485   -1.6950117   0.06121946   -3.1973485    1.5023367   424509 
 3433000   0.96956014   -3.1994472   -1.6951144  0.060717618   -3.1994472    1.5043327   424469 
 3434000   0.96898874   -3.1990134   -1.6953299  0.059100294   -3.1990134    1.5036835   424402 
 3435000   0.96905518   -3.1990383   -1.6950249  0.061854058   -3.1990383    1.5040134   424338 
 3436000   0.96786775   -3.1989953    -1.696623  0.061796369   -3.1989953    1.5023723   424281 
 3437000   0.96870847   -3.1998523   -1.6961502  0.058943319   -3.1998523    1.5037021   424274 
 3438000   0.96933383   -3.2008223   -1.6960786  0.057908016   -3.2008223    1.5047438   424254 
 3439000   0.96686233   -3.1973607   -1.6963863   0.06034015   -3.1973607    1.5009744   424235 
 3440000   0.96722104   -3.1988154   -1.6972311  0.060366432   -3.1988154    1.5015843   424220 
 3441000    0.9672474   -3.1986031   -1.6969566  0.060332286   -3.1986031    1.5016465   424214 
 3442000   0.96710622   -3.1981994   -1.6968429  0.057791119   -3.1981994    1.5013565   424234 
 3443000   0.96657614   -3.1992968    -1.698558  0.063159691   -3.1992968    1.5007388   424176 
 3444000   0.96675329   -3.1988633   -1.6977327  0.061251742   -3.1988633    1.5011306   424143 
 3445000   0.96635727   -3.1987567   -1.6979579  0.064405164   -3.1987567    1.5007988   424063 
 3446000   0.96601438   -3.1994053   -1.6990293  0.061650502   -3.1994053    1.5003759   424032 
 3447000   0.96630574   -3.1999275   -1.6990176  0.054573539   -3.1999275    1.5009099   424009 
 3448000   0.96471885   -3.1982391   -1.6997304  0.061046446   -3.1982391    1.4985087   423991 
 3449000   0.96389268   -3.1974626   -1.7001419  0.058210722   -3.1974626    1.4973207   423964 
 3450000   0.96408817   -3.1985861   -1.7009123  0.059722184   -3.1985861    1.4976738   423950 
 3451000   0.96578228   -3.1991104   -1.6986314  0.064737391   -3.1991104     1.500479   423901 
 3452000   0.96477375   -3.1988792   -1.7000555  0.056632675   -3.1988792    1.4988237   423926 
 3453000   0.96592007   -3.2017425   -1.7009751  0.054130643   -3.2017425    1.5007674   423880 
 3454000   0.96569532   -3.1999071   -1.6994818  0.059540202   -3.1999071    1.5004253   423878 
 3455000   0.96707522   -3.2019094   -1.6991558  0.054849635   -3.2019094    1.5027537   423826 
 3456000   0.96699858   -3.2007757   -1.6981589  0.061590863   -3.2007757    1.5026168   423831 
 3457000   0.96679697   -3.1997841   -1.6974522  0.063034863   -3.1997841    1.5023319   423823 
 3458000   0.96679489   -3.2003275   -1.6978854  0.059659239   -3.2003275    1.5024421   423791 
 3459000   0.96723602   -3.2014204   -1.6982821  0.062115978   -3.2014204    1.5031383   423788 
 3460000   0.96570529   -3.2005613   -1.6998408  0.063277377   -3.2005613    1.5007205   423799 
 3461000   0.96671816   -3.2018153   -1.6993223  0.060474239   -3.2018153    1.5024931   423743 
 3462000   0.96715044   -3.2022157   -1.6989834  0.062357287   -3.2022157    1.5032323   423724 
 3463000    0.9660613   -3.2017255   -1.7001931  0.062799663   -3.2017255    1.5015324   423726 
 3464000   0.96582822   -3.2019862   -1.7007346  0.060968322   -3.2019862    1.5012516   423703 
 3465000   0.96582848    -3.200093   -1.6987666  0.064714333    -3.200093    1.5013264   423682 
 3466000   0.96658463   -3.2030194   -1.7001664  0.059443114   -3.2030194     1.502853   423583 
 3467000   0.96463456   -3.2003745   -1.7004119  0.058349958   -3.2003745    1.4999626   423543 
 3468000    0.9659475   -3.2031362   -1.7009937   0.06334448   -3.2031362    1.5021425   423504 
 3469000   0.96527964   -3.2011596   -1.6999387  0.058827117   -3.2011596    1.5012209   423471 
 3470000   0.96501927   -3.2017511   -1.7008643  0.058688506   -3.2017511    1.5008869   423451 
 3471000   0.96503452   -3.2029818   -1.7021279  0.057810317   -3.2029818    1.5008539   423467 
 3472000    0.9650836   -3.2019462   -1.7008955  0.062127687   -3.2019462    1.5010507   423433 
 3473000   0.96546808   -3.2024877   -1.7007787  0.053711417   -3.2024877     1.501709   423416 
 3474000   0.96588652   -3.2016989   -1.6992893  0.059190565   -3.2016989    1.5024095   423402 
 3475000   0.96444146   -3.1999939   -1.6997719   0.05936752   -3.1999939     1.500222   423385 
 3476000   0.96559943   -3.2027608    -1.700585  0.058997098   -3.2027608    1.5021759   423342 
 3477000   0.96301496   -3.1996478   -1.7014465  0.061885747   -3.1996478    1.4982012   423329 
 3478000   0.96385676    -3.199979    -1.700415  0.060812953    -3.199979     1.499564   423314 
 3479000   0.96235906   -3.1990405   -1.7016298  0.059218172   -3.1990405    1.4974107   423264 
 3480000   0.96323477   -3.1995435   -1.7007347  0.056480335   -3.1995435    1.4988087   423254 
 3481000   0.96240115   -3.2003088   -1.7027724  0.052145355   -3.2003088    1.4975364   423247 
 3482000   0.96168958   -3.1978198   -1.7013695  0.063799527   -3.1978198    1.4964503   423241 
 3483000   0.96287354   -3.1991421   -1.7008565  0.058839207   -3.1991421    1.4982856   423243 
 3484000   0.96152672   -3.1981661   -1.7020575  0.061097594   -3.1981661    1.4961086   423266 
 3485000   0.96267705   -3.1995292    -1.701652  0.058245736   -3.1995292    1.4978772   423272 
 3486000   0.96261283   -3.2000932   -1.7020186  0.058614092   -3.2000932    1.4980746   423188 
 3487000   0.96369291   -3.2009109   -1.7010314  0.062593461   -3.2009109    1.4998795   423153 
 3488000   0.96406706   -3.1989283   -1.6983423   0.05698815   -3.1989283     1.500586   423118 
 3489000   0.96107307   -3.1948908   -1.6989014  0.058750871   -3.1948908    1.4959894   423100 
 3490000   0.96401021   -3.1994385   -1.6987424   0.05981164   -3.1994385    1.5006961   423062 
 3491000    0.9633809   -3.2006232   -1.7007615  0.058745719   -3.2006232    1.4998618   423021 
 3492000   0.96287961   -3.2004825   -1.7012913  0.062886086   -3.2004825    1.4991912   422990 
 3493000   0.96211149   -3.1996437   -1.7014749  0.054181898   -3.1996437    1.4981688   422941 
 3494000   0.96109906   -3.1978992   -1.7011618  0.061473352   -3.1978992    1.4967374   422900 
 3495000   0.96215814   -3.1982429   -1.6998243   0.05982095   -3.1982429    1.4984186   422891 
 3496000   0.96231521   -3.1988248   -1.7000412   0.06103108   -3.1988248    1.4987837   422857 
 3497000   0.96262119   -3.2000218   -1.7007509  0.057662013   -3.2000218    1.4992709   422854 
 3498000   0.96115037    -3.197782    -1.700678  0.061337804    -3.197782     1.497104   422819 
 3499000   0.96069675   -3.1988597   -1.7023242  0.056580852   -3.1988597    1.4965355   422780 
 3500000   0.96370248   -3.2027537   -1.7015537   0.05679389   -3.2027537    1.5011999   422785 
 3501000   0.96306869   -3.2014515   -1.7010969  0.059157254   -3.2014515    1.5003546   422745 
 3502000    0.9630792   -3.2015832   -1.7012193  0.061597452   -3.2015832    1.5003639   422747 
 3503000   0.96238789   -3.2005964   -1.7010967  0.063173394   -3.2005964    1.4994997   422687 
 3504000    0.9622913   -3.2016614    -1.702408  0.056016696   -3.2016614    1.4992535   422714 
 3505000   0.96180438   -3.2025019   -1.7039965     0.060018   -3.2025019    1.4985055   422711 
 3506000   0.96156973   -3.2016391    -1.703439  0.058099842   -3.2016391    1.4982001   422694 
 3507000   0.96262062   -3.2031928   -1.7032098  0.054538552   -3.2031928     1.499983   422653 
 3508000   0.96226533   -3.2015094   -1.7020694  0.058237203   -3.2015094      1.49944   422650 
 3509000   0.96116218   -3.2001949   -1.7023817  0.058407006   -3.2001949    1.4978132   422624 
 3510000    0.9611258   -3.1990615   -1.7011845  0.063822355   -3.1990615     1.497877   422590 
 3511000   0.96183769    -3.202233   -1.7031472  0.058913408    -3.202233    1.4990858   422562 
 3512000   0.96175566   -3.2010533    -1.701996  0.059870553   -3.2010533    1.4990573   422534 
 3513000   0.96117859   -3.2010152    -1.702822   0.05896511   -3.2010152    1.4981933   422524 
 3514000    0.9620865   -3.2036561   -1.7039519  0.052705871   -3.2036561    1.4997043   422497 
 3515000   0.96299566   -3.2033076   -1.7020902  0.059681635   -3.2033076    1.5012174   422470 
 3516000   0.96198307   -3.2031371   -1.7033811  0.060535937   -3.2031371     1.499756   422437 
 3517000   0.96131714   -3.2042558   -1.7054635  0.058905566   -3.2042558    1.4987923   422416 
 3518000   0.96093818   -3.2029941   -1.7047182  0.057646813   -3.2029941     1.498276   422395 
 3519000   0.96190658   -3.2043256   -1.7044048   0.05909106   -3.2043256    1.4999208   422357 
 3520000   0.96146648   -3.2029999   -1.7037759   0.05951967   -3.2029999    1.4992239   422360 
 3521000   0.96020085   -3.2004547   -1.7032362   0.06119458   -3.2004547    1.4972185   422369 
 3522000   0.96164455   -3.2043655   -1.7048711  0.054847196   -3.2043655    1.4994945   422362 
 3523000   0.96043017    -3.201633   -1.7040498  0.059175869    -3.201633    1.4975832   422367 
 3524000   0.96046981   -3.2029413   -1.7052148  0.057887611   -3.2029413    1.4977265   422344 
 3525000   0.96050178    -3.201946   -1.7040845  0.062934318    -3.201946    1.4978615   422320 
 3526000   0.95927157   -3.2015255   -1.7054903  0.057463983   -3.2015255    1.4960351   422294 
 3527000     0.959946   -3.2029599   -1.7057453  0.057013917   -3.2029599    1.4972146   422258 
 3528000    0.9616011   -3.2047451   -1.7050201  0.057662355   -3.2047451     1.499725   422278 
 3529000   0.96123978   -3.2027051   -1.7035933  0.061638023   -3.2027051    1.4991118   422292 
 3530000   0.96019912   -3.2017745    -1.704119   0.05944019   -3.2017745    1.4976555   422245 
 3531000   0.95939696   -3.2023148   -1.7058432  0.062587851   -3.2023148    1.4964717   422226 
 3532000   0.96155056   -3.2050067   -1.7049875  0.057284619   -3.2050067    1.5000192   422173 
 3533000   0.96081125   -3.2040205   -1.7051725  0.057773016   -3.2040205    1.4988481   422178 
 3534000   0.96038869   -3.2039946   -1.7055679   0.06509379   -3.2039946    1.4984267   422111 
 3535000   0.95987033   -3.2044438   -1.7067407  0.059047571   -3.2044438    1.4977031   422087 
 3536000   0.96118445   -3.2066313   -1.7066148  0.056258477   -3.2066313    1.5000165   422013 
 3537000   0.95960954   -3.2039421   -1.7063443  0.061679121   -3.2039421    1.4975978   422002 
 3538000     0.961823   -3.2064752   -1.7054408  0.060172114   -3.2064752    1.5010344   422007 
 3539000   0.96068861      -3.2068   -1.7075182  0.055325914      -3.2068    1.4992818   422002 
 3540000   0.95932568   -3.2049575   -1.7079127  0.055472074   -3.2049575    1.4970448   422033 
 3541000   0.96012972   -3.2062765   -1.7079273  0.058149775   -3.2062765    1.4983492   422019 
 3542000   0.95965116   -3.2066498   -1.7089907  0.056168741   -3.2066498    1.4976591   422003 
 3543000   0.95849377   -3.2055245   -1.7094837  0.058657823   -3.2055245    1.4960408   421950 
 3544000   0.95952929   -3.2068399   -1.7091261    0.0586756   -3.2068399    1.4977138   421934 
 3545000   0.95911042   -3.2069596   -1.7098002  0.057686978   -3.2069596    1.4971594   421906 
 3546000   0.95890117   -3.2088196   -1.7118946  0.065069045   -3.2088196     1.496925   421880 
 3547000   0.95708399    -3.205188   -1.7110396  0.058090348    -3.205188    1.4941484   421863 
 3548000   0.95841062   -3.2070094   -1.7107261  0.054989617   -3.2070094    1.4962834   421845 
 3549000   0.95946486   -3.2074665    -1.709452  0.060376213   -3.2074665    1.4980145   421821 
 3550000   0.96121232   -3.2103331   -1.7095832  0.057009008   -3.2103331    1.5007499   421819 
 3551000   0.95960191   -3.2077318   -1.7095033   0.06145629   -3.2077318    1.4982284   421821 
 3552000   0.95863024   -3.2060109    -1.709367  0.063754783   -3.2060109     1.496644   421840 
 3553000   0.96001191   -3.2076488   -1.7088655  0.064887807   -3.2076488    1.4987833   421845 
 3554000   0.96001347   -3.2084665    -1.709695  0.057255926   -3.2084665    1.4987715   421849 
 3555000   0.95995652    -3.208941   -1.7100736  0.058850802    -3.208941    1.4988674   421797 
 3556000   0.95852323   -3.2076608    -1.710932  0.057909179   -3.2076608    1.4967288   421769 
 3557000   0.95960328   -3.2093109   -1.7107464  0.055149044   -3.2093109    1.4985645   421727 
 3558000   0.95964338   -3.2105422    -1.711979  0.062398606   -3.2105422    1.4985632   421745 
 3559000     0.959389   -3.2110307   -1.7127901  0.064316696   -3.2110307    1.4982406   421724 
 3560000    0.9585449   -3.2102588   -1.7132974  0.054103436   -3.2102588    1.4969614   421713 
 3561000   0.96069298   -3.2120611    -1.711681  0.058615041   -3.2120611    1.5003801   421695 
 3562000   0.95953172   -3.2100365   -1.7113385  0.063231594   -3.2100365     1.498698   421658 
 3563000   0.95952696   -3.2111712   -1.7124593   0.06249021   -3.2111712    1.4987119   421652 
 3564000   0.95891591   -3.2123272   -1.7144845  0.058777938   -3.2123272    1.4978427   421628 
 3565000   0.95974375   -3.2132009   -1.7140259  0.061214831   -3.2132009    1.4991749   421617 
 3566000   0.95895008   -3.2126157   -1.7146166  0.060311964   -3.2126157    1.4979991   421599 
 3567000   0.95894343   -3.2126464   -1.7147678  0.058776873   -3.2126464    1.4978786   421630 
 3568000   0.95856224   -3.2132138   -1.7158277  0.056957984   -3.2132138    1.4973862   421601 
 3569000   0.95758715   -3.2115523    -1.715629  0.060157465   -3.2115523    1.4959233   421584 
 3570000   0.95900324   -3.2149013   -1.7167232  0.055356183   -3.2149013    1.4981781   421572 
 3571000    0.9601918   -3.2173053   -1.7172277  0.059374088   -3.2173053    1.5000776   421560 
 3572000   0.95879942   -3.2139621   -1.7159318  0.057601259   -3.2139621    1.4980303   421524 
 3573000   0.96080036   -3.2158016   -1.7145917  0.056858211   -3.2158016      1.50121   421509 
 3574000   0.95920395   -3.2138352   -1.7151587  0.064000995   -3.2138352    1.4986765   421520 
 3575000   0.95945839   -3.2143635   -1.7152325   0.06456139   -3.2143635     1.499131   421504 
 3576000   0.96042119   -3.2164587   -1.7157949  0.056865288   -3.2164587    1.5006638   421496 
 3577000   0.96013643   -3.2153345   -1.7151335  0.062592853   -3.2153345    1.5002011   421501 
 3578000   0.96099112    -3.217317   -1.7156486  0.057067062    -3.217317    1.5016683   421464 
 3579000   0.95842337   -3.2150707   -1.7172868  0.062075821   -3.2150707    1.4977838   421428 
 3580000   0.95945574    -3.217085   -1.7176701  0.058741881    -3.217085     1.499415   421423 
 3581000   0.95905243   -3.2164183   -1.7176265  0.061388695   -3.2164183    1.4987918   421421 
 3582000   0.95967818   -3.2166348   -1.7167441  0.064280666   -3.2166348    1.4998907   421387 
 3583000   0.95871889   -3.2149764   -1.7164143  0.062307772   -3.2149764    1.4985621   421339 
 3584000   0.95746473   -3.2141563   -1.7175297  0.062343757   -3.2141563    1.4966266   421332 
 3585000   0.95864521   -3.2168047   -1.7182546  0.057911636   -3.2168047    1.4985501   421310 
 3586000   0.95763843   -3.2160948   -1.7189195  0.061342523   -3.2160948    1.4971753   421254 
 3587000   0.95918544   -3.2179115   -1.7181467  0.059386415   -3.2179115    1.4997648   421206 
 3588000   0.95863767   -3.2170828    -1.718114  0.059573815   -3.2170828    1.4989688   421189 
 3589000   0.95755294   -3.2152926   -1.7179097   0.05842983   -3.2152926    1.4973829   421158 
 3590000   0.95782347   -3.2155759   -1.7176312   0.06256797   -3.2155759    1.4979447   421119 
 3591000   0.95813364   -3.2161395   -1.7175852  0.057307978   -3.2161395    1.4985543   421084 
 3592000   0.95888945    -3.217709   -1.7179192  0.060529899    -3.217709    1.4997898   421069 
 3593000   0.95910268    -3.216509   -1.7162574  0.058892569    -3.216509    1.5002516   421033 
 3594000   0.95751826   -3.2145898   -1.7166386  0.060855078   -3.2145898    1.4979511   420983 
 3595000   0.95635961   -3.2140376   -1.7179666  0.057574966   -3.2140376     1.496071   421002 
 3596000   0.95615584   -3.2137672   -1.7180256  0.058211631   -3.2137672    1.4957416   421005 
 3597000   0.95687684   -3.2156339   -1.7186506  0.059780517   -3.2156339    1.4969832   420973 
 3598000   0.95625324   -3.2148896   -1.7189672  0.060198285   -3.2148896    1.4959224   420997 
 3599000    0.9565566   -3.2144025   -1.7180731  0.060968318   -3.2144025    1.4963294   421016 
 3600000   0.95665138   -3.2162783   -1.7196442  0.061926097   -3.2162783    1.4966341   420972 
 3601000   0.95525641   -3.2120689   -1.7176314  0.054570374   -3.2120689    1.4944375   420976 
 3602000   0.95647384   -3.2139737   -1.7176529  0.056289531   -3.2139737    1.4963208   420982 
 3603000   0.95611746    -3.215225   -1.7193089  0.056469278    -3.215225     1.495916   420939 
 3604000   0.95616971   -3.2143618   -1.7183178  0.059610123   -3.2143618     1.496044   420926 
 3605000    0.9574169   -3.2168689   -1.7188201  0.058254045   -3.2168689    1.4980487   420911 
 3606000   0.95490604   -3.2140524   -1.7199821  0.062919291   -3.2140524    1.4940704   420925 
 3607000   0.95573222   -3.2149475    -1.719485  0.064761099   -3.2149475    1.4954625   420897 
 3608000   0.95703292   -3.2165858   -1.7192375  0.058141544   -3.2165858    1.4973483   420939 
 3609000   0.95587228   -3.2162062   -1.7205743  0.059451202   -3.2162062    1.4956319   420911 
 3610000   0.95787269   -3.2173779   -1.7186552  0.059853855   -3.2173779    1.4987227   420922 
 3611000   0.95652786   -3.2151421   -1.7186053  0.062019763   -3.2151421    1.4965368   420945 
 3612000   0.95633004   -3.2157648   -1.7194771  0.056032183   -3.2157648    1.4962877   420928 
 3613000   0.95806049   -3.2195361   -1.7204269  0.061495449   -3.2195361    1.4991092   420896 
 3614000   0.95692825   -3.2184191    -1.721014  0.065118985   -3.2184191    1.4974051   420877 
 3615000   0.95740592   -3.2177138   -1.7197641  0.053805421   -3.2177138    1.4979497   420934 
 3616000   0.95777227   -3.2178173   -1.7193692  0.063237878   -3.2178173    1.4984481   420955 
 3617000   0.95698732   -3.2169265   -1.7195214  0.062488341   -3.2169265    1.4974051   420903 
 3618000   0.95826479   -3.2189634   -1.7195524  0.054982379   -3.2189634    1.4994111   420901 
 3619000   0.95844196   -3.2193188   -1.7194595   0.05842139   -3.2193188    1.4998593   420853 
 3620000   0.95808961   -3.2192919   -1.7198308  0.064534266   -3.2192919    1.4994611   420810 
 3621000    0.9569691   -3.2194799   -1.7216799  0.058451992   -3.2194799       1.4978   420784 
 3622000   0.95857155   -3.2208867   -1.7205786   0.06430032   -3.2208867    1.5003081   420784 
 3623000   0.95727193   -3.2202919   -1.7219076   0.06433406   -3.2202919    1.4983844   420753 
 3624000   0.95585196   -3.2201198   -1.7239403   0.05914844   -3.2201198    1.4961795   420748 
 3625000   0.95627967    -3.220899   -1.7241958  0.059408175    -3.220899    1.4967032   420789 
 3626000   0.95547126   -3.2207812   -1.7252865   0.06055159   -3.2207812    1.4954948   420773 
 3627000    0.9549571   -3.2193618   -1.7245582  0.061586437   -3.2193618    1.4948037   420741 
 3628000   0.95482422   -3.2212196   -1.7264499  0.059039952   -3.2212196    1.4947698   420692 
 3629000   0.95347156   -3.2187203   -1.7260362  0.057930586   -3.2187203    1.4926841   420683 
 3630000   0.95497954   -3.2215637   -1.7264691  0.051785101   -3.2215637    1.4950947   420669 
 3631000   0.95421634    -3.219049   -1.7251953  0.063505249    -3.219049    1.4938536   420682 
 3632000   0.95447496    -3.221072   -1.7268739  0.057047537    -3.221072    1.4941981   420699 
 3633000   0.95608404   -3.2222278   -1.7255996  0.056438107   -3.2222278    1.4966282   420724 
 3634000   0.95550052   -3.2218339   -1.7260872  0.059199701   -3.2218339    1.4957467   420715 
 3635000   0.95443866    -3.219183   -1.7249032  0.061367431    -3.219183    1.4942798   420660 
 3636000   0.95633084   -3.2218122   -1.7245877  0.061101233   -3.2218122    1.4972245   420665 
 3637000    0.9552809   -3.2212402   -1.7255564  0.062789944   -3.2212402    1.4956838   420636 
 3638000   0.95627901   -3.2238451   -1.7265843  0.057718023   -3.2238451    1.4972608   420632 
 3639000   0.95674823   -3.2236236   -1.7255106  0.058586579   -3.2236236     1.498113   420599 
 3640000   0.95691326   -3.2238225   -1.7253941  0.060860698   -3.2238225    1.4984284   420583 
 3641000   0.95603948   -3.2243729   -1.7272167  0.062819094   -3.2243729    1.4971562   420556 
 3642000   0.95655236   -3.2235624   -1.7254926  0.062527991   -3.2235624    1.4980698   420525 
 3643000    0.9560366   -3.2253379   -1.7279975  0.056433369   -3.2253379    1.4973404   420503 
 3644000   0.95447189   -3.2227645   -1.7279209  0.057246436   -3.2227645    1.4948436   420516 
 3645000   0.95522297   -3.2237397   -1.7275953  0.061418001   -3.2237397    1.4961444   420481 
 3646000   0.95608459   -3.2251138   -1.7274596  0.054648163   -3.2251138    1.4976542   420436 
 3647000   0.95501362   -3.2236844    -1.727633  0.062544161   -3.2236844    1.4960513   420415 
 3648000    0.9557789   -3.2242281   -1.7269388  0.055494347   -3.2242281    1.4972893   420404 
 3649000   0.95733319   -3.2262083   -1.7263841  0.056303531   -3.2262083    1.4998241   420376 
 3650000   0.95524532   -3.2243806   -1.7277741  0.060870731   -3.2243806    1.4966065   420361 
 3651000   0.95512585   -3.2245443   -1.7281499  0.052333658   -3.2245443    1.4963944   420368 
 3652000   0.95511774   -3.2240257   -1.7274695  0.058110438   -3.2240257    1.4965562   420319 
 3653000   0.95411235   -3.2237939   -1.7286779  0.059477482   -3.2237939     1.495116   420281 
 3654000   0.95514115   -3.2251458   -1.7284283  0.060864098   -3.2251458    1.4967175   420284 
 3655000   0.95395009   -3.2229667   -1.7282579  0.059206844   -3.2229667    1.4947088   420324 
 3656000   0.95427512   -3.2235869   -1.7283403  0.062057355   -3.2235869    1.4952466   420316 
 3657000   0.95439241    -3.223889   -1.7283377  0.054995497    -3.223889    1.4955513   420282 
 3658000   0.95237489   -3.2212238   -1.7289085  0.058643988   -3.2212238    1.4923153   420303 
 3659000   0.95391941   -3.2216034   -1.7268466   0.05676983   -3.2216034    1.4947568   420297 
 3660000   0.95449559   -3.2233564    -1.727647  0.059672538   -3.2233564    1.4957094   420283 
 3661000    0.9542394   -3.2230311    -1.727716  0.057180208   -3.2230311    1.4953151   420281 
 3662000   0.95424785   -3.2237623   -1.7282062  0.059825103   -3.2237623    1.4955561   420217 
 3663000   0.95347179   -3.2220667   -1.7276914  0.061497518   -3.2220667    1.4943754   420207 
 3664000   0.95384831   -3.2231584   -1.7280897    0.0571163   -3.2231584    1.4950687   420178 
 3665000   0.95541443   -3.2241554   -1.7266569  0.051727968   -3.2241554    1.4974985   420185 
 3666000   0.95482172   -3.2233777   -1.7267868  0.058000644   -3.2233777    1.4965908   420179 
 3667000   0.95527392   -3.2246092    -1.727217  0.058735516   -3.2246092    1.4973923   420153 
 3668000   0.95398708   -3.2224884   -1.7270492  0.062359608   -3.2224884    1.4954392   420135 
 3669000   0.95384409   -3.2219906   -1.7267649  0.056228151   -3.2219906    1.4952257   420132 
 3670000   0.95305782   -3.2228527   -1.7286994  0.060837759   -3.2228527    1.4941532   420087 
 3671000   0.95545565   -3.2255359   -1.7276662  0.062112131   -3.2255359    1.4978696   420099 
 3672000    0.9539672   -3.2234279   -1.7279096  0.060938194   -3.2234279    1.4955184   420104 
 3673000   0.95493931   -3.2249942     -1.72813  0.060635421   -3.2249942    1.4968642   420154 
 3674000   0.95462172   -3.2242705   -1.7277296   0.06287538   -3.2242705    1.4965409   420105 
 3675000   0.95528103    -3.225013   -1.7272674   0.05425071    -3.225013    1.4977456   420057 
 3676000   0.95361598   -3.2240123   -1.7288203  0.060983903   -3.2240123     1.495192   420041 
 3677000   0.95254402    -3.221521   -1.7281982   0.06262477    -3.221521    1.4933228   420094 
 3678000   0.95408329   -3.2229862   -1.7271647  0.063868039   -3.2229862    1.4958215   420070 
 3679000   0.95523211   -3.2238042   -1.7261817  0.056006064   -3.2238042    1.4976226   420070 
 3680000   0.95394521   -3.2210185   -1.7254206  0.059719846   -3.2210185    1.4955978   420072 
 3681000   0.95485351   -3.2221078   -1.7249255  0.061105807   -3.2221078    1.4971823   420027 
 3682000    0.9539815   -3.2204363   -1.7246854  0.061003506   -3.2204363    1.4957509   420045 
 3683000   0.95404813   -3.2221055   -1.7262217  0.059364253   -3.2221055    1.4958838   420037 
 3684000   0.95368386   -3.2215297    -1.726242  0.061082196   -3.2215297    1.4952878   420044 
 3685000    0.9539267   -3.2230265   -1.7274007  0.057728286   -3.2230265    1.4956258   420056 
 3686000   0.95230931    -3.220313   -1.7272373  0.054590384    -3.220313    1.4930757   420060 
 3687000   0.95370907   -3.2203224   -1.7249773  0.055787202   -3.2203224    1.4953451   420039 
 3688000   0.95286556   -3.2180803   -1.7240435  0.056917839   -3.2180803    1.4940368   420035 
 3689000   0.95342404   -3.2190797   -1.7241032  0.064099179   -3.2190797    1.4949765   420017 
 3690000   0.95240663   -3.2175122   -1.7241773  0.060433367   -3.2175122     1.493335   420030 
 3691000   0.95241214   -3.2191471   -1.7258142  0.060348116   -3.2191471    1.4933329   420033 
 3692000   0.95255115   -3.2195811   -1.7259342   0.05824849   -3.2195811    1.4936469   420006 
 3693000   0.95325989   -3.2196846   -1.7249228  0.058986148   -3.2196846    1.4947618   420005 
 3694000   0.95313761   -3.2194552   -1.7247961  0.057774087   -3.2194552     1.494659   419980 
 3695000   0.95317029   -3.2189717   -1.7243362  0.057317411   -3.2189717    1.4946355   420001 
 3696000    0.9522672   -3.2170634     -1.72378  0.056818775   -3.2170634    1.4932834   419983 
 3697000   0.95307033   -3.2188932   -1.7242472  0.060561982   -3.2188932     1.494646   419954 
 3698000   0.95340537   -3.2181259   -1.7229295  0.058629488   -3.2181259    1.4951964   419947 
 3699000   0.95124419   -3.2145797   -1.7226909  0.050841953   -3.2145797    1.4918888   419924 
 3700000   0.95242881   -3.2161166   -1.7224161  0.055994567   -3.2161166    1.4937005   419937 
 3701000   0.95245575   -3.2155417   -1.7217243  0.061635661   -3.2155417    1.4938174   419916 
 3702000   0.95350163   -3.2186262   -1.7230403  0.053658695   -3.2186262     1.495586   419880 
 3703000   0.95158127   -3.2165867   -1.7238351  0.057823697   -3.2165867    1.4927516   419830 
 3704000   0.95233728   -3.2169671   -1.7228978  0.063275404   -3.2169671    1.4940692   419793 
 3705000   0.95381575   -3.2189513   -1.7224985   0.06126467   -3.2189513    1.4964529   419775 
 3706000    0.9522624   -3.2169096   -1.7228688  0.062657923   -3.2169096    1.4940407   419768 
 3707000   0.95441387   -3.2198541   -1.7224771  0.054927457   -3.2198541     1.497377   419779 
 3708000   0.95380441   -3.2193239   -1.7229601  0.062662527   -3.2193239    1.4963638   419795 
 3709000   0.95360519   -3.2182047   -1.7221748  0.059660733   -3.2182047    1.4960299   419801 
 3710000   0.95345042   -3.2185026    -1.722573  0.057524939   -3.2185026    1.4959296   419761 
 3711000   0.95410834    -3.219754   -1.7228456  0.057331182    -3.219754    1.4969084   419776 
 3712000   0.95338042   -3.2178997   -1.7220764  0.055738864   -3.2178997    1.4958233   419760 
 3713000   0.95499439   -3.2201579   -1.7218023  0.058649524   -3.2201579    1.4983556   419760 
 3714000   0.95368367   -3.2195849   -1.7231717  0.062524824   -3.2195849    1.4964132   419728 
 3715000   0.95539242   -3.2221731   -1.7229858  0.061447405   -3.2221731    1.4991873   419702 
 3716000   0.95402461   -3.2221805   -1.7250576  0.060840723   -3.2221805     1.497123   419679 
 3717000    0.9553233   -3.2222302   -1.7231514  0.062680215   -3.2222302    1.4990788   419702 
 3718000   0.95300647   -3.2198958   -1.7243991  0.057898282   -3.2198958    1.4954967   419687 
 3719000   0.95301855     -3.21987   -1.7243758  0.060500682     -3.21987    1.4954943   419693 
 3720000    0.9542762   -3.2205765   -1.7230944   0.05777265   -3.2205765    1.4974821   419689 
 3721000    0.9536171   -3.2224505   -1.7259421  0.056376054   -3.2224505    1.4965084   419672 
 3722000   0.95392904   -3.2217748   -1.7246627  0.064878284   -3.2217748    1.4971121   419640 
 3723000   0.95398785   -3.2237015   -1.7262615  0.054819344   -3.2237015    1.4974399   419574 
 3724000    0.9525895   -3.2221086   -1.7268529  0.057627769   -3.2221086    1.4952557   419571 
 3725000     0.953143   -3.2209959   -1.7247287  0.064217945   -3.2209959    1.4962671   419531 
 3726000   0.95330752   -3.2221756   -1.7255539  0.060478795   -3.2221756    1.4966217   419504 
 3727000   0.95201054   -3.2203588   -1.7258089  0.061306353   -3.2203588    1.4945499   419514 
 3728000   0.95322494   -3.2222952   -1.7259993  0.057068452   -3.2222952    1.4962959   419559 
 3729000   0.95258396   -3.2228804   -1.7275693  0.057822583   -3.2228804    1.4953111   419553 
 3730000   0.95313822   -3.2229096   -1.7266963  0.057703773   -3.2229096    1.4962133   419544 
 3731000   0.95249776   -3.2229154   -1.7277681  0.064949773   -3.2229154    1.4951473   419561 
 3732000   0.95151154   -3.2230822    -1.729426  0.058924366   -3.2230822    1.4936562   419545 
 3733000   0.95201745   -3.2229324   -1.7283966  0.060046303   -3.2229324    1.4945358   419521 
 3734000   0.95176777   -3.2227178   -1.7284136  0.052907468   -3.2227178    1.4943042   419476 
 3735000   0.95254521   -3.2225261   -1.7270548  0.057265748   -3.2225261    1.4954713   419491 
 3736000    0.9519888   -3.2229402   -1.7283211  0.059616354   -3.2229402    1.4946191   419485 
 3737000   0.95188531   -3.2234751   -1.7289543  0.053775927   -3.2234751    1.4945208   419467 
 3738000   0.95119081   -3.2228161   -1.7292255  0.054116914   -3.2228161    1.4935906   419422 
 3739000   0.94947915   -3.2220564   -1.7310789  0.057050136   -3.2220564    1.4909775   419401 
 3740000   0.95104064   -3.2233841   -1.7297444  0.057988322   -3.2233841    1.4936397   419342 
 3741000    0.9517536    -3.225999   -1.7310506  0.059024901    -3.225999    1.4949484   419289 
 3742000   0.94957308    -3.221857   -1.7304617  0.058563033    -3.221857    1.4913953   419325 
 3743000   0.95137299   -3.2234564   -1.7292912  0.059534746   -3.2234564    1.4941652   419341 
 3744000   0.95174449   -3.2233048   -1.7285739  0.058909522   -3.2233048    1.4947308   419346 
 3745000   0.95350517   -3.2273522   -1.7297633  0.057975602   -3.2273522    1.4975889   419320 
 3746000   0.95322456    -3.226821   -1.7295979  0.060585412    -3.226821    1.4972231   419299 
 3747000   0.95286325   -3.2253716    -1.728641  0.066889368   -3.2253716    1.4967306   419278 
 3748000   0.95408151   -3.2267913   -1.7281757  0.064438539   -3.2267913    1.4986156   419286 
 3749000   0.95173034   -3.2234774   -1.7285335  0.058917175   -3.2234774    1.4949439   419280 
 3750000   0.95198127   -3.2253561   -1.7299788  0.060157811   -3.2253561    1.4953773   419269 
 3751000   0.95258536   -3.2257393   -1.7292989  0.057760205   -3.2257393    1.4964404   419237 
 3752000   0.95172231   -3.2242113   -1.7290589  0.061014373   -3.2242113    1.4951524   419218 
 3753000   0.95317229   -3.2272228   -1.7296281  0.061811736   -3.2272228    1.4975946   419172 
 3754000    0.9525126   -3.2280332   -1.7312894  0.058048741   -3.2280332    1.4967438   419120 
 3755000    0.9524873   -3.2279157   -1.7311188  0.060933743   -3.2279157    1.4967969   419094 
 3756000   0.95033197   -3.2235306   -1.7300602   0.06117577   -3.2235306    1.4934705   419077 
 3757000   0.95018536   -3.2235026   -1.7302447  0.059482847   -3.2235026    1.4932579   419072 
 3758000   0.95102794   -3.2266132   -1.7318314  0.063706525   -3.2266132    1.4947818   419016 
 3759000   0.95030464   -3.2256852   -1.7320616  0.057689532   -3.2256852    1.4936236   419022 
 3760000   0.95134288     -3.22766   -1.7323582  0.059918273     -3.22766    1.4953018   419009 
 3761000    0.9517275   -3.2266249   -1.7307829  0.058020445   -3.2266249    1.4958421   419027 
 3762000   0.95107295   -3.2243056   -1.7293639  0.061487995   -3.2243056    1.4949417   418991 
 3763000   0.95098435   -3.2266921    -1.731754  0.058341368   -3.2266921    1.4949381   418953 
 3764000   0.95113805   -3.2271936   -1.7320282  0.058641604   -3.2271936    1.4951654   418957 
 3765000   0.95038695   -3.2262296   -1.7321058  0.058577904   -3.2262296    1.4941238   418918 
 3766000   0.95092971   -3.2264517    -1.731414  0.061632323   -3.2264517    1.4950377   418901 
 3767000   0.95126297    -3.226895   -1.7313726  0.053721611    -3.226895    1.4955224   418912 
 3768000   0.95048998   -3.2250269   -1.7307055  0.057609613   -3.2250269    1.4943214   418908 
 3769000   0.95025771   -3.2252917   -1.7311856  0.059653865   -3.2252917    1.4941061   418866 
[...]
 7812000   0.86495727   -3.2042972   -1.7164185  0.057736935   -3.2042972    1.4878787   382862 
 7813000   0.86424441   -3.2055867   -1.7189653  0.054478827   -3.2055867    1.4866214   382870 
 7814000   0.86355154   -3.2045257   -1.7189371  0.052890733   -3.2045257    1.4855886   382829 
 7815000   0.86355866   -3.2033845      -1.7179  0.058430388   -3.2033845    1.4854845   382859 
 7816000   0.86530494   -3.2054944   -1.7169322  0.056505684   -3.2054944    1.4885623   382840 
 7817000   0.86487235    -3.206129    -1.718066  0.056452391    -3.206129     1.488063   382777 
 7818000   0.86330958   -3.2040129   -1.7186349   0.05357532   -3.2040129     1.485378   382776 
 7819000   0.86486648   -3.2048011   -1.7166782  0.055277721   -3.2048011    1.4881229   382759 
 7820000   0.86441898   -3.2040341   -1.7166657  0.055490112   -3.2040341    1.4873684   382755 
 7821000   0.86427541   -3.2045763   -1.7172879  0.059201614   -3.2045763    1.4872885   382712 
 7822000   0.86456588   -3.2057946   -1.7179635   0.05654014   -3.2057946    1.4878311   382701 
 7823000   0.86497104   -3.2064169   -1.7177836  0.056780589   -3.2064169    1.4886333   382674 
 7824000   0.86263188   -3.2023068   -1.7176255  0.053577511   -3.2023068    1.4846813   382655 
 7825000   0.86340776   -3.2043201   -1.7182685  0.051629134   -3.2043201    1.4860516   382646 
 7826000   0.86328444   -3.2032645   -1.7174368  0.052992703   -3.2032645    1.4858277   382649 
 7827000   0.86250635   -3.2027144   -1.7181288  0.055578416   -3.2027144    1.4845855   382624 
 7828000   0.86383804   -3.2048566   -1.7180256  0.058354773   -3.2048566    1.4868311   382636 
 7829000   0.86313389   -3.2036914   -1.7179907  0.057756527   -3.2036914    1.4857006   382615 
 7830000   0.86195642   -3.2019787   -1.7182621  0.053238795   -3.2019787    1.4837165   382604 
 7831000   0.86198014   -3.2047739   -1.7209389  0.055859715   -3.2047739    1.4838349   382584 
 7832000   0.86145135   -3.2034562   -1.7205355  0.051860299   -3.2034562    1.4829208   382585 
 7833000   0.86111656   -3.2020854   -1.7197874  0.052760246   -3.2020854     1.482298   382597 
 7834000   0.86172604   -3.2034439   -1.7199727  0.054016844   -3.2034439    1.4834712   382565 
 7835000   0.86255199    -3.204575   -1.7196625  0.053457242    -3.204575    1.4849125   382560 
 7836000   0.86270254   -3.2041581   -1.7189321  0.058059337   -3.2041581     1.485226   382546 
 7837000   0.86241417   -3.2025663   -1.7178368  0.062296574   -3.2025663    1.4847295   382546 
 7838000    0.8637611    -3.204339   -1.7172051  0.056534771    -3.204339    1.4871339   382524 
 7839000   0.86560051    -3.208093    -1.717874  0.056732667    -3.208093     1.490219   382545 
 7840000   0.86424731   -3.2067188   -1.7188489  0.056974624   -3.2067188    1.4878699   382550 
 7841000   0.86310992   -3.2046538   -1.7186332  0.058257655   -3.2046538    1.4860206   382522 
 7842000   0.86398003   -3.2056329   -1.7181142  0.059144393   -3.2056329    1.4875186   382522 
 7843000   0.86370469   -3.2063261    -1.719266   0.05416934   -3.2063261    1.4870601   382518 
 7844000   0.86462738   -3.2078921   -1.7193172  0.056231944   -3.2078921    1.4885748   382537 
 7845000   0.86384881   -3.2063992   -1.7191454  0.060668347   -3.2063992    1.4872538   382532 
 7846000   0.86363008   -3.2074054   -1.7204815  0.055862538   -3.2074054    1.4869239   382520 
 7847000   0.86372859   -3.2078834   -1.7207276  0.056233818   -3.2078834    1.4871557   382504 
 7848000   0.86279333   -3.2076713   -1.7220133   0.05952784   -3.2076713     1.485658   382475 
 7849000    0.8625721   -3.2081514   -1.7228471  0.057034191   -3.2081514    1.4853043   382468 
 7850000   0.86250076   -3.2076741   -1.7224461  0.056646273   -3.2076741     1.485228   382456 
 7851000   0.86353032   -3.2071475   -1.7203332  0.057149834   -3.2071475    1.4868143   382504 
 7852000   0.86304117   -3.2061705   -1.7201401  0.063638409   -3.2061705    1.4860304   382489 
 7853000   0.86189683   -3.2048776   -1.7209068  0.060610272   -3.2048776    1.4839708   382512 
 7854000   0.86438322   -3.2078472   -1.7195838  0.056578168   -3.2078472    1.4882634   382509 
 7855000   0.86413715   -3.2096766   -1.7218485  0.054583572   -3.2096766    1.4878281   382512 
 7856000   0.86273343   -3.2074385   -1.7219651  0.055822433   -3.2074385    1.4854733   382496 
 7857000   0.86326442   -3.2080616   -1.7216157  0.053003693   -3.2080616    1.4864459   382481 
 7858000   0.86195016   -3.2069384   -1.7226352  0.054767795   -3.2069384    1.4843032   382450 
 7859000   0.86237826    -3.206418   -1.7213621  0.061273215    -3.206418    1.4850559   382446 
 7860000   0.86208181   -3.2064813   -1.7219126   0.05693923   -3.2064813    1.4845687   382440 
 7861000   0.86426615   -3.2102482   -1.7218128  0.057459818   -3.2102482    1.4884354   382413 
 7862000   0.86409762   -3.2096274   -1.7215367  0.056525972   -3.2096274    1.4880907   382427 
 7863000   0.86441166   -3.2087067   -1.7200947  0.061450813   -3.2087067     1.488612   382432 
 7864000   0.86459492   -3.2066377   -1.7177724   0.05858356   -3.2066377    1.4888653   382448 
 7865000   0.86448077   -3.2064178   -1.7178619  0.056184368   -3.2064178    1.4885559   382477 
 7866000   0.86546488   -3.2083287   -1.7177704  0.057944613   -3.2083287    1.4905583   382398 
 7867000   0.86371973   -3.2048743    -1.717446  0.063946577   -3.2048743    1.4874282   382430 
 7868000   0.86410319   -3.2056413   -1.7177083  0.061208906   -3.2056413     1.487933   382470 
 7869000   0.86437306   -3.2071705   -1.7186093  0.055090774   -3.2071705    1.4885611   382428 
 7870000   0.86353452   -3.2064419   -1.7191537  0.055454424   -3.2064419    1.4872882   382384 
 7871000   0.86316457   -3.2061362   -1.7191935  0.057999361   -3.2061362    1.4869426   382309 
 7872000   0.86400247   -3.2068304   -1.7185066  0.054999616   -3.2068304    1.4883238   382325 
 7873000   0.86225522   -3.2038447   -1.7185774  0.056834032   -3.2038447    1.4852674   382337 
 7874000   0.86121991   -3.2012751   -1.7178299  0.056230799   -3.2012751    1.4834452   382347 
 7875000   0.86261515   -3.2028878   -1.7168217  0.059343175   -3.2028878    1.4860661   382291 
 7876000   0.86221481   -3.2038657   -1.7184659  0.051237042   -3.2038657    1.4853998   382285 
 7877000   0.85999825   -3.2019309   -1.7202296  0.056442089   -3.2019309    1.4817013   382254 
 7878000   0.86160549   -3.2018697   -1.7174576  0.056160787   -3.2018697    1.4844122   382269 
 7879000   0.86268282   -3.2037668   -1.7175841  0.051674351   -3.2037668    1.4861827   382291 
 7880000   0.86237029   -3.2044085   -1.7186592  0.055308758   -3.2044085    1.4857492   382264 
 7881000   0.86160373   -3.2012425   -1.7167402  0.057864878   -3.2012425    1.4845023   382245 
 7882000   0.86125546   -3.2015311   -1.7176288  0.058580199   -3.2015311    1.4839023   382245 
 7883000   0.86368646   -3.2045375   -1.7164389  0.054671074   -3.2045375    1.4880986   382243 
 7884000   0.86418199   -3.2039145   -1.7150049  0.057563696   -3.2039145    1.4889095   382254 
 7885000   0.86466629   -3.2053128   -1.7154598  0.058123044   -3.2053128    1.4898531   382226 
 7886000   0.86481124   -3.2059432   -1.7156337  0.051484525   -3.2059432    1.4903094   382173 
 7887000   0.86359513   -3.2042655   -1.7160011  0.055448411   -3.2042655    1.4882644   382160 
 7888000   0.86420202   -3.2061665    -1.716942  0.062150634   -3.2061665    1.4892245   382182 
 7889000   0.86370379   -3.2064105   -1.7178653  0.054505488   -3.2064105    1.4885451   382136 
 7890000   0.86308315   -3.2054762   -1.7179657  0.058550484   -3.2054762    1.4875105   382127 
 7891000   0.86233998   -3.2053217   -1.7189325  0.061930738   -3.2053217    1.4863892   382086 
 7892000   0.86308959   -3.2067791   -1.7192069  0.054510004   -3.2067791    1.4875722   382114 
 7893000   0.86152871   -3.2056016   -1.7205797  0.058176846   -3.2056016    1.4850219   382078 
 7894000   0.86314558   -3.2076685   -1.7197779  0.051882747   -3.2076685    1.4878907   382057 
 7895000   0.86259217   -3.2062598   -1.7192764    0.0528665   -3.2062598    1.4869834   382045 
 7896000   0.86255044   -3.2071729   -1.7202069  0.055551845   -3.2071729     1.486966   382031 
 7897000   0.86285793   -3.2052671   -1.7178022  0.059134826   -3.2052671    1.4874649   382039 
 7898000   0.86230882    -3.205508   -1.7188846  0.054847254    -3.205508    1.4866234   382012 
 7899000   0.86223198   -3.2057663   -1.7190692  0.058536972   -3.2057663    1.4866972   381959 
 7900000   0.86314089   -3.2059267    -1.717752  0.060845952   -3.2059267    1.4881747   381982 
 7901000   0.86442607   -3.2080871   -1.7176614  0.058233303   -3.2080871    1.4904257   381973 
 7902000    0.8618828   -3.2045389   -1.7184438  0.061240966   -3.2045389    1.4860951   381959 
 7903000   0.86166196   -3.2044989   -1.7187068  0.060612741   -3.2044989    1.4857921   381939 
 7904000   0.86224156   -3.2056191   -1.7188042  0.057081812   -3.2056191    1.4868149   381933 
 7905000    0.8627301   -3.2050116   -1.7173971  0.055625193   -3.2050116    1.4876145   381944 
 7906000   0.86248509   -3.2044365   -1.7173846   0.05945973   -3.2044365    1.4870518   381980 
 7907000   0.86265817   -3.2060572   -1.7186797  0.056894033   -3.2060572    1.4873775   381973 
 7908000   0.86489642   -3.2094642   -1.7180636  0.058011395   -3.2094642    1.4914006   381931 
 7909000   0.86155316   -3.2053501   -1.7196016  0.057306379   -3.2053501    1.4857484   381902 
 7910000   0.86183539   -3.2042725    -1.717944  0.054287349   -3.2042725    1.4863285   381878 
 7911000   0.86191198   -3.2038792   -1.7173291  0.055589006   -3.2038792    1.4865502   381855 
 7912000   0.86282383   -3.2039897   -1.7159604  0.055950669   -3.2039897    1.4880293   381879 
 7913000   0.86254091   -3.2049216   -1.7173334  0.053084236   -3.2049216    1.4875881   381867 
 7914000   0.86225357   -3.2053965   -1.7182923  0.057095742   -3.2053965    1.4871043   381864 
 7915000   0.86209001   -3.2046041   -1.7178443  0.057779352   -3.2046041    1.4867599   381880 
 7916000   0.86033803   -3.2008708   -1.7170819  0.060868665   -3.2008708    1.4837889   381867 
 7917000   0.86376406   -3.2040798   -1.7144017  0.059135272   -3.2040798    1.4896781   381872 
 7918000   0.86310907   -3.2000118   -1.7114399  0.060389268   -3.2000118    1.4885719   381866 
 7919000   0.86507957   -3.2032834   -1.7113912  0.057989202   -3.2032834    1.4918922   381886 
 7920000    0.8642073   -3.2021927   -1.7118126  0.053827101   -3.2021927    1.4903801   381888 
 7921000   0.86392176   -3.1993497   -1.7096336  0.063562126   -3.1993497    1.4897161   381932 
 7922000   0.86407437   -3.2013718   -1.7115252  0.053915233   -3.2013718    1.4898466   381966 
 7923000    0.8633395   -3.1994661   -1.7108632   0.06212835   -3.1994661    1.4886029   381960 
 7924000    0.8633552    -3.199074   -1.7103661  0.061615188    -3.199074    1.4887079   381940 
 7925000   0.86135346   -3.1969042    -1.711574  0.053770093   -3.1969042    1.4853301   381921 
 7926000   0.86219854   -3.1976269   -1.7108122   0.05714227   -3.1976269    1.4868147   381914 
 7927000   0.86104235   -3.1981962   -1.7133481  0.054929967   -3.1981962    1.4848481   381907 
 7928000   0.86046625   -3.1975724   -1.7136246  0.050675839   -3.1975724    1.4839479   381883 
 7929000   0.86038364   -3.1979137   -1.7139645  0.050430356   -3.1979137    1.4839492   381846 
 7930000   0.85997929   -3.1965333   -1.7134758  0.058164217   -3.1965333    1.4830576   381896 
 7931000   0.85926321   -3.1960834     -1.71409  0.058060388   -3.1960834    1.4819934   381852 
 7932000   0.86162612   -3.1997796   -1.7137536  0.054824641   -3.1997796     1.486026   381863 
 7933000   0.86126404   -3.1982261   -1.7128518  0.060539646   -3.1982261    1.4853743   381870 
 7934000   0.86294395   -3.2008451   -1.7125501   0.05088711   -3.2008451    1.4882949   381864 
 7935000   0.86215259   -3.2006287   -1.7137998  0.054723086   -3.2006287    1.4868289   381890 
 7936000   0.86243121   -3.2001527   -1.7128978  0.053011641   -3.2001527    1.4872548   381904 
 7937000   0.86250015   -3.2004962   -1.7132744  0.054703781   -3.2004962    1.4872218   381943 
 7938000   0.86285369   -3.2016185   -1.7138182  0.053806683   -3.2016185    1.4878003   381951 
 7939000   0.86346587   -3.2030981   -1.7141448  0.059117191   -3.2030981    1.4889533   381926 
 7940000   0.86342855   -3.2011978   -1.7122971  0.059787238   -3.2011978    1.4889007   381923 
 7941000   0.86293091   -3.2000536   -1.7118163  0.063069336   -3.2000536    1.4882374   381873 
 7942000   0.86423327   -3.2045212   -1.7139987  0.057072561   -3.2045212    1.4905225   381863 
 7943000   0.86357446   -3.2014823   -1.7120258  0.057734097   -3.2014823    1.4894565   381845 
 7944000   0.86378444   -3.2006894   -1.7109449  0.062133924   -3.2006894    1.4897445   381864 
 7945000   0.86279706   -3.2007374   -1.7128633  0.062162545   -3.2007374    1.4878741   381907 
 7946000   0.86329018   -3.2027888   -1.7140449  0.060584308   -3.2027888    1.4887439   381902 
 7947000   0.86367616   -3.2038958   -1.7144199  0.057243644   -3.2038958    1.4894758   381885 
 7948000   0.86339156   -3.2048467   -1.7158383  0.056665985   -3.2048467    1.4890084   381879 
 7949000   0.86299137   -3.2029853   -1.7145579  0.055203631   -3.2029853    1.4884274   381851 
 7950000   0.86231502   -3.2022502    -1.715001  0.056209096   -3.2022502    1.4872492   381854 
 7951000   0.86222514   -3.2010859   -1.7140618  0.058897577   -3.2010859    1.4870241   381872 
 7952000   0.86449275   -3.2057962   -1.7148106  0.053345838   -3.2057962    1.4909856   381859 
 7953000   0.86297502   -3.2024568   -1.7140225   0.06159769   -3.2024568    1.4884343   381842 
 7954000   0.86273204   -3.2011566   -1.7131726  0.060787248   -3.2011566     1.487984   381850 
 7955000   0.86246467    -3.199752   -1.7123265  0.062110048    -3.199752    1.4874255   381875 
 7956000   0.86141271   -3.1991902    -1.713754  0.061110865   -3.1991902    1.4854362   381920 
 7957000   0.86169103   -3.1979405   -1.7120205  0.055448477   -3.1979405      1.48592   381919 
 7958000   0.86241324   -3.1967839   -1.7096107  0.057761636   -3.1967839    1.4871732   381917 
 7959000   0.86341679   -3.1987345   -1.7099126  0.054629175   -3.1987345    1.4888219   381938 
 7960000   0.86157614   -3.1971046   -1.7113282  0.061269896   -3.1971046    1.4857764   381905 
 7961000   0.86282588   -3.1982483    -1.710157   0.05683861   -3.1982483    1.4880913   381864 
 7962000   0.86101609   -3.1951466   -1.7103127   0.06147928   -3.1951466    1.4848339   381899 
 7963000   0.86134467   -3.1972665   -1.7116831  0.056054259   -3.1972665    1.4855834   381852 
 7964000   0.86147909   -3.1981354   -1.7121723  0.059497902   -3.1981354    1.4859631   381814 
 7965000   0.86247158    -3.198108   -1.7102459  0.057382424    -3.198108    1.4878621   381766 
 7966000    0.8618343    -3.197626   -1.7108711  0.052996938    -3.197626    1.4867549   381768 
 7967000   0.86136262   -3.1952354   -1.7093564  0.054257395   -3.1952354    1.4858789   381784 
 7968000   0.86142123      -3.1969   -1.7108655  0.054865103      -3.1969    1.4860345   381770 
 7969000   0.86116424   -3.1980789   -1.7123865  0.052454177   -3.1980789    1.4856924   381744 
 7970000    0.8612352    -3.196813   -1.7108191  0.055815964    -3.196813    1.4859939   381698 
 7971000   0.86153678   -3.1974228   -1.7107606   0.05666659   -3.1974228    1.4866622   381660 
 7972000   0.86114124   -3.1959472   -1.7100064  0.055564334   -3.1959472    1.4859408   381670 
 7973000   0.86104464   -3.1962723   -1.7104164  0.055769763   -3.1962723    1.4858558   381649 
 7974000   0.86299186   -3.1994758   -1.7103183  0.052283301   -3.1994758    1.4891575   381664 
 7975000   0.86053265    -3.197829   -1.7127399  0.056331678    -3.197829    1.4850891   381619 
 7976000   0.86113892   -3.1976461   -1.7113355  0.055840968   -3.1976461    1.4863106   381574 
 7977000    0.8614385   -3.1993772   -1.7125573  0.053390914   -3.1993772    1.4868199   381576 
 7978000   0.86303901   -3.2002555   -1.7106888  0.055368646   -3.2002555    1.4895667   381580 
 7979000   0.86360624   -3.1994994     -1.70911  0.057615635   -3.1994994    1.4903895   381620 
 7980000   0.86306347   -3.1998525   -1.7103645  0.059591625   -3.1998525    1.4894879   381611 
 7981000   0.86265949   -3.1993594   -1.7105492  0.058733706   -3.1993594    1.4888102   381606 
 7982000    0.8647165   -3.1995263   -1.7072052  0.059042521   -3.1995263    1.4923212   381616 
 7983000   0.86522695   -3.2015482   -1.7083735  0.054151596   -3.2015482    1.4931747   381623 
 7984000   0.86280024   -3.1990541    -1.709919  0.063866343   -3.1990541    1.4891351   381585 
 7985000   0.86348484   -3.2005308   -1.7101243  0.059355656   -3.2005308    1.4904065   381562 
 7986000    0.8628869   -3.2013724   -1.7117754  0.056642396   -3.2013724    1.4895969   381505 
 7987000   0.86177272   -3.1985353   -1.7108657   0.05728546   -3.1985353    1.4876696   381506 
 7988000   0.86044809   -3.1962591   -1.7108178  0.057078989   -3.1962591    1.4854413   381491 
 7989000   0.86028566   -3.1972065   -1.7120689  0.055878711   -3.1972065    1.4851376   381497 
 7990000   0.86172446   -3.1990679   -1.7114698  0.056193997   -3.1990679     1.487598   381503 
 7991000   0.86159589   -3.1999253   -1.7123308  0.055151552   -3.1999253    1.4875944   381447 
 7992000   0.86118112   -3.1991064   -1.7122047  0.050574326   -3.1991064    1.4869017   381441 
 7993000   0.86115719   -3.1981734   -1.7112233  0.059174397   -3.1981734      1.48695   381418 
 7994000   0.86045762   -3.1983764   -1.7125876  0.054812333   -3.1983764    1.4857889   381406 
 7995000    0.8610212   -3.1997043   -1.7127474   0.05392741   -3.1997043    1.4869569   381356 
 7996000   0.85922893   -3.1968116   -1.7130782  0.052983652   -3.1968116    1.4837334   381389 
 7997000   0.85931046   -3.1970026   -1.7130389  0.054781747   -3.1970026    1.4839636   381366 
 7998000   0.86166571   -3.1995005    -1.711532  0.049917894   -3.1995005    1.4879685   381382 
 7999000   0.86017225   -3.1979377   -1.7125131  0.060828248   -3.1979377    1.4854246   381373 
 8000000   0.86022695   -3.1967541   -1.7112584  0.056949404   -3.1967541    1.4854957   381379 
Loop time of 9879.43 on 192 procs for 5000000 steps with 381379 atoms

Performance: 218636.084 tau/day, 506.102 timesteps/s
99.1% CPU use with 192 MPI tasks x 1 OpenMP threads

MPI task timing breakdown:
Section |  min time  |  avg time  |  max time  |%varavg|  %CPU | %total
-----------------------------------------------------------------------
Pair    | 1265.9     | 2907.6     | 3191.6     |1102.0 |  99.0 | 29.43
Bond    | 3.283      | 3.429      | 3.5822     |   3.1 | 100.0 |  0.03
Neigh   | 820.36     | 1427.9     | 1569.8     | 573.4 |  99.5 | 14.45
Comm    | 1307.6     | 1940.4     | 4247.1     |1906.0 |  98.9 | 19.64
Output  | 283.74     | 288.75     | 288.79     |   2.1 |  98.7 |  2.92
Modify  | 3126.5     | 3209.1     | 3579.3     | 264.9 |  99.2 | 32.48
Other   |            | 102.2      |            |       |       |  1.03

Nlocal:        1986.35 ave        2318 max        1620 min
Histogram: 1 1 3 6 53 105 17 2 2 2
Nghost:        3120.88 ave        3453 max        2177 min
Histogram: 2 6 32 6 2 0 2 6 54 82
Neighs:        53069.2 ave       63047 max       10014 min
Histogram: 7 7 7 3 0 0 0 0 80 88

Total # of neighbors = 10189283
Ave neighs/atom = 26.716948
Ave special neighs/atom = 0.0000000
Neighbor list builds = 505000
Dangerous builds = 450000

write_restart   restart_write.dat
System init for write_restart ...
write_data	data.write
System init for write_data ...
WARNING: Not all mixed pair coeffs generated from mixing. Use write_data with 'pair ij' option to store all pair coeffs. (src/write_data.cpp:312)

Total wall time: 2:44:43
