#LAMMPS data file for rigid bodies
1143 atoms
3 atom types

0 20   xlo xhi
0 20   ylo yhi
0 17.14 zlo zhi

Masses

1 1.0
2 1.0
3 1.0

Atoms

15	1	2	0	6	8	3.57
16	1	2	0	6	9	3.57
17	1	2	0	6	10	3.57
18	1	2	0	6	11	3.57
19	1	2	0	6	12	3.57
25	1	2	0	7	7	3.57
26	1	2	0	7	8	3.57
27	1	2	0	7	9	3.57
28	1	2	0	7	10	3.57
29	1	2	0	7	11	3.57
30	1	2	0	7	12	3.57
31	1	2	0	7	13	3.57
35	1	2	0	8	6	3.57
36	1	2	0	8	7	3.57
37	1	2	0	8	8	3.57
38	1	2	0	8	9	3.57
39	1	2	0	8	10	3.57
40	1	2	0	8	11	3.57
41	1	2	0	8	12	3.57
42	1	2	0	8	13	3.57
43	1	2	0	8	14	3.57
46	1	2	0	9	6	3.57
47	1	2	0	9	7	3.57
48	1	2	0	9	8	3.57
49	1	2	0	9	9	3.57
50	1	2	0	9	10	3.57
51	1	2	0	9	11	3.57
52	1	2	0	9	12	3.57
53	1	2	0	9	13	3.57
54	1	2	0	9	14	3.57
57	1	2	0	10	6	3.57
58	1	2	0	10	7	3.57
59	1	2	0	10	8	3.57
60	1	2	0	10	9	3.57
61	1	2	0	10	10	3.57
62	1	2	0	10	11	3.57
63	1	2	0	10	12	3.57
64	1	2	0	10	13	3.57
65	1	2	0	10	14	3.57
68	1	2	0	11	6	3.57
69	1	2	0	11	7	3.57
70	1	2	0	11	8	3.57
71	1	2	0	11	9	3.57
72	1	2	0	11	10	3.57
73	1	2	0	11	11	3.57
74	1	2	0	11	12	3.57
75	1	2	0	11	13	3.57
76	1	2	0	11	14	3.57
79	1	2	0	12	6	3.57
80	1	2	0	12	7	3.57
81	1	2	0	12	8	3.57
82	1	2	0	12	9	3.57
83	1	2	0	12	10	3.57
84	1	2	0	12	11	3.57
85	1	2	0	12	12	3.57
86	1	2	0	12	13	3.57
87	1	2	0	12	14	3.57
91	1	2	0	13	7	3.57
92	1	2	0	13	8	3.57
93	1	2	0	13	9	3.57
94	1	2	0	13	10	3.57
95	1	2	0	13	11	3.57
96	1	2	0	13	12	3.57
97	1	2	0	13	13	3.57
103	1	2	0	14	8	3.57
104	1	2	0	14	9	3.57
105	1	2	0	14	10	3.57
106	1	2	0	14	11	3.57
107	1	2	0	14	12	3.57
125	1	2	0	5	8	4.57
126	1	2	0	5	9	4.57
127	1	2	0	5	10	4.57
128	1	2	0	5	11	4.57
129	1	2	0	5	12	4.57
134	1	2	0	6	6	4.57
135	1	2	0	6	7	4.57
136	1	3	0	6	8	4.57
137	1	3	0	6	9	4.57
138	1	3	0	6	10	4.57
139	1	3	0	6	11	4.57
140	1	3	0	6	12	4.57
141	1	2	0	6	13	4.57
142	1	2	0	6	14	4.57
145	1	2	0	7	6	4.57
146	1	3	0	7	7	4.57
147	1	3	0	7	8	4.57
148	1	3	0	7	9	4.57
149	1	3	0	7	10	4.57
150	1	3	0	7	11	4.57
151	1	3	0	7	12	4.57
152	1	3	0	7	13	4.57
153	1	2	0	7	14	4.57
155	1	2	0	8	5	4.57
156	1	3	0	8	6	4.57
157	1	3	0	8	7	4.57
158	1	3	0	8	8	4.57
159	1	3	0	8	9	4.57
160	1	3	0	8	10	4.57
161	1	3	0	8	11	4.57
162	1	3	0	8	12	4.57
163	1	3	0	8	13	4.57
164	1	3	0	8	14	4.57
165	1	2	0	8	15	4.57
166	1	2	0	9	5	4.57
167	1	3	0	9	6	4.57
168	1	3	0	9	7	4.57
169	1	3	0	9	8	4.57
170	1	3	0	9	9	4.57
171	1	3	0	9	10	4.57
172	1	3	0	9	11	4.57
173	1	3	0	9	12	4.57
174	1	3	0	9	13	4.57
175	1	3	0	9	14	4.57
176	1	2	0	9	15	4.57
177	1	2	0	10	5	4.57
178	1	3	0	10	6	4.57
179	1	3	0	10	7	4.57
180	1	3	0	10	8	4.57
181	1	3	0	10	9	4.57
182	1	3	0	10	10	4.57
183	1	3	0	10	11	4.57
184	1	3	0	10	12	4.57
185	1	3	0	10	13	4.57
186	1	3	0	10	14	4.57
187	1	2	0	10	15	4.57
188	1	2	0	11	5	4.57
189	1	3	0	11	6	4.57
190	1	3	0	11	7	4.57
191	1	3	0	11	8	4.57
192	1	3	0	11	9	4.57
193	1	3	0	11	10	4.57
194	1	3	0	11	11	4.57
195	1	3	0	11	12	4.57
196	1	3	0	11	13	4.57
197	1	3	0	11	14	4.57
198	1	2	0	11	15	4.57
199	1	2	0	12	5	4.57
200	1	3	0	12	6	4.57
201	1	3	0	12	7	4.57
202	1	3	0	12	8	4.57
203	1	3	0	12	9	4.57
204	1	3	0	12	10	4.57
205	1	3	0	12	11	4.57
206	1	3	0	12	12	4.57
207	1	3	0	12	13	4.57
208	1	3	0	12	14	4.57
209	1	2	0	12	15	4.57
211	1	2	0	13	6	4.57
212	1	3	0	13	7	4.57
213	1	3	0	13	8	4.57
214	1	3	0	13	9	4.57
215	1	3	0	13	10	4.57
216	1	3	0	13	11	4.57
217	1	3	0	13	12	4.57
218	1	3	0	13	13	4.57
219	1	2	0	13	14	4.57
222	1	2	0	14	6	4.57
223	1	2	0	14	7	4.57
224	1	3	0	14	8	4.57
225	1	3	0	14	9	4.57
226	1	3	0	14	10	4.57
227	1	3	0	14	11	4.57
228	1	3	0	14	12	4.57
229	1	2	0	14	13	4.57
230	1	2	0	14	14	4.57
235	1	2	0	15	8	4.57
236	1	2	0	15	9	4.57
237	1	2	0	15	10	4.57
238	1	2	0	15	11	4.57
239	1	2	0	15	12	4.57
245	1	2	0	5	7	5.57
246	1	2	0	5	8	5.57
247	1	2	0	5	9	5.57
248	1	2	0	5	10	5.57
249	1	2	0	5	11	5.57
250	1	2	0	5	12	5.57
251	1	2	0	5	13	5.57
255	1	2	0	6	6	5.57
256	1	3	0	6	7	5.57
257	1	3	0	6	8	5.57
258	1	3	0	6	9	5.57
259	1	3	0	6	10	5.57
260	1	3	0	6	11	5.57
261	1	3	0	6	12	5.57
262	1	3	0	6	13	5.57
263	1	2	0	6	14	5.57
265	1	2	0	7	5	5.57
266	1	3	0	7	6	5.57
267	1	3	0	7	7	5.57
268	1	3	0	7	8	5.57
269	1	3	0	7	9	5.57
270	1	3	0	7	10	5.57
271	1	3	0	7	11	5.57
272	1	3	0	7	12	5.57
273	1	3	0	7	13	5.57
274	1	3	0	7	14	5.57
275	1	2	0	7	15	5.57
276	1	2	0	8	5	5.57
277	1	3	0	8	6	5.57
278	1	3	0	8	7	5.57
279	1	3	0	8	8	5.57
280	1	3	0	8	9	5.57
281	1	3	0	8	10	5.57
282	1	3	0	8	11	5.57
283	1	3	0	8	12	5.57
284	1	3	0	8	13	5.57
285	1	3	0	8	14	5.57
286	1	2	0	8	15	5.57
287	1	2	0	9	5	5.57
288	1	3	0	9	6	5.57
289	1	3	0	9	7	5.57
290	1	3	0	9	8	5.57
291	1	3	0	9	9	5.57
292	1	3	0	9	10	5.57
293	1	3	0	9	11	5.57
294	1	3	0	9	12	5.57
295	1	3	0	9	13	5.57
296	1	3	0	9	14	5.57
297	1	2	0	9	15	5.57
298	1	2	0	10	5	5.57
299	1	3	0	10	6	5.57
300	1	3	0	10	7	5.57
301	1	3	0	10	8	5.57
302	1	3	0	10	9	5.57
303	1	3	0	10	10	5.57
304	1	3	0	10	11	5.57
305	1	3	0	10	12	5.57
306	1	3	0	10	13	5.57
307	1	3	0	10	14	5.57
308	1	2	0	10	15	5.57
309	1	2	0	11	5	5.57
310	1	3	0	11	6	5.57
311	1	3	0	11	7	5.57
312	1	3	0	11	8	5.57
313	1	3	0	11	9	5.57
314	1	3	0	11	10	5.57
315	1	3	0	11	11	5.57
316	1	3	0	11	12	5.57
317	1	3	0	11	13	5.57
318	1	3	0	11	14	5.57
319	1	2	0	11	15	5.57
320	1	2	0	12	5	5.57
321	1	3	0	12	6	5.57
322	1	3	0	12	7	5.57
323	1	3	0	12	8	5.57
324	1	3	0	12	9	5.57
325	1	3	0	12	10	5.57
326	1	3	0	12	11	5.57
327	1	3	0	12	12	5.57
328	1	3	0	12	13	5.57
329	1	3	0	12	14	5.57
330	1	2	0	12	15	5.57
331	1	2	0	13	5	5.57
332	1	3	0	13	6	5.57
333	1	3	0	13	7	5.57
334	1	3	0	13	8	5.57
335	1	3	0	13	9	5.57
336	1	3	0	13	10	5.57
337	1	3	0	13	11	5.57
338	1	3	0	13	12	5.57
339	1	3	0	13	13	5.57
340	1	3	0	13	14	5.57
341	1	2	0	13	15	5.57
343	1	2	0	14	6	5.57
344	1	3	0	14	7	5.57
345	1	3	0	14	8	5.57
346	1	3	0	14	9	5.57
347	1	3	0	14	10	5.57
348	1	3	0	14	11	5.57
349	1	3	0	14	12	5.57
350	1	3	0	14	13	5.57
351	1	2	0	14	14	5.57
355	1	2	0	15	7	5.57
356	1	2	0	15	8	5.57
357	1	2	0	15	9	5.57
358	1	2	0	15	10	5.57
359	1	2	0	15	11	5.57
360	1	2	0	15	12	5.57
361	1	2	0	15	13	5.57
365	1	2	0	5	6	6.57
366	1	2	0	5	7	6.57
367	1	2	0	5	8	6.57
368	1	2	0	5	9	6.57
369	1	2	0	5	10	6.57
370	1	2	0	5	11	6.57
371	1	2	0	5	12	6.57
372	1	2	0	5	13	6.57
373	1	2	0	5	14	6.57
375	1	2	0	6	5	6.57
376	1	3	0	6	6	6.57
377	1	3	0	6	7	6.57
378	1	3	0	6	8	6.57
379	1	3	0	6	9	6.57
380	1	3	0	6	10	6.57
381	1	3	0	6	11	6.57
382	1	3	0	6	12	6.57
383	1	3	0	6	13	6.57
384	1	3	0	6	14	6.57
385	1	2	0	6	15	6.57
386	1	2	0	7	5	6.57
387	1	3	0	7	6	6.57
388	1	3	0	7	7	6.57
389	1	3	0	7	8	6.57
390	1	3	0	7	9	6.57
391	1	3	0	7	10	6.57
392	1	3	0	7	11	6.57
393	1	3	0	7	12	6.57
394	1	3	0	7	13	6.57
395	1	3	0	7	14	6.57
396	1	2	0	7	15	6.57
397	1	2	0	8	5	6.57
398	1	3	0	8	6	6.57
399	1	3	0	8	7	6.57
400	1	3	0	8	8	6.57
401	1	3	0	8	9	6.57
402	1	3	0	8	10	6.57
403	1	3	0	8	11	6.57
404	1	3	0	8	12	6.57
405	1	3	0	8	13	6.57
406	1	3	0	8	14	6.57
407	1	2	0	8	15	6.57
408	1	2	0	9	5	6.57
409	1	3	0	9	6	6.57
410	1	3	0	9	7	6.57
411	1	3	0	9	8	6.57
412	1	3	0	9	9	6.57
413	1	3	0	9	10	6.57
414	1	3	0	9	11	6.57
415	1	3	0	9	12	6.57
416	1	3	0	9	13	6.57
417	1	3	0	9	14	6.57
418	1	2	0	9	15	6.57
419	1	2	0	10	5	6.57
420	1	3	0	10	6	6.57
421	1	3	0	10	7	6.57
422	1	3	0	10	8	6.57
423	1	3	0	10	9	6.57
424	1	3	0	10	10	6.57
425	1	3	0	10	11	6.57
426	1	3	0	10	12	6.57
427	1	3	0	10	13	6.57
428	1	3	0	10	14	6.57
429	1	2	0	10	15	6.57
430	1	2	0	11	5	6.57
431	1	3	0	11	6	6.57
432	1	3	0	11	7	6.57
433	1	3	0	11	8	6.57
434	1	3	0	11	9	6.57
435	1	3	0	11	10	6.57
436	1	3	0	11	11	6.57
437	1	3	0	11	12	6.57
438	1	3	0	11	13	6.57
439	1	3	0	11	14	6.57
440	1	2	0	11	15	6.57
441	1	2	0	12	5	6.57
442	1	3	0	12	6	6.57
443	1	3	0	12	7	6.57
444	1	3	0	12	8	6.57
445	1	3	0	12	9	6.57
446	1	3	0	12	10	6.57
447	1	3	0	12	11	6.57
448	1	3	0	12	12	6.57
449	1	3	0	12	13	6.57
450	1	3	0	12	14	6.57
451	1	2	0	12	15	6.57
452	1	2	0	13	5	6.57
453	1	3	0	13	6	6.57
454	1	3	0	13	7	6.57
455	1	3	0	13	8	6.57
456	1	3	0	13	9	6.57
457	1	3	0	13	10	6.57
458	1	3	0	13	11	6.57
459	1	3	0	13	12	6.57
460	1	3	0	13	13	6.57
461	1	3	0	13	14	6.57
462	1	2	0	13	15	6.57
463	1	2	0	14	5	6.57
464	1	3	0	14	6	6.57
465	1	3	0	14	7	6.57
466	1	3	0	14	8	6.57
467	1	3	0	14	9	6.57
468	1	3	0	14	10	6.57
469	1	3	0	14	11	6.57
470	1	3	0	14	12	6.57
471	1	3	0	14	13	6.57
472	1	3	0	14	14	6.57
473	1	2	0	14	15	6.57
475	1	2	0	15	6	6.57
476	1	2	0	15	7	6.57
477	1	2	0	15	8	6.57
478	1	2	0	15	9	6.57
479	1	2	0	15	10	6.57
480	1	2	0	15	11	6.57
481	1	2	0	15	12	6.57
482	1	2	0	15	13	6.57
483	1	2	0	15	14	6.57
486	1	2	0	5	6	7.57
487	1	2	0	5	7	7.57
488	1	2	0	5	8	7.57
489	1	2	0	5	9	7.57
490	1	2	0	5	10	7.57
491	1	2	0	5	11	7.57
492	1	2	0	5	12	7.57
493	1	2	0	5	13	7.57
494	1	2	0	5	14	7.57
496	1	2	0	6	5	7.57
497	1	3	0	6	6	7.57
498	1	3	0	6	7	7.57
499	1	3	0	6	8	7.57
500	1	3	0	6	9	7.57
501	1	3	0	6	10	7.57
502	1	3	0	6	11	7.57
503	1	3	0	6	12	7.57
504	1	3	0	6	13	7.57
505	1	3	0	6	14	7.57
506	1	2	0	6	15	7.57
507	1	2	0	7	5	7.57
508	1	3	0	7	6	7.57
509	1	3	0	7	7	7.57
510	1	3	0	7	8	7.57
511	1	3	0	7	9	7.57
512	1	3	0	7	10	7.57
513	1	3	0	7	11	7.57
514	1	3	0	7	12	7.57
515	1	3	0	7	13	7.57
516	1	3	0	7	14	7.57
517	1	2	0	7	15	7.57
518	1	2	0	8	5	7.57
519	1	3	0	8	6	7.57
520	1	3	0	8	7	7.57
521	1	3	0	8	8	7.57
522	1	3	0	8	9	7.57
523	1	3	0	8	10	7.57
524	1	3	0	8	11	7.57
525	1	3	0	8	12	7.57
526	1	3	0	8	13	7.57
527	1	3	0	8	14	7.57
528	1	2	0	8	15	7.57
529	1	2	0	9	5	7.57
530	1	3	0	9	6	7.57
531	1	3	0	9	7	7.57
532	1	3	0	9	8	7.57
533	1	3	0	9	9	7.57
534	1	3	0	9	10	7.57
535	1	3	0	9	11	7.57
536	1	3	0	9	12	7.57
537	1	3	0	9	13	7.57
538	1	3	0	9	14	7.57
539	1	2	0	9	15	7.57
540	1	2	0	10	5	7.57
541	1	3	0	10	6	7.57
542	1	3	0	10	7	7.57
543	1	3	0	10	8	7.57
544	1	3	0	10	9	7.57
545	1	3	0	10	10	7.57
546	1	3	0	10	11	7.57
547	1	3	0	10	12	7.57
548	1	3	0	10	13	7.57
549	1	3	0	10	14	7.57
550	1	2	0	10	15	7.57
551	1	2	0	11	5	7.57
552	1	3	0	11	6	7.57
553	1	3	0	11	7	7.57
554	1	3	0	11	8	7.57
555	1	3	0	11	9	7.57
556	1	3	0	11	10	7.57
557	1	3	0	11	11	7.57
558	1	3	0	11	12	7.57
559	1	3	0	11	13	7.57
560	1	3	0	11	14	7.57
561	1	2	0	11	15	7.57
562	1	2	0	12	5	7.57
563	1	3	0	12	6	7.57
564	1	3	0	12	7	7.57
565	1	3	0	12	8	7.57
566	1	3	0	12	9	7.57
567	1	3	0	12	10	7.57
568	1	3	0	12	11	7.57
569	1	3	0	12	12	7.57
570	1	3	0	12	13	7.57
571	1	3	0	12	14	7.57
572	1	2	0	12	15	7.57
573	1	2	0	13	5	7.57
574	1	3	0	13	6	7.57
575	1	3	0	13	7	7.57
576	1	3	0	13	8	7.57
577	1	3	0	13	9	7.57
578	1	3	0	13	10	7.57
579	1	3	0	13	11	7.57
580	1	3	0	13	12	7.57
581	1	3	0	13	13	7.57
582	1	3	0	13	14	7.57
583	1	2	0	13	15	7.57
584	1	2	0	14	5	7.57
585	1	3	0	14	6	7.57
586	1	3	0	14	7	7.57
587	1	3	0	14	8	7.57
588	1	3	0	14	9	7.57
589	1	3	0	14	10	7.57
590	1	3	0	14	11	7.57
591	1	3	0	14	12	7.57
592	1	3	0	14	13	7.57
593	1	3	0	14	14	7.57
594	1	2	0	14	15	7.57
596	1	2	0	15	6	7.57
597	1	2	0	15	7	7.57
598	1	2	0	15	8	7.57
599	1	2	0	15	9	7.57
600	1	2	0	15	10	7.57
601	1	2	0	15	11	7.57
602	1	2	0	15	12	7.57
603	1	2	0	15	13	7.57
604	1	2	0	15	14	7.57
607	1	2	0	5	6	8.57
608	1	2	0	5	7	8.57
609	1	2	0	5	8	8.57
610	1	2	0	5	9	8.57
611	1	2	0	5	10	8.57
612	1	2	0	5	11	8.57
613	1	2	0	5	12	8.57
614	1	2	0	5	13	8.57
615	1	2	0	5	14	8.57
617	1	2	0	6	5	8.57
618	1	3	0	6	6	8.57
619	1	3	0	6	7	8.57
620	1	3	0	6	8	8.57
621	1	3	0	6	9	8.57
622	1	3	0	6	10	8.57
623	1	3	0	6	11	8.57
624	1	3	0	6	12	8.57
625	1	3	0	6	13	8.57
626	1	3	0	6	14	8.57
627	1	2	0	6	15	8.57
628	1	2	0	7	5	8.57
629	1	3	0	7	6	8.57
630	1	3	0	7	7	8.57
631	1	3	0	7	8	8.57
632	1	3	0	7	9	8.57
633	1	3	0	7	10	8.57
634	1	3	0	7	11	8.57
635	1	3	0	7	12	8.57
636	1	3	0	7	13	8.57
637	1	3	0	7	14	8.57
638	1	2	0	7	15	8.57
639	1	2	0	8	5	8.57
640	1	3	0	8	6	8.57
641	1	3	0	8	7	8.57
642	1	3	0	8	8	8.57
643	1	3	0	8	9	8.57
644	1	3	0	8	10	8.57
645	1	3	0	8	11	8.57
646	1	3	0	8	12	8.57
647	1	3	0	8	13	8.57
648	1	3	0	8	14	8.57
649	1	2	0	8	15	8.57
650	1	2	0	9	5	8.57
651	1	3	0	9	6	8.57
652	1	3	0	9	7	8.57
653	1	3	0	9	8	8.57
654	1	3	0	9	9	8.57
655	1	3	0	9	10	8.57
656	1	3	0	9	11	8.57
657	1	3	0	9	12	8.57
658	1	3	0	9	13	8.57
659	1	3	0	9	14	8.57
660	1	2	0	9	15	8.57
661	1	2	0	10	5	8.57
662	1	3	0	10	6	8.57
663	1	3	0	10	7	8.57
664	1	3	0	10	8	8.57
665	1	3	0	10	9	8.57
666	1	3	0	10	10	8.57
667	1	3	0	10	11	8.57
668	1	3	0	10	12	8.57
669	1	3	0	10	13	8.57
670	1	3	0	10	14	8.57
671	1	2	0	10	15	8.57
672	1	2	0	11	5	8.57
673	1	3	0	11	6	8.57
674	1	3	0	11	7	8.57
675	1	3	0	11	8	8.57
676	1	3	0	11	9	8.57
677	1	3	0	11	10	8.57
678	1	3	0	11	11	8.57
679	1	3	0	11	12	8.57
680	1	3	0	11	13	8.57
681	1	3	0	11	14	8.57
682	1	2	0	11	15	8.57
683	1	2	0	12	5	8.57
684	1	3	0	12	6	8.57
685	1	3	0	12	7	8.57
686	1	3	0	12	8	8.57
687	1	3	0	12	9	8.57
688	1	3	0	12	10	8.57
689	1	3	0	12	11	8.57
690	1	3	0	12	12	8.57
691	1	3	0	12	13	8.57
692	1	3	0	12	14	8.57
693	1	2	0	12	15	8.57
694	1	2	0	13	5	8.57
695	1	3	0	13	6	8.57
696	1	3	0	13	7	8.57
697	1	3	0	13	8	8.57
698	1	3	0	13	9	8.57
699	1	3	0	13	10	8.57
700	1	3	0	13	11	8.57
701	1	3	0	13	12	8.57
702	1	3	0	13	13	8.57
703	1	3	0	13	14	8.57
704	1	2	0	13	15	8.57
705	1	2	0	14	5	8.57
706	1	3	0	14	6	8.57
707	1	3	0	14	7	8.57
708	1	3	0	14	8	8.57
709	1	3	0	14	9	8.57
710	1	3	0	14	10	8.57
711	1	3	0	14	11	8.57
712	1	3	0	14	12	8.57
713	1	3	0	14	13	8.57
714	1	3	0	14	14	8.57
715	1	2	0	14	15	8.57
717	1	2	0	15	6	8.57
718	1	2	0	15	7	8.57
719	1	2	0	15	8	8.57
720	1	2	0	15	9	8.57
721	1	2	0	15	10	8.57
722	1	2	0	15	11	8.57
723	1	2	0	15	12	8.57
724	1	2	0	15	13	8.57
725	1	2	0	15	14	8.57
728	1	2	0	5	6	9.57
729	1	2	0	5	7	9.57
730	1	2	0	5	8	9.57
731	1	2	0	5	9	9.57
732	1	2	0	5	10	9.57
733	1	2	0	5	11	9.57
734	1	2	0	5	12	9.57
735	1	2	0	5	13	9.57
736	1	2	0	5	14	9.57
738	1	2	0	6	5	9.57
739	1	3	0	6	6	9.57
740	1	3	0	6	7	9.57
741	1	3	0	6	8	9.57
742	1	3	0	6	9	9.57
743	1	3	0	6	10	9.57
744	1	3	0	6	11	9.57
745	1	3	0	6	12	9.57
746	1	3	0	6	13	9.57
747	1	3	0	6	14	9.57
748	1	2	0	6	15	9.57
749	1	2	0	7	5	9.57
750	1	3	0	7	6	9.57
751	1	3	0	7	7	9.57
752	1	3	0	7	8	9.57
753	1	3	0	7	9	9.57
754	1	3	0	7	10	9.57
755	1	3	0	7	11	9.57
756	1	3	0	7	12	9.57
757	1	3	0	7	13	9.57
758	1	3	0	7	14	9.57
759	1	2	0	7	15	9.57
760	1	2	0	8	5	9.57
761	1	3	0	8	6	9.57
762	1	3	0	8	7	9.57
763	1	3	0	8	8	9.57
764	1	3	0	8	9	9.57
765	1	3	0	8	10	9.57
766	1	3	0	8	11	9.57
767	1	3	0	8	12	9.57
768	1	3	0	8	13	9.57
769	1	3	0	8	14	9.57
770	1	2	0	8	15	9.57
771	1	2	0	9	5	9.57
772	1	3	0	9	6	9.57
773	1	3	0	9	7	9.57
774	1	3	0	9	8	9.57
775	1	3	0	9	9	9.57
776	1	3	0	9	10	9.57
777	1	3	0	9	11	9.57
778	1	3	0	9	12	9.57
779	1	3	0	9	13	9.57
780	1	3	0	9	14	9.57
781	1	2	0	9	15	9.57
782	1	2	0	10	5	9.57
783	1	3	0	10	6	9.57
784	1	3	0	10	7	9.57
785	1	3	0	10	8	9.57
786	1	3	0	10	9	9.57
787	1	3	0	10	10	9.57
788	1	3	0	10	11	9.57
789	1	3	0	10	12	9.57
790	1	3	0	10	13	9.57
791	1	3	0	10	14	9.57
792	1	2	0	10	15	9.57
793	1	2	0	11	5	9.57
794	1	3	0	11	6	9.57
795	1	3	0	11	7	9.57
796	1	3	0	11	8	9.57
797	1	3	0	11	9	9.57
798	1	3	0	11	10	9.57
799	1	3	0	11	11	9.57
800	1	3	0	11	12	9.57
801	1	3	0	11	13	9.57
802	1	3	0	11	14	9.57
803	1	2	0	11	15	9.57
804	1	2	0	12	5	9.57
805	1	3	0	12	6	9.57
806	1	3	0	12	7	9.57
807	1	3	0	12	8	9.57
808	1	3	0	12	9	9.57
809	1	3	0	12	10	9.57
810	1	3	0	12	11	9.57
811	1	3	0	12	12	9.57
812	1	3	0	12	13	9.57
813	1	3	0	12	14	9.57
814	1	2	0	12	15	9.57
815	1	2	0	13	5	9.57
816	1	3	0	13	6	9.57
817	1	3	0	13	7	9.57
818	1	3	0	13	8	9.57
819	1	3	0	13	9	9.57
820	1	3	0	13	10	9.57
821	1	3	0	13	11	9.57
822	1	3	0	13	12	9.57
823	1	3	0	13	13	9.57
824	1	3	0	13	14	9.57
825	1	2	0	13	15	9.57
826	1	2	0	14	5	9.57
827	1	3	0	14	6	9.57
828	1	3	0	14	7	9.57
829	1	3	0	14	8	9.57
830	1	3	0	14	9	9.57
831	1	3	0	14	10	9.57
832	1	3	0	14	11	9.57
833	1	3	0	14	12	9.57
834	1	3	0	14	13	9.57
835	1	3	0	14	14	9.57
836	1	2	0	14	15	9.57
838	1	2	0	15	6	9.57
839	1	2	0	15	7	9.57
840	1	2	0	15	8	9.57
841	1	2	0	15	9	9.57
842	1	2	0	15	10	9.57
843	1	2	0	15	11	9.57
844	1	2	0	15	12	9.57
845	1	2	0	15	13	9.57
846	1	2	0	15	14	9.57
849	1	2	0	5	6	10.57
850	1	2	0	5	7	10.57
851	1	2	0	5	8	10.57
852	1	2	0	5	9	10.57
853	1	2	0	5	10	10.57
854	1	2	0	5	11	10.57
855	1	2	0	5	12	10.57
856	1	2	0	5	13	10.57
857	1	2	0	5	14	10.57
859	1	2	0	6	5	10.57
860	1	3	0	6	6	10.57
861	1	3	0	6	7	10.57
862	1	3	0	6	8	10.57
863	1	3	0	6	9	10.57
864	1	3	0	6	10	10.57
865	1	3	0	6	11	10.57
866	1	3	0	6	12	10.57
867	1	3	0	6	13	10.57
868	1	3	0	6	14	10.57
869	1	2	0	6	15	10.57
870	1	2	0	7	5	10.57
871	1	3	0	7	6	10.57
872	1	3	0	7	7	10.57
873	1	3	0	7	8	10.57
874	1	3	0	7	9	10.57
875	1	3	0	7	10	10.57
876	1	3	0	7	11	10.57
877	1	3	0	7	12	10.57
878	1	3	0	7	13	10.57
879	1	3	0	7	14	10.57
880	1	2	0	7	15	10.57
881	1	2	0	8	5	10.57
882	1	3	0	8	6	10.57
883	1	3	0	8	7	10.57
884	1	3	0	8	8	10.57
885	1	3	0	8	9	10.57
886	1	3	0	8	10	10.57
887	1	3	0	8	11	10.57
888	1	3	0	8	12	10.57
889	1	3	0	8	13	10.57
890	1	3	0	8	14	10.57
891	1	2	0	8	15	10.57
892	1	2	0	9	5	10.57
893	1	3	0	9	6	10.57
894	1	3	0	9	7	10.57
895	1	3	0	9	8	10.57
896	1	3	0	9	9	10.57
897	1	3	0	9	10	10.57
898	1	3	0	9	11	10.57
899	1	3	0	9	12	10.57
900	1	3	0	9	13	10.57
901	1	3	0	9	14	10.57
902	1	2	0	9	15	10.57
903	1	2	0	10	5	10.57
904	1	3	0	10	6	10.57
905	1	3	0	10	7	10.57
906	1	3	0	10	8	10.57
907	1	3	0	10	9	10.57
908	1	3	0	10	10	10.57
909	1	3	0	10	11	10.57
910	1	3	0	10	12	10.57
911	1	3	0	10	13	10.57
912	1	3	0	10	14	10.57
913	1	2	0	10	15	10.57
914	1	2	0	11	5	10.57
915	1	3	0	11	6	10.57
916	1	3	0	11	7	10.57
917	1	3	0	11	8	10.57
918	1	3	0	11	9	10.57
919	1	3	0	11	10	10.57
920	1	3	0	11	11	10.57
921	1	3	0	11	12	10.57
922	1	3	0	11	13	10.57
923	1	3	0	11	14	10.57
924	1	2	0	11	15	10.57
925	1	2	0	12	5	10.57
926	1	3	0	12	6	10.57
927	1	3	0	12	7	10.57
928	1	3	0	12	8	10.57
929	1	3	0	12	9	10.57
930	1	3	0	12	10	10.57
931	1	3	0	12	11	10.57
932	1	3	0	12	12	10.57
933	1	3	0	12	13	10.57
934	1	3	0	12	14	10.57
935	1	2	0	12	15	10.57
936	1	2	0	13	5	10.57
937	1	3	0	13	6	10.57
938	1	3	0	13	7	10.57
939	1	3	0	13	8	10.57
940	1	3	0	13	9	10.57
941	1	3	0	13	10	10.57
942	1	3	0	13	11	10.57
943	1	3	0	13	12	10.57
944	1	3	0	13	13	10.57
945	1	3	0	13	14	10.57
946	1	2	0	13	15	10.57
947	1	2	0	14	5	10.57
948	1	3	0	14	6	10.57
949	1	3	0	14	7	10.57
950	1	3	0	14	8	10.57
951	1	3	0	14	9	10.57
952	1	3	0	14	10	10.57
953	1	3	0	14	11	10.57
954	1	3	0	14	12	10.57
955	1	3	0	14	13	10.57
956	1	3	0	14	14	10.57
957	1	2	0	14	15	10.57
959	1	2	0	15	6	10.57
960	1	2	0	15	7	10.57
961	1	2	0	15	8	10.57
962	1	2	0	15	9	10.57
963	1	2	0	15	10	10.57
964	1	2	0	15	11	10.57
965	1	2	0	15	12	10.57
966	1	2	0	15	13	10.57
967	1	2	0	15	14	10.57
971	1	2	0	5	7	11.57
972	1	2	0	5	8	11.57
973	1	2	0	5	9	11.57
974	1	2	0	5	10	11.57
975	1	2	0	5	11	11.57
976	1	2	0	5	12	11.57
977	1	2	0	5	13	11.57
981	1	2	0	6	6	11.57
982	1	3	0	6	7	11.57
983	1	3	0	6	8	11.57
984	1	3	0	6	9	11.57
985	1	3	0	6	10	11.57
986	1	3	0	6	11	11.57
987	1	3	0	6	12	11.57
988	1	3	0	6	13	11.57
989	1	2	0	6	14	11.57
991	1	2	0	7	5	11.57
992	1	3	0	7	6	11.57
993	1	3	0	7	7	11.57
994	1	3	0	7	8	11.57
995	1	3	0	7	9	11.57
996	1	3	0	7	10	11.57
997	1	3	0	7	11	11.57
998	1	3	0	7	12	11.57
999	1	3	0	7	13	11.57
1000	1	3	0	7	14	11.57
1001	1	2	0	7	15	11.57
1002	1	2	0	8	5	11.57
1003	1	3	0	8	6	11.57
1004	1	3	0	8	7	11.57
1005	1	3	0	8	8	11.57
1006	1	3	0	8	9	11.57
1007	1	3	0	8	10	11.57
1008	1	3	0	8	11	11.57
1009	1	3	0	8	12	11.57
1010	1	3	0	8	13	11.57
1011	1	3	0	8	14	11.57
1012	1	2	0	8	15	11.57
1013	1	2	0	9	5	11.57
1014	1	3	0	9	6	11.57
1015	1	3	0	9	7	11.57
1016	1	3	0	9	8	11.57
1017	1	3	0	9	9	11.57
1018	1	3	0	9	10	11.57
1019	1	3	0	9	11	11.57
1020	1	3	0	9	12	11.57
1021	1	3	0	9	13	11.57
1022	1	3	0	9	14	11.57
1023	1	2	0	9	15	11.57
1024	1	2	0	10	5	11.57
1025	1	3	0	10	6	11.57
1026	1	3	0	10	7	11.57
1027	1	3	0	10	8	11.57
1028	1	3	0	10	9	11.57
1029	1	3	0	10	10	11.57
1030	1	3	0	10	11	11.57
1031	1	3	0	10	12	11.57
1032	1	3	0	10	13	11.57
1033	1	3	0	10	14	11.57
1034	1	2	0	10	15	11.57
1035	1	2	0	11	5	11.57
1036	1	3	0	11	6	11.57
1037	1	3	0	11	7	11.57
1038	1	3	0	11	8	11.57
1039	1	3	0	11	9	11.57
1040	1	3	0	11	10	11.57
1041	1	3	0	11	11	11.57
1042	1	3	0	11	12	11.57
1043	1	3	0	11	13	11.57
1044	1	3	0	11	14	11.57
1045	1	2	0	11	15	11.57
1046	1	2	0	12	5	11.57
1047	1	3	0	12	6	11.57
1048	1	3	0	12	7	11.57
1049	1	3	0	12	8	11.57
1050	1	3	0	12	9	11.57
1051	1	3	0	12	10	11.57
1052	1	3	0	12	11	11.57
1053	1	3	0	12	12	11.57
1054	1	3	0	12	13	11.57
1055	1	3	0	12	14	11.57
1056	1	2	0	12	15	11.57
1057	1	2	0	13	5	11.57
1058	1	3	0	13	6	11.57
1059	1	3	0	13	7	11.57
1060	1	3	0	13	8	11.57
1061	1	3	0	13	9	11.57
1062	1	3	0	13	10	11.57
1063	1	3	0	13	11	11.57
1064	1	3	0	13	12	11.57
1065	1	3	0	13	13	11.57
1066	1	3	0	13	14	11.57
1067	1	2	0	13	15	11.57
1069	1	2	0	14	6	11.57
1070	1	3	0	14	7	11.57
1071	1	3	0	14	8	11.57
1072	1	3	0	14	9	11.57
1073	1	3	0	14	10	11.57
1074	1	3	0	14	11	11.57
1075	1	3	0	14	12	11.57
1076	1	3	0	14	13	11.57
1077	1	2	0	14	14	11.57
1081	1	2	0	15	7	11.57
1082	1	2	0	15	8	11.57
1083	1	2	0	15	9	11.57
1084	1	2	0	15	10	11.57
1085	1	2	0	15	11	11.57
1086	1	2	0	15	12	11.57
1087	1	2	0	15	13	11.57
1093	1	2	0	5	8	12.57
1094	1	2	0	5	9	12.57
1095	1	2	0	5	10	12.57
1096	1	2	0	5	11	12.57
1097	1	2	0	5	12	12.57
1102	1	2	0	6	6	12.57
1103	1	2	0	6	7	12.57
1104	1	3	0	6	8	12.57
1105	1	3	0	6	9	12.57
1106	1	3	0	6	10	12.57
1107	1	3	0	6	11	12.57
1108	1	3	0	6	12	12.57
1109	1	2	0	6	13	12.57
1110	1	2	0	6	14	12.57
1113	1	2	0	7	6	12.57
1114	1	3	0	7	7	12.57
1115	1	3	0	7	8	12.57
1116	1	3	0	7	9	12.57
1117	1	3	0	7	10	12.57
1118	1	3	0	7	11	12.57
1119	1	3	0	7	12	12.57
1120	1	3	0	7	13	12.57
1121	1	2	0	7	14	12.57
1123	1	2	0	8	5	12.57
1124	1	3	0	8	6	12.57
1125	1	3	0	8	7	12.57
1126	1	3	0	8	8	12.57
1127	1	3	0	8	9	12.57
1128	1	3	0	8	10	12.57
1129	1	3	0	8	11	12.57
1130	1	3	0	8	12	12.57
1131	1	3	0	8	13	12.57
1132	1	3	0	8	14	12.57
1133	1	2	0	8	15	12.57
1134	1	2	0	9	5	12.57
1135	1	3	0	9	6	12.57
1136	1	3	0	9	7	12.57
1137	1	3	0	9	8	12.57
1138	1	3	0	9	9	12.57
1139	1	3	0	9	10	12.57
1140	1	3	0	9	11	12.57
1141	1	3	0	9	12	12.57
1142	1	3	0	9	13	12.57
1143	1	3	0	9	14	12.57
1144	1	2	0	9	15	12.57
1145	1	2	0	10	5	12.57
1146	1	3	0	10	6	12.57
1147	1	3	0	10	7	12.57
1148	1	3	0	10	8	12.57
1149	1	3	0	10	9	12.57
1150	1	3	0	10	10	12.57
1151	1	3	0	10	11	12.57
1152	1	3	0	10	12	12.57
1153	1	3	0	10	13	12.57
1154	1	3	0	10	14	12.57
1155	1	2	0	10	15	12.57
1156	1	2	0	11	5	12.57
1157	1	3	0	11	6	12.57
1158	1	3	0	11	7	12.57
1159	1	3	0	11	8	12.57
1160	1	3	0	11	9	12.57
1161	1	3	0	11	10	12.57
1162	1	3	0	11	11	12.57
1163	1	3	0	11	12	12.57
1164	1	3	0	11	13	12.57
1165	1	3	0	11	14	12.57
1166	1	2	0	11	15	12.57
1167	1	2	0	12	5	12.57
1168	1	3	0	12	6	12.57
1169	1	3	0	12	7	12.57
1170	1	3	0	12	8	12.57
1171	1	3	0	12	9	12.57
1172	1	3	0	12	10	12.57
1173	1	3	0	12	11	12.57
1174	1	3	0	12	12	12.57
1175	1	3	0	12	13	12.57
1176	1	3	0	12	14	12.57
1177	1	2	0	12	15	12.57
1179	1	2	0	13	6	12.57
1180	1	3	0	13	7	12.57
1181	1	3	0	13	8	12.57
1182	1	3	0	13	9	12.57
1183	1	3	0	13	10	12.57
1184	1	3	0	13	11	12.57
1185	1	3	0	13	12	12.57
1186	1	3	0	13	13	12.57
1187	1	2	0	13	14	12.57
1190	1	2	0	14	6	12.57
1191	1	2	0	14	7	12.57
1192	1	3	0	14	8	12.57
1193	1	3	0	14	9	12.57
1194	1	3	0	14	10	12.57
1195	1	3	0	14	11	12.57
1196	1	3	0	14	12	12.57
1197	1	2	0	14	13	12.57
1198	1	2	0	14	14	12.57
1203	1	2	0	15	8	12.57
1204	1	2	0	15	9	12.57
1205	1	2	0	15	10	12.57
1206	1	2	0	15	11	12.57
1207	1	2	0	15	12	12.57
1225	1	2	0	6	8	13.57
1226	1	2	0	6	9	13.57
1227	1	2	0	6	10	13.57
1228	1	2	0	6	11	13.57
1229	1	2	0	6	12	13.57
1235	1	2	0	7	7	13.57
1236	1	2	0	7	8	13.57
1237	1	2	0	7	9	13.57
1238	1	2	0	7	10	13.57
1239	1	2	0	7	11	13.57
1240	1	2	0	7	12	13.57
1241	1	2	0	7	13	13.57
1245	1	2	0	8	6	13.57
1246	1	2	0	8	7	13.57
1247	1	2	0	8	8	13.57
1248	1	2	0	8	9	13.57
1249	1	2	0	8	10	13.57
1250	1	2	0	8	11	13.57
1251	1	2	0	8	12	13.57
1252	1	2	0	8	13	13.57
1253	1	2	0	8	14	13.57
1256	1	2	0	9	6	13.57
1257	1	2	0	9	7	13.57
1258	1	2	0	9	8	13.57
1259	1	2	0	9	9	13.57
1260	1	2	0	9	10	13.57
1261	1	2	0	9	11	13.57
1262	1	2	0	9	12	13.57
1263	1	2	0	9	13	13.57
1264	1	2	0	9	14	13.57
1267	1	2	0	10	6	13.57
1268	1	2	0	10	7	13.57
1269	1	2	0	10	8	13.57
1270	1	2	0	10	9	13.57
1271	1	2	0	10	10	13.57
1272	1	2	0	10	11	13.57
1273	1	2	0	10	12	13.57
1274	1	2	0	10	13	13.57
1275	1	2	0	10	14	13.57
1278	1	2	0	11	6	13.57
1279	1	2	0	11	7	13.57
1280	1	2	0	11	8	13.57
1281	1	2	0	11	9	13.57
1282	1	2	0	11	10	13.57
1283	1	2	0	11	11	13.57
1284	1	2	0	11	12	13.57
1285	1	2	0	11	13	13.57
1286	1	2	0	11	14	13.57
1289	1	2	0	12	6	13.57
1290	1	2	0	12	7	13.57
1291	1	2	0	12	8	13.57
1292	1	2	0	12	9	13.57
1293	1	2	0	12	10	13.57
1294	1	2	0	12	11	13.57
1295	1	2	0	12	12	13.57
1296	1	2	0	12	13	13.57
1297	1	2	0	12	14	13.57
1301	1	2	0	13	7	13.57
1302	1	2	0	13	8	13.57
1303	1	2	0	13	9	13.57
1304	1	2	0	13	10	13.57
1305	1	2	0	13	11	13.57
1306	1	2	0	13	12	13.57
1307	1	2	0	13	13	13.57
1313	1	2	0	14	8	13.57
1314	1	2	0	14	9	13.57
1315	1	2	0	14	10	13.57
1316	1	2	0	14	11	13.57
1317	1	2	0	14	12	13.57
