#LAMMPS data file for rigid bodies
1143 atoms
3 atom types

0 20 xlo xhi
0 20 ylo yhi
0 20 zlo zhi

Masses

1 1.0
2 1.0
3 1.0

Atoms

15	1	2	0	6	8	5
16	1	2	0	6	9	5
17	1	2	0	6	10	5
18	1	2	0	6	11	5
19	1	2	0	6	12	5
25	1	2	0	7	7	5
26	1	2	0	7	8	5
27	1	2	0	7	9	5
28	1	2	0	7	10	5
29	1	2	0	7	11	5
30	1	2	0	7	12	5
31	1	2	0	7	13	5
35	1	2	0	8	6	5
36	1	2	0	8	7	5
37	1	2	0	8	8	5
38	1	2	0	8	9	5
39	1	2	0	8	10	5
40	1	2	0	8	11	5
41	1	2	0	8	12	5
42	1	2	0	8	13	5
43	1	2	0	8	14	5
46	1	2	0	9	6	5
47	1	2	0	9	7	5
48	1	2	0	9	8	5
49	1	2	0	9	9	5
50	1	2	0	9	10	5
51	1	2	0	9	11	5
52	1	2	0	9	12	5
53	1	2	0	9	13	5
54	1	2	0	9	14	5
57	1	2	0	10	6	5
58	1	2	0	10	7	5
59	1	2	0	10	8	5
60	1	2	0	10	9	5
61	1	2	0	10	10	5
62	1	2	0	10	11	5
63	1	2	0	10	12	5
64	1	2	0	10	13	5
65	1	2	0	10	14	5
68	1	2	0	11	6	5
69	1	2	0	11	7	5
70	1	2	0	11	8	5
71	1	2	0	11	9	5
72	1	2	0	11	10	5
73	1	2	0	11	11	5
74	1	2	0	11	12	5
75	1	2	0	11	13	5
76	1	2	0	11	14	5
79	1	2	0	12	6	5
80	1	2	0	12	7	5
81	1	2	0	12	8	5
82	1	2	0	12	9	5
83	1	2	0	12	10	5
84	1	2	0	12	11	5
85	1	2	0	12	12	5
86	1	2	0	12	13	5
87	1	2	0	12	14	5
91	1	2	0	13	7	5
92	1	2	0	13	8	5
93	1	2	0	13	9	5
94	1	2	0	13	10	5
95	1	2	0	13	11	5
96	1	2	0	13	12	5
97	1	2	0	13	13	5
103	1	2	0	14	8	5
104	1	2	0	14	9	5
105	1	2	0	14	10	5
106	1	2	0	14	11	5
107	1	2	0	14	12	5
125	1	2	0	5	8	6
126	1	2	0	5	9	6
127	1	2	0	5	10	6
128	1	2	0	5	11	6
129	1	2	0	5	12	6
134	1	2	0	6	6	6
135	1	2	0	6	7	6
136	1	3	0	6	8	6
137	1	3	0	6	9	6
138	1	3	0	6	10	6
139	1	3	0	6	11	6
140	1	3	0	6	12	6
141	1	2	0	6	13	6
142	1	2	0	6	14	6
145	1	2	0	7	6	6
146	1	3	0	7	7	6
147	1	3	0	7	8	6
148	1	3	0	7	9	6
149	1	3	0	7	10	6
150	1	3	0	7	11	6
151	1	3	0	7	12	6
152	1	3	0	7	13	6
153	1	2	0	7	14	6
155	1	2	0	8	5	6
156	1	3	0	8	6	6
157	1	3	0	8	7	6
158	1	3	0	8	8	6
159	1	3	0	8	9	6
160	1	3	0	8	10	6
161	1	3	0	8	11	6
162	1	3	0	8	12	6
163	1	3	0	8	13	6
164	1	3	0	8	14	6
165	1	2	0	8	15	6
166	1	2	0	9	5	6
167	1	3	0	9	6	6
168	1	3	0	9	7	6
169	1	3	0	9	8	6
170	1	3	0	9	9	6
171	1	3	0	9	10	6
172	1	3	0	9	11	6
173	1	3	0	9	12	6
174	1	3	0	9	13	6
175	1	3	0	9	14	6
176	1	2	0	9	15	6
177	1	2	0	10	5	6
178	1	3	0	10	6	6
179	1	3	0	10	7	6
180	1	3	0	10	8	6
181	1	3	0	10	9	6
182	1	3	0	10	10	6
183	1	3	0	10	11	6
184	1	3	0	10	12	6
185	1	3	0	10	13	6
186	1	3	0	10	14	6
187	1	2	0	10	15	6
188	1	2	0	11	5	6
189	1	3	0	11	6	6
190	1	3	0	11	7	6
191	1	3	0	11	8	6
192	1	3	0	11	9	6
193	1	3	0	11	10	6
194	1	3	0	11	11	6
195	1	3	0	11	12	6
196	1	3	0	11	13	6
197	1	3	0	11	14	6
198	1	2	0	11	15	6
199	1	2	0	12	5	6
200	1	3	0	12	6	6
201	1	3	0	12	7	6
202	1	3	0	12	8	6
203	1	3	0	12	9	6
204	1	3	0	12	10	6
205	1	3	0	12	11	6
206	1	3	0	12	12	6
207	1	3	0	12	13	6
208	1	3	0	12	14	6
209	1	2	0	12	15	6
211	1	2	0	13	6	6
212	1	3	0	13	7	6
213	1	3	0	13	8	6
214	1	3	0	13	9	6
215	1	3	0	13	10	6
216	1	3	0	13	11	6
217	1	3	0	13	12	6
218	1	3	0	13	13	6
219	1	2	0	13	14	6
222	1	2	0	14	6	6
223	1	2	0	14	7	6
224	1	3	0	14	8	6
225	1	3	0	14	9	6
226	1	3	0	14	10	6
227	1	3	0	14	11	6
228	1	3	0	14	12	6
229	1	2	0	14	13	6
230	1	2	0	14	14	6
235	1	2	0	15	8	6
236	1	2	0	15	9	6
237	1	2	0	15	10	6
238	1	2	0	15	11	6
239	1	2	0	15	12	6
245	1	2	0	5	7	7
246	1	2	0	5	8	7
247	1	2	0	5	9	7
248	1	2	0	5	10	7
249	1	2	0	5	11	7
250	1	2	0	5	12	7
251	1	2	0	5	13	7
255	1	2	0	6	6	7
256	1	3	0	6	7	7
257	1	3	0	6	8	7
258	1	3	0	6	9	7
259	1	3	0	6	10	7
260	1	3	0	6	11	7
261	1	3	0	6	12	7
262	1	3	0	6	13	7
263	1	2	0	6	14	7
265	1	2	0	7	5	7
266	1	3	0	7	6	7
267	1	3	0	7	7	7
268	1	3	0	7	8	7
269	1	3	0	7	9	7
270	1	3	0	7	10	7
271	1	3	0	7	11	7
272	1	3	0	7	12	7
273	1	3	0	7	13	7
274	1	3	0	7	14	7
275	1	2	0	7	15	7
276	1	2	0	8	5	7
277	1	3	0	8	6	7
278	1	3	0	8	7	7
279	1	3	0	8	8	7
280	1	3	0	8	9	7
281	1	3	0	8	10	7
282	1	3	0	8	11	7
283	1	3	0	8	12	7
284	1	3	0	8	13	7
285	1	3	0	8	14	7
286	1	2	0	8	15	7
287	1	2	0	9	5	7
288	1	3	0	9	6	7
289	1	3	0	9	7	7
290	1	3	0	9	8	7
291	1	3	0	9	9	7
292	1	3	0	9	10	7
293	1	3	0	9	11	7
294	1	3	0	9	12	7
295	1	3	0	9	13	7
296	1	3	0	9	14	7
297	1	2	0	9	15	7
298	1	2	0	10	5	7
299	1	3	0	10	6	7
300	1	3	0	10	7	7
301	1	3	0	10	8	7
302	1	3	0	10	9	7
303	1	3	0	10	10	7
304	1	3	0	10	11	7
305	1	3	0	10	12	7
306	1	3	0	10	13	7
307	1	3	0	10	14	7
308	1	2	0	10	15	7
309	1	2	0	11	5	7
310	1	3	0	11	6	7
311	1	3	0	11	7	7
312	1	3	0	11	8	7
313	1	3	0	11	9	7
314	1	3	0	11	10	7
315	1	3	0	11	11	7
316	1	3	0	11	12	7
317	1	3	0	11	13	7
318	1	3	0	11	14	7
319	1	2	0	11	15	7
320	1	2	0	12	5	7
321	1	3	0	12	6	7
322	1	3	0	12	7	7
323	1	3	0	12	8	7
324	1	3	0	12	9	7
325	1	3	0	12	10	7
326	1	3	0	12	11	7
327	1	3	0	12	12	7
328	1	3	0	12	13	7
329	1	3	0	12	14	7
330	1	2	0	12	15	7
331	1	2	0	13	5	7
332	1	3	0	13	6	7
333	1	3	0	13	7	7
334	1	3	0	13	8	7
335	1	3	0	13	9	7
336	1	3	0	13	10	7
337	1	3	0	13	11	7
338	1	3	0	13	12	7
339	1	3	0	13	13	7
340	1	3	0	13	14	7
341	1	2	0	13	15	7
343	1	2	0	14	6	7
344	1	3	0	14	7	7
345	1	3	0	14	8	7
346	1	3	0	14	9	7
347	1	3	0	14	10	7
348	1	3	0	14	11	7
349	1	3	0	14	12	7
350	1	3	0	14	13	7
351	1	2	0	14	14	7
355	1	2	0	15	7	7
356	1	2	0	15	8	7
357	1	2	0	15	9	7
358	1	2	0	15	10	7
359	1	2	0	15	11	7
360	1	2	0	15	12	7
361	1	2	0	15	13	7
365	1	2	0	5	6	8
366	1	2	0	5	7	8
367	1	2	0	5	8	8
368	1	2	0	5	9	8
369	1	2	0	5	10	8
370	1	2	0	5	11	8
371	1	2	0	5	12	8
372	1	2	0	5	13	8
373	1	2	0	5	14	8
375	1	2	0	6	5	8
376	1	3	0	6	6	8
377	1	3	0	6	7	8
378	1	3	0	6	8	8
379	1	3	0	6	9	8
380	1	3	0	6	10	8
381	1	3	0	6	11	8
382	1	3	0	6	12	8
383	1	3	0	6	13	8
384	1	3	0	6	14	8
385	1	2	0	6	15	8
386	1	2	0	7	5	8
387	1	3	0	7	6	8
388	1	3	0	7	7	8
389	1	3	0	7	8	8
390	1	3	0	7	9	8
391	1	3	0	7	10	8
392	1	3	0	7	11	8
393	1	3	0	7	12	8
394	1	3	0	7	13	8
395	1	3	0	7	14	8
396	1	2	0	7	15	8
397	1	2	0	8	5	8
398	1	3	0	8	6	8
399	1	3	0	8	7	8
400	1	3	0	8	8	8
401	1	3	0	8	9	8
402	1	3	0	8	10	8
403	1	3	0	8	11	8
404	1	3	0	8	12	8
405	1	3	0	8	13	8
406	1	3	0	8	14	8
407	1	2	0	8	15	8
408	1	2	0	9	5	8
409	1	3	0	9	6	8
410	1	3	0	9	7	8
411	1	3	0	9	8	8
412	1	3	0	9	9	8
413	1	3	0	9	10	8
414	1	3	0	9	11	8
415	1	3	0	9	12	8
416	1	3	0	9	13	8
417	1	3	0	9	14	8
418	1	2	0	9	15	8
419	1	2	0	10	5	8
420	1	3	0	10	6	8
421	1	3	0	10	7	8
422	1	3	0	10	8	8
423	1	3	0	10	9	8
424	1	3	0	10	10	8
425	1	3	0	10	11	8
426	1	3	0	10	12	8
427	1	3	0	10	13	8
428	1	3	0	10	14	8
429	1	2	0	10	15	8
430	1	2	0	11	5	8
431	1	3	0	11	6	8
432	1	3	0	11	7	8
433	1	3	0	11	8	8
434	1	3	0	11	9	8
435	1	3	0	11	10	8
436	1	3	0	11	11	8
437	1	3	0	11	12	8
438	1	3	0	11	13	8
439	1	3	0	11	14	8
440	1	2	0	11	15	8
441	1	2	0	12	5	8
442	1	3	0	12	6	8
443	1	3	0	12	7	8
444	1	3	0	12	8	8
445	1	3	0	12	9	8
446	1	3	0	12	10	8
447	1	3	0	12	11	8
448	1	3	0	12	12	8
449	1	3	0	12	13	8
450	1	3	0	12	14	8
451	1	2	0	12	15	8
452	1	2	0	13	5	8
453	1	3	0	13	6	8
454	1	3	0	13	7	8
455	1	3	0	13	8	8
456	1	3	0	13	9	8
457	1	3	0	13	10	8
458	1	3	0	13	11	8
459	1	3	0	13	12	8
460	1	3	0	13	13	8
461	1	3	0	13	14	8
462	1	2	0	13	15	8
463	1	2	0	14	5	8
464	1	3	0	14	6	8
465	1	3	0	14	7	8
466	1	3	0	14	8	8
467	1	3	0	14	9	8
468	1	3	0	14	10	8
469	1	3	0	14	11	8
470	1	3	0	14	12	8
471	1	3	0	14	13	8
472	1	3	0	14	14	8
473	1	2	0	14	15	8
475	1	2	0	15	6	8
476	1	2	0	15	7	8
477	1	2	0	15	8	8
478	1	2	0	15	9	8
479	1	2	0	15	10	8
480	1	2	0	15	11	8
481	1	2	0	15	12	8
482	1	2	0	15	13	8
483	1	2	0	15	14	8
486	1	2	0	5	6	9
487	1	2	0	5	7	9
488	1	2	0	5	8	9
489	1	2	0	5	9	9
490	1	2	0	5	10	9
491	1	2	0	5	11	9
492	1	2	0	5	12	9
493	1	2	0	5	13	9
494	1	2	0	5	14	9
496	1	2	0	6	5	9
497	1	3	0	6	6	9
498	1	3	0	6	7	9
499	1	3	0	6	8	9
500	1	3	0	6	9	9
501	1	3	0	6	10	9
502	1	3	0	6	11	9
503	1	3	0	6	12	9
504	1	3	0	6	13	9
505	1	3	0	6	14	9
506	1	2	0	6	15	9
507	1	2	0	7	5	9
508	1	3	0	7	6	9
509	1	3	0	7	7	9
510	1	3	0	7	8	9
511	1	3	0	7	9	9
512	1	3	0	7	10	9
513	1	3	0	7	11	9
514	1	3	0	7	12	9
515	1	3	0	7	13	9
516	1	3	0	7	14	9
517	1	2	0	7	15	9
518	1	2	0	8	5	9
519	1	3	0	8	6	9
520	1	3	0	8	7	9
521	1	3	0	8	8	9
522	1	3	0	8	9	9
523	1	3	0	8	10	9
524	1	3	0	8	11	9
525	1	3	0	8	12	9
526	1	3	0	8	13	9
527	1	3	0	8	14	9
528	1	2	0	8	15	9
529	1	2	0	9	5	9
530	1	3	0	9	6	9
531	1	3	0	9	7	9
532	1	3	0	9	8	9
533	1	3	0	9	9	9
534	1	3	0	9	10	9
535	1	3	0	9	11	9
536	1	3	0	9	12	9
537	1	3	0	9	13	9
538	1	3	0	9	14	9
539	1	2	0	9	15	9
540	1	2	0	10	5	9
541	1	3	0	10	6	9
542	1	3	0	10	7	9
543	1	3	0	10	8	9
544	1	3	0	10	9	9
545	1	3	0	10	10	9
546	1	3	0	10	11	9
547	1	3	0	10	12	9
548	1	3	0	10	13	9
549	1	3	0	10	14	9
550	1	2	0	10	15	9
551	1	2	0	11	5	9
552	1	3	0	11	6	9
553	1	3	0	11	7	9
554	1	3	0	11	8	9
555	1	3	0	11	9	9
556	1	3	0	11	10	9
557	1	3	0	11	11	9
558	1	3	0	11	12	9
559	1	3	0	11	13	9
560	1	3	0	11	14	9
561	1	2	0	11	15	9
562	1	2	0	12	5	9
563	1	3	0	12	6	9
564	1	3	0	12	7	9
565	1	3	0	12	8	9
566	1	3	0	12	9	9
567	1	3	0	12	10	9
568	1	3	0	12	11	9
569	1	3	0	12	12	9
570	1	3	0	12	13	9
571	1	3	0	12	14	9
572	1	2	0	12	15	9
573	1	2	0	13	5	9
574	1	3	0	13	6	9
575	1	3	0	13	7	9
576	1	3	0	13	8	9
577	1	3	0	13	9	9
578	1	3	0	13	10	9
579	1	3	0	13	11	9
580	1	3	0	13	12	9
581	1	3	0	13	13	9
582	1	3	0	13	14	9
583	1	2	0	13	15	9
584	1	2	0	14	5	9
585	1	3	0	14	6	9
586	1	3	0	14	7	9
587	1	3	0	14	8	9
588	1	3	0	14	9	9
589	1	3	0	14	10	9
590	1	3	0	14	11	9
591	1	3	0	14	12	9
592	1	3	0	14	13	9
593	1	3	0	14	14	9
594	1	2	0	14	15	9
596	1	2	0	15	6	9
597	1	2	0	15	7	9
598	1	2	0	15	8	9
599	1	2	0	15	9	9
600	1	2	0	15	10	9
601	1	2	0	15	11	9
602	1	2	0	15	12	9
603	1	2	0	15	13	9
604	1	2	0	15	14	9
607	1	2	0	5	6	10
608	1	2	0	5	7	10
609	1	2	0	5	8	10
610	1	2	0	5	9	10
611	1	2	0	5	10	10
612	1	2	0	5	11	10
613	1	2	0	5	12	10
614	1	2	0	5	13	10
615	1	2	0	5	14	10
617	1	2	0	6	5	10
618	1	3	0	6	6	10
619	1	3	0	6	7	10
620	1	3	0	6	8	10
621	1	3	0	6	9	10
622	1	3	0	6	10	10
623	1	3	0	6	11	10
624	1	3	0	6	12	10
625	1	3	0	6	13	10
626	1	3	0	6	14	10
627	1	2	0	6	15	10
628	1	2	0	7	5	10
629	1	3	0	7	6	10
630	1	3	0	7	7	10
631	1	3	0	7	8	10
632	1	3	0	7	9	10
633	1	3	0	7	10	10
634	1	3	0	7	11	10
635	1	3	0	7	12	10
636	1	3	0	7	13	10
637	1	3	0	7	14	10
638	1	2	0	7	15	10
639	1	2	0	8	5	10
640	1	3	0	8	6	10
641	1	3	0	8	7	10
642	1	3	0	8	8	10
643	1	3	0	8	9	10
644	1	3	0	8	10	10
645	1	3	0	8	11	10
646	1	3	0	8	12	10
647	1	3	0	8	13	10
648	1	3	0	8	14	10
649	1	2	0	8	15	10
650	1	2	0	9	5	10
651	1	3	0	9	6	10
652	1	3	0	9	7	10
653	1	3	0	9	8	10
654	1	3	0	9	9	10
655	1	3	0	9	10	10
656	1	3	0	9	11	10
657	1	3	0	9	12	10
658	1	3	0	9	13	10
659	1	3	0	9	14	10
660	1	2	0	9	15	10
661	1	2	0	10	5	10
662	1	3	0	10	6	10
663	1	3	0	10	7	10
664	1	3	0	10	8	10
665	1	3	0	10	9	10
666	1	3	0	10	10	10
667	1	3	0	10	11	10
668	1	3	0	10	12	10
669	1	3	0	10	13	10
670	1	3	0	10	14	10
671	1	2	0	10	15	10
672	1	2	0	11	5	10
673	1	3	0	11	6	10
674	1	3	0	11	7	10
675	1	3	0	11	8	10
676	1	3	0	11	9	10
677	1	3	0	11	10	10
678	1	3	0	11	11	10
679	1	3	0	11	12	10
680	1	3	0	11	13	10
681	1	3	0	11	14	10
682	1	2	0	11	15	10
683	1	2	0	12	5	10
684	1	3	0	12	6	10
685	1	3	0	12	7	10
686	1	3	0	12	8	10
687	1	3	0	12	9	10
688	1	3	0	12	10	10
689	1	3	0	12	11	10
690	1	3	0	12	12	10
691	1	3	0	12	13	10
692	1	3	0	12	14	10
693	1	2	0	12	15	10
694	1	2	0	13	5	10
695	1	3	0	13	6	10
696	1	3	0	13	7	10
697	1	3	0	13	8	10
698	1	3	0	13	9	10
699	1	3	0	13	10	10
700	1	3	0	13	11	10
701	1	3	0	13	12	10
702	1	3	0	13	13	10
703	1	3	0	13	14	10
704	1	2	0	13	15	10
705	1	2	0	14	5	10
706	1	3	0	14	6	10
707	1	3	0	14	7	10
708	1	3	0	14	8	10
709	1	3	0	14	9	10
710	1	3	0	14	10	10
711	1	3	0	14	11	10
712	1	3	0	14	12	10
713	1	3	0	14	13	10
714	1	3	0	14	14	10
715	1	2	0	14	15	10
717	1	2	0	15	6	10
718	1	2	0	15	7	10
719	1	2	0	15	8	10
720	1	2	0	15	9	10
721	1	2	0	15	10	10
722	1	2	0	15	11	10
723	1	2	0	15	12	10
724	1	2	0	15	13	10
725	1	2	0	15	14	10
728	1	2	0	5	6	11
729	1	2	0	5	7	11
730	1	2	0	5	8	11
731	1	2	0	5	9	11
732	1	2	0	5	10	11
733	1	2	0	5	11	11
734	1	2	0	5	12	11
735	1	2	0	5	13	11
736	1	2	0	5	14	11
738	1	2	0	6	5	11
739	1	3	0	6	6	11
740	1	3	0	6	7	11
741	1	3	0	6	8	11
742	1	3	0	6	9	11
743	1	3	0	6	10	11
744	1	3	0	6	11	11
745	1	3	0	6	12	11
746	1	3	0	6	13	11
747	1	3	0	6	14	11
748	1	2	0	6	15	11
749	1	2	0	7	5	11
750	1	3	0	7	6	11
751	1	3	0	7	7	11
752	1	3	0	7	8	11
753	1	3	0	7	9	11
754	1	3	0	7	10	11
755	1	3	0	7	11	11
756	1	3	0	7	12	11
757	1	3	0	7	13	11
758	1	3	0	7	14	11
759	1	2	0	7	15	11
760	1	2	0	8	5	11
761	1	3	0	8	6	11
762	1	3	0	8	7	11
763	1	3	0	8	8	11
764	1	3	0	8	9	11
765	1	3	0	8	10	11
766	1	3	0	8	11	11
767	1	3	0	8	12	11
768	1	3	0	8	13	11
769	1	3	0	8	14	11
770	1	2	0	8	15	11
771	1	2	0	9	5	11
772	1	3	0	9	6	11
773	1	3	0	9	7	11
774	1	3	0	9	8	11
775	1	3	0	9	9	11
776	1	3	0	9	10	11
777	1	3	0	9	11	11
778	1	3	0	9	12	11
779	1	3	0	9	13	11
780	1	3	0	9	14	11
781	1	2	0	9	15	11
782	1	2	0	10	5	11
783	1	3	0	10	6	11
784	1	3	0	10	7	11
785	1	3	0	10	8	11
786	1	3	0	10	9	11
787	1	3	0	10	10	11
788	1	3	0	10	11	11
789	1	3	0	10	12	11
790	1	3	0	10	13	11
791	1	3	0	10	14	11
792	1	2	0	10	15	11
793	1	2	0	11	5	11
794	1	3	0	11	6	11
795	1	3	0	11	7	11
796	1	3	0	11	8	11
797	1	3	0	11	9	11
798	1	3	0	11	10	11
799	1	3	0	11	11	11
800	1	3	0	11	12	11
801	1	3	0	11	13	11
802	1	3	0	11	14	11
803	1	2	0	11	15	11
804	1	2	0	12	5	11
805	1	3	0	12	6	11
806	1	3	0	12	7	11
807	1	3	0	12	8	11
808	1	3	0	12	9	11
809	1	3	0	12	10	11
810	1	3	0	12	11	11
811	1	3	0	12	12	11
812	1	3	0	12	13	11
813	1	3	0	12	14	11
814	1	2	0	12	15	11
815	1	2	0	13	5	11
816	1	3	0	13	6	11
817	1	3	0	13	7	11
818	1	3	0	13	8	11
819	1	3	0	13	9	11
820	1	3	0	13	10	11
821	1	3	0	13	11	11
822	1	3	0	13	12	11
823	1	3	0	13	13	11
824	1	3	0	13	14	11
825	1	2	0	13	15	11
826	1	2	0	14	5	11
827	1	3	0	14	6	11
828	1	3	0	14	7	11
829	1	3	0	14	8	11
830	1	3	0	14	9	11
831	1	3	0	14	10	11
832	1	3	0	14	11	11
833	1	3	0	14	12	11
834	1	3	0	14	13	11
835	1	3	0	14	14	11
836	1	2	0	14	15	11
838	1	2	0	15	6	11
839	1	2	0	15	7	11
840	1	2	0	15	8	11
841	1	2	0	15	9	11
842	1	2	0	15	10	11
843	1	2	0	15	11	11
844	1	2	0	15	12	11
845	1	2	0	15	13	11
846	1	2	0	15	14	11
849	1	2	0	5	6	12
850	1	2	0	5	7	12
851	1	2	0	5	8	12
852	1	2	0	5	9	12
853	1	2	0	5	10	12
854	1	2	0	5	11	12
855	1	2	0	5	12	12
856	1	2	0	5	13	12
857	1	2	0	5	14	12
859	1	2	0	6	5	12
860	1	3	0	6	6	12
861	1	3	0	6	7	12
862	1	3	0	6	8	12
863	1	3	0	6	9	12
864	1	3	0	6	10	12
865	1	3	0	6	11	12
866	1	3	0	6	12	12
867	1	3	0	6	13	12
868	1	3	0	6	14	12
869	1	2	0	6	15	12
870	1	2	0	7	5	12
871	1	3	0	7	6	12
872	1	3	0	7	7	12
873	1	3	0	7	8	12
874	1	3	0	7	9	12
875	1	3	0	7	10	12
876	1	3	0	7	11	12
877	1	3	0	7	12	12
878	1	3	0	7	13	12
879	1	3	0	7	14	12
880	1	2	0	7	15	12
881	1	2	0	8	5	12
882	1	3	0	8	6	12
883	1	3	0	8	7	12
884	1	3	0	8	8	12
885	1	3	0	8	9	12
886	1	3	0	8	10	12
887	1	3	0	8	11	12
888	1	3	0	8	12	12
889	1	3	0	8	13	12
890	1	3	0	8	14	12
891	1	2	0	8	15	12
892	1	2	0	9	5	12
893	1	3	0	9	6	12
894	1	3	0	9	7	12
895	1	3	0	9	8	12
896	1	3	0	9	9	12
897	1	3	0	9	10	12
898	1	3	0	9	11	12
899	1	3	0	9	12	12
900	1	3	0	9	13	12
901	1	3	0	9	14	12
902	1	2	0	9	15	12
903	1	2	0	10	5	12
904	1	3	0	10	6	12
905	1	3	0	10	7	12
906	1	3	0	10	8	12
907	1	3	0	10	9	12
908	1	3	0	10	10	12
909	1	3	0	10	11	12
910	1	3	0	10	12	12
911	1	3	0	10	13	12
912	1	3	0	10	14	12
913	1	2	0	10	15	12
914	1	2	0	11	5	12
915	1	3	0	11	6	12
916	1	3	0	11	7	12
917	1	3	0	11	8	12
918	1	3	0	11	9	12
919	1	3	0	11	10	12
920	1	3	0	11	11	12
921	1	3	0	11	12	12
922	1	3	0	11	13	12
923	1	3	0	11	14	12
924	1	2	0	11	15	12
925	1	2	0	12	5	12
926	1	3	0	12	6	12
927	1	3	0	12	7	12
928	1	3	0	12	8	12
929	1	3	0	12	9	12
930	1	3	0	12	10	12
931	1	3	0	12	11	12
932	1	3	0	12	12	12
933	1	3	0	12	13	12
934	1	3	0	12	14	12
935	1	2	0	12	15	12
936	1	2	0	13	5	12
937	1	3	0	13	6	12
938	1	3	0	13	7	12
939	1	3	0	13	8	12
940	1	3	0	13	9	12
941	1	3	0	13	10	12
942	1	3	0	13	11	12
943	1	3	0	13	12	12
944	1	3	0	13	13	12
945	1	3	0	13	14	12
946	1	2	0	13	15	12
947	1	2	0	14	5	12
948	1	3	0	14	6	12
949	1	3	0	14	7	12
950	1	3	0	14	8	12
951	1	3	0	14	9	12
952	1	3	0	14	10	12
953	1	3	0	14	11	12
954	1	3	0	14	12	12
955	1	3	0	14	13	12
956	1	3	0	14	14	12
957	1	2	0	14	15	12
959	1	2	0	15	6	12
960	1	2	0	15	7	12
961	1	2	0	15	8	12
962	1	2	0	15	9	12
963	1	2	0	15	10	12
964	1	2	0	15	11	12
965	1	2	0	15	12	12
966	1	2	0	15	13	12
967	1	2	0	15	14	12
971	1	2	0	5	7	13
972	1	2	0	5	8	13
973	1	2	0	5	9	13
974	1	2	0	5	10	13
975	1	2	0	5	11	13
976	1	2	0	5	12	13
977	1	2	0	5	13	13
981	1	2	0	6	6	13
982	1	3	0	6	7	13
983	1	3	0	6	8	13
984	1	3	0	6	9	13
985	1	3	0	6	10	13
986	1	3	0	6	11	13
987	1	3	0	6	12	13
988	1	3	0	6	13	13
989	1	2	0	6	14	13
991	1	2	0	7	5	13
992	1	3	0	7	6	13
993	1	3	0	7	7	13
994	1	3	0	7	8	13
995	1	3	0	7	9	13
996	1	3	0	7	10	13
997	1	3	0	7	11	13
998	1	3	0	7	12	13
999	1	3	0	7	13	13
1000	1	3	0	7	14	13
1001	1	2	0	7	15	13
1002	1	2	0	8	5	13
1003	1	3	0	8	6	13
1004	1	3	0	8	7	13
1005	1	3	0	8	8	13
1006	1	3	0	8	9	13
1007	1	3	0	8	10	13
1008	1	3	0	8	11	13
1009	1	3	0	8	12	13
1010	1	3	0	8	13	13
1011	1	3	0	8	14	13
1012	1	2	0	8	15	13
1013	1	2	0	9	5	13
1014	1	3	0	9	6	13
1015	1	3	0	9	7	13
1016	1	3	0	9	8	13
1017	1	3	0	9	9	13
1018	1	3	0	9	10	13
1019	1	3	0	9	11	13
1020	1	3	0	9	12	13
1021	1	3	0	9	13	13
1022	1	3	0	9	14	13
1023	1	2	0	9	15	13
1024	1	2	0	10	5	13
1025	1	3	0	10	6	13
1026	1	3	0	10	7	13
1027	1	3	0	10	8	13
1028	1	3	0	10	9	13
1029	1	3	0	10	10	13
1030	1	3	0	10	11	13
1031	1	3	0	10	12	13
1032	1	3	0	10	13	13
1033	1	3	0	10	14	13
1034	1	2	0	10	15	13
1035	1	2	0	11	5	13
1036	1	3	0	11	6	13
1037	1	3	0	11	7	13
1038	1	3	0	11	8	13
1039	1	3	0	11	9	13
1040	1	3	0	11	10	13
1041	1	3	0	11	11	13
1042	1	3	0	11	12	13
1043	1	3	0	11	13	13
1044	1	3	0	11	14	13
1045	1	2	0	11	15	13
1046	1	2	0	12	5	13
1047	1	3	0	12	6	13
1048	1	3	0	12	7	13
1049	1	3	0	12	8	13
1050	1	3	0	12	9	13
1051	1	3	0	12	10	13
1052	1	3	0	12	11	13
1053	1	3	0	12	12	13
1054	1	3	0	12	13	13
1055	1	3	0	12	14	13
1056	1	2	0	12	15	13
1057	1	2	0	13	5	13
1058	1	3	0	13	6	13
1059	1	3	0	13	7	13
1060	1	3	0	13	8	13
1061	1	3	0	13	9	13
1062	1	3	0	13	10	13
1063	1	3	0	13	11	13
1064	1	3	0	13	12	13
1065	1	3	0	13	13	13
1066	1	3	0	13	14	13
1067	1	2	0	13	15	13
1069	1	2	0	14	6	13
1070	1	3	0	14	7	13
1071	1	3	0	14	8	13
1072	1	3	0	14	9	13
1073	1	3	0	14	10	13
1074	1	3	0	14	11	13
1075	1	3	0	14	12	13
1076	1	3	0	14	13	13
1077	1	2	0	14	14	13
1081	1	2	0	15	7	13
1082	1	2	0	15	8	13
1083	1	2	0	15	9	13
1084	1	2	0	15	10	13
1085	1	2	0	15	11	13
1086	1	2	0	15	12	13
1087	1	2	0	15	13	13
1093	1	2	0	5	8	14
1094	1	2	0	5	9	14
1095	1	2	0	5	10	14
1096	1	2	0	5	11	14
1097	1	2	0	5	12	14
1102	1	2	0	6	6	14
1103	1	2	0	6	7	14
1104	1	3	0	6	8	14
1105	1	3	0	6	9	14
1106	1	3	0	6	10	14
1107	1	3	0	6	11	14
1108	1	3	0	6	12	14
1109	1	2	0	6	13	14
1110	1	2	0	6	14	14
1113	1	2	0	7	6	14
1114	1	3	0	7	7	14
1115	1	3	0	7	8	14
1116	1	3	0	7	9	14
1117	1	3	0	7	10	14
1118	1	3	0	7	11	14
1119	1	3	0	7	12	14
1120	1	3	0	7	13	14
1121	1	2	0	7	14	14
1123	1	2	0	8	5	14
1124	1	3	0	8	6	14
1125	1	3	0	8	7	14
1126	1	3	0	8	8	14
1127	1	3	0	8	9	14
1128	1	3	0	8	10	14
1129	1	3	0	8	11	14
1130	1	3	0	8	12	14
1131	1	3	0	8	13	14
1132	1	3	0	8	14	14
1133	1	2	0	8	15	14
1134	1	2	0	9	5	14
1135	1	3	0	9	6	14
1136	1	3	0	9	7	14
1137	1	3	0	9	8	14
1138	1	3	0	9	9	14
1139	1	3	0	9	10	14
1140	1	3	0	9	11	14
1141	1	3	0	9	12	14
1142	1	3	0	9	13	14
1143	1	3	0	9	14	14
1144	1	2	0	9	15	14
1145	1	2	0	10	5	14
1146	1	3	0	10	6	14
1147	1	3	0	10	7	14
1148	1	3	0	10	8	14
1149	1	3	0	10	9	14
1150	1	3	0	10	10	14
1151	1	3	0	10	11	14
1152	1	3	0	10	12	14
1153	1	3	0	10	13	14
1154	1	3	0	10	14	14
1155	1	2	0	10	15	14
1156	1	2	0	11	5	14
1157	1	3	0	11	6	14
1158	1	3	0	11	7	14
1159	1	3	0	11	8	14
1160	1	3	0	11	9	14
1161	1	3	0	11	10	14
1162	1	3	0	11	11	14
1163	1	3	0	11	12	14
1164	1	3	0	11	13	14
1165	1	3	0	11	14	14
1166	1	2	0	11	15	14
1167	1	2	0	12	5	14
1168	1	3	0	12	6	14
1169	1	3	0	12	7	14
1170	1	3	0	12	8	14
1171	1	3	0	12	9	14
1172	1	3	0	12	10	14
1173	1	3	0	12	11	14
1174	1	3	0	12	12	14
1175	1	3	0	12	13	14
1176	1	3	0	12	14	14
1177	1	2	0	12	15	14
1179	1	2	0	13	6	14
1180	1	3	0	13	7	14
1181	1	3	0	13	8	14
1182	1	3	0	13	9	14
1183	1	3	0	13	10	14
1184	1	3	0	13	11	14
1185	1	3	0	13	12	14
1186	1	3	0	13	13	14
1187	1	2	0	13	14	14
1190	1	2	0	14	6	14
1191	1	2	0	14	7	14
1192	1	3	0	14	8	14
1193	1	3	0	14	9	14
1194	1	3	0	14	10	14
1195	1	3	0	14	11	14
1196	1	3	0	14	12	14
1197	1	2	0	14	13	14
1198	1	2	0	14	14	14
1203	1	2	0	15	8	14
1204	1	2	0	15	9	14
1205	1	2	0	15	10	14
1206	1	2	0	15	11	14
1207	1	2	0	15	12	14
1225	1	2	0	6	8	15
1226	1	2	0	6	9	15
1227	1	2	0	6	10	15
1228	1	2	0	6	11	15
1229	1	2	0	6	12	15
1235	1	2	0	7	7	15
1236	1	2	0	7	8	15
1237	1	2	0	7	9	15
1238	1	2	0	7	10	15
1239	1	2	0	7	11	15
1240	1	2	0	7	12	15
1241	1	2	0	7	13	15
1245	1	2	0	8	6	15
1246	1	2	0	8	7	15
1247	1	2	0	8	8	15
1248	1	2	0	8	9	15
1249	1	2	0	8	10	15
1250	1	2	0	8	11	15
1251	1	2	0	8	12	15
1252	1	2	0	8	13	15
1253	1	2	0	8	14	15
1256	1	2	0	9	6	15
1257	1	2	0	9	7	15
1258	1	2	0	9	8	15
1259	1	2	0	9	9	15
1260	1	2	0	9	10	15
1261	1	2	0	9	11	15
1262	1	2	0	9	12	15
1263	1	2	0	9	13	15
1264	1	2	0	9	14	15
1267	1	2	0	10	6	15
1268	1	2	0	10	7	15
1269	1	2	0	10	8	15
1270	1	2	0	10	9	15
1271	1	2	0	10	10	15
1272	1	2	0	10	11	15
1273	1	2	0	10	12	15
1274	1	2	0	10	13	15
1275	1	2	0	10	14	15
1278	1	2	0	11	6	15
1279	1	2	0	11	7	15
1280	1	2	0	11	8	15
1281	1	2	0	11	9	15
1282	1	2	0	11	10	15
1283	1	2	0	11	11	15
1284	1	2	0	11	12	15
1285	1	2	0	11	13	15
1286	1	2	0	11	14	15
1289	1	2	0	12	6	15
1290	1	2	0	12	7	15
1291	1	2	0	12	8	15
1292	1	2	0	12	9	15
1293	1	2	0	12	10	15
1294	1	2	0	12	11	15
1295	1	2	0	12	12	15
1296	1	2	0	12	13	15
1297	1	2	0	12	14	15
1301	1	2	0	13	7	15
1302	1	2	0	13	8	15
1303	1	2	0	13	9	15
1304	1	2	0	13	10	15
1305	1	2	0	13	11	15
1306	1	2	0	13	12	15
1307	1	2	0	13	13	15
1313	1	2	0	14	8	15
1314	1	2	0	14	9	15
1315	1	2	0	14	10	15
1316	1	2	0	14	11	15
1317	1	2	0	14	12	15
