LAMMPS (24 Dec 2020)
OMP_NUM_THREADS environment is not set. Defaulting to 1 thread. (src/comm.cpp:94)
  using 1 OpenMP thread(s) per MPI task
#Read the equilibrated lj fluid and add nanocubes

units           lj
atom_style      full
atom_modify     map array first cubes
dimension       3
boundary        p p f
pair_style      lj/cut/opt 2.5

variable        sigma           equal 1.0
variable        epsilon         equal 1.0
read_restart	restart.dat.10000000
Reading restart file ...
  restart file = 24 Dec 2020, LAMMPS = 24 Dec 2020
WARNING: Restart file used different # of processors: 192 vs. 288 (src/read_restart.cpp:697)
  restoring atom style full from restart
  orthogonal box = (0.0000000 0.0000000 0.0000000) to (80.000000 80.000000 160.00000)
  6 by 4 by 12 MPI processor grid
  restoring pair style lj/cut/opt from restart
  443961 atoms
Finding 1-2 1-3 1-4 neighbors ...
  special bond factors lj:    0        0        0       
  special bond factors coul:  0        0        0       
     0 = max # of 1-2 neighbors
     0 = max # of 1-3 neighbors
     0 = max # of 1-4 neighbors
     1 = max # of special neighbors
  special bonds CPU = 2.367 seconds
  read_restart CPU = 2.815 seconds

group		solvent type 1
443961 atoms in group solvent

read_data	data_96.cubes group cubes add append
Reading data file ...
  orthogonal box = (0.0000000 0.0000000 0.0000000) to (80.000000 80.000000 160.00000)
  6 by 4 by 12 MPI processor grid
  reading atoms ...
  109728 atoms
  reading velocities ...
  109728 velocities
Finding 1-2 1-3 1-4 neighbors ...
  special bond factors lj:    0        0        0       
  special bond factors coul:  0        0        0       
     0 = max # of 1-2 neighbors
     0 = max # of 1-3 neighbors
     0 = max # of 1-4 neighbors
     1 = max # of special neighbors
  special bonds CPU = 0.057 seconds
  read_data CPU = 0.329 seconds

group 		hull  type 2
42816 atoms in group hull
group 		dummy type 3
66912 atoms in group dummy

neighbor      0.4 bin
neigh_modify  exclude molecule/intra cubes


pair_modify   shift yes

pair_coeff    1 1 1.0 1.0 #solvent
pair_coeff    2 2 1.0 1.0 1.12 #np
pair_coeff    3 3 0.0 0.0 0.0 #dummy
pair_coeff    2 3 0.0 0.0 0.0 #np dummy
pair_coeff    1 2 ${sol} 1.0  #np solvent
pair_coeff    1 2 .50 1.0  
pair_coeff    1 3 0.0 0.0 2.5 #dummy solvent

# delete solvent where the cubes are
delete_atoms  overlap 1.0 solvent cubes
System init for delete_atoms ...
Unused restart file peratom fix info:
  fix style: STORE, fix ID: bin1_COMPUTE_STORE
Neighbor list info ...
  update every 1 steps, delay 10 steps, check yes
  max neighbors/atom: 2000, page size: 100000
  master list distance cutoff = 2.9
  ghost atom cutoff = 2.9
  binsize = 1.45, bins = 56 56 111
  2 neighbor lists, perpetual/occasional/extra = 1 1 0
  (1) command delete_atoms, occasional
      attributes: full, newton on
      pair build: full/bin
      stencil: full/bin/3d
      bin: standard
  (2) pair lj/cut/opt, perpetual
      attributes: half, newton on
      pair build: half/bin/newton
      stencil: half/bin/3d/newton
      bin: standard
WARNING: Delete_atoms cutoff > minimum neighbor cutoff (src/delete_atoms.cpp:307)
WARNING: Ignoring 'compress yes' for molecular system (src/delete_atoms.cpp:125)
Deleted 77499 atoms, new total = 476190

pair_coeff    1 1 1.0 1.0 #solvent
pair_coeff    2 2 1.0 1.0 1.12 #np
pair_coeff    3 3 0.0 0.0 0.0 #dummy
pair_coeff    2 3 0.0 0.0 0.0 #np dummy
pair_coeff    1 2 ${sol} 1.0  #np solvent
pair_coeff    1 2 .50 1.0  
pair_coeff    1 3 0.0 0.0 0.0 #dummy solvent


comm_modify   mode multi cutoff/multi 1 2.5 cutoff/multi 2 2.5 cutoff/multi 3 6.95

reset_timestep 	0

balance 	1.05 shift z 10 1.05
Balancing ...
Neighbor list info ...
  update every 1 steps, delay 10 steps, check yes
  max neighbors/atom: 2000, page size: 100000
  master list distance cutoff = 2.9
  ghost atom cutoff = 6.95
  binsize = 1.45, bins = 56 56 111
  1 neighbor lists, perpetual/occasional/extra = 1 0 0
  (1) pair lj/cut/opt, perpetual
      attributes: half, newton on
      pair build: half/bin/newton
      stencil: half/bin/3d/newton
      bin: standard
 rebalancing time: 0.006 seconds
  iteration count = 4
  initial/final maximal load/proc = 2619.0000 2577.0000
  initial/final imbalance factor  = 1.5839728 1.5585712
  x cuts: 0.0000000 0.16666667 0.33333333 0.50000000 0.66666667 0.83333333 1.0000000
  y cuts: 0.0000000 0.25000000 0.50000000 0.75000000 1.0000000
  z cuts: 0.0000000 0.067708333 0.13020833 0.19270833 0.25520833 0.32291667 0.38541667 0.44791667 0.51041667 0.57812500 0.63020833 0.68229167 1.0000000

####################### WALLS ###########################

variable       epsilonWall equal 2*${epsilon}
variable       epsilonWall equal 2*1
variable       repulsive   equal   0.7147*${sigma}
variable       repulsive   equal   0.7147*1
variable       full	   equal   3*${sigma}
variable       full	   equal   3*1
region         lowWall block EDGE EDGE EDGE EDGE EDGE 2

fix            topWall all wall/lj93 zhi EDGE 	       ${epsilonWall} ${sigma} ${repulsive} units box
fix            topWall all wall/lj93 zhi EDGE 	       2 ${sigma} ${repulsive} units box
fix            topWall all wall/lj93 zhi EDGE 	       2 1 ${repulsive} units box
fix            topWall all wall/lj93 zhi EDGE 	       2 1 0.7147 units box
fix            lowSol solvent wall/lj93 zlo EDGE                ${epsilonWall} ${sigma} ${full} units box
fix            lowSol solvent wall/lj93 zlo EDGE                2 ${sigma} ${full} units box
fix            lowSol solvent wall/lj93 zlo EDGE                2 1 ${full} units box
fix            lowSol solvent wall/lj93 zlo EDGE                2 1 3 units box
fix 	       lowCub cubes wall/lj93 zlo EDGE                ${epsilonWall} ${sigma} ${repulsive} units box
fix 	       lowCub cubes wall/lj93 zlo EDGE                2 ${sigma} ${repulsive} units box
fix 	       lowCub cubes wall/lj93 zlo EDGE                2 1 ${repulsive} units box
fix 	       lowCub cubes wall/lj93 zlo EDGE                2 1 0.7147 units box


###################### COMPUTES ##########################

compute        bin1 solvent chunk/atom bin/1d z lower 1.0 units box
compute        bin3 solvent chunk/atom bin/3d x lower 1.0 y lower 1.0 z lower 1.0 units box

compute 	pe solvent 	   pe/atom
compute 	pe2 all 	   pe/atom

######################  FIXES ############################


fix             peclet solvent ave/chunk 10 10 10000 bin1 density/number norm                  none ave one file density.profile

fix              temp solvent ave/chunk 10 10 10000 bin1 temp norm                  none ave one file temp.profile

fix 		 dens solvent ave/chunk 10 10 10000 bin3 density/number norm 		 none ave one file dens3.profile

fix		 temp2 solvent ave/chunk 10 10 1000 bin3 temp norm none ave one file temp3.profile

fix 		pe solvent ave/chunk 1 1 10000 bin3 c_pe norm none ave one file pe3.profile

fix             1 cubes rigid/nve/small molecule
  create bodies CPU = 0.001 seconds
  96 rigid bodies with 109728 atoms
  6.9282032 = max distance from body owner to body atom

fix             2 solvent nve# temp ${temp} ${temp} 10


## Thermostat
region          regthermo block EDGE EDGE EDGE EDGE 0 15
group           thermo dynamic solvent region regthermo every 1000
dynamic group thermo defined
fix             3 thermo langevin ${temp} ${temp} 10 156453
fix             3 thermo langevin 1.0 ${temp} 10 156453
fix             3 thermo langevin 1.0 1.0 10 156453


#### Load balancing

fix             bal all balance 1000 1.05 shift z 10 1.05

############### Diagnostics and computes ###################

compute        	com cubes          rigid/local   1 mol x y z
compute        	quat cubes         rigid/local   1 mol quatw quati quatj quatk

compute 	cc2 cubes 	   chunk/atom 	 molecule
compute 	msd cubes 	   msd/chunk 	 cc2

fix 		msd all ave/time  1 1 10000 c_msd[*] file dump.msd ave one mode vector

dump            1 all custom 500000 dump.lammpstrj id mol type x y z vx vy vz c_pe2
dump		sol  solvent custom 500000 dump.soltrj id x y z vx vy vz c_pe
dump		cubetrj cubes custom 500000 cubes.lammpstrj id mol type x y z vx vy vz
dump            com cubes local 100000 dump.*.xyz c_com[*]
dump	        xyz hull xyz 100000 cubes.xyz
dump            quat cubes      local 100000 dump.*.quat c_quat[*]
dump		order cubes 	local 100000 dump.*.order c_com[*] c_quat[*]
#dump		mol cubes molfile 10000 mol.xyz xyz


dump            2 all image 100000 image.*.png type type zoom 1.5 size 1280 720
dump_modify     2 pad 8
dump		image cubes image 100000 image_cubes.*.png type type zoom 1.5 size 1280 720
dump_modify	image pad 8
dump            3 all movie 5000 movie.avi type type zoom 1.5 size 1280 720
dump		4 cubes movie 5000 movie_cubes.avi type type size 1280 720


thermo          1000
thermo_style    custom step temp epair evdwl etotal press pe ke atoms

restart         1000000 restart.dat
timestep        0.005
timer           full
New timer settings: style=full  mode=nosync  timeout=off

run 		10000000
Per MPI rank memory allocation (min/avg/max) = 78.72 | 84.78 | 88.47 Mbytes
Step Temp E_pair E_vdwl TotEng Press PotEng KinEng Atoms 
       0    1.0105613   -2.4123526   -2.4123526   -1.2451967 -0.0083616737   -2.4123526    1.1671559   476190 
    1000    1.0062611   -2.4080442   -2.4080442   -1.2458548  0.079977256   -2.4080442    1.1621894   476190 
    2000    1.0059604   -2.4080658   -2.4080658   -1.2462237  0.083680126   -2.4080658    1.1618421   476190 
    3000    1.0063755    -2.409479    -2.409479   -1.2471574  0.074864179    -2.409479    1.1623216   476190 
    4000    1.0048487   -2.4075189   -2.4075189   -1.2469607  0.073409566   -2.4075189    1.1605582   476190 
    5000    1.0053648   -2.4083523   -2.4083523   -1.2471981  0.077041163   -2.4083523    1.1611543   476190 
    6000    1.0013523   -2.4036442   -2.4036442   -1.2471243  0.081658109   -2.4036442    1.1565199   476190 
    7000    1.0033999   -2.4068195   -2.4068195   -1.2479347  0.074512812   -2.4068195    1.1588848   476190 
    8000    1.0022078   -2.4052547   -2.4052547   -1.2477466  0.081092082   -2.4052547    1.1575081   476190 
    9000    1.0026766   -2.4065125   -2.4065125    -1.248463   0.07231891   -2.4065125    1.1580494   476190 
   10000    1.0014987   -2.4047737   -2.4047737   -1.2480847  0.068088413   -2.4047737     1.156689   476190 
   11000   0.99959642   -2.4033728   -2.4033728   -1.2488809  0.065213789   -2.4033728     1.154492   476190 
   12000   0.99942659   -2.4027852   -2.4027852   -1.2484894  0.071128813   -2.4027852    1.1542958   476190 
   13000   0.99929889    -2.401568    -2.401568   -1.2474197  0.065427168    -2.401568    1.1541484   476190 
   14000    1.0001491    -2.402042    -2.402042   -1.2469117   0.06725729    -2.402042    1.1551303   476190 
   15000    0.9977885   -2.3991735   -2.3991735   -1.2467696   0.06778359   -2.3991735    1.1524039   476190 
   16000   0.99949827   -2.4003179   -2.4003179   -1.2459393  0.071962541   -2.4003179    1.1543786   476190 
   17000   0.99865557   -2.3986684   -2.3986684   -1.2452631  0.069293759   -2.3986684    1.1534053   476190 
   18000   0.99758129   -2.3976052   -2.3976052   -1.2454406   0.06679353   -2.3976052    1.1521646   476190 
   19000   0.99745893   -2.3979632   -2.3979632   -1.2459399  0.067438277   -2.3979632    1.1520233   476190 
   20000   0.99719312   -2.3982884   -2.3982884   -1.2465722  0.061859091   -2.3982884    1.1517163   476190 
   21000   0.99762931   -2.3975761   -2.3975761    -1.245356  0.063008538   -2.3975761    1.1522201   476190 
   22000   0.99657056   -2.3954028   -2.3954028   -1.2444056  0.066769015   -2.3954028    1.1509972   476190 
   23000   0.99773687   -2.3960784   -2.3960784   -1.2437341  0.068188171   -2.3960784    1.1523443   476190 
   24000   0.99753442   -2.3954833   -2.3954833   -1.2433728  0.063038761   -2.3954833    1.1521105   476190 
   25000   0.99704318   -2.3953125   -2.3953125   -1.2437694  0.063236454   -2.3953125    1.1515431   476190 
   26000   0.99936979   -2.3966827   -2.3966827   -1.2424525  0.060124104   -2.3966827    1.1542302   476190 
   27000   0.99791524   -2.3949387   -2.3949387   -1.2423884  0.062463868   -2.3949387    1.1525503   476190 
   28000   0.99995137   -2.3962209   -2.3962209    -1.241319  0.059756868   -2.3962209    1.1549019   476190 
   29000    1.0006805   -2.3962429   -2.3962429   -1.2404989  0.064388863   -2.3962429    1.1557441   476190 
   30000   0.99840063   -2.3927699   -2.3927699    -1.239659  0.071338694   -2.3927699    1.1531109   476190 
   31000   0.99977693   -2.3945526   -2.3945526   -1.2398521  0.069076013   -2.3945526    1.1547005   476190 
   32000   0.99877079   -2.3941111   -2.3941111   -1.2405727   0.06782091   -2.3941111    1.1535384   476190 
   33000   0.99764402   -2.3936854   -2.3936854   -1.2414484  0.070606562   -2.3936854     1.152237   476190 
   34000   0.99957468   -2.3956547   -2.3956547   -1.2411879  0.067809239   -2.3956547    1.1544669   476190 
   35000   0.99900119   -2.3953919   -2.3953919   -1.2415874  0.063022651   -2.3953919    1.1538045   476190 
   36000    1.0011803   -2.3981213   -2.3981213      -1.2418   0.06860117   -2.3981213    1.1563213   476190 
   37000     1.001282   -2.3979071   -2.3979071   -1.2414684  0.063576208   -2.3979071    1.1564388   476190 
   38000    1.0020728   -2.3979458   -2.3979458   -1.2405937  0.066020363   -2.3979458    1.1573521   476190 
   39000    1.0012028   -2.3964191   -2.3964191   -1.2400718  0.064936429   -2.3964191    1.1563473   476190 
   40000    1.0019585   -2.3965946   -2.3965946   -1.2393745  0.075931925   -2.3965946    1.1572201   476190 
   41000    1.0039313   -2.3991266   -2.3991266    -1.239628  0.068010748   -2.3991266    1.1594986   476190 
   42000    1.0033471   -2.3990535   -2.3990535   -1.2402296  0.069224703   -2.3990535    1.1588239   476190 
   43000    1.0026614   -2.3975492   -2.3975492   -1.2395173  0.068685103   -2.3975492    1.1580319   476190 
   44000    1.0031249   -2.3984964   -2.3984964   -1.2399292  0.072215027   -2.3984964    1.1585672   476190 
   45000    1.0016982   -2.3980167   -2.3980167   -1.2410972  0.068175698   -2.3980167    1.1569195   476190 
   46000    1.0027752   -2.3991236   -2.3991236   -1.2409603  0.065074334   -2.3991236    1.1581633   476190 
   47000    1.0007337   -2.3974353   -2.3974353   -1.2416299  0.065993798   -2.3974353    1.1558055   476190 
   48000    1.0013996   -2.3983475   -2.3983475   -1.2417729  0.066906918   -2.3983475    1.1565746   476190 
   49000    1.0009036   -2.3976701   -2.3976701   -1.2416684  0.064626041   -2.3976701    1.1560017   476190 
   50000   0.99987876   -2.3958703   -2.3958703   -1.2410523  0.063254512   -2.3958703    1.1548181   476190 
   51000   0.99998607   -2.3952826   -2.3952826   -1.2403406  0.067125738   -2.3952826     1.154942   476190 
   52000   0.99873997   -2.3941907   -2.3941907   -1.2406879    0.0610152   -2.3941907    1.1535028   476190 
   53000    1.0014441   -2.3969469   -2.3969469   -1.2403208  0.066076436   -2.3969469     1.156626   476190 
   54000   0.99896032   -2.3928357   -2.3928357   -1.2390783  0.065971988   -2.3928357    1.1537573   476190 
   55000   0.99896368    -2.394928    -2.394928   -1.2411668  0.063627922    -2.394928    1.1537612   476190 
   56000    1.0008726   -2.3971938   -2.3971938   -1.2412278   0.06129421   -2.3971938    1.1559659   476190 
   57000     1.001195   -2.3968894   -2.3968894   -1.2405511  0.069483459   -2.3968894    1.1563383   476190 
   58000    1.0003372   -2.3948969   -2.3948969   -1.2395493  0.064051693   -2.3948969    1.1553476   476190 
   59000    1.0016358   -2.3964155   -2.3964155   -1.2395682  0.066897294   -2.3964155    1.1568474   476190 
   60000    1.0013708   -2.3962442   -2.3962442   -1.2397029  0.068657935   -2.3962442    1.1565413   476190 
   61000    1.0005593   -2.3945208   -2.3945208   -1.2389168   0.07215472   -2.3945208     1.155604   476190 
   62000      1.00167   -2.3954944   -2.3954944   -1.2386074  0.066706403   -2.3954944    1.1568869   476190 
   63000    1.0014286   -2.3947795   -2.3947795   -1.2381714  0.073131588   -2.3947795    1.1566081   476190 
   64000    1.0001839   -2.3930931   -2.3930931   -1.2379226  0.073896372   -2.3930931    1.1551705   476190 
   65000    1.0010904   -2.3940874   -2.3940874     -1.23787  0.067961494   -2.3940874    1.1562175   476190 
   66000      1.00205   -2.3940589   -2.3940589   -1.2367332  0.068538654   -2.3940589    1.1573257   476190 
   67000    1.0011029   -2.3939753   -2.3939753   -1.2377434   0.06712824   -2.3939753    1.1562319   476190 
   68000   0.99945665   -2.3914448   -2.3914448   -1.2371143  0.073096505   -2.3914448    1.1543306   476190 
   69000   0.99921373   -2.3916702   -2.3916702   -1.2376202  0.069837854   -2.3916702      1.15405   476190 
   70000   0.99988476   -2.3930293   -2.3930293   -1.2382043  0.065418912   -2.3930293     1.154825   476190 
   71000    1.0008026   -2.3943665   -2.3943665   -1.2384814  0.067428888   -2.3943665    1.1558851   476190 
   72000   0.99730909   -2.3898106   -2.3898106   -1.2379604  0.064980172   -2.3898106    1.1518502   476190 
   73000    1.0002091   -2.3937031   -2.3937031   -1.2385035  0.064635897   -2.3937031    1.1551996   476190 
   74000   0.99894706   -2.3927618   -2.3927618   -1.2390198  0.070765759   -2.3927618     1.153742   476190 
   75000   0.99999279   -2.3933446   -2.3933446   -1.2383948  0.062920362   -2.3933446    1.1549498   476190 
   76000    1.0003659   -2.3925643   -2.3925643   -1.2371836  0.068470529   -2.3925643    1.1553807   476190 
   77000   0.99972264   -2.3913576   -2.3913576   -1.2367199  0.071501799   -2.3913576    1.1546378   476190 
   78000    1.0003986   -2.3918516   -2.3918516   -1.2364332     0.064904   -2.3918516    1.1554185   476190 
   79000   0.99985199   -2.3908855   -2.3908855   -1.2360983  0.068089993   -2.3908855    1.1547872   476190 
   80000   0.99925435   -2.3904722   -2.3904722   -1.2363753  0.068552024   -2.3904722    1.1540969   476190 
   81000    1.0014276    -2.392394    -2.392394   -1.2357871  0.070660035    -2.392394    1.1566069   476190 
   82000    1.0017943   -2.3941288   -2.3941288   -1.2370984  0.072541629   -2.3941288    1.1570304   476190 
   83000    1.0015109   -2.3935417   -2.3935417   -1.2368386  0.073014776   -2.3935417    1.1567031   476190 
   84000    1.0005626   -2.3925777   -2.3925777   -1.2369698  0.067995349   -2.3925777    1.1556079   476190 
   85000    1.0012638   -2.3938378   -2.3938378     -1.23742  0.064516657   -2.3938378    1.1564178   476190 
   86000    1.0004434   -2.3938935   -2.3938935   -1.2384233  0.060189972   -2.3938935    1.1554702   476190 
   87000    0.9984863   -2.3916967   -2.3916967   -1.2384869  0.065600024   -2.3916967    1.1532099   476190 
   88000   0.99982264   -2.3929166   -2.3929166   -1.2381633  0.063968108   -2.3929166    1.1547533   476190 
   89000    1.0018883   -2.3949361   -2.3949361   -1.2377971  0.068403614   -2.3949361     1.157139   476190 
   90000    1.0020513   -2.3956439   -2.3956439   -1.2383167  0.066087583   -2.3956439    1.1573273   476190 
   91000    1.0024982   -2.3961357   -2.3961357   -1.2382923  0.066566764   -2.3961357    1.1578434   476190 
   92000    1.0017808   -2.3952668   -2.3952668   -1.2382519   0.07049679   -2.3952668    1.1570149   476190 
   93000    1.0010952   -2.3948931   -2.3948931   -1.2386701  0.066262031   -2.3948931     1.156223   476190 
   94000    1.0013228   -2.3936588   -2.3936588   -1.2371729   0.07407469   -2.3936588    1.1564859   476190 
   95000    1.0022589   -2.3947476   -2.3947476   -1.2371806  0.064663159   -2.3947476     1.157567   476190 
   96000    1.0011813   -2.3938196   -2.3938196   -1.2374972  0.067472062   -2.3938196    1.1563224   476190 
   97000    1.0010073   -2.3950324   -2.3950324   -1.2389109  0.062621386   -2.3950324    1.1561215   476190 
   98000     1.000534   -2.3945404   -2.3945404   -1.2389656  0.064603089   -2.3945404    1.1555748   476190 
   99000    1.0020195   -2.3965402   -2.3965402   -1.2392497  0.070985763   -2.3965402    1.1572905   476190 
  100000     1.001749   -2.3954486   -2.3954486   -1.2384705  0.069806142   -2.3954486    1.1569781   476190 
  101000    1.0024394    -2.395556    -2.395556   -1.2377804  0.065896401    -2.395556    1.1577755   476190 
  102000    1.0019328   -2.3969107   -2.3969107   -1.2397203  0.070933478   -2.3969107    1.1571904   476190 
  103000    1.0022866   -2.3971811   -2.3971811   -1.2395821  0.066504073   -2.3971811     1.157599   476190 
  104000    1.0016001    -2.396683    -2.396683   -1.2398768  0.068819126    -2.396683    1.1568062   476190 
  105000    1.0004147   -2.3949563   -2.3949563   -1.2395192  0.061789548   -2.3949563     1.155437   476190 
  106000    1.0006628   -2.3948512   -2.3948512   -1.2391275  0.065586178   -2.3948512    1.1557237   476190 
  107000    1.0017077   -2.3960055   -2.3960055    -1.239075   0.06014686   -2.3960055    1.1569305   476190 
  108000    1.0005994   -2.3949613   -2.3949613    -1.239311  0.062272675   -2.3949613    1.1556503   476190 
  109000    1.0013663   -2.3948488   -2.3948488   -1.2383127  0.062894337   -2.3948488    1.1565362   476190 
  110000    1.0015136   -2.3949964   -2.3949964   -1.2382902   0.06550739   -2.3949964    1.1567062   476190 
  111000    1.0000888   -2.3938601   -2.3938601   -1.2387994  0.064104698   -2.3938601    1.1550607   476190 
  112000    1.0026935   -2.3963654   -2.3963654   -1.2382964  0.065278236   -2.3963654     1.158069   476190 
  113000    1.0014903    -2.394227    -2.394227   -1.2375476  0.066412651    -2.394227    1.1566793   476190 
  114000    1.0008174   -2.3925978   -2.3925978   -1.2366956  0.064735727   -2.3925978    1.1559022   476190 
  115000    1.0007781   -2.3936878   -2.3936878    -1.237831  0.072283858   -2.3936878    1.1558567   476190 
  116000    1.0010814   -2.3946341   -2.3946341   -1.2384271  0.071799499   -2.3946341     1.156207   476190 
  117000    1.0014255   -2.3946888   -2.3946888   -1.2380843  0.068178489   -2.3946888    1.1566045   476190 
  118000   0.99952718   -2.3934048   -2.3934048   -1.2389928  0.063282237   -2.3934048     1.154412   476190 
  119000    1.0007102   -2.3952414   -2.3952414   -1.2394631  0.070244688   -2.3952414    1.1557783   476190 
  120000    1.0011361   -2.3942547   -2.3942547   -1.2379844  0.068899187   -2.3942547    1.1562702   476190 
  121000    1.0013189   -2.3942295   -2.3942295   -1.2377482  0.065687015   -2.3942295    1.1564813   476190 
  122000    1.0010672   -2.3948555   -2.3948555   -1.2386648  0.071881387   -2.3948555    1.1561907   476190 
  123000    1.0014601   -2.3950861   -2.3950861   -1.2384416  0.070042611   -2.3950861    1.1566445   476190 
  124000    1.0026196   -2.3959674   -2.3959674   -1.2379837  0.067045927   -2.3959674    1.1579837   476190 
  125000     1.001865   -2.3966518   -2.3966518   -1.2395397  0.071601908   -2.3966518    1.1571121   476190 
  126000    1.0007868   -2.3956836   -2.3956836   -1.2398167  0.061099499   -2.3956836    1.1558668   476190 
  127000    1.0000923   -2.3941566   -2.3941566   -1.2390919  0.068806371   -2.3941566    1.1550647   476190 
  128000    1.0014505   -2.3962844   -2.3962844    -1.239651  0.069375694   -2.3962844    1.1566334   476190 
  129000     1.002403   -2.3959781   -2.3959781   -1.2382447  0.060970052   -2.3959781    1.1577334   476190 
  130000    1.0010051   -2.3959916   -2.3959916   -1.2398726  0.072893912   -2.3959916     1.156119   476190 
  131000    1.0000701   -2.3952162   -2.3952162   -1.2401772  0.067425206   -2.3952162    1.1550391   476190 
  132000    1.0005848   -2.3957214   -2.3957214   -1.2400878  0.065353703   -2.3957214    1.1556335   476190 
  133000    1.0007065   -2.3964143   -2.3964143   -1.2406402  0.063047939   -2.3964143    1.1557741   476190 
  134000    1.0005063   -2.3960225   -2.3960225   -1.2404796  0.071345473   -2.3960225    1.1555429   476190 
  135000    0.9998983   -2.3956447   -2.3956447   -1.2408041   0.06190775   -2.3956447    1.1548406   476190 
  136000    1.0014767   -2.3976039   -2.3976039   -1.2409402  0.069759343   -2.3976039    1.1566637   476190 
  137000    1.0006952   -2.3966038   -2.3966038   -1.2408427  0.066805001   -2.3966038    1.1557611   476190 
  138000    1.0016086   -2.3971197   -2.3971197   -1.2403038   0.07066976   -2.3971197     1.156816   476190 
  139000   0.99966456   -2.3946141   -2.3946141   -1.2400435  0.071196023   -2.3946141    1.1545707   476190 
  140000    1.0008266   -2.3956786   -2.3956786   -1.2397658  0.070129991   -2.3956786    1.1559128   476190 
  141000    1.0000663   -2.3961131   -2.3961131   -1.2410784  0.064252437   -2.3961131    1.1550347   476190 
  142000    1.0028807   -2.3982176   -2.3982176   -1.2399324  0.063511195   -2.3982176    1.1582852   476190 
  143000    1.0016734   -2.3981081   -2.3981081   -1.2412172  0.069775771   -2.3981081    1.1568909   476190 
  144000    1.0015601   -2.3967241   -2.3967241   -1.2399641  0.075375139   -2.3967241      1.15676   476190 
  145000    1.0026967   -2.3974428   -2.3974428   -1.2393701  0.070231138   -2.3974428    1.1580727   476190 
  146000    1.0020159   -2.3968825   -2.3968825   -1.2395962  0.069830524   -2.3968825    1.1572863   476190 
  147000    1.0017306   -2.3964716   -2.3964716   -1.2395148  0.066779112   -2.3964716    1.1569568   476190 
  148000    1.0024681   -2.3968717   -2.3968717    -1.239063  0.066410522   -2.3968717    1.1578087   476190 
  149000    1.0002642   -2.3950096   -2.3950096   -1.2397463  0.069168972   -2.3950096    1.1552633   476190 
  150000     1.001101   -2.3956111   -2.3956111   -1.2393814  0.065086586   -2.3956111    1.1562298   476190 
  151000    1.0003514   -2.3962954   -2.3962954   -1.2409314  0.069886256   -2.3962954     1.155364   476190 
  152000    1.0000452   -2.3960885   -2.3960885   -1.2410782  0.068048846   -2.3960885    1.1550104   476190 
  153000   0.99946215   -2.3947845   -2.3947845   -1.2404476  0.067455795   -2.3947845    1.1543369   476190 
  154000    1.0000934   -2.3964975   -2.3964975   -1.2414315  0.065888957   -2.3964975     1.155066   476190 
  155000    1.0001689   -2.3966317   -2.3966317   -1.2414785  0.070114086   -2.3966317    1.1551531   476190 
  156000    1.0001282    -2.394726    -2.394726   -1.2396199  0.069621141    -2.394726    1.1551061   476190 
  157000    1.0004524   -2.3962931   -2.3962931   -1.2408124  0.070032413   -2.3962931    1.1554806   476190 
  158000   0.99983765   -2.3956836   -2.3956836    -1.240913  0.067048864   -2.3956836    1.1547706   476190 
  159000    1.0015498   -2.3976691   -2.3976691   -1.2409209  0.061981828   -2.3976691    1.1567481   476190 
  160000    1.0022374   -2.3982022   -2.3982022     -1.24066  0.067351355   -2.3982022    1.1575422   476190 
  161000    1.0017836   -2.3974043   -2.3974043   -1.2403862  0.072335889   -2.3974043    1.1570181   476190 
  162000    1.0012385   -2.3966016   -2.3966016   -1.2402131  0.069960969   -2.3966016    1.1563885   476190 
  163000   0.99877385   -2.3952026   -2.3952026   -1.2416606  0.074873741   -2.3952026    1.1535419   476190 
  164000    1.0024117   -2.3982155   -2.3982155    -1.240472  0.061676757   -2.3982155    1.1577435   476190 
  165000    1.0004837   -2.3960815   -2.3960815   -1.2405647  0.064059464   -2.3960815    1.1555168   476190 
  166000    1.0006097   -2.3978942   -2.3978942   -1.2422319  0.063823473   -2.3978942    1.1556623   476190 
  167000    1.0010243   -2.3962793   -2.3962793   -1.2401382  0.069001022   -2.3962793    1.1561411   476190 
  168000    1.0014617   -2.3979556   -2.3979556   -1.2413092  0.065107321   -2.3979556    1.1566463   476190 
  169000    1.0010109    -2.398457    -2.398457   -1.2423314  0.069666888    -2.398457    1.1561256   476190 
  170000    1.0018112   -2.3990675   -2.3990675   -1.2420176  0.069675379   -2.3990675    1.1570499   476190 
  171000    0.9989238   -2.3960822   -2.3960822    -1.242367  0.061501767   -2.3960822    1.1537151   476190 
  172000    0.9996005   -2.3978018   -2.3978018   -1.2433051  0.060183522   -2.3978018    1.1544967   476190 
  173000     0.999408   -2.3969067   -2.3969067   -1.2426323  0.065783999   -2.3969067    1.1542744   476190 
  174000    1.0013145   -2.3985623   -2.3985623    -1.242086  0.058143644   -2.3985623    1.1564763   476190 
  175000   0.99874151   -2.3956357   -2.3956357   -1.2421311  0.056722852   -2.3956357    1.1535046   476190 
  176000   0.99888543   -2.3962567   -2.3962567   -1.2425859  0.061764882   -2.3962567    1.1536708   476190 
  177000    1.0000609   -2.3972884   -2.3972884   -1.2422599  0.068622759   -2.3972884    1.1550284   476190 
  178000    1.0018236   -2.3991607   -2.3991607   -1.2420964  0.071964372   -2.3991607    1.1570643   476190 
  179000    1.0014579   -2.3985296   -2.3985296   -1.2418877  0.069053235   -2.3985296    1.1566419   476190 
  180000    1.0017183   -2.3988585   -2.3988585   -1.2419158  0.068278825   -2.3988585    1.1569427   476190 
  181000    1.0021531   -2.3987597   -2.3987597   -1.2413148  0.068205965   -2.3987597    1.1574449   476190 
  182000    1.0020658   -2.3992177   -2.3992177   -1.2418737   0.06699793   -2.3992177     1.157344   476190 
  183000    1.0027185   -2.3992613   -2.3992613   -1.2411634   0.07553879   -2.3992613    1.1580979   476190 
  184000    1.0004461   -2.3973772   -2.3973772   -1.2419039  0.072340316   -2.3973772    1.1554733   476190 
  185000    1.0029025   -2.4004189   -2.4004189   -1.2421085  0.069277646   -2.4004189    1.1583104   476190 
  186000    1.0009545    -2.398856    -2.398856   -1.2427955  0.064470216    -2.398856    1.1560605   476190 
  187000    1.0032023   -2.4005495   -2.4005495   -1.2418929    0.0729316   -2.4005495    1.1586566   476190 
  188000    1.0029053   -2.3993918   -2.3993918   -1.2410781  0.067431384   -2.3993918    1.1583136   476190 
  189000    1.0006705   -2.3990746   -2.3990746   -1.2433422  0.062517655   -2.3990746    1.1557325   476190 
  190000    1.0005777   -2.3994094   -2.3994094   -1.2437841  0.072407212   -2.3994094    1.1556253   476190 
  191000    1.0000876     -2.39936     -2.39936   -1.2443007  0.066835655     -2.39936    1.1550592   476190 
  192000    1.0004175   -2.3993588   -2.3993588   -1.2439185  0.071990242   -2.3993588    1.1554403   476190 
  193000    1.0005488   -2.3994811   -2.3994811   -1.2438892  0.067897921   -2.3994811    1.1555919   476190 
  194000    1.0026219   -2.4006093   -2.4006093    -1.242623  0.075162039   -2.4006093    1.1579863   476190 
  195000     1.001378   -2.3996623   -2.3996623   -1.2431127   0.06840218   -2.3996623    1.1565496   476190 
  196000     1.000147   -2.3985082   -2.3985082   -1.2433803   0.06702191   -2.3985082    1.1551278   476190 
  197000    1.0018938   -2.3993494   -2.3993494    -1.242204  0.070308592   -2.3993494    1.1571454   476190 
  198000    1.0025988   -2.3982681   -2.3982681   -1.2403085  0.071698803   -2.3982681    1.1579596   476190 
  199000    1.0034305   -2.3988132   -2.3988132   -1.2398931  0.074507939   -2.3988132    1.1589202   476190 
  200000    1.0024053   -2.3968519   -2.3968519   -1.2391159  0.071655367   -2.3968519    1.1577361   476190 
  201000    1.0024967   -2.3982864   -2.3982864   -1.2404448  0.068009262   -2.3982864    1.1578416   476190 
  202000    1.0014546   -2.3970332   -2.3970332   -1.2403951  0.068375012   -2.3970332    1.1566381   476190 
  203000    1.0017264   -2.3974965   -2.3974965   -1.2405445  0.066342164   -2.3974965    1.1569521   476190 
  204000   0.99953904   -2.3954731   -2.3954731   -1.2410474  0.062370471   -2.3954731    1.1544257   476190 
  205000    1.0013876   -2.3960725   -2.3960725   -1.2395118  0.064242405   -2.3960725    1.1565607   476190 
  206000   0.99882285   -2.3937943   -2.3937943   -1.2401957  0.066431277   -2.3937943    1.1535985   476190 
  207000    1.0003798   -2.3952395   -2.3952395   -1.2398428  0.062545257   -2.3952395    1.1553967   476190 
  208000    1.0017437     -2.39525     -2.39525   -1.2382781  0.064155465     -2.39525     1.156972   476190 
  209000   0.99941713   -2.3925043   -2.3925043   -1.2382194  0.070689139   -2.3925043    1.1542849   476190 
  210000    1.0005726    -2.393406    -2.393406   -1.2377865  0.067426833    -2.393406    1.1556195   476190 
  211000   0.99893006   -2.3926846   -2.3926846   -1.2389623  0.063611647   -2.3926846    1.1537224   476190 
  212000    1.0011789   -2.3948497   -2.3948497     -1.23853   0.06274918   -2.3948497    1.1563197   476190 
  213000    1.0002301    -2.394545    -2.394545   -1.2393211  0.062932202    -2.394545    1.1552239   476190 
  214000   0.99985539   -2.3925798   -2.3925798   -1.2377887  0.063544118   -2.3925798    1.1547911   476190 
  215000    1.0007136   -2.3933985   -2.3933985   -1.2376162  0.064815357   -2.3933985    1.1557823   476190 
  216000    1.0015525   -2.3935742   -2.3935742    -1.236823  0.066908073   -2.3935742    1.1567511   476190 
  217000   0.99907993   -2.3910118   -2.3910118   -1.2371163  0.064164544   -2.3910118    1.1538955   476190 
  218000   0.99986982   -2.3911733   -2.3911733   -1.2363655  0.059033237   -2.3911733    1.1548077   476190 
  219000    1.0018029   -2.3935614   -2.3935614   -1.2365209   0.06655207   -2.3935614    1.1570404   476190 
  220000    1.0008171   -2.3932025   -2.3932025   -1.2373007  0.065993178   -2.3932025    1.1559018   476190 
  221000    1.0022119   -2.3938544   -2.3938544   -1.2363416  0.065762003   -2.3938544    1.1575128   476190 
  222000    1.0037675   -2.3950265   -2.3950265   -1.2357171  0.069188272   -2.3950265    1.1593094   476190 
  223000    1.0037567   -2.3953598   -2.3953598   -1.2360629  0.066853158   -2.3953598     1.159297   476190 
  224000      1.00277   -2.3954671   -2.3954671   -1.2373098  0.070948784   -2.3954671    1.1581573   476190 
  225000    1.0014932   -2.3937601   -2.3937601   -1.2370774  0.067974243   -2.3937601    1.1566827   476190 
  226000    1.0019024    -2.394302    -2.394302   -1.2371468  0.071492782    -2.394302    1.1571553   476190 
  227000    1.0021321   -2.3945691   -2.3945691   -1.2371485  0.064842167   -2.3945691    1.1574206   476190 
  228000    1.0023726   -2.3944458   -2.3944458   -1.2367474  0.065514969   -2.3944458    1.1576984   476190 
  229000    1.0036053   -2.3949403   -2.3949403   -1.2358183  0.072825027   -2.3949403     1.159122   476190 
  230000    1.0030207   -2.3925507   -2.3925507   -1.2341038  0.068386869   -2.3925507    1.1584469   476190 
  231000     1.003362   -2.3944676   -2.3944676   -1.2356265  0.068984021   -2.3944676    1.1588411   476190 
  232000    1.0016637   -2.3926592   -2.3926592   -1.2357796  0.071864588   -2.3926592    1.1568796   476190 
  233000    1.0048757   -2.3974393   -2.3974393   -1.2368499  0.070809721   -2.3974393    1.1605894   476190 
  234000    1.0021593      -2.3944      -2.3944    -1.236948  0.070735231      -2.3944     1.157452   476190 
  235000    1.0028519   -2.3966842   -2.3966842   -1.2384322  0.068329254   -2.3966842    1.1582519   476190 
  236000    1.0019305   -2.3952844   -2.3952844   -1.2380967   0.07319566   -2.3952844    1.1571878   476190 
  237000    1.0017719   -2.3949749   -2.3949749   -1.2379703  0.065444707   -2.3949749    1.1570046   476190 
  238000    1.0021508   -2.3954828   -2.3954828   -1.2380406  0.069595134   -2.3954828    1.1574422   476190 
  239000    1.0012916    -2.395121    -2.395121   -1.2386712  0.068253654    -2.395121    1.1564499   476190 
  240000    1.0001226   -2.3938662   -2.3938662   -1.2387664   0.05910376   -2.3938662    1.1550998   476190 
  241000   0.99985995   -2.3932716   -2.3932716   -1.2384753  0.067404753   -2.3932716    1.1547964   476190 
  242000    1.0017093   -2.3954495   -2.3954495   -1.2385171  0.062597659   -2.3954495    1.1569323   476190 
  243000    1.0018634   -2.3947487   -2.3947487   -1.2376384  0.072983436   -2.3947487    1.1571103   476190 
  244000    1.0024189    -2.396089    -2.396089   -1.2383372  0.072011364    -2.396089    1.1577518   476190 
  245000    1.0027024    -2.395757    -2.395757   -1.2376777  0.065295903    -2.395757    1.1580793   476190 
  246000    1.0035997    -2.396504    -2.396504   -1.2373883  0.064244974    -2.396504    1.1591157   476190 
  247000    1.0036459   -2.3953757   -2.3953757   -1.2362068  0.073241723   -2.3953757     1.159169   476190 
  248000    1.0013756   -2.3924393   -2.3924393   -1.2358925  0.070266065   -2.3924393    1.1565468   476190 
  249000    1.0031255   -2.3953855   -2.3953855   -1.2368176   0.06703122   -2.3953855    1.1585679   476190 
  250000    1.0026182   -2.3934433   -2.3934433   -1.2354613  0.063598382   -2.3934433     1.157982   476190 
  251000    1.0023011   -2.3933336   -2.3933336   -1.2357178  0.062893907   -2.3933336    1.1576158   476190 
  252000    1.0026151   -2.3924681   -2.3924681   -1.2344897  0.069738023   -2.3924681    1.1579784   476190 
  253000    1.0037419   -2.3950644   -2.3950644   -1.2357845  0.069604883   -2.3950644    1.1592799   476190 
  254000    1.0021017    -2.393497    -2.393497   -1.2361115  0.071750767    -2.393497    1.1573855   476190 
  255000    1.0032086   -2.3946589   -2.3946589    -1.235995  0.072404618   -2.3946589    1.1586639   476190 
  256000    1.0033241   -2.3951114   -2.3951114   -1.2363141  0.069721382   -2.3951114    1.1587973   476190 
  257000    1.0027562   -2.3946118   -2.3946118   -1.2364704   0.07132048   -2.3946118    1.1581414   476190 
  258000     1.001266   -2.3932744   -2.3932744   -1.2368541  0.065063628   -2.3932744    1.1564203   476190 
  259000    1.0012575   -2.3930307   -2.3930307   -1.2366201  0.062521123   -2.3930307    1.1564105   476190 
  260000    1.0018244   -2.3938636   -2.3938636   -1.2367984  0.069937008   -2.3938636    1.1570652   476190 
  261000    1.0018352   -2.3928298   -2.3928298   -1.2357521   0.06373992   -2.3928298    1.1570777   476190 
  262000    1.0001688    -2.391376    -2.391376   -1.2362229  0.066717923    -2.391376    1.1551531   476190 
  263000    1.0015637   -2.3916915   -2.3916915   -1.2349274  0.069940333   -2.3916915    1.1567641   476190 
  264000    1.0035191   -2.3949902   -2.3949902   -1.2359676  0.064542033   -2.3949902    1.1590226   476190 
  265000    1.0031652   -2.3943869   -2.3943869   -1.2357731  0.064087285   -2.3943869    1.1586138   476190 
  266000    1.0019479   -2.3923166   -2.3923166   -1.2351088  0.065907385   -2.3923166    1.1572078   476190 
  267000     1.001805   -2.3917916   -2.3917916   -1.2347488  0.068135696   -2.3917916    1.1570428   476190 
  268000    1.0028815   -2.3915985   -2.3915985   -1.2333123  0.069522434   -2.3915985    1.1582862   476190 
  269000    1.0013325   -2.3900865   -2.3900865   -1.2335895   0.06768345   -2.3900865     1.156497   476190 
  270000     1.001722   -2.3911391   -2.3911391   -1.2341921  0.065672225   -2.3911391     1.156947   476190 
  271000    1.0021489   -2.3912851   -2.3912851   -1.2338451  0.062615979   -2.3912851      1.15744   476190 
  272000    1.0030457   -2.3916748   -2.3916748    -1.233199  0.069972327   -2.3916748    1.1584758   476190 
  273000    1.0024864   -2.3908088   -2.3908088   -1.2329791  0.069648457   -2.3908088    1.1578297   476190 
  274000    1.0025612   -2.3909098   -2.3909098   -1.2329936  0.068680218   -2.3909098    1.1579162   476190 
  275000    1.0024269   -2.3904036   -2.3904036   -1.2326425  0.073290374   -2.3904036    1.1577611   476190 
  276000    1.0026846    -2.389655    -2.389655   -1.2315964  0.072281169    -2.389655    1.1580587   476190 
  277000    1.0045969   -2.3911162   -2.3911162   -1.2308489  0.074563873   -2.3911162    1.1602673   476190 
  278000    1.0027011   -2.3893864   -2.3893864   -1.2313086  0.068974453   -2.3893864    1.1580778   476190 
  279000    1.0025706   -2.3901028   -2.3901028   -1.2321758  0.068412336   -2.3901028     1.157927   476190 
  280000    1.0027293   -2.3892345   -2.3892345   -1.2311242   0.06573904   -2.3892345    1.1581103   476190 
  281000     1.003375   -2.3891962   -2.3891962   -1.2303401  0.067923279   -2.3891962    1.1588561   476190 
  282000    1.0029658   -2.3892766   -2.3892766   -1.2308931   0.06931048   -2.3892766    1.1583835   476190 
  283000    1.0010279   -2.3875055   -2.3875055   -1.2313602  0.070345543   -2.3875055    1.1561453   476190 
  284000    1.0026612    -2.389805    -2.389805   -1.2317733  0.065148374    -2.389805    1.1580317   476190 
  285000    1.0027576   -2.3903971   -2.3903971   -1.2322541  0.066739172   -2.3903971     1.158143   476190 
  286000    1.0030085   -2.3903444   -2.3903444   -1.2319116   0.07004356   -2.3903444    1.1584328   476190 
  287000    1.0038228   -2.3924645   -2.3924645   -1.2330913  0.067276175   -2.3924645    1.1593732   476190 
  288000    1.0019785   -2.3901343   -2.3901343   -1.2328911  0.063368779   -2.3901343    1.1572432   476190 
  289000   0.99933901   -2.3883618   -2.3883618   -1.2341672   0.06809904   -2.3883618    1.1541947   476190 
  290000   0.99886074   -2.3871048   -2.3871048   -1.2334625  0.072052308   -2.3871048    1.1536423   476190 
  291000   0.99888948   -2.3876146   -2.3876146   -1.2339391  0.062001506   -2.3876146    1.1536755   476190 
  292000    1.0013519   -2.3896124   -2.3896124   -1.2330929  0.063138568   -2.3896124    1.1565195   476190 
  293000    1.0000711    -2.388268    -2.388268   -1.2332278  0.060378191    -2.388268    1.1550402   476190 
  294000    1.0006617   -2.3892095   -2.3892095   -1.2334872  0.061568576   -2.3892095    1.1557223   476190 
  295000    1.0000698   -2.3882389   -2.3882389   -1.2332002  0.062394038   -2.3882389    1.1550387   476190 
  296000    1.0011305   -2.3896246   -2.3896246   -1.2333608  0.061232861   -2.3896246    1.1562638   476190 
  297000    1.0009522   -2.3888792   -2.3888792   -1.2328214  0.058471338   -2.3888792    1.1560578   476190 
  298000     1.001683   -2.3902362   -2.3902362   -1.2333343  0.063483002   -2.3902362    1.1569019   476190 
  299000    1.0026376    -2.390399    -2.390399   -1.2323946  0.067608239    -2.390399    1.1580044   476190 
  300000    1.0014651   -2.3888002   -2.3888002     -1.23215  0.070023811   -2.3888002    1.1566502   476190 
  301000    1.0024115   -2.3899601   -2.3899601   -1.2322168  0.068944036   -2.3899601    1.1577433   476190 
  302000    1.0024992   -2.3903366   -2.3903366    -1.232492  0.064531323   -2.3903366    1.1578446   476190 
  303000    1.0029947   -2.3911642   -2.3911642   -1.2327473  0.071409495   -2.3911642    1.1584169   476190 
  304000    1.0031333   -2.3900575   -2.3900575   -1.2314806  0.066291404   -2.3900575    1.1585769   476190 
  305000    1.0021921   -2.3893855   -2.3893855   -1.2318956   0.07054439   -2.3893855    1.1574898   476190 
  306000    1.0039219    -2.392133    -2.392133   -1.2326452  0.064040866    -2.392133    1.1594878   476190 
  307000     1.003639   -2.3905429   -2.3905429   -1.2313819  0.066688936   -2.3905429     1.159161   476190 
  308000    1.0039927   -2.3898817   -2.3898817   -1.2303122  0.073287647   -2.3898817    1.1595695   476190 
  309000    1.0034167    -2.388853    -2.388853   -1.2299487  0.075182513    -2.388853    1.1589043   476190 
  310000    1.0050225   -2.3908396   -2.3908396   -1.2300807  0.068720251   -2.3908396    1.1607589   476190 
  311000    1.0026534   -2.3884207   -2.3884207    -1.230398  0.065366845   -2.3884207    1.1580226   476190 
  312000    1.0032997   -2.3887233   -2.3887233   -1.2299541  0.069959931   -2.3887233    1.1587692   476190 
  313000    1.0014884   -2.3876973   -2.3876973   -1.2310202  0.067130742   -2.3876973    1.1566771   476190 
  314000    1.0019329   -2.3890899   -2.3890899   -1.2318993  0.067559378   -2.3890899    1.1571906   476190 
  315000    1.0017721     -2.38797     -2.38797   -1.2309652  0.058562696     -2.38797    1.1570048   476190 
  316000    1.0027753   -2.3889817   -2.3889817   -1.2308182  0.060160996   -2.3889817    1.1581635   476190 
  317000    1.0026371   -2.3886452   -2.3886452   -1.2306413  0.073080914   -2.3886452    1.1580038   476190 
  318000    1.0045589   -2.3896321   -2.3896321   -1.2294087  0.073951907   -2.3896321    1.1602234   476190 
  319000    1.0021357   -2.3869367   -2.3869367    -1.229512  0.072943323   -2.3869367    1.1574248   476190 
  320000    1.0026306   -2.3868488   -2.3868488   -1.2288524  0.064759251   -2.3868488    1.1579964   476190 
  321000    1.0002475   -2.3835489   -2.3835489   -1.2283049  0.062434298   -2.3835489     1.155244   476190 
  322000    1.0007018   -2.3846662   -2.3846662   -1.2288976   0.06450164   -2.3846662    1.1557687   476190 
  323000    1.0026733   -2.3865901   -2.3865901   -1.2285444  0.063815732   -2.3865901    1.1580457   476190 
  324000    1.0005101   -2.3834068   -2.3834068   -1.2278595  0.061714331   -2.3834068    1.1555472   476190 
  325000    1.0007338   -2.3831675   -2.3831675   -1.2273619  0.065363144   -2.3831675    1.1558056   476190 
  326000     1.001041   -2.3839852   -2.3839852   -1.2278248  0.069066309   -2.3839852    1.1561604   476190 
  327000    1.0021027   -2.3847098   -2.3847098   -1.2273232  0.070081017   -2.3847098    1.1573867   476190 
  328000    1.0031107   -2.3857488   -2.3857488    -1.227198  0.071023131   -2.3857488    1.1585508   476190 
  329000     1.000539   -2.3836206   -2.3836206   -1.2280399  0.073200778   -2.3836206    1.1555807   476190 
  330000    1.0030276   -2.3864266   -2.3864266   -1.2279718  0.067123484   -2.3864266    1.1584548   476190 
  331000    1.0031133   -2.3871204   -2.3871204   -1.2285666  0.068538963   -2.3871204    1.1585538   476190 
  332000    1.0017694   -2.3852374   -2.3852374   -1.2282357  0.066881601   -2.3852374    1.1570017   476190 
  333000    1.0027059   -2.3870828   -2.3870828   -1.2289995   0.06177416   -2.3870828    1.1580833   476190 
  334000    1.0003692   -2.3854536   -2.3854536   -1.2300691  0.063159883   -2.3854536    1.1553845   476190 
  335000     1.000937   -2.3859925   -2.3859925   -1.2299522  0.064845712   -2.3859925    1.1560403   476190 
  336000    1.0021492   -2.3869302   -2.3869302   -1.2294898   0.06976896   -2.3869302    1.1574404   476190 
  337000    1.0011131   -2.3857912   -2.3857912   -1.2295476  0.063705375   -2.3857912    1.1562437   476190 
  338000    1.0038011   -2.3890373   -2.3890373   -1.2296891   0.06829721   -2.3890373    1.1593482   476190 
  339000    1.0020797   -2.3872343   -2.3872343   -1.2298742   0.06108714   -2.3872343    1.1573601   476190 
  340000    1.0028017   -2.3878467   -2.3878467   -1.2296527   0.06874022   -2.3878467     1.158194   476190 
  341000    1.0025106   -2.3887488   -2.3887488    -1.230891  0.071185603   -2.3887488    1.1578578   476190 
  342000    1.0038903   -2.3884811   -2.3884811   -1.2290298  0.068274066   -2.3884811    1.1594513   476190 
  343000    1.0006874   -2.3851476   -2.3851476   -1.2293957  0.069931048   -2.3851476     1.155752   476190 
  344000    1.0046852   -2.3895846   -2.3895846   -1.2292153  0.068152757   -2.3895846    1.1603694   476190 
  345000    1.0036207   -2.3891026   -2.3891026   -1.2299627  0.067575849   -2.3891026    1.1591399   476190 
  346000    1.0025831   -2.3884208   -2.3884208   -1.2304794  0.070802282   -2.3884208    1.1579414   476190 
  347000    1.0011691   -2.3858137   -2.3858137   -1.2295053  0.071225032   -2.3858137    1.1563084   476190 
  348000    1.0023531   -2.3870021   -2.3870021   -1.2293263  0.063460307   -2.3870021    1.1576758   476190 
  349000    1.0023408   -2.3869876   -2.3869876   -1.2293259  0.065771324   -2.3869876    1.1576616   476190 
  350000    1.0021667   -2.3872097   -2.3872097   -1.2297491  0.070935827   -2.3872097    1.1574606   476190 
  351000    1.0010287   -2.3855829   -2.3855829   -1.2294367  0.067357867   -2.3855829    1.1561462   476190 
  352000    1.0033666   -2.3883588   -2.3883588   -1.2295124  0.067713512   -2.3883588    1.1588464   476190 
  353000    1.0022601   -2.3872552   -2.3872552   -1.2296869  0.068292428   -2.3872552    1.1575684   476190 
  354000    1.0024495   -2.3877699   -2.3877699   -1.2299827  0.063828597   -2.3877699    1.1577872   476190 
  355000    1.0021589   -2.3868038   -2.3868038   -1.2293522  0.068632032   -2.3868038    1.1574516   476190 
  356000    1.0026348   -2.3870108   -2.3870108   -1.2290095  0.069125158   -2.3870108    1.1580012   476190 
  357000    1.0040823   -2.3883807   -2.3883807   -1.2287077  0.069158338   -2.3883807     1.159673   476190 
  358000    1.0032652   -2.3889671   -2.3889671   -1.2302379  0.064145837   -2.3889671    1.1587293   476190 
  359000    1.0044994   -2.3890912   -2.3890912   -1.2289364  0.069552777   -2.3890912    1.1601548   476190 
  360000    1.0042123   -2.3879028   -2.3879028   -1.2280797  0.070754147   -2.3879028    1.1598231   476190 
  361000    1.0036909   -2.3875323   -2.3875323   -1.2283114  0.066564943   -2.3875323    1.1592209   476190 
  362000    1.0062575   -2.3909972   -2.3909972   -1.2288119  0.068524574   -2.3909972    1.1621853   476190 
  363000    1.0047634      -2.3899      -2.3899   -1.2294404  0.065351765      -2.3899    1.1604596   476190 
  364000    1.0041897   -2.3883502   -2.3883502   -1.2285531   0.07236348   -2.3883502     1.159797   476190 
  365000    1.0052156   -2.3887266   -2.3887266   -1.2277447  0.067930128   -2.3887266    1.1609819   476190 
  366000    1.0036027   -2.3870477   -2.3870477   -1.2279287  0.065962499   -2.3870477    1.1591191   476190 
  367000    1.0043266    -2.387833    -2.387833   -1.2278778  0.065472728    -2.387833    1.1599552   476190 
  368000     1.005907     -2.38912     -2.38912   -1.2273396  0.071194832     -2.38912    1.1617804   476190 
  369000    1.0027793   -2.3870699   -2.3870699   -1.2289017  0.065016883   -2.3870699    1.1581681   476190 
  370000    1.0044614   -2.3892598   -2.3892598   -1.2291489  0.069349877   -2.3892598    1.1601108   476190 
  371000    1.0025466   -2.3880483   -2.3880483    -1.230149  0.067715434   -2.3880483    1.1578993   476190 
  372000    1.0022134   -2.3861805   -2.3861805   -1.2286661  0.068927378   -2.3861805    1.1575145   476190 
  373000    1.0013279   -2.3845028   -2.3845028   -1.2280109  0.072846699   -2.3845028    1.1564918   476190 
  374000    1.0035934   -2.3872108   -2.3872108   -1.2281026  0.067751296   -2.3872108    1.1591083   476190 
  375000    1.0030325   -2.3872302   -2.3872302   -1.2287697  0.069487641   -2.3872302    1.1584605   476190 
  376000     1.004435    -2.389347    -2.389347   -1.2292666  0.066921003    -2.389347    1.1600804   476190 
  377000    1.0036612   -2.3874255   -2.3874255   -1.2282388  0.065339606   -2.3874255    1.1591867   476190 
  378000    1.0027135   -2.3856554   -2.3856554   -1.2275633  0.068099254   -2.3856554    1.1580921   476190 
  379000    1.0042319   -2.3876092   -2.3876092   -1.2277635   0.07135888   -2.3876092    1.1598457   476190 
  380000    1.0032123   -2.3869905   -2.3869905   -1.2283223   0.06817226   -2.3869905    1.1586682   476190 
  381000    1.0032492   -2.3856326   -2.3856326   -1.2269218   0.06805474   -2.3856326    1.1587108   476190 
  382000    1.0021158   -2.3854052   -2.3854052   -1.2280034   0.06682953   -2.3854052    1.1574017   476190 
  383000    1.0038578   -2.3876088   -2.3876088   -1.2281951   0.06746653   -2.3876088    1.1594137   476190 
  384000    1.0043394   -2.3878049   -2.3878049    -1.227835  0.063382129   -2.3878049    1.1599699   476190 
  385000     1.004039    -2.386251    -2.386251    -1.226628  0.069480685    -2.386251     1.159623   476190 
  386000    1.0031892   -2.3849079   -2.3849079   -1.2262664  0.069300225   -2.3849079    1.1586415   476190 
  387000    1.0050368   -2.3870189   -2.3870189   -1.2262435  0.074080601   -2.3870189    1.1607754   476190 
  388000    1.0042913   -2.3865613   -2.3865613   -1.2266469  0.066058325   -2.3865613    1.1599144   476190 
  389000    1.0038277   -2.3854618   -2.3854618   -1.2260829  0.070957288   -2.3854618    1.1593789   476190 
  390000    1.0041981   -2.3861472   -2.3861472   -1.2263404  0.065947569   -2.3861472    1.1598067   476190 
  391000    1.0035303   -2.3857501   -2.3857501   -1.2267146  0.067140478   -2.3857501    1.1590354   476190 
  392000    1.0038004    -2.385068    -2.385068   -1.2257206  0.060347834    -2.385068    1.1593474   476190 
  393000    1.0046678    -2.385871    -2.385871   -1.2255218   0.06679622    -2.385871    1.1603492   476190 
  394000    1.0049341   -2.3844727   -2.3844727   -1.2238158   0.06666814   -2.3844727    1.1606568   476190 
  395000    1.0056418   -2.3861139   -2.3861139   -1.2246398  0.067364109   -2.3861139    1.1614742   476190 
  396000      1.00475   -2.3860929   -2.3860929   -1.2256487  0.060681745   -2.3860929    1.1604441   476190 
  397000    1.0048363   -2.3856204   -2.3856204   -1.2250766  0.063188004   -2.3856204    1.1605438   476190 
  398000    1.0046095   -2.3864373   -2.3864373   -1.2261554   0.07220874   -2.3864373    1.1602819   476190 
  399000    1.0037458   -2.3852165   -2.3852165   -1.2259321    0.0749573   -2.3852165    1.1592843   476190 
  400000    1.0033357   -2.3858833   -2.3858833   -1.2270726  0.068006123   -2.3858833    1.1588107   476190 
  401000    1.0045399   -2.3858092   -2.3858092   -1.2256076  0.071416228   -2.3858092    1.1602015   476190 
  402000    1.0041334    -2.386464    -2.386464    -1.226732  0.071160586    -2.386464     1.159732   476190 
  403000    1.0038773   -2.3862297   -2.3862297   -1.2267935  0.066587631   -2.3862297    1.1594362   476190 
  404000    1.0049421   -2.3874441   -2.3874441   -1.2267781  0.065206385   -2.3874441     1.160666   476190 
  405000    1.0045437   -2.3872737   -2.3872737   -1.2270678  0.075636533   -2.3872737    1.1602059   476190 
  406000    1.0038724    -2.388266    -2.388266   -1.2288354  0.073934095    -2.388266    1.1594305   476190 
  407000    1.0027912    -2.386497    -2.386497   -1.2283153  0.070797043    -2.386497    1.1581818   476190 
  408000    1.0026316   -2.3862774   -2.3862774   -1.2282798  0.068385133   -2.3862774    1.1579975   476190 
  409000    1.0030388   -2.3872826   -2.3872826   -1.2288148  0.066232245   -2.3872826    1.1584678   476190 
  410000    1.0041273   -2.3879377   -2.3879377   -1.2282127  0.065230644   -2.3879377     1.159725   476190 
  411000    1.0037962     -2.38772     -2.38772   -1.2283775  0.066433599     -2.38772    1.1593425   476190 
  412000    1.0046034    -2.388525    -2.388525   -1.2282501  0.069133158    -2.388525    1.1602748   476190 
  413000    1.0049456   -2.3885604   -2.3885604   -1.2278903  0.065043896   -2.3885604    1.1606701   476190 
  414000    1.0035195   -2.3873941   -2.3873941   -1.2283711   0.07250809   -2.3873941     1.159023   476190 
  415000     1.002814   -2.3856826   -2.3856826   -1.2274745  0.072812474   -2.3856826    1.1582081   476190 
  416000    1.0032871   -2.3869852   -2.3869852   -1.2282307  0.071129256   -2.3869852    1.1587545   476190 
  417000    1.0033341   -2.3874442   -2.3874442   -1.2286353  0.071451284   -2.3874442    1.1588089   476190 
  418000    1.0041702   -2.3877971   -2.3877971   -1.2280226  0.065219741   -2.3877971    1.1597745   476190 
  419000    1.0048584   -2.3878284   -2.3878284    -1.227259  0.067997147   -2.3878284    1.1605694   476190 
  420000    1.0045184   -2.3867868   -2.3867868   -1.2266102  0.063860791   -2.3867868    1.1601766   476190 
  421000    1.0051564   -2.3864436   -2.3864436     -1.22553  0.074577626   -2.3864436    1.1609136   476190 
  422000    1.0036908   -2.3859614   -2.3859614   -1.2267406  0.068683547   -2.3859614    1.1592208   476190 
  423000    1.0023162   -2.3846933   -2.3846933     -1.22706  0.066376883   -2.3846933    1.1576333   476190 
  424000    1.0043884   -2.3859634   -2.3859634   -1.2259369  0.068627245   -2.3859634    1.1600265   476190 
  425000    1.0045417    -2.385516    -2.385516   -1.2253124  0.066234887    -2.385516    1.1602036   476190 
  426000    1.0047412   -2.3869897   -2.3869897   -1.2265557  0.064607669   -2.3869897     1.160434   476190 
  427000    1.0040491   -2.3858187   -2.3858187    -1.226184  0.062947642   -2.3858187    1.1596346   476190 
  428000    1.0030927   -2.3848184   -2.3848184   -1.2262884  0.068046392   -2.3848184      1.15853   476190 
  429000    1.0033677   -2.3851703   -2.3851703   -1.2263227  0.067878542   -2.3851703    1.1588476   476190 
  430000    1.0024127    -2.384641    -2.384641   -1.2268964  0.063330725    -2.384641    1.1577446   476190 
  431000    1.0044318   -2.3858254   -2.3858254   -1.2257487  0.070464342   -2.3858254    1.1600767   476190 
  432000    1.0035241   -2.3847129   -2.3847129   -1.2256846  0.066164013   -2.3847129    1.1590283   476190 
  433000     1.002592     -2.38477     -2.38477   -1.2268183  0.068402636     -2.38477    1.1579517   476190 
  434000     1.001774   -2.3840141   -2.3840141   -1.2270072  0.068616459   -2.3840141     1.157007   476190 
  435000    1.0030531   -2.3856548   -2.3856548   -1.2271705  0.066245331   -2.3856548    1.1584843   476190 
  436000    1.0026831   -2.3842355   -2.3842355   -1.2261786  0.067792441   -2.3842355    1.1580569   476190 
  437000    1.0026609   -2.3841956   -2.3841956   -1.2261643  0.063763211   -2.3841956    1.1580313   476190 
  438000    1.0050065    -2.386792    -2.386792   -1.2260516  0.069971083    -2.386792    1.1607404   476190 
  439000    1.0041533    -2.386433    -2.386433    -1.226678  0.061922321    -2.386433     1.159755   476190 
  440000    1.0041998   -2.3871902   -2.3871902   -1.2273815  0.070306867   -2.3871902    1.1598087   476190 
  441000    1.0038902   -2.3859627   -2.3859627   -1.2265116  0.070648596   -2.3859627    1.1594512   476190 
  442000    1.0026992   -2.3835615   -2.3835615   -1.2254859  0.068395952   -2.3835615    1.1580756   476190 
  443000    1.0040867   -2.3851202   -2.3851202   -1.2254422  0.064718384   -2.3851202     1.159678   476190 
  444000    1.0025439    -2.383669    -2.383669   -1.2257728  0.065461073    -2.383669    1.1578962   476190 
  445000    1.0027347    -2.384225    -2.384225   -1.2261085    0.0684226    -2.384225    1.1581165   476190 
  446000    1.0036701   -2.3851316   -2.3851316   -1.2259346   0.06274796   -2.3851316     1.159197   476190 
  447000    1.0045091   -2.3862186   -2.3862186   -1.2260526  0.060858692   -2.3862186    1.1601659   476190 
  448000    1.0024118   -2.3836385   -2.3836385   -1.2258949  0.072303191   -2.3836385    1.1577436   476190 
  449000    1.0020355   -2.3841732   -2.3841732   -1.2268642   0.06623756   -2.3841732    1.1573091   476190 
  450000    1.0021174   -2.3846826   -2.3846826    -1.227279  0.062565604   -2.3846826    1.1574036   476190 
  451000    1.0015101   -2.3842114   -2.3842114   -1.2275092  0.070929457   -2.3842114    1.1567022   476190 
  452000    1.0023934   -2.3849398   -2.3849398   -1.2272174  0.066889038   -2.3849398    1.1577223   476190 
  453000    1.0010546     -2.38519     -2.38519   -1.2290139   0.06107659     -2.38519    1.1561761   476190 
  454000    1.0030254   -2.3866788   -2.3866788   -1.2282265  0.062497692   -2.3866788    1.1584523   476190 
  455000    1.0048423    -2.388279    -2.388279   -1.2277283  0.064391685    -2.388279    1.1605507   476190 
  456000    1.0035121   -2.3871682   -2.3871682   -1.2281537  0.067712458   -2.3871682    1.1590145   476190 
  457000    1.0035685   -2.3869983   -2.3869983   -1.2279187  0.068698091   -2.3869983    1.1590796   476190 
  458000     1.003088   -2.3863326   -2.3863326   -1.2278079  0.066518895   -2.3863326    1.1585246   476190 
  459000    1.0027445   -2.3864858   -2.3864858   -1.2283578  0.066541044   -2.3864858    1.1581279   476190 
  460000    1.0042671   -2.3881909   -2.3881909   -1.2283044  0.071248299   -2.3881909    1.1598865   476190 
  461000    1.0034288   -2.3871971   -2.3871971   -1.2282789  0.065252607   -2.3871971    1.1589182   476190 
  462000    1.0044857   -2.3881224   -2.3881224   -1.2279835  0.067768148   -2.3881224    1.1601389   476190 
  463000    1.0036339   -2.3872567   -2.3872567   -1.2281016  0.072287255   -2.3872567    1.1591551   476190 
  464000    1.0034429   -2.3865081   -2.3865081   -1.2275736  0.068641158   -2.3865081    1.1589345   476190 
  465000    1.0036074   -2.3874034   -2.3874034   -1.2282789  0.064245001   -2.3874034    1.1591245   476190 
  466000    1.0041066   -2.3881658   -2.3881658   -1.2284647  0.071623751   -2.3881658     1.159701   476190 
  467000    1.0009518   -2.3856671   -2.3856671   -1.2296097  0.068448883   -2.3856671    1.1560573   476190 
  468000     1.002175   -2.3868307   -2.3868307   -1.2293606  0.066012936   -2.3868307    1.1574701   476190 
  469000    1.0012469   -2.3851318   -2.3851318   -1.2287336  0.066920378   -2.3851318    1.1563982   476190 
  470000    1.0010039   -2.3847902   -2.3847902   -1.2286726  0.072192154   -2.3847902    1.1561176   476190 
  471000    1.0039825   -2.3881064   -2.3881064   -1.2285486   0.06787448   -2.3881064    1.1595578   476190 
  472000    1.0023845   -2.3871521   -2.3871521   -1.2294399   0.06797572   -2.3871521    1.1577121   476190 
  473000    1.0038038   -2.3887921   -2.3887921   -1.2294407  0.070651199   -2.3887921    1.1593513   476190 
  474000    1.0013821   -2.3875119   -2.3875119   -1.2309575   0.06451124   -2.3875119    1.1565544   476190 
  475000    1.0000189   -2.3847852   -2.3847852   -1.2298053  0.063569072   -2.3847852    1.1549799   476190 
  476000    1.0015825   -2.3864189   -2.3864189   -1.2296331  0.061679388   -2.3864189    1.1567858   476190 
  477000    1.0027258   -2.3883609   -2.3883609   -1.2302545  0.061062019   -2.3883609    1.1581063   476190 
  478000    1.0023312   -2.3871678   -2.3871678   -1.2295173  0.066276115   -2.3871678    1.1576506   476190 
  479000    1.0018118   -2.3865656   -2.3865656    -1.229515  0.064046511   -2.3865656    1.1570506   476190 
  480000    1.0026354   -2.3863272   -2.3863272   -1.2283252  0.068611534   -2.3863272    1.1580019   476190 
  481000    1.0032319   -2.3867275   -2.3867275   -1.2280367  0.069717215   -2.3867275    1.1586908   476190 
  482000    1.0027299   -2.3868557   -2.3868557   -1.2287447  0.069547231   -2.3868557     1.158111   476190 
  483000    1.0032984   -2.3864866   -2.3864866    -1.227719  0.060722385   -2.3864866    1.1587676   476190 
  484000    1.0017767   -2.3843059   -2.3843059   -1.2272958  0.070802673   -2.3843059    1.1570101   476190 
  485000    1.0020282   -2.3853455   -2.3853455   -1.2280448  0.072571728   -2.3853455    1.1573006   476190 
  486000    1.0033579   -2.3873398   -2.3873398   -1.2285035  0.063195944   -2.3873398    1.1588363   476190 
  487000    1.0006947   -2.3835913   -2.3835913   -1.2278308  0.068580683   -2.3835913    1.1557605   476190 
  488000    1.0021403   -2.3843035   -2.3843035   -1.2268734  0.061938676   -2.3843035    1.1574301   476190 
  489000    1.0024663   -2.3839919   -2.3839919   -1.2261853  0.061524937   -2.3839919    1.1578066   476190 
  490000    1.0004204   -2.3811659   -2.3811659   -1.2257223  0.063072385   -2.3811659    1.1554436   476190 
  491000    1.0006242   -2.3813632   -2.3813632   -1.2256842  0.066777744   -2.3813632     1.155679   476190 
  492000    1.0021114   -2.3829885   -2.3829885   -1.2255918  0.068384135   -2.3829885    1.1573967   476190 
  493000    1.0031137    -2.383926    -2.383926   -1.2253717   0.06150867    -2.383926    1.1585543   476190 
  494000     1.001722   -2.3833166   -2.3833166   -1.2263696  0.071476537   -2.3833166     1.156947   476190 
  495000    1.0028793   -2.3848546   -2.3848546    -1.226571  0.069587254   -2.3848546    1.1582836   476190 
  496000    1.0010626   -2.3837156   -2.3837156   -1.2275303  0.064973755   -2.3837156    1.1561853   476190 
  497000    1.0012242   -2.3852867   -2.3852867   -1.2289148  0.064995903   -2.3852867     1.156372   476190 
  498000     1.001595   -2.3843659   -2.3843659   -1.2275656  0.067393529   -2.3843659    1.1568002   476190 
  499000     1.001174   -2.3838178   -2.3838178   -1.2275037  0.067057697   -2.3838178     1.156314   476190 
  500000    1.0024198   -2.3851364   -2.3851364   -1.2273835     0.071515   -2.3851364    1.1577529   476190 
  501000    1.0014617   -2.3840403   -2.3840403    -1.227394  0.068084263   -2.3840403    1.1566463   476190 
  502000     1.001873   -2.3845606   -2.3845606   -1.2274392  0.068764556   -2.3845606    1.1571214   476190 
  503000     1.002481   -2.3847794   -2.3847794   -1.2269559  0.060872172   -2.3847794    1.1578236   476190 
  504000    1.0046458   -2.3869841   -2.3869841   -1.2266603  0.066189526   -2.3869841    1.1603238   476190 
  505000    1.0021889   -2.3829442   -2.3829442    -1.225458  0.067595515   -2.3829442    1.1574862   476190 
  506000    1.0025505   -2.3828644   -2.3828644   -1.2249606  0.065922626   -2.3828644    1.1579038   476190 
  507000    1.0049434   -2.3850925   -2.3850925    -1.224425  0.067219435   -2.3850925    1.1606675   476190 
  508000    1.0038267   -2.3852768   -2.3852768    -1.225899   0.07334831   -2.3852768    1.1593778   476190 
  509000    1.0053598   -2.3870046   -2.3870046   -1.2258562  0.066734543   -2.3870046    1.1611484   476190 
  510000    1.0038653   -2.3859226   -2.3859226   -1.2265002  0.069802611   -2.3859226    1.1594224   476190 
  511000    1.0031686   -2.3858181   -2.3858181   -1.2272004    0.0691093   -2.3858181    1.1586177   476190 
  512000    1.0019206   -2.3836568   -2.3836568   -1.2264805   0.06569171   -2.3836568    1.1571763   476190 
  513000    1.0026051   -2.3847777   -2.3847777   -1.2268109  0.064158318   -2.3847777    1.1579668   476190 
  514000    1.0031833   -2.3844446   -2.3844446   -1.2258099  0.070161897   -2.3844446    1.1586347   476190 
  515000    1.0033595   -2.3858967   -2.3858967   -1.2270586  0.063191603   -2.3858967    1.1588382   476190 
  516000    1.0054203   -2.3884941   -2.3884941   -1.2272757  0.062624639   -2.3884941    1.1612183   476190 
  517000    1.0021939   -2.3846198   -2.3846198   -1.2271279  0.068635007   -2.3846198     1.157492   476190 
  518000    1.0042118   -2.3866056   -2.3866056   -1.2267831   0.07023385   -2.3866056    1.1598225   476190 
  519000    1.0029104   -2.3849593   -2.3849593   -1.2266398  0.067540764   -2.3849593    1.1583195   476190 
  520000     1.002484   -2.3847372   -2.3847372   -1.2269102   0.07158032   -2.3847372     1.157827   476190 
  521000    1.0031881   -2.3860371   -2.3860371    -1.227397  0.067681851   -2.3860371    1.1586402   476190 
  522000    1.0047471   -2.3876187   -2.3876187   -1.2271779  0.075947312   -2.3876187    1.1604408   476190 
  523000    1.0038207   -2.3875306   -2.3875306   -1.2281598  0.069753176   -2.3875306    1.1593708   476190 
  524000    1.0025879   -2.3866037   -2.3866037   -1.2286567  0.073275642   -2.3866037     1.157947   476190 
  525000    1.0038384   -2.3877147   -2.3877147   -1.2283233  0.064948583   -2.3877147    1.1593914   476190 
  526000    1.0029979   -2.3857143   -2.3857143   -1.2272937  0.069266335   -2.3857143    1.1584206   476190 
  527000    1.0054509   -2.3878921   -2.3878921   -1.2266385  0.067861907   -2.3878921    1.1612537   476190 
  528000    1.0047825   -2.3868365   -2.3868365   -1.2263549  0.066375719   -2.3868365    1.1604816   476190 
  529000     1.003514   -2.3854108   -2.3854108   -1.2263941    0.0709795   -2.3854108    1.1590167   476190 
  530000    1.0025163   -2.3844585   -2.3844585   -1.2265941  0.074749291   -2.3844585    1.1578643   476190 
  531000    1.0027563   -2.3854003   -2.3854003   -1.2272587  0.065939404   -2.3854003    1.1581415   476190 
  532000    1.0038634   -2.3864933   -2.3864933   -1.2270732   0.07101295   -2.3864933    1.1594201   476190 
  533000    1.0047116   -2.3876572   -2.3876572   -1.2272574  0.070521779   -2.3876572    1.1603998   476190 
  534000    1.0031677   -2.3858958   -2.3858958   -1.2272792  0.071264944   -2.3858958    1.1586166   476190 
  535000    1.0026987   -2.3846134   -2.3846134   -1.2265384  0.067037433   -2.3846134     1.158075   476190 
  536000    1.0036608   -2.3859477   -2.3859477   -1.2267616  0.072802751   -2.3859477    1.1591861   476190 
  537000    1.0037373   -2.3865523   -2.3865523   -1.2272778   0.06721787   -2.3865523    1.1592745   476190 
  538000    1.0027963   -2.3860766   -2.3860766   -1.2278889  0.076839589   -2.3860766    1.1581877   476190 
  539000    1.0034389   -2.3862252   -2.3862252   -1.2272954  0.068933762   -2.3862252    1.1589299   476190 
  540000      1.00302   -2.3854254   -2.3854254   -1.2269793  0.069271276   -2.3854254    1.1584461   476190 
  541000    1.0051499    -2.388261    -2.388261    -1.227355  0.061617067    -2.388261     1.160906   476190 
  542000    1.0025526   -2.3850215   -2.3850215   -1.2271153  0.066305298   -2.3850215    1.1579062   476190 
  543000    1.0059928   -2.3882003   -2.3882003   -1.2263208   0.06311447   -2.3882003    1.1618795   476190 
  544000    1.0043122   -2.3867861   -2.3867861   -1.2268476   0.06417561   -2.3867861    1.1599385   476190 
  545000    1.0043069   -2.3864858   -2.3864858   -1.2265534  0.067237628   -2.3864858    1.1599324   476190 
  546000    1.0039108   -2.3856597   -2.3856597   -1.2261848  0.064369111   -2.3856597     1.159475   476190 
  547000    1.0032233   -2.3856924   -2.3856924   -1.2270115  0.065815158   -2.3856924    1.1586809   476190 
  548000    1.0024028    -2.385416    -2.385416   -1.2276828  0.071934866    -2.385416    1.1577332   476190 
  549000    1.0040463   -2.3861341   -2.3861341   -1.2265027  0.069718378   -2.3861341    1.1596314   476190 
  550000    1.0037361   -2.3846762   -2.3846762   -1.2254031  0.068208977   -2.3846762    1.1592731   476190 
  551000    1.0045197   -2.3869236   -2.3869236   -1.2267454  0.064445836   -2.3869236    1.1601782   476190 
  552000    1.0043437   -2.3858128   -2.3858128   -1.2258379  0.062149769   -2.3858128    1.1599749   476190 
  553000    1.0028492   -2.3839851   -2.3839851   -1.2257363  0.065500475   -2.3839851    1.1582488   476190 
  554000    1.0039449   -2.3844548   -2.3844548   -1.2249404  0.064406082   -2.3844548    1.1595143   476190 
  555000    1.0051048   -2.3867625   -2.3867625   -1.2259086  0.070943986   -2.3867625    1.1608539   476190 
  556000    1.0039531   -2.3854706   -2.3854706   -1.2259467  0.057698172   -2.3854706    1.1595238   476190 
  557000    1.0023635   -2.3840344   -2.3840344   -1.2263466   0.06527004   -2.3840344    1.1576878   476190 
  558000    1.0042542   -2.3863895   -2.3863895   -1.2265179  0.064098927   -2.3863895    1.1598715   476190 
  559000    1.0040671    -2.384837    -2.384837   -1.2251815  0.068635327    -2.384837    1.1596555   476190 
  560000    1.0029614   -2.3835967   -2.3835967   -1.2252183   0.06484526   -2.3835967    1.1583784   476190 
  561000    1.0022685   -2.3839154   -2.3839154   -1.2263372  0.072421255   -2.3839154    1.1575782   476190 
  562000     1.004983   -2.3862139   -2.3862139   -1.2255006   0.06639678   -2.3862139    1.1607133   476190 
  563000    1.0067221   -2.3877772   -2.3877772   -1.2250554  0.071246759   -2.3877772    1.1627218   476190 
  564000    1.0050551    -2.387178    -2.387178   -1.2263814  0.069518416    -2.387178    1.1607966   476190 
  565000    1.0031415   -2.3840673   -2.3840673   -1.2254809  0.071441569   -2.3840673    1.1585864   476190 
  566000    1.0047475   -2.3862408   -2.3862408   -1.2257996  0.063758804   -2.3862408    1.1604412   476190 
  567000    1.0032758   -2.3837185   -2.3837185    -1.224977  0.070934649   -2.3837185    1.1587415   476190 
  568000    1.0062701   -2.3863425   -2.3863425   -1.2241427   0.07043404   -2.3863425    1.1621998   476190 
  569000     1.006461   -2.3868314   -2.3868314   -1.2244111  0.064426443   -2.3868314    1.1624203   476190 
  570000    1.0046844   -2.3864181   -2.3864181   -1.2260498   0.07301706   -2.3864181    1.1603683   476190 
  571000    1.0033984   -2.3847021   -2.3847021    -1.225819  0.067423085   -2.3847021    1.1588831   476190 
  572000     1.005152   -2.3881619   -2.3881619   -1.2272534  0.068147399   -2.3881619    1.1609085   476190 
  573000    1.0039519    -2.387549    -2.387549   -1.2280267  0.069835937    -2.387549    1.1595223   476190 
  574000    1.0046444   -2.3872659   -2.3872659   -1.2269437  0.064390506   -2.3872659    1.1603222   476190 
  575000    1.0039788   -2.3860112   -2.3860112   -1.2264578  0.059970568   -2.3860112    1.1595535   476190 
  576000    1.0022459   -2.3839746   -2.3839746   -1.2264225  0.066628871   -2.3839746    1.1575521   476190 
  577000    1.0030805   -2.3853608   -2.3853608   -1.2268448  0.070013879   -2.3853608    1.1585159   476190 
  578000    1.0057118   -2.3872139   -2.3872139   -1.2256589  0.065455995   -2.3872139     1.161555   476190 
  579000     1.005803   -2.3866981   -2.3866981   -1.2250378  0.072313733   -2.3866981    1.1616603   476190 
  580000    1.0041169   -2.3844988   -2.3844988   -1.2247858   0.07154053   -2.3844988     1.159713   476190 
  581000    1.0022741   -2.3837959   -2.3837959   -1.2262113   0.06921202   -2.3837959    1.1575846   476190 
  582000    1.0029993     -2.38422     -2.38422   -1.2257978  0.066813708     -2.38422    1.1584222   476190 
  583000    1.0030714    -2.383888    -2.383888   -1.2253825  0.067008353    -2.383888    1.1585055   476190 
  584000    1.0039851   -2.3857006   -2.3857006   -1.2261399  0.063693286   -2.3857006    1.1595607   476190 
  585000    1.0044196   -2.3855069   -2.3855069   -1.2254443  0.067491102   -2.3855069    1.1600626   476190 
  586000    1.0032385   -2.3850129   -2.3850129   -1.2263145  0.062646724   -2.3850129    1.1586984   476190 
  587000    1.0077568   -2.3897282   -2.3897282   -1.2258114  0.070002231   -2.3897282    1.1639168   476190 
  588000    1.0037697   -2.3846829   -2.3846829    -1.225371  0.064168128   -2.3846829    1.1593119   476190 
  589000    1.0075314    -2.390612    -2.390612   -1.2269555  0.068012711    -2.390612    1.1636566   476190 
  590000    1.0050942   -2.3877579   -2.3877579   -1.2269162  0.070117545   -2.3877579    1.1608417   476190 
  591000    1.0044924   -2.3873539   -2.3873539   -1.2272073  0.068904459   -2.3873539    1.1601466   476190 
  592000    1.0056528   -2.3881722   -2.3881722   -1.2266854  0.070818852   -2.3881722    1.1614868   476190 
  593000    1.0048537   -2.3879741   -2.3879741   -1.2274102  0.068557586   -2.3879741    1.1605639   476190 
  594000    1.0027094   -2.3856833   -2.3856833    -1.227596  0.066751742   -2.3856833    1.1580874   476190 
  595000    1.0022591   -2.3851118   -2.3851118   -1.2275446  0.062458833   -2.3851118    1.1575672   476190 
  596000    1.0031232   -2.3854089   -2.3854089   -1.2268436  0.066382064   -2.3854089    1.1585653   476190 
  597000     1.003882   -2.3861965   -2.3861965   -1.2267548  0.070207969   -2.3861965    1.1594417   476190 
  598000     1.005036   -2.3880449   -2.3880449   -1.2272705  0.064443527   -2.3880449    1.1607744   476190 
  599000    1.0036496   -2.3867711   -2.3867711   -1.2275979  0.067633056   -2.3867711    1.1591732   476190 
  600000    1.0045576   -2.3876124   -2.3876124   -1.2273905  0.067846841   -2.3876124    1.1602219   476190 
  601000    1.0022342   -2.3850991   -2.3850991   -1.2275607  0.069539619   -2.3850991    1.1575385   476190 
  602000    1.0045066   -2.3872637   -2.3872637   -1.2271006  0.072835156   -2.3872637     1.160163   476190 
  603000    1.0039839   -2.3867651   -2.3867651   -1.2272058  0.066740455   -2.3867651    1.1595593   476190 
  604000    1.0027789   -2.3846498   -2.3846498   -1.2264821  0.063725152   -2.3846498    1.1581676   476190 
  605000    1.0030387   -2.3843484   -2.3843484   -1.2258807  0.075053261   -2.3843484    1.1584677   476190 
  606000    1.0040177   -2.3849675   -2.3849675   -1.2253691  0.070015957   -2.3849675    1.1595984   476190 
  607000    1.0054585   -2.3864559   -2.3864559   -1.2251934   0.05902911   -2.3864559    1.1612625   476190 
  608000    1.0063835   -2.3865846   -2.3865846   -1.2242538  0.067390506   -2.3865846    1.1623308   476190 
  609000    1.0066347   -2.3872392   -2.3872392   -1.2246183  0.068548638   -2.3872392    1.1626209   476190 
  610000    1.0040014   -2.3848196   -2.3848196   -1.2252401  0.064459525   -2.3848196    1.1595795   476190 
  611000    1.0036564   -2.3847097   -2.3847097   -1.2255287  0.071322462   -2.3847097    1.1591811   476190 
  612000    1.0031725   -2.3835569   -2.3835569   -1.2249347  0.069849703   -2.3835569    1.1586222   476190 
  613000    1.0046492   -2.3852719   -2.3852719   -1.2249441  0.066050937   -2.3852719    1.1603278   476190 
  614000    1.0016397   -2.3821754   -2.3821754   -1.2253235  0.061981376   -2.3821754    1.1568519   476190 
  615000    1.0044368   -2.3850781   -2.3850781   -1.2249957  0.067655853   -2.3850781    1.1600824   476190 
  616000    1.0038367   -2.3842116   -2.3842116   -1.2248222  0.065744524   -2.3842116    1.1593893   476190 
  617000    1.0039157   -2.3846286   -2.3846286   -1.2251481  0.068520318   -2.3846286    1.1594805   476190 
  618000    1.0028165   -2.3834749   -2.3834749   -1.2252639  0.068407714   -2.3834749     1.158211   476190 
  619000    1.0030981   -2.3838286   -2.3838286   -1.2252923   0.06431171   -2.3838286    1.1585363   476190 
  620000    1.0029359   -2.3843407   -2.3843407   -1.2259918  0.067031257   -2.3843407     1.158349   476190 
  621000    1.0030734   -2.3849556   -2.3849556   -1.2264478  0.066530069   -2.3849556    1.1585078   476190 
  622000    1.0050554   -2.3868287   -2.3868287   -1.2260318  0.065211442   -2.3868287    1.1607969   476190 
  623000    1.0025651   -2.3855211   -2.3855211   -1.2276003  0.067115647   -2.3855211    1.1579207   476190 
  624000     1.003346    -2.385694    -2.385694   -1.2268714  0.069963036    -2.385694    1.1588226   476190 
  625000    1.0037842   -2.3852311   -2.3852311   -1.2259024  0.065312622   -2.3852311    1.1593287   476190 
  626000    1.0045932   -2.3866009   -2.3866009   -1.2263379  0.065071899   -2.3866009     1.160263   476190 
  627000    1.0030745   -2.3854009   -2.3854009   -1.2268919  0.066406974   -2.3854009     1.158509   476190 
  628000    1.0019118   -2.3840364   -2.3840364   -1.2268702  0.061385824   -2.3840364    1.1571661   476190 
  629000    1.0014581    -2.384152    -2.384152   -1.2275099  0.069159431    -2.384152    1.1566421   476190 
  630000    1.0031008   -2.3845408   -2.3845408   -1.2260014  0.062362636   -2.3845408    1.1585394   476190 
  631000    1.0020215    -2.384472    -2.384472   -1.2271792  0.071705952    -2.384472    1.1572928   476190 
  632000    1.0035119   -2.3861127   -2.3861127   -1.2270984  0.064069824   -2.3861127    1.1590142   476190 
  633000    1.0040708   -2.3868509   -2.3868509   -1.2271912  0.067743937   -2.3868509    1.1596598   476190 
  634000    0.9999052   -2.3838668   -2.3838668   -1.2290182  0.073513408   -2.3838668    1.1548486   476190 
  635000    1.0017943   -2.3847492   -2.3847492   -1.2277187  0.069236009   -2.3847492    1.1570305   476190 
  636000     1.003108   -2.3872536   -2.3872536   -1.2287059  0.068106243   -2.3872536    1.1585477   476190 
  637000    1.0037768    -2.388671    -2.388671   -1.2293508   0.06752444    -2.388671    1.1593202   476190 
  638000    1.0055959   -2.3902668   -2.3902668   -1.2288457  0.065209141   -2.3902668    1.1614211   476190 
  639000    1.0032096   -2.3860766   -2.3860766   -1.2274116  0.069034352   -2.3860766    1.1586651   476190 
  640000    1.0052864   -2.3894603   -2.3894603   -1.2283966  0.068209967   -2.3894603    1.1610637   476190 
  641000    1.0044248   -2.3879918   -2.3879918   -1.2279232  0.072019495   -2.3879918    1.1600685   476190 
  642000    1.0046367   -2.3887321   -2.3887321   -1.2284188  0.066199695   -2.3887321    1.1603133   476190 
[...]
 9832000    1.0057939   -2.3926141   -2.3926141   -1.2309643  0.068163728   -2.3926141    1.1616498   476190 
 9833000     1.003101   -2.3913142   -2.3913142   -1.2327745  0.066122186   -2.3913142    1.1585397   476190 
 9834000     1.006282    -2.394064    -2.394064   -1.2318505   0.06819135    -2.394064    1.1622135   476190 
 9835000    1.0044702   -2.3928702   -2.3928702   -1.2327492  0.069516871   -2.3928702     1.160121   476190 
 9836000    1.0071987   -2.3959877   -2.3959877   -1.2327154  0.066586996   -2.3959877    1.1632723   476190 
 9837000    1.0057605   -2.3937272   -2.3937272   -1.2321159  0.067272035   -2.3937272    1.1616112   476190 
 9838000    1.0065288   -2.3941788   -2.3941788   -1.2316802  0.073056779   -2.3941788    1.1624986   476190 
 9839000    1.0039722    -2.392159    -2.392159   -1.2326132  0.070687213    -2.392159    1.1595458   476190 
 9840000    1.0051803   -2.3936415   -2.3936415   -1.2327004  0.071719599   -2.3936415    1.1609411   476190 
 9841000     1.004849   -2.3939358   -2.3939358   -1.2333773  0.063437894   -2.3939358    1.1605584   476190 
 9842000     1.003162   -2.3931808   -2.3931808   -1.2345707  0.066740793   -2.3931808      1.15861   476190 
 9843000    1.0034099   -2.3922358   -2.3922358   -1.2333395   0.06862201   -2.3922358    1.1588964   476190 
 9844000    1.0033136   -2.3931155   -2.3931155   -1.2343303  0.064236822   -2.3931155    1.1587852   476190 
 9845000    1.0024752   -2.3927504   -2.3927504   -1.2349336  0.064055469   -2.3927504    1.1578168   476190 
 9846000    1.0052606    -2.395436    -2.395436   -1.2344021  0.060269511    -2.395436    1.1610339   476190 
 9847000     1.005445   -2.3943386   -2.3943386   -1.2330917  0.067740374   -2.3943386    1.1612468   476190 
 9848000    1.0040686   -2.3950734   -2.3950734   -1.2354163  0.065202493   -2.3950734    1.1596571   476190 
 9849000    1.0056549   -2.3957619   -2.3957619   -1.2342726   0.06694937   -2.3957619    1.1614893   476190 
 9850000    1.0046978   -2.3949882   -2.3949882   -1.2346043  0.064398596   -2.3949882    1.1603839   476190 
 9851000    1.0042124   -2.3944912   -2.3944912   -1.2346679  0.067717714   -2.3944912    1.1598233   476190 
 9852000     1.003269   -2.3924179   -2.3924179   -1.2336842  0.071528387   -2.3924179    1.1587336   476190 
 9853000    1.0036186   -2.3936925   -2.3936925    -1.234555  0.068729108   -2.3936925    1.1591375   476190 
 9854000    1.0050002   -2.3941199   -2.3941199   -1.2333869   0.06780682   -2.3941199    1.1607331   476190 
 9855000    1.0045837   -2.3951009   -2.3951009   -1.2348488  0.067642088   -2.3951009     1.160252   476190 
 9856000    1.0032177   -2.3922089   -2.3922089   -1.2335344  0.068232475   -2.3922089    1.1586745   476190 
 9857000    1.0047065   -2.3936408   -2.3936408   -1.2332469  0.068492346   -2.3936408     1.160394   476190 
 9858000    1.0052315   -2.3936547   -2.3936547   -1.2326544  0.066301837   -2.3936547    1.1610003   476190 
 9859000    1.0054436   -2.3942727   -2.3942727   -1.2330275  0.065206155   -2.3942727    1.1612452   476190 
 9860000    1.0054876   -2.3942265   -2.3942265   -1.2329304  0.063233075   -2.3942265    1.1612961   476190 
 9861000    1.0065634   -2.3957428   -2.3957428   -1.2332043  0.065250985   -2.3957428    1.1625385   476190 
 9862000    1.0055184    -2.393263    -2.393263   -1.2319314  0.064948487    -2.393263    1.1613316   476190 
 9863000    1.0068543   -2.3947757   -2.3947757   -1.2319012  0.067654859   -2.3947757    1.1628745   476190 
 9864000    1.0071887   -2.3959746   -2.3959746   -1.2327138  0.065989431   -2.3959746    1.1632608   476190 
 9865000    1.0045826   -2.3938943   -2.3938943   -1.2336436  0.067479534   -2.3938943    1.1602508   476190 
 9866000    1.0053544   -2.3951853   -2.3951853    -1.234043  0.069259984   -2.3951853    1.1611423   476190 
 9867000    1.0046706   -2.3945584   -2.3945584    -1.234206  0.069733877   -2.3945584    1.1603524   476190 
 9868000    1.0041442   -2.3933008   -2.3933008   -1.2335564  0.072257478   -2.3933008    1.1597444   476190 
 9869000    1.0052706   -2.3935566   -2.3935566   -1.2325112  0.074703702   -2.3935566    1.1610454   476190 
 9870000    1.0057445   -2.3952841   -2.3952841   -1.2336913  0.068847472   -2.3952841    1.1615928   476190 
 9871000    1.0064923   -2.3960692   -2.3960692   -1.2336128  0.071610083   -2.3960692    1.1624564   476190 
 9872000    1.0069546   -2.3965545   -2.3965545   -1.2335641  0.073500473   -2.3965545    1.1629904   476190 
 9873000    1.0034763   -2.3930036   -2.3930036   -1.2340305  0.068716759   -2.3930036    1.1589731   476190 
 9874000    1.0051818   -2.3951394   -2.3951394   -1.2341965  0.071118198   -2.3951394    1.1609428   476190 
 9875000    1.0073296   -2.3961725   -2.3961725   -1.2327489  0.068535706   -2.3961725    1.1634235   476190 
 9876000    1.0049393   -2.3942633   -2.3942633   -1.2336005   0.06882866   -2.3942633    1.1606628   476190 
 9877000    1.0044974   -2.3933761   -2.3933761   -1.2332237  0.063699796   -2.3933761    1.1601524   476190 
 9878000    1.0040459   -2.3929087   -2.3929087   -1.2332778  0.063246247   -2.3929087    1.1596309   476190 
 9879000    1.0034021   -2.3923513   -2.3923513    -1.233464  0.068019962   -2.3923513    1.1588874   476190 
 9880000     1.005731   -2.3942803   -2.3942803   -1.2327031  0.066495497   -2.3942803    1.1615772   476190 
 9881000    1.0053921     -2.39346     -2.39346   -1.2322743  0.061619358     -2.39346    1.1611857   476190 
 9882000    1.0046309   -2.3930995   -2.3930995   -1.2327929   0.06739164   -2.3930995    1.1603066   476190 
 9883000    1.0055683    -2.394702    -2.394702   -1.2333128  0.067362294    -2.394702    1.1613892   476190 
 9884000    1.0061651   -2.3940242   -2.3940242   -1.2319457   0.06950718   -2.3940242    1.1620785   476190 
 9885000    1.0057143   -2.3933631   -2.3933631   -1.2318052  0.068757097   -2.3933631    1.1615579   476190 
 9886000     1.005061   -2.3939812   -2.3939812   -1.2331779  0.073221641   -2.3939812    1.1608033   476190 
 9887000    1.0075195    -2.396377    -2.396377   -1.2327342  0.070839382    -2.396377    1.1636428   476190 
 9888000    1.0037321   -2.3924571   -2.3924571   -1.2331886  0.066147083   -2.3924571    1.1592685   476190 
 9889000    1.0058194   -2.3939925   -2.3939925   -1.2323132  0.071128538   -2.3939925    1.1616792   476190 
 9890000    1.0053481   -2.3940784   -2.3940784   -1.2329435  0.070606174   -2.3940784    1.1611349   476190 
 9891000    1.0066721   -2.3949616   -2.3949616   -1.2322975  0.064950563   -2.3949616    1.1626641   476190 
 9892000     1.004517    -2.393027    -2.393027    -1.232852  0.066949439    -2.393027     1.160175   476190 
 9893000    1.0043938     -2.39384     -2.39384   -1.2338072  0.068352707     -2.39384    1.1600327   476190 
 9894000    1.0045182   -2.3936157   -2.3936157   -1.2334392   0.07162538   -2.3936157    1.1601765   476190 
 9895000    1.0031893   -2.3932303   -2.3932303   -1.2345886  0.064992699   -2.3932303    1.1586417   476190 
 9896000    1.0038199   -2.3945844   -2.3945844   -1.2352145  0.060734966   -2.3945844    1.1593699   476190 
 9897000    1.0017017   -2.3926778   -2.3926778   -1.2357543  0.069485912   -2.3926778    1.1569235   476190 
 9898000    1.0045642   -2.3960649   -2.3960649   -1.2358353  0.065535308   -2.3960649    1.1602296   476190 
 9899000    1.0025878   -2.3935056   -2.3935056   -1.2355587  0.068941648   -2.3935056    1.1579469   476190 
 9900000    1.0076131   -2.3972538   -2.3972538   -1.2335029  0.064913712   -2.3972538    1.1637509   476190 
 9901000      1.00446   -2.3942044   -2.3942044   -1.2340951  0.068771155   -2.3942044    1.1601092   476190 
 9902000    1.0040547   -2.3940027   -2.3940027   -1.2343615  0.068974799   -2.3940027    1.1596412   476190 
 9903000    1.0034638   -2.3935579   -2.3935579   -1.2345992  0.070272685   -2.3935579    1.1589587   476190 
 9904000    1.0029406   -2.3919479   -2.3919479   -1.2335935  0.072748688   -2.3919479    1.1583544   476190 
 9905000    1.0044322   -2.3940857   -2.3940857   -1.2340087  0.067678153   -2.3940857    1.1600771   476190 
 9906000    1.0057705   -2.3951562   -2.3951562   -1.2335334  0.068516717   -2.3951562    1.1616228   476190 
 9907000    1.0038496   -2.3915945   -2.3915945   -1.2321903  0.062875982   -2.3915945    1.1594042   476190 
 9908000    1.0044233   -2.3916934   -2.3916934   -1.2316266   0.07076045   -2.3916934    1.1600668   476190 
 9909000    1.0031615   -2.3905583   -2.3905583   -1.2319488  0.066815881   -2.3905583    1.1586095   476190 
 9910000     1.004586   -2.3917703   -2.3917703   -1.2315156  0.065519597   -2.3917703    1.1602547   476190 
 9911000    1.0034863   -2.3893812   -2.3893812   -1.2303965  0.069678142   -2.3893812    1.1589846   476190 
 9912000    1.0056323   -2.3919014   -2.3919014   -1.2304382  0.069392968   -2.3919014    1.1614632   476190 
 9913000    1.0058997   -2.3922764   -2.3922764   -1.2305044  0.066932807   -2.3922764     1.161772   476190 
 9914000    1.0066069   -2.3925056   -2.3925056   -1.2299168  0.071524575   -2.3925056    1.1625888   476190 
 9915000    1.0056505   -2.3917009   -2.3917009   -1.2302167  0.068441738   -2.3917009    1.1614842   476190 
 9916000    1.0045683     -2.39115     -2.39115   -1.2309156  0.065469801     -2.39115    1.1602343   476190 
 9917000    1.0046075    -2.390947    -2.390947   -1.2306674  0.070568223    -2.390947    1.1602796   476190 
 9918000    1.0049484    -2.390992    -2.390992   -1.2303187  0.065868531    -2.390992    1.1606733   476190 
 9919000    1.0041193   -2.3895419   -2.3895419   -1.2298262  0.066675304   -2.3895419    1.1597157   476190 
 9920000    1.0055691   -2.3916761   -2.3916761   -1.2302859  0.069001326   -2.3916761    1.1613902   476190 
 9921000    1.0061874   -2.3918752   -2.3918752   -1.2297709   0.07104789   -2.3918752    1.1621042   476190 
 9922000    1.0022583   -2.3895893   -2.3895893   -1.2320229  0.066763921   -2.3895893    1.1575663   476190 
 9923000    1.0058967   -2.3918909   -2.3918909   -1.2301224  0.068638939   -2.3918909    1.1617686   476190 
 9924000    1.0060649   -2.3925397   -2.3925397   -1.2305769  0.064508737   -2.3925397    1.1619628   476190 
 9925000     1.004854   -2.3922488   -2.3922488   -1.2316845   0.06290372   -2.3922488    1.1605643   476190 
 9926000    1.0045725   -2.3909923   -2.3909923   -1.2307532  0.065632795   -2.3909923    1.1602391   476190 
 9927000    1.0034132    -2.389436    -2.389436   -1.2305358  0.069260414    -2.389436    1.1589002   476190 
 9928000    1.0043895    -2.390348    -2.390348   -1.2303202  0.070870554    -2.390348    1.1600278   476190 
 9929000    1.0055483   -2.3926499   -2.3926499   -1.2312837  0.068074839   -2.3926499    1.1613662   476190 
 9930000    1.0072599    -2.394797    -2.394797    -1.231454  0.063955199    -2.394797     1.163343   476190 
 9931000    1.0063747   -2.3941541   -2.3941541   -1.2318335  0.064413466   -2.3941541    1.1623207   476190 
 9932000    1.0052389   -2.3930694   -2.3930694   -1.2320606  0.064682875   -2.3930694    1.1610088   476190 
 9933000    1.0048151   -2.3923364   -2.3923364   -1.2318171  0.067431927   -2.3923364    1.1605194   476190 
 9934000    1.0074564   -2.3960459   -2.3960459    -1.232476  0.066240152   -2.3960459    1.1635699   476190 
 9935000    1.0069301   -2.3953748   -2.3953748   -1.2324127  0.064169177   -2.3953748    1.1629621   476190 
 9936000    1.0074894   -2.3956389   -2.3956389   -1.2320309  0.062673136   -2.3956389    1.1636081   476190 
 9937000    1.0050916   -2.3945043   -2.3945043   -1.2336656  0.065872851   -2.3945043    1.1608387   476190 
 9938000    1.0058734   -2.3958337   -2.3958337    -1.234092  0.062908086   -2.3958337    1.1617417   476190 
 9939000    1.0036258   -2.3936115   -2.3936115   -1.2344658  0.067999932   -2.3936115    1.1591457   476190 
 9940000     1.003441   -2.3942233   -2.3942233    -1.235291  0.067456258   -2.3942233    1.1589323   476190 
 9941000    1.0041272   -2.3935373   -2.3935373   -1.2338124  0.063297776   -2.3935373    1.1597249   476190 
 9942000     1.003856   -2.3925097   -2.3925097   -1.2330981  0.070088617   -2.3925097    1.1594116   476190 
 9943000    1.0071422   -2.3962573   -2.3962573   -1.2330502   0.06577636   -2.3962573    1.1632071   476190 
 9944000    1.0077164   -2.3962409   -2.3962409   -1.2323707  0.070601048   -2.3962409    1.1638702   476190 
 9945000    1.0052885   -2.3940115   -2.3940115   -1.2329454  0.074394237   -2.3940115    1.1610661   476190 
 9946000    1.0065915   -2.3959281   -2.3959281   -1.2333571  0.066514748   -2.3959281     1.162571   476190 
 9947000    1.0063067   -2.3946615   -2.3946615   -1.2324195  0.075609406   -2.3946615    1.1622421   476190 
 9948000    1.0054365   -2.3948372   -2.3948372   -1.2336001  0.064634284   -2.3948372    1.1612371   476190 
 9949000    1.0057187   -2.3956865   -2.3956865   -1.2341235  0.064876821   -2.3956865     1.161563   476190 
 9950000    1.0042399   -2.3936531   -2.3936531   -1.2337981  0.078069623   -2.3936531     1.159855   476190 
 9951000    1.0055839   -2.3936336   -2.3936336   -1.2322263  0.067580229   -2.3936336    1.1614073   476190 
 9952000    1.0073196   -2.3958128   -2.3958128   -1.2324009  0.068184318   -2.3958128    1.1634119   476190 
 9953000    1.0068462   -2.3948161   -2.3948161   -1.2319509  0.069597889   -2.3948161    1.1628652   476190 
 9954000    1.0068476   -2.3940295   -2.3940295   -1.2311627  0.064415854   -2.3940295    1.1628668   476190 
 9955000    1.0050551   -2.3937186   -2.3937186   -1.2329221   0.06775723   -2.3937186    1.1607965   476190 
 9956000    1.0056952   -2.3941406   -2.3941406   -1.2326047  0.063793041   -2.3941406    1.1615359   476190 
 9957000    1.0054763   -2.3944287   -2.3944287   -1.2331457  0.061447177   -2.3944287     1.161283   476190 
 9958000    1.0051372   -2.3931459   -2.3931459   -1.2322545    0.0670444   -2.3931459    1.1608914   476190 
 9959000    1.0072265   -2.3953033   -2.3953033   -1.2319989  0.067243935   -2.3953033    1.1633044   476190 
 9960000    1.0054394   -2.3940611   -2.3940611   -1.2328208  0.075038897   -2.3940611    1.1612403   476190 
 9961000    1.0061046   -2.3954062   -2.3954062   -1.2333975  0.065919428   -2.3954062    1.1620087   476190 
 9962000    1.0068841   -2.3959075   -2.3959075   -1.2329985  0.068855083   -2.3959075     1.162909   476190 
 9963000    1.0063622   -2.3955714   -2.3955714   -1.2332652  0.072298424   -2.3955714    1.1623062   476190 
 9964000    1.0068229   -2.3953661   -2.3953661   -1.2325278  0.068357343   -2.3953661    1.1628382   476190 
 9965000    1.0066417    -2.394388    -2.394388   -1.2317591  0.067516034    -2.394388    1.1626289   476190 
 9966000    1.0058089   -2.3942998   -2.3942998   -1.2326327  0.069857146   -2.3942998    1.1616671   476190 
 9967000    1.0055779   -2.3937659   -2.3937659   -1.2323655  0.060979856   -2.3937659    1.1614003   476190 
 9968000    1.0063022    -2.394237    -2.394237   -1.2320001  0.068047718    -2.394237    1.1622369   476190 
 9969000    1.0056895   -2.3941549   -2.3941549   -1.2326257  0.069138819   -2.3941549    1.1615292   476190 
 9970000    1.0053901   -2.3933332   -2.3933332   -1.2321497  0.072572298   -2.3933332    1.1611835   476190 
 9971000    1.0060939   -2.3925481   -2.3925481   -1.2305518  0.067417182   -2.3925481    1.1619963   476190 
 9972000      1.00805   -2.3955684   -2.3955684   -1.2313128  0.063840805   -2.3955684    1.1642556   476190 
 9973000    1.0034193   -2.3903504   -2.3903504   -1.2314431  0.068652157   -2.3903504    1.1589073   476190 
 9974000     1.004569   -2.3914588   -2.3914588   -1.2312238  0.069033475   -2.3914588    1.1602351   476190 
 9975000    1.0060842   -2.3931632   -2.3931632   -1.2311782  0.067558686   -2.3931632    1.1619851   476190 
 9976000    1.0058215   -2.3929501   -2.3929501   -1.2312683  0.065873439   -2.3929501    1.1616817   476190 
 9977000    1.0064564   -2.3939064   -2.3939064   -1.2314914  0.070343438   -2.3939064    1.1624149   476190 
 9978000    1.0058298   -2.3939813   -2.3939813     -1.23229  0.060991361   -2.3939813    1.1616913   476190 
 9979000     1.004653   -2.3941992   -2.3941992   -1.2338671  0.066230626   -2.3941992    1.1603322   476190 
 9980000    1.0064194   -2.3960158   -2.3960158   -1.2336435  0.063453648   -2.3960158    1.1623722   476190 
 9981000    1.0067101   -2.3945524   -2.3945524   -1.2318444  0.068467799   -2.3945524     1.162708   476190 
 9982000    1.0057317   -2.3941313   -2.3941313   -1.2325533  0.070788345   -2.3941313     1.161578   476190 
 9983000    1.0059076   -2.3943474   -2.3943474   -1.2325662   0.06285379   -2.3943474    1.1617811   476190 
 9984000    1.0037817   -2.3927984   -2.3927984   -1.2334726  0.066949652   -2.3927984    1.1593258   476190 
 9985000    1.0043065   -2.3941481   -2.3941481   -1.2342161  0.068433628   -2.3941481     1.159932   476190 
 9986000    1.0042111   -2.3942758   -2.3942758    -1.234454   0.06666114   -2.3942758    1.1598218   476190 
 9987000    1.0035976   -2.3941014   -2.3941014   -1.2349883  0.067344051   -2.3941014    1.1591131   476190 
 9988000      1.00422   -2.3961003   -2.3961003   -1.2362682  0.070783738   -2.3961003    1.1598321   476190 
 9989000    1.0037206   -2.3946217   -2.3946217   -1.2353664  0.073767361   -2.3946217    1.1592553   476190 
 9990000    1.0055928   -2.3956415   -2.3956415   -1.2342239  0.069912446   -2.3956415    1.1614176   476190 
 9991000    1.0051129   -2.3955154   -2.3955154   -1.2346522  0.069074314   -2.3955154    1.1608633   476190 
 9992000    1.0055655   -2.3967062   -2.3967062   -1.2353202  0.065109651   -2.3967062     1.161386   476190 
 9993000    1.0041542   -2.3951579   -2.3951579   -1.2354018   0.06302535   -2.3951579    1.1597561   476190 
 9994000    1.0030892    -2.394168    -2.394168   -1.2356419  0.072565974    -2.394168     1.158526   476190 
 9995000    1.0039336   -2.3949643   -2.3949643   -1.2354631  0.068537312   -2.3949643    1.1595012   476190 
 9996000    1.0070917   -2.3976262   -2.3976262   -1.2344775  0.068542966   -2.3976262    1.1631487   476190 
 9997000     1.005718   -2.3947464   -2.3947464   -1.2331842  0.069239831   -2.3947464    1.1615622   476190 
 9998000    1.0053208   -2.3941407   -2.3941407   -1.2330374  0.064062872   -2.3941407    1.1611034   476190 
 9999000     1.005586   -2.3941768   -2.3941768   -1.2327671  0.070433222   -2.3941768    1.1614097   476190 
10000000     1.004883   -2.3922458   -2.3922458   -1.2316481  0.066498037   -2.3922458    1.1605978   476190 
Loop time of 41634.8 on 288 procs for 10000000 steps with 476190 atoms

Performance: 103759.331 tau/day, 240.184 timesteps/s
93.7% CPU use with 288 MPI tasks x 1 OpenMP threads

MPI task timing breakdown:
Section |  min time  |  avg time  |  max time  |%varavg|  %CPU | %total
-----------------------------------------------------------------------
Pair    | 1149.5     | 3552.8     | 5086.3     |2013.3 |  95.8 |  8.53
Bond    | 6.351      | 6.7748     | 7.1391     |   5.9 | 100.0 |  0.02
Neigh   | 1494.3     | 2986.4     | 3370.3     | 756.9 |  98.9 |  7.17
Comm    | 2818.8     | 5006.5     | 8768.3     |1865.3 |  94.0 | 12.02
Output  | 554.56     | 14177      | 14264      | 675.6 |  90.8 | 34.05
Modify  | 15037      | 15728      | 29589      | 724.2 |  94.9 | 37.78
Other   |            | 177.1      |            |       |       |  0.43

Nlocal:        1653.44 ave        2515 max        1147 min
Histogram: 7 7 40 162 47 14 8 1 0 2
Nghost:        4092.55 ave        7986 max        1895 min
Histogram: 33 70 51 34 29 18 17 7 15 14
Neighs:        34072.7 ave       51836 max        5952 min
Histogram: 44 23 14 4 10 7 14 26 85 61

Total # of neighbors = 9812926
Ave neighs/atom = 20.607165
Ave special neighs/atom = 0.0000000
Neighbor list builds = 1000000
Dangerous builds = 990000

Total wall time: 11:34:02
