LAMMPS (3 Mar 2020)
  using 1 OpenMP thread(s) per MPI task
####### Lammps input script for evaporating lj fluid ########

units 	       lj
dimension      3
newton 	       on
boundary       p p f
atom_style     body	rounded/polyhedron 1 20

###### Variables ######
#######################


variable        cut_inner  equal        0.7

variable        k_n        equal        100

variable        k_na       equal        -20

variable        k_na2      equal        1

variable        c_n        equal        10.0

variable        c_t        equal        10.0

variable        mu         equal        10.0

variable        A_ua       equal        1.0


variable       	epsilon    equal 	1

variable       	sigma      equal 	1

variable       	cutoff     equal 	3.5

variable        replic     equal        2


##### initialization ######
###########################


read_data   	data.spheres_all 	group	lj	extra/atom/types 1
  orthogonal box = (0 0 0) to (40 40 40)
  4 by 4 by 4 MPI processor grid
  reading atoms ...
  8000 atoms
  8000 bodies
  read_data CPU = 1.1032 secs

region		cubeSpace	block 10 30 10 30 10 30

delete_atoms 	region 		cubeSpace  compress yes
Deleted 1000 atoms, new total = 7000

read_data   	data.cubes 	group	cubes	add	append
  orthogonal box = (0 0 0) to (40 40 40)
  4 by 4 by 4 MPI processor grid
  reading atoms ...
  1 atoms
  1 bodies
  read_data CPU = 0.00926471 secs

replicate 	${replic} ${replic} ${replic}
replicate 	2 ${replic} ${replic}
replicate 	2 2 ${replic}
replicate 	2 2 2
WARNING: Replicating in a non-periodic dimension (src/replicate.cpp:72)
  orthogonal box = (0 0 0) to (80 80 80)
  4 by 4 by 4 MPI processor grid
  56008 atoms
  replicate CPU = 0.235109 secs

read_data	data.vac 	add append
  orthogonal box = (0 0 0) to (80 80 160)
  2 by 4 by 8 MPI processor grid
  read_data CPU = 1.03179 secs




##### potential parameters ######
#################################

pair_style      hybrid                 body/rounded/polyhedron ${c_n} ${c_t} ${mu} ${A_ua} ${cut_inner}                 lj/cut ${cutoff}
pair_style      hybrid                 body/rounded/polyhedron 10 ${c_t} ${mu} ${A_ua} ${cut_inner}                 lj/cut ${cutoff}
pair_style      hybrid                 body/rounded/polyhedron 10 10 ${mu} ${A_ua} ${cut_inner}                 lj/cut ${cutoff}
pair_style      hybrid                 body/rounded/polyhedron 10 10 10 ${A_ua} ${cut_inner}                 lj/cut ${cutoff}
pair_style      hybrid                 body/rounded/polyhedron 10 10 10 1 ${cut_inner}                 lj/cut ${cutoff}
pair_style      hybrid                 body/rounded/polyhedron 10 10 10 1 0.7                 lj/cut ${cutoff}
pair_style      hybrid                 body/rounded/polyhedron 10 10 10 1 0.7                 lj/cut 3.5


pair_coeff      * * body/rounded/polyhedron ${k_n} ${k_na}
pair_coeff      * * body/rounded/polyhedron 100 ${k_na}
pair_coeff      * * body/rounded/polyhedron 100 -20

pair_coeff      1 1 lj/cut ${epsilon} ${sigma}
pair_coeff      1 1 lj/cut 1 ${sigma}
pair_coeff      1 1 lj/cut 1 1

pair_modify     pair lj/cut shift yes


##### simulation settings #########
###################################


comm_modify    vel	yes

neighbor       0.5	bin

neigh_modify   every 1 delay 0 check yes

timestep       0.005


######## fixes ###########
##########################


fix	       1 all nvt/body temp 0.5 0.75 1.0


variable       epsilonWall equal 2*${epsilon}
variable       epsilonWall equal 2*1

variable       cutoffTop   equal   0.7147*${sigma}
variable       cutoffTop   equal   0.7147*1

variable       cutoffLow   equal   3*${sigma}
variable       cutoffLow   equal   3*1


fix            topWall all wall/lj93 zhi EDGE                ${epsilonWall} ${sigma} ${cutoffTop} units box
fix            topWall all wall/lj93 zhi EDGE                2 ${sigma} ${cutoffTop} units box
fix            topWall all wall/lj93 zhi EDGE                2 1 ${cutoffTop} units box
fix            topWall all wall/lj93 zhi EDGE                2 1 0.7147 units box

fix            lowWall all wall/lj93 zlo EDGE                ${epsilonWall} ${sigma} ${cutoffLow} units box
fix            lowWall all wall/lj93 zlo EDGE                2 ${sigma} ${cutoffLow} units box
fix            lowWall all wall/lj93 zlo EDGE                2 1 ${cutoffLow} units box
fix            lowWall all wall/lj93 zlo EDGE                2 1 3 units box


######## computes ########

######## dumps ###########
##########################


dump         image all image 1000 image.*.png type type              zoom 1.0 body type 0 0              view 90 0 size 1920 1080 box yes 0.01

dump         movie all movie 1000 movie.avi type type              zoom 1.0 adiam 10.0 body type 0 0 view 60 15              axes no 1.0 0.01 box yes 0.01 size 1920 1080

dump 	     pos  cubes	 xyz  100 dump.xyz


####### final setup #######
###########################


velocity      	    all create 0.1 78994

thermo_style  	    custom step temp etotal pe ke press vol density

thermo 	      	    100

run_style	    verlet

run 		    1000000
Neighbor list info ...
  update every 1 steps, delay 0 steps, check yes
  max neighbors/atom: 2000, page size: 100000
  master list distance cutoff = 26.4808
  ghost atom cutoff = 26.4808
  binsize = 13.2404, bins = 7 7 13
  3 neighbor lists, perpetual/occasional/extra = 3 0 0
  (1) pair body/rounded/polyhedron, perpetual, skip from (3)
      attributes: half, newton on
      pair build: skip
      stencil: none
      bin: none
  (2) pair lj/cut, perpetual, skip from (3)
      attributes: half, newton on
      pair build: skip
      stencil: none
      bin: none
  (3) neighbor class addition, perpetual
      attributes: half, newton on
      pair build: half/bin/atomonly/newton
      stencil: half/bin/3d/newton
      bin: standard
Per MPI rank memory allocation (min/avg/max) = 6.791 | 56.46 | 91.42 Mbytes
Step Temp TotEng PotEng KinEng Press Volume Density 
       0          0.1  -0.38309148   -0.5330888   0.14999732  0.033721967      1024000       0.0625 
     100    0.1711472 -0.014953146  -0.27166936   0.25671622 -0.021209436      1024000       0.0625 
     200    0.3748167 0.0057915915  -0.55642342   0.56221501 0.0068937545      1024000       0.0625 
     300   0.52568192  0.056987667  -0.73152113    0.7885088 0.0079056342      1024000       0.0625 
     400   0.62502027   0.10834444  -0.82916922   0.93751366  0.010241559      1024000       0.0625 
     500   0.71284937   0.16946368  -0.89979129     1.069255  0.013886392      1024000       0.0625 
     600   0.78808277    0.2340606  -0.94804245     1.182103   0.01783401      1024000       0.0625 
     700   0.85019869   0.29589358  -0.97938168    1.2752753  0.021761321      1024000       0.0625 
     800   0.90320149   0.35890153  -0.99587652     1.354778  0.025280607      1024000       0.0625 
     900   0.95093141   0.41300866    -1.013363    1.4263716  0.027377492      1024000       0.0625 
    1000   0.99138302   0.46414769   -1.0229003     1.487048  0.031097445      1024000       0.0625 
    1100    1.0174864    0.5065724     -1.01963    1.5262024  0.033056581      1024000       0.0625 
    1200    1.0310196   0.51775028   -1.0287516    1.5465018  0.034713159      1024000       0.0625 
    1300    1.0327477   0.51555753   -1.0335363    1.5490938  0.033986507      1024000       0.0625 
    1400    1.0203256   0.49109241   -1.0393687    1.5304611  0.032424435      1024000       0.0625 
    1500    1.0079965   0.45937609   -1.0525917    1.5119677   0.03194873      1024000       0.0625 
    1600   0.99717417   0.43118521   -1.0645493    1.4957346   0.02957327      1024000       0.0625 
    1700   0.99073161   0.41214837   -1.0739225    1.4860709    0.0290886      1024000       0.0625 
    1800   0.98846783   0.40097361   -1.0817017    1.4826753  0.030047544      1024000       0.0625 
    1900   0.99328772   0.40180385   -1.0881011     1.489905  0.030409046      1024000       0.0625 
    2000    1.0021729     0.410872   -1.0923606    1.5032326  0.031527179      1024000       0.0625 
    2100    1.0086805   0.41343853   -1.0995551    1.5129937  0.030107673      1024000       0.0625 
    2200    1.0081149   0.41273496   -1.0994105    1.5121454  0.032531626      1024000       0.0625 
    2300     1.007629   0.40781155    -1.103605    1.5114165  0.030514935      1024000       0.0625 
    2400    1.0038016     0.398764   -1.1069116    1.5056756  0.031013585      1024000       0.0625 
    2500   0.99796533   0.38878824    -1.108133    1.4969213  0.030562993      1024000       0.0625 
    2600    0.9967123    0.3828794   -1.1121623    1.4950417  0.031555585      1024000       0.0625 
    2700   0.99699944   0.37902563   -1.1164468    1.4954725  0.029779008      1024000       0.0625 
    2800   0.99904179   0.38752944   -1.1110065    1.4985359  0.031616888      1024000       0.0625 
    2900     1.006741   0.38284936   -1.1272352    1.5100846   0.03176712      1024000       0.0625 
    3000     1.006485   0.37509106   -1.1346094    1.5097005  0.030872096      1024000       0.0625 
    3100    1.0041455   0.37335002   -1.1328413    1.5061914  0.030501089      1024000       0.0625 
    3200    1.0001341   0.36598569   -1.1341887    1.5001744  0.029373269      1024000       0.0625 
    3300   0.99703672   0.35714737    -1.138381    1.4955284  0.030050103      1024000       0.0625 
    3400    0.9981894   0.35782712   -1.1394302    1.4972574  0.031030129      1024000       0.0625 
    3500   0.99732194   0.35166477   -1.1442914    1.4959562  0.029192439      1024000       0.0625 
    3600   0.99729064   0.35672912   -1.1391801    1.4959093  0.029814465      1024000       0.0625 
    3700    1.0022973   0.36397151   -1.1394476    1.5034191  0.029590549      1024000       0.0625 
    3800    1.0071312   0.36790304   -1.1427668    1.5106698  0.029713071      1024000       0.0625 
    3900    1.0096723   0.37379039   -1.1406911    1.5144815  0.032290447      1024000       0.0625 
    4000    1.0106083   0.37086217   -1.1450232    1.5158854  0.031255802      1024000       0.0625 
    4100    1.0066173   0.36275559   -1.1471434     1.509899  0.029569593      1024000       0.0625 
    4200    1.0013866   0.34748439   -1.1545687    1.5020531  0.029750578      1024000       0.0625 
    4300   0.99717541   0.34208248   -1.1536539    1.4957364  0.029022773      1024000       0.0625 
    4400   0.99330534   0.33456893   -1.1553625    1.4899314  0.028191541      1024000       0.0625 
    4500   0.99516852   0.33389784   -1.1588283    1.4927261  0.029521627      1024000       0.0625 
    4600    1.0011271   0.34394925   -1.1577145    1.5016638  0.029476583      1024000       0.0625 
    4700    1.0041665    0.3477952   -1.1584277    1.5062229  0.030895286      1024000       0.0625 
    4800    1.0112695    0.3553087   -1.1615685    1.5168772  0.030497751      1024000       0.0625 
    4900    1.0093341   0.35393728   -1.1600369    1.5139742  0.030335836      1024000       0.0625 
    5000    1.0056768   0.35328272   -1.1552056    1.5084883  0.030285879      1024000       0.0625 
    5100    1.0026516   0.34426627   -1.1596842    1.5039505  0.030084188      1024000       0.0625 
    5200    1.0008928   0.33854545    -1.162767    1.5013125  0.031423177      1024000       0.0625 
    5300   0.99687093   0.33110065   -1.1641791    1.4952797  0.030146643      1024000       0.0625 
    5400   0.99669895   0.33206167   -1.1629601    1.4950217  0.030842978      1024000       0.0625 
    5500    0.9990467   0.33905142   -1.1594919    1.4985433  0.030544851      1024000       0.0625 
    5600     1.004606    0.3435987   -1.1632834    1.5068821  0.029360536      1024000       0.0625 
    5700    1.0095107   0.34352076   -1.1707182     1.514239  0.031088094      1024000       0.0625 
    5800    1.0085918   0.34729535   -1.1655654    1.5128607   0.03226116      1024000       0.0625 
    5900    1.0043243   0.34142606   -1.1650334    1.5064595  0.031553269      1024000       0.0625 
    6000   0.99800857   0.33806864   -1.1589175    1.4969861  0.029977527      1024000       0.0625 
    6100   0.99644833   0.33515741   -1.1594884    1.4946458  0.030818569      1024000       0.0625 
    6200    1.0002064   0.33531389    -1.164969    1.5002829  0.030328327      1024000       0.0625 
    6300     1.002148   0.33829471   -1.1649004    1.5031951  0.030315913      1024000       0.0625 
    6400    1.0029849   0.33530107   -1.1691495    1.5044506  0.030956279      1024000       0.0625 
    6500    1.0053665     0.339638   -1.1683849    1.5080229  0.032327185      1024000       0.0625 
    6600     1.004126   0.34770616    -1.158456    1.5061621  0.031600333      1024000       0.0625 
    6700    1.0012275   0.34065988   -1.1611546    1.5018145  0.032119568      1024000       0.0625 
    6800    1.0010223   0.33404851   -1.1674582    1.5015067  0.030194701      1024000       0.0625 
    6900    1.0063818   0.34182791   -1.1677179    1.5095458  0.029763835      1024000       0.0625 
    7000    1.0030964   0.33997737   -1.1646404    1.5046177  0.030979371      1024000       0.0625 
    7100    1.0024545   0.34099357   -1.1626614    1.5036549  0.029205653      1024000       0.0625 
    7200    1.0015128   0.34292483   -1.1593175    1.5022423  0.031066186      1024000       0.0625 
    7300    1.0020652   0.34581912   -1.1572518    1.5030709  0.030570163      1024000       0.0625 
    7400    1.0033042   0.34262776   -1.1623016    1.5049294  0.030630465      1024000       0.0625 
    7500    1.0075521   0.34805107   -1.1632501    1.5113012  0.031586726      1024000       0.0625 
    7600    1.0058853   0.35006205    -1.158739    1.5088011  0.030861796      1024000       0.0625 
    7700    1.0046003   0.34706226   -1.1598113    1.5068735  0.030602445      1024000       0.0625 
    7800    1.0046193   0.34716764   -1.1597344     1.506902  0.031109504      1024000       0.0625 
    7900    1.0052957   0.33468342   -1.1732332    1.5079166   0.03019142      1024000       0.0625 
    8000    1.0022404   0.33567529   -1.1676585    1.5033338   0.03178216      1024000       0.0625 
    8100    1.0021201   0.33390061   -1.1692528    1.5031534   0.03089561      1024000       0.0625 
    8200    1.0020666   0.32661979   -1.1764532     1.503073  0.031217921      1024000       0.0625 
    8300    1.0015229   0.32586568   -1.1763918    1.5022575   0.03058891      1024000       0.0625 
    8400    1.0016805   0.32636402   -1.1761299    1.5024939  0.031490181      1024000       0.0625 
    8500    1.0011032   0.32387478   -1.1777532     1.501628  0.031584962      1024000       0.0625 
    8600   0.99991259   0.33152492   -1.1683172    1.4998421  0.031593951      1024000       0.0625 
    8700    1.0054804   0.33129947   -1.1768942    1.5081937  0.030698236      1024000       0.0625 
    8800    1.0048274   0.33657163   -1.1706426    1.5072142  0.030820912      1024000       0.0625 
    8900     1.006887   0.33854387   -1.1717596    1.5103035  0.030403327      1024000       0.0625 
    9000    1.0041794   0.34066678   -1.1655755    1.5062422  0.031981214      1024000       0.0625 
    9100    1.0068788     0.342271   -1.1680203    1.5102913  0.030717013      1024000       0.0625 
    9200    1.0079803   0.34146516   -1.1704783    1.5119435  0.031680351      1024000       0.0625 
    9300    1.0073727   0.33853041   -1.1725016    1.5110321   0.03160085      1024000       0.0625 
    9400    1.0018865   0.34214142   -1.1606616     1.502803  0.031429028      1024000       0.0625 
    9500    1.0002869    0.3324272   -1.1679764    1.5004036  0.029111091      1024000       0.0625 
    9600    1.0043306    0.3425778   -1.1638912     1.506469  0.032824185      1024000       0.0625 
    9700    1.0061905   0.33983327   -1.1694256    1.5092589  0.030881521      1024000       0.0625 
    9800    1.0062097   0.33545449   -1.1738331    1.5092876  0.030259241      1024000       0.0625 
    9900    1.0060235    0.3407722   -1.1682361    1.5090083  0.031250513      1024000       0.0625 
   10000    1.0061492   0.33888263   -1.1703142    1.5091969  0.030229673      1024000       0.0625 
   10100    1.0076924   0.33699666    -1.174515    1.5115116  0.031394606      1024000       0.0625 
   10200    1.0041415   0.33672628    -1.169459    1.5061853  0.030544869      1024000       0.0625 
   10300    1.0007671   0.33121514   -1.1699087    1.5011239   0.02961246      1024000       0.0625 
   10400    1.0040302   0.33649564   -1.1695228    1.5060185  0.032704912      1024000       0.0625 
   10500    1.0036248   0.33550667   -1.1699036    1.5054103  0.031913872      1024000       0.0625 
   10600     1.002903   0.33535794   -1.1689697    1.5043276  0.031119302      1024000       0.0625 
   10700    1.0031995   0.34487364   -1.1598987    1.5047723  0.032167392      1024000       0.0625 
   10800    1.0076253    0.3426564   -1.1687545     1.511411   0.03196462      1024000       0.0625 
   10900    1.0059222   0.34605778   -1.1627985    1.5088563  0.032130584      1024000       0.0625 
   11000    1.0051516    0.3443913   -1.1633091    1.5077004  0.031848445      1024000       0.0625 
   11100    1.0088313    0.3477542   -1.1654657    1.5132199  0.033317494      1024000       0.0625 
   11200    1.0068585   0.34538607   -1.1648747    1.5102608   0.03164851      1024000       0.0625 
   11300    1.0041496   0.33861188   -1.1675857    1.5061976   0.03112602      1024000       0.0625 
   11400    1.0038395   0.34195364   -1.1637788    1.5057324  0.031820644      1024000       0.0625 
   11500     1.003418   0.33846979   -1.1666304    1.5051002  0.032071696      1024000       0.0625 
   11600    1.0031332   0.34972354   -1.1549494     1.504673  0.033968844      1024000       0.0625 
   11700    1.0038312   0.34570197    -1.160018    1.5057199  0.030379626      1024000       0.0625 
   11800    1.0026567   0.34597014    -1.157988    1.5039581   0.03015336      1024000       0.0625 
   11900    1.0046502   0.34880262   -1.1581458    1.5069484  0.031695996      1024000       0.0625 
   12000    1.0114919   0.35357855   -1.1636322    1.5172107  0.031737687      1024000       0.0625 
   12100     1.008319   0.35693963   -1.1555118    1.5124514  0.031310964      1024000       0.0625 
   12200    1.0066757   0.35441451   -1.1555721    1.5099867  0.031902389      1024000       0.0625 
   12300    1.0041945   0.35981647   -1.1464484    1.5062649  0.031818256      1024000       0.0625 
   12400    1.0083805    0.3603253   -1.1522185    1.5125438  0.031518944      1024000       0.0625 
   12500    1.0049567   0.35865167   -1.1487565    1.5074082  0.030094197      1024000       0.0625 
   12600    1.0047635   0.35841523   -1.1487031    1.5071184  0.033484952      1024000       0.0625 
   12700    1.0082032   0.35582542   -1.1564524    1.5122779   0.03208891      1024000       0.0625 
   12800    1.0074927   0.35783373   -1.1533784    1.5112121  0.032470675      1024000       0.0625 
   12900    1.0057696   0.35508384   -1.1535437    1.5086275  0.032763807      1024000       0.0625 
   13000    1.0039277    0.3577491   -1.1481156    1.5058647  0.030927824      1024000       0.0625 
   13100    1.0032505   0.35606057   -1.1487883    1.5048489  0.033592603      1024000       0.0625 
   13200    1.0049743   0.35792551   -1.1495091    1.5074346  0.030859714      1024000       0.0625 
   13300    1.0101644    0.3676767   -1.1475428    1.5152195  0.032913502      1024000       0.0625 
   13400    1.0137981   0.36752269   -1.1531473      1.52067  0.032059532      1024000       0.0625 
   13500    1.0110383   0.36067558   -1.1558549    1.5165304  0.033593938      1024000       0.0625 
   13600    1.0028747   0.35242144   -1.1518638    1.5042852  0.031853796      1024000       0.0625 
   13700    1.0024178   0.35090714   -1.1526927    1.5035999   0.03165461      1024000       0.0625 
   13800    1.0021296   0.34942191   -1.1537457    1.5031676  0.033517378      1024000       0.0625 
   13900   0.99951332   0.34898983   -1.1502534    1.4992432  0.031999574      1024000       0.0625 
   14000    1.0055949   0.35229832   -1.1560672    1.5083655  0.032559119      1024000       0.0625 
   14100    1.0062953   0.35509912   -1.1543169     1.509416  0.031014703      1024000       0.0625 
   14200    1.0112738   0.36123288   -1.1556508    1.5168836  0.032150516      1024000       0.0625 
   14300    1.0136483   0.36372145   -1.1567238    1.5204453  0.031285935      1024000       0.0625 
   14400    1.0077237   0.36427475   -1.1472838    1.5115585  0.032029212      1024000       0.0625 
   14500    1.0061639   0.36157714   -1.1476417    1.5092189  0.031063409      1024000       0.0625 
   14600     1.008473   0.36331214   -1.1493704    1.5126825  0.031989497      1024000       0.0625 
   14700    1.0058166   0.36284973   -1.1458482    1.5086979  0.032034733      1024000       0.0625 
   14800     1.004923   0.37306341   -1.1342941    1.5073575  0.033453174      1024000       0.0625 
   14900    1.0062814   0.37182606   -1.1375691    1.5093952  0.031874901      1024000       0.0625 
   15000    1.0075373   0.37591995    -1.135359     1.511279  0.033318955      1024000       0.0625 
   15100    1.0133307   0.38181752   -1.1381513    1.5199689  0.033569293      1024000       0.0625 
   15200    1.0128449    0.3770173    -1.142223    1.5192403  0.032476914      1024000       0.0625 
   15300    1.0060539   0.36826487    -1.140789    1.5090539   0.03146034      1024000       0.0625 
   15400    1.0054045   0.36870635   -1.1393734    1.5080798   0.03381263      1024000       0.0625 
   15500    1.0027516   0.36587491   -1.1382257    1.5041006  0.032490388      1024000       0.0625 
   15600    1.0044072    0.3641363   -1.1424475    1.5065839  0.031348693      1024000       0.0625 
   15700    1.0045696   0.36831299   -1.1385144    1.5068274  0.032720031      1024000       0.0625 
   15800    1.0064193   0.37181346   -1.1377886    1.5096021   0.03215512      1024000       0.0625 
   15900    1.0132179   0.37765627   -1.1421434    1.5197997  0.033131716      1024000       0.0625 
   16000    1.0107569   0.38539586   -1.1307125    1.5161083  0.032459578      1024000       0.0625 
   16100    1.0108492   0.38845605   -1.1277906    1.5162467  0.032531908      1024000       0.0625 
   16200    1.0079866    0.3889595   -1.1229934    1.5119529  0.033534509      1024000       0.0625 
   16300    1.0078948   0.38634819   -1.1254671    1.5118152  0.031085158      1024000       0.0625 
   16400    1.0069507    0.3864861   -1.1239129     1.510399  0.033037206      1024000       0.0625 
   16500    1.0080053   0.38779792   -1.1241831     1.511981  0.032359891      1024000       0.0625 
   16600    1.0095454   0.39020684   -1.1240842    1.5142911  0.033340974      1024000       0.0625 
   16700    1.0101803   0.39227494   -1.1229685    1.5152434  0.032603715      1024000       0.0625 
   16800    1.0107436   0.39206683   -1.1240215    1.5160883  0.033277642      1024000       0.0625 
   16900    1.0047041   0.39346815    -1.113561    1.5070292  0.033014454      1024000       0.0625 
   17000    1.0055016   0.39116264   -1.1170628    1.5082255  0.032662919      1024000       0.0625 
   17100    1.0094549   0.39319766   -1.1209577    1.5141554   0.03401074      1024000       0.0625 
   17200    1.0103675   0.39417342   -1.1213507    1.5155242  0.032404775      1024000       0.0625 
   17300    1.0085649   0.39608674   -1.1167336    1.5128204  0.032023529      1024000       0.0625 
   17400    1.0055899   0.39620541   -1.1121525    1.5083579   0.03325158      1024000       0.0625 
   17500    1.0053626   0.40286123   -1.1051557    1.5080169  0.033781305      1024000       0.0625 
   17600    1.0084598   0.40062329   -1.1120394    1.5126627  0.032869192      1024000       0.0625 
   17700     1.011623   0.40380709   -1.1136003    1.5174074  0.033650442      1024000       0.0625 
   17800    1.0103527   0.40121781   -1.1142842     1.515502  0.032740281      1024000       0.0625 
   17900    1.0104928   0.40412198   -1.1115901    1.5157121   0.03368613      1024000       0.0625 
   18000    1.0106322   0.40401589   -1.1119053    1.5159212  0.034114484      1024000       0.0625 
   18100    1.0066328   0.39586388   -1.1140584    1.5099223   0.03299159      1024000       0.0625 
   18200    1.0051244   0.39656077   -1.1110989    1.5076597  0.033747334      1024000       0.0625 
   18300    1.0052986   0.39497728   -1.1129438     1.507921   0.03347456      1024000       0.0625 
   18400    1.0029359   0.39642609    -1.107951     1.504377   0.03337304      1024000       0.0625 
   18500    1.0056272   0.40278221   -1.1056316    1.5084138  0.031788522      1024000       0.0625 
   18600    1.0092212   0.41646548   -1.0973393    1.5138048  0.033672774      1024000       0.0625 
   18700    1.0134213   0.41925092   -1.1008539    1.5201048  0.034807655      1024000       0.0625 
   18800    1.0176377   0.42518891   -1.1012404    1.5264293  0.033462002      1024000       0.0625 
   18900     1.016708   0.42289405   -1.1021407    1.5250347  0.033938478      1024000       0.0625 
   19000    1.0133662   0.41854029   -1.1014818    1.5200221  0.034225978      1024000       0.0625 
   19100    1.0089398   0.40986249   -1.1035202    1.5133827  0.033759483      1024000       0.0625 
   19200    0.9988218   0.40157668   -1.0966293     1.498206  0.032034834      1024000       0.0625 
   19300    1.0006676   0.40131972   -1.0996548    1.5009746   0.03361323      1024000       0.0625 
   19400    1.0035686   0.41035483   -1.0949712    1.5053261  0.032883865      1024000       0.0625 
   19500    1.0092003   0.42048024   -1.0932933    1.5137735  0.033385613      1024000       0.0625 
   19600    1.0158128   0.43349466   -1.0901973    1.5236919  0.034710416      1024000       0.0625 
   19700    1.0185145   0.43733415   -1.0904103    1.5277445  0.035321117      1024000       0.0625 
   19800    1.0169434   0.43787498   -1.0875129    1.5253878  0.033615419      1024000       0.0625 
   19900    1.0095232   0.43195177    -1.082306    1.5142577   0.03469427      1024000       0.0625 
   20000    1.0097891   0.43013695   -1.0845197    1.5146567  0.033865957      1024000       0.0625 
   20100    1.0071706    0.4271812   -1.0835477    1.5107289  0.034498591      1024000       0.0625 
   20200    1.0105747   0.42393998    -1.091895    1.5158349  0.032739716      1024000       0.0625 
   20300    1.0072038   0.42068584   -1.0900929    1.5107787  0.034528952      1024000       0.0625 
   20400    1.0069781   0.42113114   -1.0893091    1.5104402  0.035257603      1024000       0.0625 
   20500    1.0069754    0.4217591    -1.088677    1.5104361  0.033941601      1024000       0.0625 
   20600    1.0069014   0.41895152   -1.0913737    1.5103252  0.034712704      1024000       0.0625 
   20700    1.0086677   0.42521228   -1.0877622    1.5129745  0.035514155      1024000       0.0625 
   20800    1.0095279   0.42288175   -1.0913831    1.5142649  0.033328123      1024000       0.0625 
   20900    1.0094741   0.42368156   -1.0905025    1.5141841  0.033323538      1024000       0.0625 
   21000     1.010229   0.42600439    -1.089312    1.5153164  0.034177236      1024000       0.0625 
   21100    1.0089949   0.42891646   -1.0845488    1.5134653  0.033887506      1024000       0.0625 
   21200    1.0120692   0.43149571    -1.086581    1.5180767  0.033867705      1024000       0.0625 
   21300    1.0122376   0.43440196   -1.0839273    1.5183292  0.033526583      1024000       0.0625 
   21400    1.0113061   0.43478595   -1.0821462    1.5169321  0.033277167      1024000       0.0625 
   21500     1.014596   0.43683009   -1.0850368    1.5218669  0.033777068      1024000       0.0625 
   21600      1.01343   0.43589761   -1.0842202    1.5201178  0.034362502      1024000       0.0625 
   21700    1.0091448   0.44067029   -1.0730199    1.5136902  0.033911146      1024000       0.0625 
   21800    1.0068963     0.435795   -1.0745226    1.5103176  0.033909127      1024000       0.0625 
   21900    1.0063743   0.43511931   -1.0744152    1.5095345  0.033265804      1024000       0.0625 
   22000    1.0088379   0.43774412   -1.0754857    1.5132298  0.035067377      1024000       0.0625 
   22100    1.0122653   0.44800813   -1.0703628    1.5183709   0.03567813      1024000       0.0625 
   22200    1.0167553   0.44880643   -1.0762993    1.5251058  0.035673893      1024000       0.0625 
   22300     1.013574   0.44616493   -1.0741689    1.5203338  0.033666942      1024000       0.0625 
   22400    1.0092914   0.44732276   -1.0665874    1.5139101  0.035315558      1024000       0.0625 
   22500    1.0043567   0.44288002   -1.0636282    1.5065082  0.034396825      1024000       0.0625 
   22600    1.0062594   0.44836479   -1.0609973    1.5093621  0.034921712      1024000       0.0625 
   22700    1.0115255   0.45112637   -1.0661348    1.5172611  0.035380608      1024000       0.0625 
   22800    1.0154028   0.45942494   -1.0636521     1.523077  0.035560841      1024000       0.0625 
   22900    1.0170354   0.46212529   -1.0634006    1.5255259  0.034284162      1024000       0.0625 
   23000    1.0148604   0.46235494   -1.0599085    1.5222634  0.035772045      1024000       0.0625 
   23100    1.0144133   0.46070545   -1.0608873    1.5215927  0.035543946      1024000       0.0625 
   23200    1.0098415   0.45057562   -1.0641595    1.5147352  0.033614833      1024000       0.0625 
   23300    1.0082175   0.44485837   -1.0674408    1.5122992  0.034790062      1024000       0.0625 
   23400    1.0047421   0.44412863   -1.0629576    1.5070863  0.035174203      1024000       0.0625 
   23500     1.005275   0.44598767   -1.0618979    1.5078855  0.034736146      1024000       0.0625 
   23600    1.0097242   0.45934852   -1.0552107    1.5145592  0.035731869      1024000       0.0625 
   23700    1.0161039   0.46473393   -1.0593947    1.5241287  0.035655489      1024000       0.0625 
   23800    1.0176555   0.46692229   -1.0595336    1.5264559  0.035473635      1024000       0.0625 
   23900     1.017921   0.46610651   -1.0607478    1.5268543  0.035405038      1024000       0.0625 
   24000    1.0136288   0.46267384   -1.0577422     1.520416  0.035363907      1024000       0.0625 
   24100    1.0072105   0.47101941   -1.0397694    1.5107888  0.035396719      1024000       0.0625 
   24200    1.0057473   0.45812088   -1.0504731     1.508594   0.03399955      1024000       0.0625 
   24300    1.0052761    0.4571753    -1.050712    1.5078873  0.036130766      1024000       0.0625 
   24400    1.0070305   0.47011689    -1.040402    1.5105188  0.037915596      1024000       0.0625 
   24500    1.0141333    0.4773752   -1.0437976    1.5211728  0.037069278      1024000       0.0625 
   24600     1.020282   0.47767873   -1.0527169    1.5303957   0.03571125      1024000       0.0625 
   24700    1.0174458   0.48275009   -1.0433914    1.5261415  0.035535202      1024000       0.0625 
   24800    1.0167535    0.4762195   -1.0488836    1.5251031  0.035075175      1024000       0.0625 
   24900    1.0116234    0.4691548   -1.0482531    1.5174079  0.036391339      1024000       0.0625 
   25000    1.0071015   0.46188099   -1.0487443    1.5106253  0.036348417      1024000       0.0625 
   25100    1.0065891   0.46706155   -1.0427952    1.5098567  0.036788927      1024000       0.0625 
   25200    1.0072556   0.45990398   -1.0509524    1.5108564  0.036019337      1024000       0.0625 
   25300    1.0096878   0.45787602   -1.0566286    1.5145046  0.035592719      1024000       0.0625 
   25400    1.0104494   0.46909706     -1.04655    1.5156471  0.036599474      1024000       0.0625 
   25500    1.0167644   0.47285516   -1.0522642    1.5251194  0.034986169      1024000       0.0625 
   25600    1.0146028   0.47724869   -1.0446284    1.5218771   0.03626661      1024000       0.0625 
   25700    1.0161869   0.47966793   -1.0445852    1.5242531  0.035595019      1024000       0.0625 
   25800    1.0164898    0.4814441   -1.0432633    1.5247074  0.037202057      1024000       0.0625 
   25900    1.0142475   0.47571572   -1.0456284    1.5213441   0.03545856      1024000       0.0625 
   26000    1.0133499   0.47027047   -1.0497272    1.5199977  0.036043847      1024000       0.0625 
   26100    1.0083933   0.46890911   -1.0436538    1.5125629   0.03601603      1024000       0.0625 
   26200    1.0098525   0.46247197   -1.0522797    1.5147517  0.035547883      1024000       0.0625 
   26300    1.0068537   0.46571675   -1.0445368    1.5102535  0.037625551      1024000       0.0625 
   26400     1.014175   0.47419805   -1.0470373    1.5212353  0.037050753      1024000       0.0625 
   26500     1.018036   0.47073468    -1.056292    1.5270267   0.03643191      1024000       0.0625 
   26600    1.0178508   0.47280437   -1.0539446     1.526749  0.035632997      1024000       0.0625 
   26700    1.0122963   0.46913785   -1.0492794    1.5184173  0.036637989      1024000       0.0625 
   26800    1.0115943   0.46827371   -1.0490907    1.5173644  0.037078838      1024000       0.0625 
   26900    1.0114875   0.46536473   -1.0518394    1.5172042  0.035602656      1024000       0.0625 
   27000    1.0122556   0.46726344   -1.0510929    1.5183563  0.036793411      1024000       0.0625 
   27100    1.0092297   0.46927034   -1.0445472    1.5138175  0.036586685      1024000       0.0625 
   27200    1.0087295   0.47552912   -1.0375381    1.5130672  0.036027701      1024000       0.0625 
   27300    1.0136138   0.48380179   -1.0365918    1.5203936  0.037547563      1024000       0.0625 
   27400    1.0184003   0.48675506   -1.0408181    1.5275732  0.036058303      1024000       0.0625 
   27500    1.0185978   0.48653239    -1.041337    1.5278694  0.036206458      1024000       0.0625 
   27600     1.019088   0.49155894   -1.0370458    1.5286047  0.037828833      1024000       0.0625 
   27700    1.0160895   0.47924817   -1.0448588     1.524107  0.035726358      1024000       0.0625 
   27800    1.0079931   0.47998513   -1.0319775    1.5119626  0.035734007      1024000       0.0625 
   27900    1.0085724   0.47327677   -1.0395549    1.5128316   0.03723819      1024000       0.0625 
   28000    1.0119546   0.47509573   -1.0428091    1.5179048  0.036377033      1024000       0.0625 
   28100    1.0135156   0.47766969   -1.0425766    1.5202463  0.038074661      1024000       0.0625 
   28200    1.0132393    0.4762222   -1.0436096    1.5198318  0.036936526      1024000       0.0625 
   28300    1.0118842   0.48496551   -1.0328336    1.5177992  0.037483507      1024000       0.0625 
   28400    1.0124983   0.48419584   -1.0345245    1.5187204   0.03734819      1024000       0.0625 
   28500    1.0126975   0.48646434   -1.0325548    1.5190191  0.036125966      1024000       0.0625 
   28600    1.0195212   0.50630372   -1.0229508    1.5292545  0.036444393      1024000       0.0625 
   28700    1.0203251   0.50251171   -1.0279487    1.5304604  0.037057057      1024000       0.0625 
   28800    1.0209655   0.50210624   -1.0293146    1.5314209  0.038282746      1024000       0.0625 
   28900    1.0165275   0.49934449   -1.0254195     1.524764  0.040193195      1024000       0.0625 
   29000     1.010853   0.48574211   -1.0305103    1.5162524  0.038159107      1024000       0.0625 
   29100    1.0077367   0.47777711    -1.033801    1.5115781  0.037601946      1024000       0.0625 
   29200    1.0080555   0.47474024   -1.0373161    1.5120563  0.036024436      1024000       0.0625 
   29300    1.0072239   0.47887707   -1.0319318    1.5108088  0.035171125      1024000       0.0625 
   29400    1.0130976   0.48478571   -1.0348335    1.5196192  0.037241857      1024000       0.0625 
   29500     1.020502   0.49341089   -1.0373147    1.5307256  0.035948804      1024000       0.0625 
   29600     1.021704   0.49566582   -1.0368629    1.5325287  0.037032449      1024000       0.0625 
   29700      1.01682   0.50019814   -1.0250047    1.5252028  0.037716276      1024000       0.0625 
   29800    1.0160736   0.49513464   -1.0289485    1.5240832  0.037578003      1024000       0.0625 
   29900    1.0159768   0.48845874   -1.0354792     1.523938  0.036319488      1024000       0.0625 
   30000    1.0121361   0.48319494   -1.0349821     1.518177  0.035995104      1024000       0.0625 
   30100    1.0140196   0.47973068   -1.0412716    1.5210022  0.036648329      1024000       0.0625 
   30200    1.0108164   0.47901517   -1.0371824    1.5161975  0.036547356      1024000       0.0625 
   30300    1.0101862    0.4817069   -1.0335454    1.5152523  0.036921785      1024000       0.0625 
   30400    1.0121469   0.48056038   -1.0376328    1.5181932    0.0368163      1024000       0.0625 
   30500    1.0131911   0.49025199   -1.0295076    1.5197596  0.038137166      1024000       0.0625 
   30600    1.0210911   0.50103144   -1.0305779    1.5316093  0.037429876      1024000       0.0625 
   30700     1.025352   0.51071649    -1.027284    1.5380005  0.038672557      1024000       0.0625 
   30800    1.0225538   0.50388274   -1.0299206    1.5338034  0.036903607      1024000       0.0625 
   30900    1.0184928    0.4945652   -1.0331468     1.527712  0.036942295      1024000       0.0625 
   31000    1.0092928   0.48721043   -1.0267017    1.5139121   0.03672494      1024000       0.0625 
   31100    1.0073963   0.48246746      -1.0286    1.5110674  0.036380799      1024000       0.0625 
   31200    1.0066054   0.47991956   -1.0299616    1.5098812  0.038253085      1024000       0.0625 
   31300    1.0098905   0.49008741   -1.0247213    1.5148087  0.038235718      1024000       0.0625 
   31400    1.0156638   0.49655991   -1.0269087    1.5234686  0.037779919      1024000       0.0625 
   31500    1.0220175    0.5067082   -1.0262907    1.5329989  0.037977797      1024000       0.0625 
   31600    1.0233317   0.51161073   -1.0233595    1.5349702  0.038053992      1024000       0.0625 
   31700    1.0220788   0.51186285   -1.0212279    1.5330908  0.037614736      1024000       0.0625 
   31800    1.0186184   0.50470796   -1.0231924    1.5279003    0.0367335      1024000       0.0625 
   31900    1.0137109   0.50034621   -1.0201929    1.5205391  0.039051915      1024000       0.0625 
   32000    1.0108714   0.49306483   -1.0232151      1.51628  0.036725269      1024000       0.0625 
   32100    1.0112345   0.48912767    -1.027697    1.5168247  0.038715339      1024000       0.0625 
   32200    1.0130995   0.49120045   -1.0284217    1.5196222  0.038993968      1024000       0.0625 
   32300    1.0139306   0.49815896   -1.0227098    1.5208688  0.038736405      1024000       0.0625 
   32400    1.0162262   0.49738201   -1.0269301    1.5243121  0.038686345      1024000       0.0625 
   32500    1.0182196   0.50597598   -1.0213262    1.5273022  0.037475324      1024000       0.0625 
   32600    1.0177976   0.51028841   -1.0163807    1.5266691  0.038437939      1024000       0.0625 
   32700    1.0216502   0.50750076   -1.0249472     1.532448  0.038664925      1024000       0.0625 
   32800    1.0171787   0.50687577    -1.018865    1.5257408  0.037356456      1024000       0.0625 
   32900    1.0130897   0.51233501   -1.0072725    1.5196075  0.039549328      1024000       0.0625 
   33000    1.0148319   0.50529686   -1.0169238    1.5222206  0.037526048      1024000       0.0625 
   33100    1.0147405   0.50613709   -1.0159465    1.5220836  0.037984834      1024000       0.0625 
   33200    1.0165994   0.50559034   -1.0192816    1.5248719  0.036643645      1024000       0.0625 
   33300    1.0171998   0.51187482   -1.0138976    1.5257725  0.038511198      1024000       0.0625 
   33400    1.0178836   0.50743658   -1.0193616    1.5267982  0.037574782      1024000       0.0625 
   33500    1.0161308   0.50831296    -1.015856    1.5241689  0.039322318      1024000       0.0625 
   33600     1.018498   0.51280652   -1.0149132    1.5277197  0.037979413      1024000       0.0625 
   33700    1.0158914   0.50605107   -1.0177588    1.5238099  0.037390001      1024000       0.0625 
   33800    1.0183862   0.50499288   -1.0225592     1.527552   0.03920033      1024000       0.0625 
   33900     1.016141   0.50075267   -1.0234316    1.5241843  0.038043875      1024000       0.0625 
   34000    1.0137901   0.49653148   -1.0241265    1.5206579  0.037853348      1024000       0.0625 
   34100    1.0122643   0.49490713   -1.0234622    1.5183693  0.038753511      1024000       0.0625 
   34200     1.015189   0.49724299   -1.0255134    1.5227564  0.036739027      1024000       0.0625 
   34300    1.0171948   0.50324516   -1.0225198    1.5257649   0.03688837      1024000       0.0625 
   34400    1.0177921   0.50751484    -1.019146    1.5266609  0.039225322      1024000       0.0625 
   34500     1.018894   0.51013643   -1.0181772    1.5283137  0.037371005      1024000       0.0625 
   34600    1.0171752   0.51094017   -1.0147953    1.5257355  0.039378623      1024000       0.0625 
   34700    1.0193187   0.50913616   -1.0198146    1.5289507  0.038757754      1024000       0.0625 
   34800    1.0154754   0.50388923   -1.0192967    1.5231859  0.037127908      1024000       0.0625 
   34900    1.0135194   0.50463834   -1.0156136    1.5202519   0.03741673      1024000       0.0625 
   35000    1.0170027   0.51426048   -1.0112164    1.5254768  0.037872368      1024000       0.0625 
   35100    1.0181029   0.51005002   -1.0170771    1.5271271  0.038308838      1024000       0.0625 
   35200     1.018775   0.51471326   -1.0134219    1.5281352  0.037312055      1024000       0.0625 
   35300    1.0186872    0.5167892   -1.0112143    1.5280035  0.037425467      1024000       0.0625 
   35400    1.0185996   0.52003348   -1.0078387    1.5278722  0.039124281      1024000       0.0625 
   35500    1.0205716   0.51620471   -1.0146253      1.53083  0.036908851      1024000       0.0625 
   35600     1.020099   0.51861046   -1.0115108    1.5301212  0.038069536      1024000       0.0625 
   35700    1.0177683   0.51315366   -1.0134715    1.5266252  0.039457426      1024000       0.0625 
   35800    1.0159911   0.50550072   -1.0184587    1.5239594  0.038133006      1024000       0.0625 
   35900    1.0172115   0.51210001     -1.01369      1.52579  0.037584422      1024000       0.0625 
   36000    1.0129512    0.5020304   -1.0173693    1.5193997  0.039367045      1024000       0.0625 
   36100    1.0136433   0.50436586    -1.016072    1.5204378  0.038183148      1024000       0.0625 
   36200    1.0152993   0.50431159   -1.0186101    1.5229217  0.037251606      1024000       0.0625 
   36300     1.016586   0.50946196   -1.0153897    1.5248517  0.038476771      1024000       0.0625 
   36400    1.0197025    0.5151497   -1.0143768    1.5295265  0.039780732      1024000       0.0625 
   36500    1.0207547   0.51740446   -1.0137002    1.5311047  0.037323526      1024000       0.0625 
   36600    1.0183242   0.52202691    -1.005432     1.527459  0.038300483      1024000       0.0625 
   36700    1.0178926   0.51965652   -1.0071552    1.5268117  0.037918788      1024000       0.0625 
   36800    1.0171156    0.5168055   -1.0088407    1.5256462  0.037385779      1024000       0.0625 
   36900    1.0199492   0.52141957    -1.008477    1.5298965  0.038099168      1024000       0.0625 
   37000    1.0205973   0.52177225   -1.0090964    1.5308687  0.038639712      1024000       0.0625 
   37100     1.018755    0.5126037   -1.0155015    1.5281052  0.038847138      1024000       0.0625 
   37200    1.0153105   0.51181131   -1.0111272    1.5229385  0.039591771      1024000       0.0625 
   37300    1.0153739    0.5075639   -1.0154697    1.5230336  0.037573652      1024000       0.0625 
   37400    1.0157086   0.50918581   -1.0143498    1.5235356  0.039218989      1024000       0.0625 
   37500      1.01616    0.5083526   -1.0158601    1.5242127  0.038352418      1024000       0.0625 
   37600    1.0162228   0.51497142   -1.0093355    1.5243069  0.038488308      1024000       0.0625 
   37700    1.0164091   0.51968738    -1.004899    1.5245864  0.037279591      1024000       0.0625 
   37800    1.0215479   0.52780568   -1.0044887    1.5322944  0.037964232      1024000       0.0625 
   37900    1.0233287   0.52833359   -1.0066321    1.5349657  0.037842762      1024000       0.0625 
   38000    1.0258727   0.53435968   -1.0044219    1.5387816  0.038984401      1024000       0.0625 
   38100    1.0224703   0.53122654   -1.0024516    1.5336781  0.038580437      1024000       0.0625 
   38200    1.0191046   0.52561867   -1.0030109    1.5286296   0.03969689      1024000       0.0625 
   38300     1.016751   0.51869695   -1.0064023    1.5250992  0.038467441      1024000       0.0625 
   38400    1.0132526    0.5121478    -1.007704    1.5198518   0.03676997      1024000       0.0625 
   38500    1.0137775   0.51679774   -1.0038414    1.5206391  0.037547452      1024000       0.0625 
   38600    1.0190215   0.51967799    -1.008827     1.528505  0.038732985      1024000       0.0625 
   38700    1.0226466   0.52788557    -1.006057    1.5339425  0.038103901      1024000       0.0625 
   38800    1.0238598   0.53525846   -1.0005038    1.5357622  0.038860491      1024000       0.0625 
   38900    1.0244968   0.53675619  -0.99996164    1.5367178  0.039139985      1024000       0.0625 
   39000    1.0201578   0.53331734  -0.99689205    1.5302094  0.038337535      1024000       0.0625 
   39100     1.016791   0.52673246  -0.99842686    1.5251593  0.037793479      1024000       0.0625 
   39200    1.0143107   0.52698785  -0.99445106    1.5214389  0.037806056      1024000       0.0625 
   39300    1.0157042   0.52453702  -0.99899215    1.5235292  0.037931331      1024000       0.0625 
   39400     1.017486   0.53350565   -0.9926961    1.5262017   0.03787503      1024000       0.0625 
   39500    1.0196387    0.5354606  -0.99397012    1.5294307  0.039264122      1024000       0.0625 
   39600    1.0207857     0.536819  -0.99433218    1.5311512  0.039683295      1024000       0.0625 
   39700    1.0219787   0.54413084   -0.9888099    1.5329407  0.039332432      1024000       0.0625 
   39800     1.023439   0.54336096   -0.9917702    1.5351312  0.038514289      1024000       0.0625 
   39900    1.0221836   0.55146187  -0.98178613     1.533248  0.039611634      1024000       0.0625 
   40000    1.0220798   0.54543598   -0.9876563    1.5330923  0.039819059      1024000       0.0625 
   40100    1.0188712   0.54222929  -0.98605025    1.5282795  0.039116951      1024000       0.0625 
   40200    1.0173748   0.53759562  -0.98843934     1.526035  0.039379538      1024000       0.0625 
   40300    1.0177142   0.53534001  -0.99120409    1.5265441  0.037551579      1024000       0.0625 
   40400    1.0186012   0.53303148  -0.99484301    1.5278745  0.038144694      1024000       0.0625 
   40500    1.0168075    0.5337269  -0.99145706     1.525184  0.039561667      1024000       0.0625 
   40600    1.0183715   0.53559485  -0.99193507    1.5275299  0.036794827      1024000       0.0625 
   40700     1.018941   0.53838197  -0.99000228    1.5283843  0.037869501      1024000       0.0625 
   40800    1.0206574   0.54350033  -0.98745849    1.5309588  0.039455355      1024000       0.0625 
   40900    1.0263196   0.54536655  -0.99408537    1.5394519  0.038701446      1024000       0.0625 
   41000    1.0266986   0.54822555  -0.99179487    1.5400204  0.040577323      1024000       0.0625 
   41100    1.0227093   0.53801518  -0.99602142    1.5340366  0.040255327      1024000       0.0625 
   41200    1.0160848   0.53207357  -0.99202646       1.5241   0.03732452      1024000       0.0625 
   41300    1.0117381   0.53227086  -0.98530914      1.51758  0.038599019      1024000       0.0625 
   41400    1.0152538   0.52996888  -0.99288468    1.5228536  0.037987727      1024000       0.0625 
   41500     1.018915   0.54113347  -0.98721179    1.5283453  0.039462146      1024000       0.0625 
   41600    1.0211585   0.54819065  -0.98351973    1.5317104   0.03846551      1024000       0.0625 
   41700    1.0238536   0.55423695  -0.98151606     1.535753  0.038498019      1024000       0.0625 
   41800    1.0292932    0.5645728  -0.97933941    1.5439122  0.039590097      1024000       0.0625 
   41900    1.0277949   0.56355139  -0.97811346    1.5416649  0.040924703      1024000       0.0625 
   42000    1.0242167   0.55686046  -0.97943721    1.5362977  0.039181415      1024000       0.0625 
   42100    1.0197527   0.55020892  -0.97939277    1.5296017  0.040598698      1024000       0.0625 
   42200    1.0149411    0.5396737  -0.98271073    1.5223844  0.038039127      1024000       0.0625 
   42300    1.0163223   0.53912765  -0.98532854    1.5244562  0.037914352      1024000       0.0625 
   42400    1.0183507   0.53939837   -0.9881004    1.5274988  0.037626582      1024000       0.0625 
   42500    1.0195566   0.54885718  -0.98045039    1.5293076  0.039478468      1024000       0.0625 
   42600     1.025156   0.55792882  -0.97977766    1.5377065  0.040191437      1024000       0.0625 
   42700     1.025261   0.55222902  -0.98563506    1.5378641  0.038963551      1024000       0.0625 
   42800    1.0226419   0.55259634  -0.98133918    1.5339355  0.038271932      1024000       0.0625 
   42900    1.0215553   0.54939108  -0.98291456    1.5323056  0.037625863      1024000       0.0625 
   43000     1.021314   0.54776181  -0.98418179    1.5319436  0.039175345      1024000       0.0625 
   43100    1.0182715   0.54262514  -0.98475491    1.5273801  0.037919512      1024000       0.0625 
   43200    1.0187023   0.54370801  -0.98431816    1.5280262  0.038526407      1024000       0.0625 
   43300    1.0209115   0.54690441  -0.98443551    1.5313399  0.039366126      1024000       0.0625 
   43400    1.0196058    0.5457855  -0.98359583    1.5293813  0.038073498      1024000       0.0625 
   43500    1.0189587   0.55786757  -0.97054317    1.5284107  0.040008867      1024000       0.0625 
   43600    1.0206948   0.55751294  -0.97350197    1.5310149  0.039808551      1024000       0.0625 
   43700    1.0240643   0.55419041  -0.98187858     1.536069  0.039496285      1024000       0.0625 
   43800    1.0248671   0.56325283  -0.97402036    1.5372732  0.041058414      1024000       0.0625 
   43900    1.0209987   0.55390687   -0.9775639    1.5314708   0.03845894      1024000       0.0625 
   44000    1.0236648   0.55263548  -0.98283429    1.5354698  0.039307639      1024000       0.0625 
   44100     1.022369   0.54666198  -0.98686418    1.5335262   0.03969804      1024000       0.0625 
   44200     1.015616   0.54127322  -0.98212353    1.5233967  0.038033728      1024000       0.0625 
   44300    1.0161971   0.54198665  -0.98228179    1.5242684  0.036366694      1024000       0.0625 
   44400    1.0196962   0.55120697  -0.97831007     1.529517  0.038911718      1024000       0.0625 
   44500    1.0261634    0.5609988  -0.97821882    1.5392176  0.038804971      1024000       0.0625 
   44600    1.0278104   0.56428631   -0.9774018    1.5416881  0.037888797      1024000       0.0625 
   44700    1.0310097   0.56730248   -0.9791844    1.5464869  0.039164414      1024000       0.0625 
   44800    1.0266409   0.55561955  -0.98431429    1.5399338  0.038771626      1024000       0.0625 
   44900    1.0227749   0.55278961  -0.98134536     1.534135  0.039328609      1024000       0.0625 
   45000    1.0162491   0.55169925  -0.97264718    1.5243464  0.039581242      1024000       0.0625 
   45100    1.0142848   0.53976129  -0.98163874       1.5214  0.037743747      1024000       0.0625 
   45200    1.0178022   0.54564302  -0.98103305    1.5266761  0.037341471      1024000       0.0625 
   45300    1.0252155   0.55452884  -0.98326701    1.5377959  0.038577042      1024000       0.0625 
   45400    1.0271969   0.56118413  -0.97958369    1.5407678  0.039695571      1024000       0.0625 
   45500    1.0252363   0.55832121  -0.97950575     1.537827   0.03848009      1024000       0.0625 
   45600    1.0229122   0.55883314  -0.97550777    1.5343409  0.039243405      1024000       0.0625 
   45700    1.0212782   0.55890867  -0.97298133      1.53189  0.038136897      1024000       0.0625 
   45800    1.0231814   0.56372668  -0.97101794    1.5347446  0.038288422      1024000       0.0625 
   45900      1.02359    0.5620422  -0.97331544    1.5353576  0.038459407      1024000       0.0625 
   46000    1.0220028   0.55806256  -0.97491428    1.5329768  0.038456772      1024000       0.0625 
   46100    1.0222564   0.56052327  -0.97283389    1.5333572   0.03896943      1024000       0.0625 
   46200    1.0207283   0.56210272  -0.96896233    1.5310651  0.038134248      1024000       0.0625 
   46300    1.0223794   0.56406959  -0.96947209    1.5335417  0.038900279      1024000       0.0625 
   46400    1.0256849   0.57157153  -0.96692835    1.5384999  0.038137514      1024000       0.0625 
   46500    1.0233447   0.57333316  -0.96165649    1.5349896  0.039291739      1024000       0.0625 
   46600    1.0253502   0.57490157  -0.96309632    1.5379979  0.039106772      1024000       0.0625 
   46700    1.0248294    0.5794326  -0.95778411    1.5372167  0.039833559      1024000       0.0625 
   46800    1.0221998   0.58094696  -0.95232531    1.5332723  0.040786758      1024000       0.0625 
   46900     1.023638   0.57692728  -0.95850232    1.5354296  0.039042798      1024000       0.0625 
   47000    1.0228655   0.57940431  -0.95486647    1.5342708  0.039416748      1024000       0.0625 
   47100    1.0254434   0.58228526  -0.95585233    1.5381376  0.039806283      1024000       0.0625 
   47200    1.0228431   0.57889292  -0.95534428    1.5342372  0.038653935      1024000       0.0625 
   47300    1.0247511   0.57882019  -0.95827903    1.5370992  0.039553751      1024000       0.0625 
   47400    1.0226589   0.57388091  -0.96007998    1.5339609    0.0393117      1024000       0.0625 
   47500    1.0177082   0.57243172  -0.95410333     1.526535  0.040221301      1024000       0.0625 
   47600    1.0185472   0.57218513  -0.95560836    1.5277935  0.038523611      1024000       0.0625 
   47700    1.0220405     0.572303  -0.96073035    1.5330334  0.037067142      1024000       0.0625 
   47800    1.0275054   0.57776896  -0.96346168    1.5412306  0.039043571      1024000       0.0625 
   47900    1.0288539   0.58104551  -0.96220777    1.5432533  0.037656686      1024000       0.0625 
   48000    1.0275214   0.58858982  -0.95266474    1.5412546    0.0395403      1024000       0.0625 
   48100    1.0259229   0.58608209  -0.95277476    1.5388568  0.040010938      1024000       0.0625 
   48200    1.0258637   0.58236477  -0.95640333    1.5387681  0.039997746      1024000       0.0625 
   48300    1.0234792   0.57578681  -0.95940458    1.5351914  0.039116205      1024000       0.0625 
   48400    1.0210692   0.57174374  -0.95983264    1.5315764  0.038392543      1024000       0.0625 
   48500    1.0195179   0.57057003  -0.95867954    1.5292496  0.037853345      1024000       0.0625 
   48600    1.0221212   0.57442421   -0.9587302    1.5331544  0.038166489      1024000       0.0625 
   48700    1.0214989    0.5764665  -0.95575446     1.532221   0.03978707      1024000       0.0625 
   48800     1.026037   0.58608866   -0.9529393     1.539028  0.039251868      1024000       0.0625 
   48900    1.0288652   0.58891321  -0.95435698    1.5432702  0.039509301      1024000       0.0625 
   49000    1.0304983   0.58828865   -0.9574312    1.5457198  0.039124555      1024000       0.0625 
   49100    1.0302952   0.58339618  -0.96201903    1.5454152  0.038625851      1024000       0.0625 
   49200    1.0242742   0.57826545  -0.95811842    1.5363839  0.039916732      1024000       0.0625 
   49300    1.0216665   0.57475933  -0.95771312    1.5324724  0.039319785      1024000       0.0625 
   49400    1.0198593   0.57437998  -0.95538161    1.5297616  0.038604844      1024000       0.0625 
   49500    1.0206064   0.57738034  -0.95350191    1.5308823  0.039626755      1024000       0.0625 
   49600    1.0241029   0.58017882  -0.95594808    1.5361269  0.038860172      1024000       0.0625 
   49700    1.0263903   0.58530943  -0.95424852     1.539558   0.03941786      1024000       0.0625 
   49800    1.0253392   0.58936895  -0.94861233    1.5379813  0.040461808      1024000       0.0625 
   49900    1.0240704   0.58847146  -0.94760667    1.5360781  0.039579964      1024000       0.0625 
   50000    1.0246006   0.58549791  -0.95137551    1.5368734  0.038551256      1024000       0.0625 
   50100    1.0251519   0.58645565  -0.95124474    1.5377004  0.039039457      1024000       0.0625 
   50200    1.0268888   0.59503586  -0.94526988    1.5403057  0.039748545      1024000       0.0625 
   50300    1.0294252   0.59699262  -0.94711767    1.5441103  0.041095528      1024000       0.0625 
   50400    1.0271466   0.58959697  -0.95109544    1.5406924  0.040073621      1024000       0.0625 
   50500    1.0240219   0.58167608  -0.95432934    1.5360054  0.038479843      1024000       0.0625 
   50600    1.0203894   0.57588292  -0.95467388    1.5305568  0.038671643      1024000       0.0625 
   50700    1.0204626   0.58323204  -0.94743449    1.5306665  0.039733834      1024000       0.0625 
   50800    1.0236325   0.58626661  -0.94915465    1.5354213  0.039027794      1024000       0.0625 
   50900    1.0253434   0.58933235  -0.94865526    1.5379876  0.038611065      1024000       0.0625 
   51000    1.0288018   0.59158323  -0.95159197    1.5431752  0.038385898      1024000       0.0625 
   51100    1.0302391   0.59807263  -0.94725839     1.545331  0.039700745      1024000       0.0625 
   51200    1.0267779     0.593188  -0.94695141    1.5401394  0.038850463      1024000       0.0625 
   51300    1.0262371   0.59877022  -0.94055794    1.5393282  0.040046915      1024000       0.0625 
   51400    1.0257002   0.59456994  -0.94395285    1.5385228  0.040013737      1024000       0.0625 
   51500    1.0250918    0.5934962  -0.94411402    1.5376102  0.038449802      1024000       0.0625 
   51600    1.0252877   0.58723074  -0.95067337    1.5379041  0.039298223      1024000       0.0625 
   51700    1.0228244   0.59431982  -0.93988938    1.5342092  0.039750541      1024000       0.0625 
   51800    1.0221545   0.59225981  -0.94094459    1.5332044  0.041212791      1024000       0.0625 
   51900    1.0247959   0.59147192  -0.94569447    1.5371664  0.039374981      1024000       0.0625 
   52000    1.0229964   0.59402738  -0.94043987    1.5344673  0.038772557      1024000       0.0625 
   52100    1.0282935   0.59892858  -0.94348417    1.5424128  0.039721999      1024000       0.0625 
   52200    1.0315128   0.60796619   -0.9392754    1.5472416  0.040054843      1024000       0.0625 
   52300    1.0305267   0.60294411  -0.94281836    1.5457625  0.040362685      1024000       0.0625 
   52400    1.0296245   0.60604704  -0.93836208    1.5444091  0.039395365      1024000       0.0625 
   52500    1.0263638   0.59325062  -0.94626764    1.5395183  0.038520359      1024000       0.0625 
   52600     1.022078   0.59842262  -0.93466706    1.5330897  0.039914803      1024000       0.0625 
   52700    1.0220917   0.59130926  -0.94180084    1.5331101  0.039507453      1024000       0.0625 
   52800    1.0258537   0.59574595  -0.94300713    1.5387531  0.038772288      1024000       0.0625 
   52900    1.0271986   0.60103657  -0.93973382    1.5407704   0.03894664      1024000       0.0625 
   53000    1.0306706   0.60376643  -0.94221188    1.5459783  0.038961391      1024000       0.0625 
   53100    1.0310787   0.60311605  -0.94347441    1.5465905  0.039393419      1024000       0.0625 
   53200    1.0298831   0.60229673  -0.94250039    1.5447971  0.037617711      1024000       0.0625 
   53300    1.0261244   0.60289073  -0.93626835    1.5391591  0.040442836      1024000       0.0625 
   53400    1.0300724   0.60622744  -0.93885352     1.545081  0.039092316      1024000       0.0625 
   53500    1.0271539    0.6041092  -0.93659415    1.5407034  0.039551914      1024000       0.0625 
   53600    1.0285074   0.60342982  -0.93930375    1.5427336  0.039336274      1024000       0.0625 
   53700    1.0254311   0.59885119  -0.93926804    1.5381192  0.038365685      1024000       0.0625 
   53800    1.0261899   0.59546267  -0.94379472    1.5392574  0.039636475      1024000       0.0625 
   53900    1.0274522   0.59575731  -0.94539354    1.5411509  0.038680236      1024000       0.0625 
   54000     1.029418   0.60371895  -0.94038045    1.5440994  0.038810571      1024000       0.0625 
   54100    1.0304519   0.60704779  -0.93860251    1.5456503  0.041423131      1024000       0.0625 
   54200    1.0291862    0.6010292  -0.94272256    1.5437518  0.039973668      1024000       0.0625 
   54300    1.0265986   0.60094589  -0.93892457    1.5398705  0.039477268      1024000       0.0625 
   54400    1.0267203   0.59902241  -0.94103054     1.540053  0.038315398      1024000       0.0625 
   54500    1.0332108   0.59918546  -0.95060303    1.5497885  0.040086963      1024000       0.0625 
   54600    1.0317177   0.60153545   -0.9460135    1.5475489  0.041010857      1024000       0.0625 
   54700    1.0314163   0.59750379  -0.94959307    1.5470969  0.038988246      1024000       0.0625 
   54800    1.0271542    0.5975177  -0.94318612    1.5407038  0.040051814      1024000       0.0625 
   54900     1.026812   0.59970296  -0.94048751    1.5401905  0.038365213      1024000       0.0625 
   55000     1.023521    0.5948617  -0.94039232     1.535254  0.039464734      1024000       0.0625 
   55100    1.0248205    0.5956283  -0.94157506    1.5372034  0.039908948      1024000       0.0625 
   55200    1.0271681   0.60606512  -0.93465959    1.5407247  0.041253102      1024000       0.0625 
   55300    1.0327573   0.60726392   -0.9418443    1.5491082   0.03825218      1024000       0.0625 
   55400    1.0327293   0.60999944  -0.93906692    1.5490664  0.040145734      1024000       0.0625 
   55500    1.0326667   0.61038561  -0.93858682    1.5489724  0.041270919      1024000       0.0625 
   55600    1.0319108   0.60390345  -0.94393507    1.5478385  0.040467903      1024000       0.0625 
   55700    1.0326085     0.604739  -0.94414609    1.5488851   0.03963063      1024000       0.0625 
   55800    1.0267192   0.60456845  -0.93548279    1.5400512  0.040123676      1024000       0.0625 
   55900    1.0272389    0.5982712   -0.9425596    1.5408308  0.039293152      1024000       0.0625 
   56000    1.0280482   0.59698062  -0.94506415    1.5420448  0.039089694      1024000       0.0625 
   56100    1.0260889   0.60137345  -0.93773238    1.5391058   0.03946373      1024000       0.0625 
   56200    1.0278561   0.60193319  -0.93982339    1.5417566  0.040428248      1024000       0.0625 
   56300    1.0269037    0.6004513   -0.9398767     1.540328   0.04040499      1024000       0.0625 
   56400    1.0273224   0.60137899  -0.93957704     1.540956  0.039399787      1024000       0.0625 
   56500    1.0303963   0.60349977  -0.94206708    1.5455668  0.039684094      1024000       0.0625 
   56600    1.0336171   0.61145808  -0.93893992     1.550398  0.040312438      1024000       0.0625 
   56700    1.0305118   0.60325074   -0.9424893      1.54574  0.038938091      1024000       0.0625 
   56800    1.0285643   0.60270909  -0.94010979    1.5428189  0.039894854      1024000       0.0625 
   56900    1.0284396    0.5994287  -0.94320321    1.5426319  0.039588294      1024000       0.0625 
   57000    1.0306727    0.5998714  -0.94610999    1.5459814  0.038137583      1024000       0.0625 
   57100    1.0328476   0.60547117  -0.94377254    1.5492437  0.039966123      1024000       0.0625 
   57200    1.0284591   0.60038122  -0.94227986    1.5426611   0.04040618      1024000       0.0625 
   57300    1.0278513   0.59516337  -0.94658607    1.5417494   0.03920406      1024000       0.0625 
   57400    1.0280433   0.59331724  -0.94872015    1.5420374  0.039343164      1024000       0.0625 
   57500    1.0257318   0.60023508  -0.93833511    1.5385702  0.038922138      1024000       0.0625 
   57600    1.0303388   0.59945301  -0.94602765    1.5454807  0.038621867      1024000       0.0625 
   57700    1.0313186   0.60489328  -0.94205706    1.5469503  0.039789718      1024000       0.0625 
   57800    1.0336439   0.61688566   -0.9335525    1.5504382  0.042506165      1024000       0.0625 
   57900    1.0310472   0.60723973  -0.93930354    1.5465433  0.039917871      1024000       0.0625 
   58000    1.0284908   0.61077134  -0.93193732    1.5427087  0.040052541      1024000       0.0625 
   58100    1.0282453   0.60407334  -0.93826703    1.5423404  0.040435772      1024000       0.0625 
   58200    1.0312652   0.60572249  -0.94114773    1.5468702  0.039182083      1024000       0.0625 
   58300     1.027818   0.60373086   -0.9379686    1.5416995  0.039309302      1024000       0.0625 
   58400    1.0319882    0.6157173  -0.93223738    1.5479547  0.042025402      1024000       0.0625 
   58500    1.0331962   0.61397497  -0.93579162    1.5497666  0.040004505      1024000       0.0625 
   58600    1.0300453   0.60644536  -0.93859494    1.5450403   0.04195758      1024000       0.0625 
   58700    1.0293764   0.60296003  -0.94107694     1.544037  0.040425882      1024000       0.0625 
   58800    1.0317657   0.60309641  -0.94452454     1.547621  0.039424232      1024000       0.0625 
   58900    1.0298894   0.60374594  -0.94106059    1.5448065  0.039787341      1024000       0.0625 
   59000    1.0293865    0.6038704  -0.94018174    1.5440521  0.039643229      1024000       0.0625 
   59100    1.0308986   0.60471635  -0.94160391    1.5463203  0.039759187      1024000       0.0625 
   59200    1.0289997   0.61095434   -0.9325176    1.5434719  0.041703215      1024000       0.0625 
   59300    1.0334307   0.60561628  -0.94450204    1.5501183  0.038675849      1024000       0.0625 
   59400    1.0307905    0.6148927  -0.93126545    1.5461581  0.041445839      1024000       0.0625 
   59500    1.0313057   0.60594786  -0.94098302    1.5469309  0.039371248      1024000       0.0625 
   59600    1.0285816   0.60745948  -0.93538535    1.5428448  0.041087355      1024000       0.0625 
   59700    1.0313292   0.60846163  -0.93850461    1.5469662  0.040314684      1024000       0.0625 
   59800    1.0317438   0.62390356  -0.92368452    1.5475881  0.041732727      1024000       0.0625 
   59900    1.0327541   0.61156396  -0.93753946    1.5491034  0.040386198      1024000       0.0625 
   60000    1.0319284   0.60997899  -0.93788597     1.547865  0.039838158      1024000       0.0625 
   60100    1.0304427   0.60653619  -0.93910027    1.5456365    0.0392142      1024000       0.0625 
   60200    1.0317503   0.60381003  -0.94378786    1.5475979  0.039069361      1024000       0.0625 
   60300    1.0306159   0.60737576  -0.93852043    1.5458962  0.040123132      1024000       0.0625 
   60400    1.0315186   0.60618308  -0.94106719    1.5472503  0.040264611      1024000       0.0625 
   60500    1.0315071   0.60324041  -0.94399268    1.5472331  0.040103378      1024000       0.0625 
   60600    1.0314829    0.6109985  -0.93619815    1.5471967  0.041033816      1024000       0.0625 
   60700    1.0330155   0.60799154  -0.94150403    1.5494956  0.039761433      1024000       0.0625 
   60800    1.0327613   0.60946383   -0.9396505    1.5491143  0.038768178      1024000       0.0625 
   60900    1.0326971   0.60749731  -0.94152067     1.549018  0.040080432      1024000       0.0625 
   61000    1.0329686   0.60462303  -0.94480225    1.5494253  0.040111173      1024000       0.0625 
   61100    1.0316358   0.60128152  -0.94614454    1.5474261  0.039511247      1024000       0.0625 
   61200    1.0311038   0.60648435  -0.94014375    1.5466281  0.039793993      1024000       0.0625 
   61300    1.0317427   0.60413082   -0.9434556    1.5475864  0.040873192      1024000       0.0625 
   61400    1.0301051   0.60413595  -0.94099405      1.54513  0.040921385      1024000       0.0625 
   61500    1.0338876   0.60701237  -0.94379134    1.5508037  0.038510172      1024000       0.0625 
   61600    1.0330409   0.60388937  -0.94564427    1.5495336  0.038465828      1024000       0.0625 
   61700    1.0326168   0.60295782   -0.9459398    1.5488976  0.039491562      1024000       0.0625 
   61800    1.0299236   0.60864328   -0.9362146    1.5448579   0.04027031      1024000       0.0625 
   61900    1.0342639   0.61093063  -0.94043752    1.5513681   0.04217363      1024000       0.0625 
   62000    1.0314364   0.60746067  -0.93966634     1.547127  0.040223304      1024000       0.0625 
   62100    1.0346258   0.60918226  -0.94272869    1.5519109  0.039609518      1024000       0.0625 
   62200    1.0316561   0.61168847  -0.93576808    1.5474565  0.039165553      1024000       0.0625 
   62300     1.029756   0.60752331  -0.93708312    1.5446064  0.040300054      1024000       0.0625 
   62400    1.0298301   0.60991097  -0.93480664    1.5447176  0.039097152      1024000       0.0625 
   62500    1.0331953   0.61327903  -0.93648628    1.5497653  0.039398138      1024000       0.0625 
   62600    1.0337281   0.61091424  -0.93965018    1.5505644  0.039996648      1024000       0.0625 
   62700    1.0334985   0.61178201  -0.93843813    1.5502201  0.039304616      1024000       0.0625 
   62800    1.0343298   0.60838394  -0.94308307     1.551467  0.039066816      1024000       0.0625 
   62900    1.0329917     0.606538  -0.94292194    1.5494599  0.039759489      1024000       0.0625 
   63000    1.0327506   0.60723391  -0.94186435    1.5490983  0.040751763      1024000       0.0625 
   63100    1.0306756   0.60378016  -0.94220562    1.5459858  0.040687088      1024000       0.0625 
   63200    1.0346475   0.60930697  -0.94263655    1.5519435  0.039477045      1024000       0.0625 
   63300    1.0351723   0.60710165  -0.94562901    1.5527307  0.039795303      1024000       0.0625 
   63400    1.0350683   0.60827929  -0.94429544    1.5525747  0.039387338      1024000       0.0625 
   63500    1.0342532   0.61361597  -0.93773616    1.5513521  0.039330712      1024000       0.0625 
   63600    1.0328228   0.60624537  -0.94296113    1.5492065  0.039121415      1024000       0.0625 
   63700    1.0315132   0.60561366   -0.9416285    1.5472422  0.039573737      1024000       0.0625 
   63800    1.0341971   0.60702218  -0.94424571    1.5512679  0.040079636      1024000       0.0625 
   63900    1.0328916   0.60867518  -0.94063462    1.5493098  0.040902652      1024000       0.0625 
   64000    1.0301415    0.6076268  -0.93755783    1.5451846  0.041875666      1024000       0.0625 
   64100    1.0334232   0.61111628   -0.9389909    1.5501072   0.04060157      1024000       0.0625 
   64200    1.0362419   0.61104249   -0.9432926    1.5543351  0.039840842      1024000       0.0625 
   64300    1.0352969   0.61240308   -0.9405145    1.5529176  0.040985222      1024000       0.0625 
   64400    1.0352911    0.6048361  -0.94807276    1.5529089  0.040388523      1024000       0.0625 
   64500    1.0375369   0.60966574  -0.94661184    1.5562776  0.040664501      1024000       0.0625 
   64600     1.034264   0.60503523  -0.94633311    1.5513683  0.040382961      1024000       0.0625 
   64700    1.0339351   0.60424789  -0.94662701    1.5508749  0.039972079      1024000       0.0625 
   64800    1.0356518   0.61640574  -0.93704417    1.5534499  0.039988586      1024000       0.0625 
   64900    1.0321603   0.60134364  -0.94686911    1.5482128  0.039595913      1024000       0.0625 
   65000    1.0308993   0.60554285  -0.94077849    1.5463213  0.040135268      1024000       0.0625 
   65100    1.0338589   0.60654824  -0.94421238    1.5507606  0.040682717      1024000       0.0625 
   65200    1.0340341   0.60372642  -0.94729703    1.5510235  0.040225819      1024000       0.0625 
   65300    1.0323785   0.60139228  -0.94714782    1.5485401  0.040511682      1024000       0.0625 
   65400     1.032197   0.59861019  -0.94965774    1.5482679  0.038794132      1024000       0.0625 
   65500    1.0339173   0.60455304  -0.94629521    1.5508483  0.039788278      1024000       0.0625 
   65600    1.0339196   0.60739901  -0.94345266    1.5508517  0.040252423      1024000       0.0625 
   65700    1.0349685   0.60287057  -0.94955448    1.5524251  0.039058566      1024000       0.0625 
   65800    1.0329355   0.60291393  -0.94646168    1.5493756  0.039698288      1024000       0.0625 
   65900    1.0326264   0.60938054  -0.93953134    1.5489119  0.039076472      1024000       0.0625 
   66000    1.0340593   0.60843338   -0.9426279    1.5510613  0.038115397      1024000       0.0625 
   66100    1.0348121   0.61480406  -0.93738635    1.5521904  0.040282014      1024000       0.0625 
   66200     1.032883   0.60951118  -0.93978566    1.5492968  0.040719324      1024000       0.0625 
   66300    1.0328634    0.6147797   -0.9344878    1.5492675  0.040671084      1024000       0.0625 
   66400    1.0331111   0.61381286  -0.93582608    1.5496389  0.040183611      1024000       0.0625 
   66500    1.0306102    0.6136248  -0.93226289    1.5458877  0.040819688      1024000       0.0625 
   66600    1.0302822   0.61354835  -0.93184735    1.5453957  0.041222336      1024000       0.0625 
   66700    1.0315195   0.61019187  -0.93705978    1.5472516  0.038679012      1024000       0.0625 
   66800    1.0363393   0.61932123  -0.93515999    1.5544812   0.04048339      1024000       0.0625 
   66900    1.0405244   0.61847117  -0.94228759    1.5607588  0.040796329      1024000       0.0625 
   67000    1.0377994   0.62157871  -0.93509263    1.5566713  0.039778803      1024000       0.0625 
   67100    1.0371397   0.61828021  -0.93740155    1.5556818  0.040820185      1024000       0.0625 
   67200    1.0355007   0.61744812  -0.93577525    1.5532234  0.039324641      1024000       0.0625 
   67300    1.0365889   0.61557972  -0.93927581    1.5548555  0.040396732      1024000       0.0625 
   67400    1.0340299   0.61258665  -0.93843049    1.5510171  0.040489202      1024000       0.0625 
   67500     1.033179   0.61137822  -0.93836264    1.5497409  0.039593422      1024000       0.0625 
   67600    1.0332821   0.61267877  -0.93721664    1.5498954  0.040634647      1024000       0.0625 
   67700    1.0365226   0.61299448   -0.9417617    1.5547562  0.040645189      1024000       0.0625 
   67800    1.0359834   0.61921419  -0.93473315    1.5539473  0.042158673      1024000       0.0625 
   67900    1.0336572   0.60951637   -0.9409418    1.5504582  0.040406344      1024000       0.0625 
   68000    1.0331379    0.6064353  -0.94324383    1.5496791  0.040448392      1024000       0.0625 
   68100    1.0333777   0.60862272   -0.9414161    1.5500388  0.040215818      1024000       0.0625 
   68200    1.0344148   0.61358101  -0.93801344    1.5515944  0.040315354      1024000       0.0625 
   68300    1.0328872   0.61203067   -0.9372725    1.5493032  0.041306387      1024000       0.0625 
   68400    1.0353962   0.61929209  -0.93377449    1.5530666  0.039425417      1024000       0.0625 
   68500    1.0343689    0.6137894  -0.93773631    1.5515257  0.039023548      1024000       0.0625 
   68600    1.0373176   0.61491025   -0.9410383    1.5559485  0.040106151      1024000       0.0625 
   68700    1.0342368   0.61233611  -0.93899143    1.5513275  0.041234688      1024000       0.0625 
   68800    1.0333643   0.60916719  -0.94085154    1.5500187  0.040048852      1024000       0.0625 
   68900    1.0305546   0.61883302   -0.9269713    1.5458043    0.0404421      1024000       0.0625 
   69000    1.0346015   0.61365324  -0.93822132    1.5518746  0.039382636      1024000       0.0625 
   69100    1.0339577    0.6237786  -0.92713023    1.5509088  0.041500187      1024000       0.0625 
   69200    1.0421686   0.62121537  -0.94200965     1.563225  0.041296719      1024000       0.0625 
   69300    1.0414747   0.62038383  -0.94180029    1.5621841  0.040699992      1024000       0.0625 
   69400    1.0358119   0.61545372  -0.93823644    1.5536902  0.040382525      1024000       0.0625 
   69500     1.033252   0.61267431  -0.93717602    1.5498503   0.04055893      1024000       0.0625 
   69600    1.0340943   0.62096188  -0.93015186    1.5511137  0.040339392      1024000       0.0625 
   69700    1.0372126   0.61930527  -0.93648588    1.5557912  0.041395076      1024000       0.0625 
   69800     1.037071   0.61894013  -0.93663865    1.5555788  0.039046256      1024000       0.0625 
   69900    1.0339754   0.61344203  -0.93749341    1.5509354  0.041499181      1024000       0.0625 
   70000    1.0359085    0.6178911  -0.93594387     1.553835  0.041212316      1024000       0.0625 
   70100    1.0326544   0.61092416  -0.93802981     1.548954  0.041543525      1024000       0.0625 
   70200    1.0330865   0.61504025   -0.9345618     1.549602  0.040407108      1024000       0.0625 
   70300    1.0370367   0.62223186   -0.9332954    1.5555273  0.040904749      1024000       0.0625 
   70400    1.0373653   0.61451957  -0.94150056    1.5560201  0.040292703      1024000       0.0625 
   70500    1.0347722   0.61403917  -0.93809145    1.5521306  0.040350229      1024000       0.0625 
   70600    1.0351587   0.61476539  -0.93794498    1.5527104  0.039932307      1024000       0.0625 
   70700    1.0370594   0.62980504  -0.92575635    1.5555614  0.041929437      1024000       0.0625 
   70800    1.0402879     0.620162  -0.94024205    1.5604041  0.040979039      1024000       0.0625 
   70900    1.0367729   0.61884048  -0.93629111    1.5551316  0.041105832      1024000       0.0625 
   71000    1.0357285   0.61625395  -0.93731103     1.553565  0.039449796      1024000       0.0625 
   71100    1.0365636   0.61706959  -0.93774806    1.5548177  0.040793492      1024000       0.0625 
   71200    1.0382846   0.61352818  -0.94387084     1.557399  0.040742231      1024000       0.0625 
   71300    1.0344873   0.62011795  -0.93158533    1.5517033  0.040348299      1024000       0.0625 
   71400    1.0369872   0.61810033  -0.93735275    1.5554531  0.039976529      1024000       0.0625 
   71500    1.0347694   0.61741473  -0.93471165    1.5521264  0.040599907      1024000       0.0625 
   71600    1.0365037   0.61955338  -0.93517445    1.5547278  0.040919609      1024000       0.0625 
   71700    1.0365871   0.62703012  -0.92782282    1.5548529  0.041396652      1024000       0.0625 
   71800    1.0389845   0.62494521   -0.9335037    1.5584489    0.0402312      1024000       0.0625 
   71900    1.0375307   0.62090095  -0.93536734    1.5562683  0.040087496      1024000       0.0625 
   72000    1.0374178   0.61853646   -0.9375624    1.5560989  0.039138624      1024000       0.0625 
   72100    1.0355775   0.62066547  -0.93267311    1.5533386  0.042489831      1024000       0.0625 
   72200     1.037976   0.62484353  -0.93209269    1.5569362  0.039681692      1024000       0.0625 
   72300    1.0417823   0.62580486  -0.93684074    1.5626456  0.040655735      1024000       0.0625 
   72400    1.0382948   0.62225271   -0.9351617    1.5574144   0.04033265      1024000       0.0625 
   72500     1.039445   0.62694851  -0.93219109    1.5591396  0.040811118      1024000       0.0625 
   72600    1.0380938   0.62163615  -0.93547669    1.5571128  0.041936296      1024000       0.0625 
   72700    1.0379511   0.61996338  -0.93693543    1.5568988  0.040562035      1024000       0.0625 
   72800    1.0373864   0.62291774  -0.93313411    1.5560519  0.039407052      1024000       0.0625 
   72900    1.0386933   0.61841012  -0.93960195    1.5580121  0.041198957      1024000       0.0625 
   73000    1.0375248   0.61873218  -0.93752725    1.5562594  0.039319867      1024000       0.0625 
   73100    1.0324101   0.61492297  -0.93366457    1.5485875  0.040521168      1024000       0.0625 
   73200    1.0321365   0.61735381  -0.93082332    1.5481771  0.040204176      1024000       0.0625 
[...]
  981400    1.4924567    1.7874769  -0.45116829    2.2386452  0.075984653      1024000       0.0625 
  981500    1.4925336    1.7835288  -0.45523153    2.2387604  0.075191114      1024000       0.0625 
  981600    1.4914897    1.7855417  -0.45165281    2.2371945  0.075675698      1024000       0.0625 
  981700     1.491437    1.7939037  -0.44321181    2.2371156   0.07619971      1024000       0.0625 
  981800    1.4925693    1.7849787  -0.45383531     2.238814  0.075521011      1024000       0.0625 
  981900    1.4888759    1.7867672  -0.44650674     2.233274  0.076739537      1024000       0.0625 
  982000    1.4890614    1.7891518  -0.44440037    2.2335522  0.076225452      1024000       0.0625 
  982100    1.4906159    1.7860384  -0.44984543    2.2358839  0.074450066      1024000       0.0625 
  982200    1.4911983    1.7828544  -0.45390301    2.2367574  0.076317862      1024000       0.0625 
  982300    1.4901473    1.7831578  -0.45202326    2.2351811  0.075768625      1024000       0.0625 
  982400    1.4899983    1.7835662  -0.45139124    2.2349575  0.074878035      1024000       0.0625 
  982500    1.4874631    1.7830066  -0.44814828    2.2311549  0.077062032      1024000       0.0625 
  982600    1.4867691    1.7759917  -0.45412216    2.2301139  0.074601313      1024000       0.0625 
  982700    1.4871583    1.7808537  -0.44984388    2.2306976  0.074719737      1024000       0.0625 
  982800    1.4885931    1.7793392  -0.45351062    2.2328498  0.075194751      1024000       0.0625 
  982900    1.4891966    1.7868089  -0.44694614    2.2337551  0.076616133      1024000       0.0625 
  983000    1.4944673    1.7966185  -0.44504251     2.241661  0.077821098      1024000       0.0625 
  983100     1.497038    1.7945404  -0.45097655    2.2455169  0.076785026      1024000       0.0625 
  983200    1.4970815    1.7947882  -0.45079399    2.2455822  0.076063787      1024000       0.0625 
  983300    1.4956423    1.7921536  -0.45126977    2.2434234  0.076171967      1024000       0.0625 
  983400    1.4921093    1.7888629  -0.44926111     2.238124  0.077380413      1024000       0.0625 
  983500    1.4925657    1.7884637  -0.45034485    2.2388085  0.076045526      1024000       0.0625 
  983600    1.4925663    1.7987699  -0.44003956    2.2388095  0.078129252      1024000       0.0625 
  983700    1.4922194    1.7915796  -0.44670942    2.2382891  0.075395566      1024000       0.0625 
  983800    1.4907004    1.7850321   -0.4509786    2.2360107  0.075858165      1024000       0.0625 
  983900    1.4894832    1.7969479  -0.43723701    2.2341849  0.078514623      1024000       0.0625 
  984000    1.4899482    1.7868974  -0.44798498    2.2348824  0.076489369      1024000       0.0625 
  984100     1.493516    1.7914186  -0.44881537     2.240234  0.076109261      1024000       0.0625 
  984200    1.4947993    1.7877369  -0.45442202    2.2421589  0.074906856      1024000       0.0625 
  984300    1.4904654    1.7878066  -0.44785163    2.2356582  0.076329604      1024000       0.0625 
  984400    1.4897717    1.7807381  -0.45387954    2.2346176  0.075604411      1024000       0.0625 
  984500    1.4933434    1.7896394  -0.45033577    2.2399751  0.075077972      1024000       0.0625 
  984600    1.4953486     1.794174  -0.44880876    2.2429828   0.07456641      1024000       0.0625 
  984700    1.4918951    1.7930047  -0.44479805    2.2378028  0.075162109      1024000       0.0625 
  984800    1.4910548    1.7970668  -0.43947548    2.2365423  0.075764846      1024000       0.0625 
  984900    1.4904995    1.7952464  -0.44046286    2.2357093  0.075937697      1024000       0.0625 
  985000    1.4933784    1.7960806  -0.44394709    2.2400276  0.076607915      1024000       0.0625 
  985100    1.4942328    1.7986591  -0.44265016    2.2413093  0.076339478      1024000       0.0625 
  985200    1.4951095    1.7968793  -0.44574493    2.2426243  0.076079267      1024000       0.0625 
  985300    1.4958989     1.801576  -0.44223231    2.2438083  0.076237171      1024000       0.0625 
  985400    1.4940397    1.7959185  -0.44510109    2.2410196  0.076035111      1024000       0.0625 
  985500    1.4942731    1.7958649  -0.44550468    2.2413696  0.075351038      1024000       0.0625 
  985600    1.4941139    1.8018715  -0.43925934    2.2411308  0.075619075      1024000       0.0625 
  985700    1.4972608    1.8040233  -0.44182779    2.2458511  0.075327573      1024000       0.0625 
  985800     1.493606    1.7962347  -0.44413436    2.2403691  0.076055894      1024000       0.0625 
  985900    1.4938031    1.7929781  -0.44768654    2.2406647  0.075450459      1024000       0.0625 
  986000    1.4931954    1.7930985  -0.44665466    2.2397531   0.07522833      1024000       0.0625 
  986100    1.4933797    1.7942646  -0.44576499    2.2400296  0.075534149      1024000       0.0625 
  986200    1.4945237    1.7983104  -0.44343511    2.2417455  0.076743347      1024000       0.0625 
  986300    1.4950724      1.79793  -0.44463847    2.2425685  0.077030916      1024000       0.0625 
  986400    1.4940603    1.7951874  -0.44586307    2.2410505  0.075922445      1024000       0.0625 
  986500    1.4930636    1.7982236  -0.44133185    2.2395554  0.076629594      1024000       0.0625 
  986600    1.4952183    1.7921793  -0.45060809    2.2427874  0.075038132      1024000       0.0625 
  986700    1.4925944    1.7952717   -0.4435799    2.2388516  0.075480829      1024000       0.0625 
  986800    1.4992153    1.8002505  -0.44853234    2.2487828  0.076115261      1024000       0.0625 
  986900    1.4983618    1.8036571  -0.44384541    2.2475026  0.077045589      1024000       0.0625 
  987000    1.4969993    1.8070158  -0.43844301    2.2454588  0.077132336      1024000       0.0625 
  987100    1.4936612    1.7973015  -0.44315025    2.2404517  0.076862828      1024000       0.0625 
  987200    1.4916929    1.7941692  -0.44333012    2.2374994  0.077512331      1024000       0.0625 
  987300    1.4925324    1.7937502  -0.44500845    2.2387586  0.075561707      1024000       0.0625 
  987400     1.495014    1.8048738  -0.43760721     2.242481  0.075532655      1024000       0.0625 
  987500    1.4930403    1.7960915  -0.44342889    2.2395204  0.076526635      1024000       0.0625 
  987600    1.4921831    1.7979605  -0.44027427    2.2382347  0.075840899      1024000       0.0625 
  987700    1.4924415    1.7979085  -0.44071374    2.2386223  0.075386788      1024000       0.0625 
  987800    1.4914129    1.7984323  -0.43864706    2.2370793  0.076183785      1024000       0.0625 
  987900    1.4913848    1.7946494  -0.44238789    2.2370373  0.075490987      1024000       0.0625 
  988000    1.4890597    1.7897654  -0.44378422    2.2335496  0.076004793      1024000       0.0625 
  988100     1.485577    1.7903871  -0.43793862    2.2283257   0.07719365      1024000       0.0625 
  988200    1.4886786    1.7927263  -0.44025172     2.232978  0.075217692      1024000       0.0625 
  988300    1.4917183    1.7947762  -0.44276126    2.2375375    0.0757831      1024000       0.0625 
  988400    1.4979752    1.8005847   -0.4463379    2.2469226  0.075338689      1024000       0.0625 
  988500    1.4997465    1.8065747   -0.4430048    2.2495795  0.075819815      1024000       0.0625 
  988600    1.5028672    1.8101834  -0.44407726    2.2542606  0.076622229      1024000       0.0625 
  988700    1.4986166    1.8059874  -0.44189744    2.2478848    0.0769174      1024000       0.0625 
  988800    1.4932294    1.7996694  -0.44013473    2.2398042  0.075780582      1024000       0.0625 
  988900     1.492339    1.7975323  -0.44093631    2.2384686  0.075613099      1024000       0.0625 
  989000    1.4929989    1.8003245  -0.43913386    2.2394584  0.075491701      1024000       0.0625 
  989100    1.4941733    1.7997681  -0.44145189      2.24122  0.076178992      1024000       0.0625 
  989200    1.4966519    1.8037651  -0.44117263    2.2449378  0.076103034      1024000       0.0625 
  989300    1.4972279    1.8002044  -0.44559738    2.2458018  0.075868562      1024000       0.0625 
  989400    1.4946965    1.7989602  -0.44304453    2.2420047  0.075267456      1024000       0.0625 
  989500    1.4925245    1.7962591  -0.44248774    2.2387468  0.075958902      1024000       0.0625 
  989600    1.4928921    1.7991029  -0.44019521    2.2392981  0.076993196      1024000       0.0625 
  989700    1.4976955    1.8008149  -0.44568833    2.2465032  0.075642003      1024000       0.0625 
  989800    1.4987797    1.8061139  -0.44201543    2.2481294  0.076656006      1024000       0.0625 
  989900    1.4955872    1.8006223  -0.44271849    2.2433408  0.076666564      1024000       0.0625 
  990000    1.4962676     1.804115  -0.44024632    2.2443613  0.076085551      1024000       0.0625 
  990100    1.4950715    1.7949082  -0.44765903    2.2425672  0.075345629      1024000       0.0625 
  990200    1.4956422    1.7963344   -0.4470889    2.2434233    0.0766145      1024000       0.0625 
  990300    1.4942315    1.7968392  -0.44446809    2.2413073  0.075692222      1024000       0.0625 
  990400    1.4970336    1.8039401   -0.4415702    2.2455103  0.074792263      1024000       0.0625 
  990500    1.5000959    1.8059745  -0.44412915    2.2501037  0.075083529      1024000       0.0625 
  990600     1.497069    1.8054889  -0.44007444    2.2455634  0.077204803      1024000       0.0625 
  990700    1.4950707    1.8090328  -0.43353321     2.242566  0.076886044      1024000       0.0625 
  990800    1.4958313      1.80298  -0.44072695    2.2437069  0.076882991      1024000       0.0625 
  990900    1.4941391    1.8042551   -0.4369136    2.2411687  0.075547803      1024000       0.0625 
  991000    1.4934299    1.8016143  -0.43849064    2.2401049  0.076127227      1024000       0.0625 
  991100     1.496354    1.8045947   -0.4398962    2.2444909  0.074802746      1024000       0.0625 
  991200    1.4971279    1.8098965  -0.43575523    2.2456517   0.07671727      1024000       0.0625 
  991300    1.4998278    1.8133573  -0.43634428    2.2497015  0.075972826      1024000       0.0625 
  991400    1.4959913    1.8055172  -0.43842969    2.2439469  0.076405896      1024000       0.0625 
  991500    1.4967046    1.8086133  -0.43640355    2.2450168  0.077042129      1024000       0.0625 
  991600    1.4976984    1.8057048  -0.44080267    2.2465074  0.077661188      1024000       0.0625 
  991700    1.4954099    1.8019047  -0.44117005    2.2430748  0.076864865      1024000       0.0625 
  991800    1.4983568    1.8191493  -0.42834572     2.247495  0.077773192      1024000       0.0625 
  991900    1.5003649    1.8142068  -0.43630033    2.2505071  0.076021207      1024000       0.0625 
  992000    1.4956657    1.8138029  -0.42965567    2.2434585  0.075770914      1024000       0.0625 
  992100    1.5003244    1.8106292  -0.43981725    2.2504465  0.075172652      1024000       0.0625 
  992200    1.4988265    1.8039736  -0.44422599    2.2481996  0.076267499      1024000       0.0625 
  992300    1.4970748     1.808152  -0.43742012    2.2455722  0.077419574      1024000       0.0625 
  992400     1.494456    1.8041167  -0.43752728     2.241644  0.076256244      1024000       0.0625 
  992500    1.4958905    1.8158299  -0.42796573    2.2437956  0.079247782      1024000       0.0625 
  992600    1.4974555    1.8173606  -0.42878252    2.2461431  0.078391938      1024000       0.0625 
  992700    1.4966544      1.80749  -0.43745152    2.2449416  0.077439465      1024000       0.0625 
  992800    1.4970588     1.811407  -0.43414112    2.2455482  0.076935176      1024000       0.0625 
  992900    1.4941308    1.8058022  -0.43535401    2.2411562  0.076209769      1024000       0.0625 
  993000     1.494785    1.8024822   -0.4396553    2.2421375  0.074767242      1024000       0.0625 
  993100     1.494495    1.8071651  -0.43453731    2.2417024  0.076162105      1024000       0.0625 
  993200    1.4974436    1.8115897  -0.43453556    2.2461253  0.076618946      1024000       0.0625 
  993300    1.5016065    1.8266923  -0.42567723    2.2523696  0.077834596      1024000       0.0625 
  993400    1.4956642    1.8148694  -0.42858681    2.2434562  0.078187432      1024000       0.0625 
  993500    1.4953034    1.8112024  -0.43171254     2.242915  0.076435249      1024000       0.0625 
  993600     1.495778    1.8109109  -0.43271606     2.243627  0.077475984      1024000       0.0625 
  993700    1.4962216    1.8114378  -0.43285457    2.2442924   0.07619833      1024000       0.0625 
  993800    1.4977468    1.8040126  -0.44256745    2.2465801  0.076814239      1024000       0.0625 
  993900    1.4973237    1.8059652  -0.43998031    2.2459455  0.075638527      1024000       0.0625 
  994000    1.4974671    1.8078836  -0.43827701    2.2461606    0.0758989      1024000       0.0625 
  994100    1.4941572    1.8051703  -0.43602552    2.2411958   0.07675489      1024000       0.0625 
  994200     1.496994    1.8109717  -0.43447929    2.2454509  0.075616073      1024000       0.0625 
  994300    1.4951004     1.808218  -0.43439254    2.2426106   0.07660124      1024000       0.0625 
  994400    1.4966154    1.8065167  -0.43836626     2.244883  0.075800253      1024000       0.0625 
  994500    1.4970064    1.8096082  -0.43586136    2.2454695  0.075783371      1024000       0.0625 
  994600    1.4989447    1.8112234  -0.43715358     2.248377   0.07489993      1024000       0.0625 
  994700     1.500514    1.8167606  -0.43397018    2.2507308  0.077874973      1024000       0.0625 
  994800    1.5043624    1.8241152   -0.4323881    2.2565033  0.098090983      1024000       0.0625 
  994900    1.5046957    1.8210641  -0.43593926    2.2570033  0.078259895      1024000       0.0625 
  995000    1.4981558    1.8097602  -0.43743337    2.2471936  0.077062568      1024000       0.0625 
  995100    1.4896171    1.8017286  -0.43265712    2.2343857  0.093623417      1024000       0.0625 
  995200     1.487491    1.7971874   -0.4340093    2.2311967  0.077808657      1024000       0.0625 
  995300    1.4838683    1.7854108  -0.44035188    2.2257627  0.076861115      1024000       0.0625 
  995400    1.4806201    1.7824546  -0.43843596    2.2208905  0.076670754      1024000       0.0625 
  995500    1.4770268    1.7799262  -0.43557437    2.2155006  0.076208076      1024000       0.0625 
  995600    1.4772343    1.7828061  -0.43300581    2.2158119   0.07778775      1024000       0.0625 
  995700    1.4847123    1.7891416  -0.43788707    2.2270287  0.076347798      1024000       0.0625 
  995800    1.4929268    1.7982887  -0.44106148    2.2393502  0.075688226      1024000       0.0625 
  995900    1.4952075    1.8064524  -0.43631883    2.2427712  0.077156433      1024000       0.0625 
  996000    1.4975381     1.810656  -0.43561105    2.2462671  0.077571811      1024000       0.0625 
  996100    1.4997856    1.8117144  -0.43792389    2.2496383  0.076635326      1024000       0.0625 
  996200    1.4937891    1.8046187  -0.43602493    2.2406436  0.076750934      1024000       0.0625 
  996300     1.493645    1.8052597  -0.43516782    2.2404275  0.077418833      1024000       0.0625 
  996400    1.4926707    1.8056489  -0.43331716     2.238966  0.076140678      1024000       0.0625 
  996500     1.491352    1.8021455  -0.43484257    2.2369881  0.075509313      1024000       0.0625 
  996600    1.4933797    1.8004622  -0.43956731    2.2400295  0.075545379      1024000       0.0625 
  996700    1.4919761    1.8053017   -0.4326225    2.2379242  0.077355524      1024000       0.0625 
  996800    1.4964314    1.8052081  -0.43939898    2.2446071  0.076612445      1024000       0.0625 
  996900    1.5006559    1.8142855  -0.43665815    2.2509436  0.075929747      1024000       0.0625 
  997000    1.4980213    1.8099086  -0.43708334    2.2469919  0.075234579      1024000       0.0625 
  997100    1.4950299    1.8059776  -0.43652723    2.2425049   0.07564362      1024000       0.0625 
  997200    1.4951414    1.8060923  -0.43657967     2.242672  0.077531185      1024000       0.0625 
  997300    1.4955811    1.8128494   -0.4304822    2.2433316  0.077724412      1024000       0.0625 
  997400    1.4963978    1.8042867  -0.44026983    2.2445566  0.075795969      1024000       0.0625 
  997500    1.4983858    1.8131916  -0.43434688    2.2475385  0.077320573      1024000       0.0625 
  997600    1.5015227    1.8124535  -0.43979038    2.2522439  0.076261541      1024000       0.0625 
  997700    1.4978449    1.8092433  -0.43748388    2.2467272  0.076621826      1024000       0.0625 
  997800    1.4968332    1.8066337  -0.43857608    2.2452098  0.075343718      1024000       0.0625 
  997900    1.4955397    1.8061824  -0.43708716    2.2432696  0.075564312      1024000       0.0625 
  998000     1.494811     1.806271  -0.43590551    2.2421765  0.077641551      1024000       0.0625 
  998100    1.4969431    1.8094814  -0.43589311    2.2453746  0.076959444      1024000       0.0625 
  998200    1.5001125    1.8162891  -0.43383955    2.2501286  0.077278422      1024000       0.0625 
  998300    1.5020417    1.8167506  -0.43627173    2.2530224  0.077490143      1024000       0.0625 
  998400    1.5033014    1.8156507  -0.43926114    2.2549118  0.077091208      1024000       0.0625 
  998500    1.4977829    1.8105986  -0.43603566    2.2466342  0.076443161      1024000       0.0625 
  998600    1.4962466     1.806152  -0.43817786    2.2443299  0.076238867      1024000       0.0625 
  998700    1.4955237    1.8094684  -0.43377714    2.2432455  0.076980518      1024000       0.0625 
  998800    1.4987837    1.8182236  -0.42991189    2.2481355  0.077180026      1024000       0.0625 
  998900    1.5009337    1.8168789  -0.43448141    2.2513603   0.07710247      1024000       0.0625 
  999000     1.500299    1.8151588   -0.4352495    2.2504083   0.07670323      1024000       0.0625 
  999100    1.5015775    1.8172575  -0.43506863    2.2523261  0.077246694      1024000       0.0625 
  999200    1.5002665    1.8114043  -0.43895528    2.2503596  0.077266824      1024000       0.0625 
  999300    1.4972113    1.8128656  -0.43291133    2.2457769  0.077536021      1024000       0.0625 
  999400    1.4983151    1.8097415  -0.43769103    2.2474325  0.075591001      1024000       0.0625 
  999500    1.4974574    1.8135215  -0.43262447     2.246146  0.076883135      1024000       0.0625 
  999600    1.5000247    1.8122858  -0.43771106    2.2499968  0.075375545      1024000       0.0625 
  999700    1.5024331    1.8247596  -0.42884986    2.2536094  0.077306158      1024000       0.0625 
  999800    1.5006435     1.820144  -0.43078105    2.2509251  0.076428291      1024000       0.0625 
  999900    1.4982881    1.8163041  -0.43108793     2.247392  0.075725466      1024000       0.0625 
 1000000    1.4955925    1.8138965  -0.42945226    2.2433488   0.07849109      1024000       0.0625 
Loop time of 322188 on 64 procs for 1000000 steps with 56008 atoms

Performance: 1340.832 tau/day, 3.104 timesteps/s
26.4% CPU use with 64 MPI tasks x 1 OpenMP threads

MPI task timing breakdown:
Section |  min time  |  avg time  |  max time  |%varavg| %total
---------------------------------------------------------------
Pair    | 253.35     | 658.35     | 3900       |2379.7 |  0.20
Neigh   | 1755.8     | 8600.6     | 35270      |6587.2 |  2.67
Comm    | 2.5449e+05 | 2.7498e+05 | 2.8657e+05 |1092.4 | 85.35
Output  | 9420.6     | 9425       | 9427       |   1.6 |  2.93
Modify  | 16885      | 26554      | 39056      |3570.3 |  8.24
Other   |            | 1971       |            |       |  0.61

Nlocal:    875.125 ave 1164 max 570 min
Histogram: 2 2 5 7 8 19 11 4 5 1
Nghost:    22995.4 ave 26514 max 15633 min
Histogram: 8 6 2 0 0 0 3 7 18 20
Neighs:    14.125 ave 123 max 0 min
Histogram: 46 6 5 1 1 1 0 3 0 1

Total # of neighbors = 904
Ave neighs/atom = 0.0161406
Neighbor list builds = 225420
Dangerous builds = 0




Total wall time: 89:30:02
