LAMMPS (29 Oct 2020)
  using 1 OpenMP thread(s) per MPI task
Reading data file ...
  orthogonal box = (-100.00000 -100.00000 -100.00000) to (100.00000 100.00000 100.00000)
  1 by 2 by 5 MPI processor grid
  reading atoms ...
  1 atoms
  1 bodies
  read_data CPU = 0.048 seconds
Replicating atoms ...
  orthogonal box = (-100.00000 -100.00000 -100.00000) to (1300.0000 1300.0000 1300.0000)
  1 by 2 by 5 MPI processor grid
  343 atoms
  replicate CPU = 0.002 seconds
Neighbor list info ...
  update every 1 steps, delay 0 steps, check yes
  max neighbors/atom: 2000, page size: 100000
  master list distance cutoff = 87.10254
  ghost atom cutoff = 87.10254
  binsize = 43.55127, bins = 33 33 33
  1 neighbor lists, perpetual/occasional/extra = 1 0 0
  (1) pair body/rounded/polyhedron, perpetual
      attributes: half, newton on
      pair build: half/bin/atomonly/newton
      stencil: half/bin/3d/newton
      bin: standard
Setting up Verlet run ...
  Unit style    : nano
  Current step  : 0
  Time step     : 0.001
Per MPI rank memory allocation (min/avg/max) = 9.289 | 9.296 | 9.310 Mbytes
Step KinEng PotEng TotEng c_p c_t 
       0     2124.821            0     2124.821 5.1623444e-07          300 
  100000   0.59526235     2113.463    2114.0582 0.00018598686  0.084044119 
  200000    576.99823   -6578.1412    -6001.143 0.00032760772    81.465437 
  300000    759.61841    -10760.89   -10001.271 0.00042813451    107.24928 
  400000    493.83687   -13944.061   -13450.225 0.00038660345     69.72402 
  500000    713.85613   -15823.953   -15110.097 0.00046776223    100.78818 
  600000    754.36475   -21005.811   -20251.446 0.00064206571    106.50753 
  700000    901.18716   -27962.662   -27061.475 0.00082127909    127.23714 
  800000    692.81167   -30036.933   -29344.121 0.00096872342    97.816948 
  900000    634.21293    -35281.34   -34647.127 0.00099146367    89.543487 
 1000000    703.26424    1146.6675    1849.9317  0.017310651    99.292729 
 1100000    293.91553   -4263.9634   -3970.0479 0.0023352687    41.497453 
 1200000    43.190827   -3404.2906   -3361.0997 0.00048780274    6.0980423 
 1300000    53.508037   -41532.409   -41478.901 0.0017080752    7.5547124 
 1400000    22.042475     -41978.7   -41956.658  0.001063906     3.112141 
 1500000    9.9506153   -37283.616   -37273.665 -0.0025512478    1.4049111 
 1600000     22.11724   -50074.642   -50052.525 0.0016237625     3.122697 
 1700000    244.48632   -31474.985   -31230.499 0.0047269931    34.518623 
 1800000    1.6720889   -60404.176   -60402.504 0.0018455994   0.23607949 
 1900000    1158.1251   -8158.6231    -7000.498 -5.629676e-05    163.51378 
 2000000    75.336604   -42238.686   -42163.349 0.00071737201    10.636652 
 2100000    34.298983   -58937.676   -58903.377 0.0045424914    4.8426173 
 2200000    14.454112    -69649.97   -69635.516 0.0019403255    2.0407525 
 2300000     43.70547   -83930.945   -83887.239 0.0033616065    6.1707039 
 2400000    177.20975   -16554.595   -16377.385 0.0017467962    25.019955 
 2500000    19.584536   -75893.163   -75873.578 0.0030558274    2.7651086 
 2600000    9.4249522   -29301.371   -29291.946 0.0025691367    1.3306936 
 2700000    23.972424   -72865.241   -72841.268  0.004474588    3.3846274 
 2800000    6.6863887   -91977.586   -91970.899 -0.0012289057    0.9440403 
 2900000    99.435942   -97754.221   -97654.785 0.0028784481    14.039198 
 3000000    103.20743   -35679.937    -35576.73 0.0020698923    14.571688 
 3100000    5.8134664   -93691.701   -93685.888 0.0045215725   0.82079383 
 3200000    196.27906   -74056.921   -73860.642 0.0026655071     27.71232 
 3300000    126.96367   -72361.434    -72234.47 0.0049937267    17.925793 
 3400000     16.41774   -122838.33   -122821.91 0.0042681411    2.3179939 
 3500000    2.1745378   -102029.24   -102027.07  0.003410492   0.30701943 
 3600000     2.011492   -102177.55   -102175.54 0.0033939217   0.28399926 
 3700000    46.476802   -91296.661   -91250.184 0.0050031227    6.5619837 
 3800000    33.736737   -127581.26   -127547.53 0.0055437751    4.7632348 
 3900000    40.082785   -87516.869   -87476.786 0.0042161751    5.6592229 
 4000000    447.50457   -6786.6211   -6339.1166 0.00010745684    63.182439 
 4100000    118.89809   -64880.003   -64761.105 0.0024744111    16.787027 
 4200000     47.16319   -68069.002   -68021.838 0.0030005443    6.6588937 
 4300000    17.550574   -101233.41   -101215.86 0.0040243168    2.4779369 
 4400000    39.606677   -117146.59   -117106.98 0.0027895081     5.592002 
 4500000    24.890209   -95664.236   -95639.346  0.004510914     3.514208 
 4600000    113.50913   -98943.372   -98829.863 0.0037426198    16.026169 
 4700000    147.82731   -8071.3961   -7923.5688 0.0040697942    20.871497 
 4800000    113.58095   -97065.488   -96951.907  0.001574625    16.036309 
 4900000    42.444339   -118513.27   -118470.83 0.0050865855    5.9926469 
 5000000    26.458782    -120530.8   -120504.34 0.0043541158    3.7356721 
 5100000    3.0281947   -117341.34   -117338.31 0.0049134763   0.42754587 
 5200000    211.02087   -31317.358   -31106.337 0.0020653805    29.793691 
 5300000    45.615932    -81758.31   -81712.694 0.0049101428     6.440439 
 5400000    174.19573   -108024.71   -107850.51  0.009262482    24.594411 
 5500000    14.985922   -105425.33   -105410.35 0.0054005728    2.1158379 
 5600000    91.409353   -93215.252   -93123.842 0.0093107768    12.905937 
 5700000    68.982299   -53504.196   -53435.214  0.001785026    9.7394981 
 5800000    12.355793   -117266.98   -117254.62   0.00568603    1.7444942 
 5900000    150.15637   -126603.83   -126453.68 0.0092138505    21.200332 
 6000000    6.8602826   -109280.46    -109273.6 0.0053848183   0.96859209 
 6100000    11.844566   -125487.08   -125475.23 0.0059875846    1.6723149 
 6200000    14.512506   -120232.77   -120218.26 0.0059724621     2.048997 
 6300000    66.863917   -106661.49   -106594.62  0.008370151    9.4404071 
 6400000    244.68223   -119887.28    -119642.6  0.005019724    34.546284 
 6500000    78.476703   -116028.65   -115950.17 0.0052620008    11.079997 
 6600000    23.781169    -115677.4   -115653.62 0.0023207504    3.3576244 
 6700000    331.40934   -111081.03   -110749.62 0.0027147085    46.791144 
 6800000    26.349605   -137427.68   -137401.33 0.0068863103    3.7202577 
 6900000     6.536671    -139300.1   -139293.57 0.0081318695    0.9229019 
 7000000    27.385822   -131479.57   -131452.19   0.00723978    3.8665595 
 7100000    205.77853   -115884.17   -115678.39 0.0051330514    29.053535 
 7200000    192.10452   -118382.47   -118190.36 0.0066318665    27.122924 
 7300000     3916.122    319.02995     4235.152 -0.0053017007    552.91087 
 7400000    5.3396189   -138478.66   -138473.32 0.0071260614   0.75389207 
 7500000    23.178856    -137821.9   -137798.72 0.0069909039    3.2725848 
 7600000    152.00189   -123159.98   -123007.98 0.0063882681    21.460898 
 7700000    47.723449   -125578.49   -125530.76 0.0070118748    6.7379957 
 7800000    26.280265    -138586.1   -138559.82 0.0069645701    3.7104676 
 7900000    2.9046358   -131700.19   -131697.29 0.0074064417   0.41010078 
 8000000    3.7230453   -149431.24   -149427.51 0.0081561362   0.52565068 
 8100000    11.073075   -147285.73   -147274.65  0.008112431    1.5633894 
 8200000    113.16991   -156062.59   -155949.42  0.010650953    15.978275 
 8300000    13.992149   -142068.05   -142054.06 0.0086926683    1.9755287 
 8400000    29.629431   -148706.19   -148676.56 0.0093530638    4.1833309 
 8500000    4.7966373   -154109.61   -154104.81 0.0083761997   0.67722939 
 8600000    56.842721   -156813.65   -156756.81 0.0092414787    8.0255309 
 8700000     853.4508   -68667.034   -67813.583 0.0032661361    120.49732 
 8800000    129.64377   -142433.94   -142304.29  0.007543025    18.304192 
 8900000    51.342562   -155283.88   -155232.54 0.0093853804    7.2489724 
 9000000    71.437105   -161794.38   -161722.95  0.011344137    10.086088 
 9100000     61.35459   -154927.73   -154866.38 0.0082846596    8.6625543 
 9200000    59.210112   -153104.57   -153045.36  0.010906581    8.3597789 
 9300000    83.805024    -168295.1   -168211.29  0.010099361    11.832294 
 9400000    25.179097    -161288.4   -161263.22   0.00914856    3.5549955 
 9500000    24.248079   -146795.16   -146770.92  0.007835276    3.4235467 
 9600000    164.42866   -157416.13    -157251.7   0.01066837    23.215414 
 9700000    8.7716085   -162690.38   -162681.61 0.0098025034    1.2384491 
 9800000    13.960043   -148943.07   -148929.11 0.0095361567    1.9709957 
 9900000    33.373776   -142315.63   -142282.25 0.0099506214    4.7119889 
10000000    16.286529   -152648.17   -152631.89 0.0097268427    2.2994684 
Loop time of 182255 on 10 procs for 10000000 steps with 343 atoms

Performance: 4740.610 ns/day, 0.005 hours/ns, 54.868 timesteps/s
99.9% CPU use with 10 MPI tasks x 1 OpenMP threads

MPI task timing breakdown:
Section |  min time  |  avg time  |  max time  |%varavg| %total
---------------------------------------------------------------
Pair    | 73635      | 1.1854e+05 | 1.6995e+05 |9787.4 | 65.04
Neigh   | 36.867     | 51.301     | 69.518     | 157.9 |  0.03
Comm    | 10902      | 56878      | 93625      |12366.8 | 31.21
Output  | 85.741     | 85.741     | 85.742     |   0.0 |  0.05
Modify  | 491.95     | 6573.5     | 29235      |13979.6 |  3.61
Other   |            | 129.9      |            |       |  0.07

Nlocal:        34.3000 ave          43 max          24 min
Histogram: 1 2 1 0 2 0 0 0 0 4
Nghost:        199.700 ave         222 max         183 min
Histogram: 2 2 0 1 1 0 2 0 1 1
Neighs:        174.400 ave         225 max         113 min
Histogram: 1 0 2 2 0 1 0 0 0 4

Total # of neighbors = 1744
Ave neighs/atom = 5.0845481
Neighbor list builds = 2134559
Dangerous builds = 743530
Total wall time: 50:37:36
