LAMMPS (24 Dec 2020)
OMP_NUM_THREADS environment is not set. Defaulting to 1 thread. (src/comm.cpp:94)
  using 1 OpenMP thread(s) per MPI task
Created orthogonal box = (0.0000000 0.0000000 0.0000000) to (80.000000 80.000000 160.00000)
  3 by 4 by 8 MPI processor grid
Lattice spacing in x,y,z = 1.1485556 1.1485556 1.1485556
Created 421400 atoms
  create_atoms CPU = 0.132 seconds
Lattice spacing in x,y,z = 2.8114422 2.8114422 2.8114422
Created 17661 atoms
  create_atoms CPU = 0.005 seconds
439061 atoms in group solvent
System init for delete_atoms ...
Neighbor list info ...
  update every 1 steps, delay 10 steps, check yes
  max neighbors/atom: 2000, page size: 100000
  master list distance cutoff = 2.9
  ghost atom cutoff = 2.9
  binsize = 1.45, bins = 56 56 111
  2 neighbor lists, perpetual/occasional/extra = 1 1 0
  (1) command delete_atoms, occasional
      attributes: full, newton on
      pair build: full/bin
      stencil: full/bin/3d
      bin: standard
  (2) pair lj/smooth, perpetual
      attributes: half, newton on
      pair build: half/bin/newton
      stencil: half/bin/3d/newton
      bin: standard
WARNING: Ignoring 'compress yes' for molecular system (src/delete_atoms.cpp:125)
Deleted 0 atoms, new total = 439061
Balancing ...
Neighbor list info ...
  update every 1 steps, delay 10 steps, check yes
  max neighbors/atom: 2000, page size: 100000
  master list distance cutoff = 2.9
  ghost atom cutoff = 2.9
  binsize = 1.45, bins = 56 56 111
  1 neighbor lists, perpetual/occasional/extra = 1 0 0
  (1) pair lj/smooth, perpetual
      attributes: half, newton on
      pair build: half/bin/newton
      stencil: half/bin/3d/newton
      bin: standard
 rebalancing time: 0.011 seconds
  iteration count = 5
  initial/final maximal load/proc = 7776.0000 5616.0000
  initial/final imbalance factor  = 1.7002102 1.2279296
  x cuts: 0.0000000 0.33333333 0.66666667 1.0000000
  y cuts: 0.0000000 0.25000000 0.50000000 0.75000000 1.0000000
  z cuts: 0.0000000 0.089843750 0.17578125 0.25390625 0.33593750 0.41406250 0.50390625 0.58203125 1.0000000
dynamic group thermo defined
New timer settings: style=full  mode=nosync  timeout=off
Setting up Verlet run ...
  Unit style    : lj
  Current step  : 0
  Time step     : 0.005
Per MPI rank memory allocation (min/avg/max) = 10.75 | 10.83 | 11.20 Mbytes
Step Temp E_pair E_vdwl TotEng Press PotEng KinEng Atoms 
       0            1   -0.1849204   -0.1849204    1.3150762    4.3635102   -0.1849204    1.4999966   439061 
    1000    2.0168507   -2.1876062   -2.1876062   0.83766291    2.3983034   -2.1876062    3.0252691   439061 
    2000     1.914165   -2.2200771   -2.2200771   0.65116394    1.5179949   -2.2200771     2.871241   439061 
    3000     1.758736   -2.1389175   -2.1389175   0.49918045    1.1919283   -2.1389175     2.638098   439061 
    4000    1.6765905   -2.1095607   -2.1095607   0.40531923   0.95302669   -2.1095607      2.51488   439061 
    5000    1.6331231   -2.0656548   -2.0656548   0.38402429   0.78560419   -2.0656548    2.4496791   439061 
    6000    1.6077696   -2.0144644   -2.0144644   0.39718462   0.73579471   -2.0144644     2.411649   439061 
    7000     1.591428   -1.9634339   -1.9634339   0.42370267   0.76996687   -1.9634339    2.3871366   439061 
    8000    1.5838626   -1.9255166   -1.9255166    0.4502719   0.82708112   -1.9255166    2.3757885   439061 
    9000    1.5862876   -1.9023089   -1.9023089   0.47711704   0.87586521   -1.9023089     2.379426   439061 
   10000    1.5947141   -1.8905963   -1.8905963   0.50146934   0.92213167   -1.8905963    2.3920657   439061 
   11000    1.6005676    -1.877743    -1.877743   0.52310292   0.95867922    -1.877743     2.400846   439061 
   12000    1.5981029   -1.8561672   -1.8561672   0.54098176   0.92005139   -1.8561672    2.3971489   439061 
   13000    1.5876331   -1.8234539   -1.8234539   0.55799033    0.8604182   -1.8234539    2.3814442   439061 
   14000     1.588932   -1.8099397   -1.8099397   0.57345292   0.84929376   -1.8099397    2.3833926   439061 
   15000    1.5944215   -1.8054485   -1.8054485   0.58617823   0.87020199   -1.8054485    2.3916268   439061 
   16000    1.5922643    -1.798269    -1.798269   0.59012198    0.8579663    -1.798269    2.3883909   439061 
   17000    1.5709526     -1.80064     -1.80064   0.55578349   0.83004333     -1.80064    2.3564235   439061 
   18000    1.5332093   -1.8152736   -1.8152736   0.48453509   0.82499314   -1.8152736    2.2998087   439061 
   19000     1.492928   -1.8447933   -1.8447933   0.39459355   0.84012371   -1.8447933    2.2393869   439061 
   20000    1.4601694   -1.8759233   -1.8759233   0.31432571   0.84042169   -1.8759233    2.1902491   439061 
   21000    1.4329788   -1.8992124   -1.8992124   0.25025086   0.83357129   -1.8992124    2.1494633   439061 
   22000    1.4108341   -1.9108335   -1.9108335   0.20541277   0.80766044   -1.9108335    2.1162463   439061 
   23000    1.3949227   -1.9143604   -1.9143604   0.17801887   0.78039572   -1.9143604    2.0923793   439061 
   24000    1.3835834   -1.9132417   -1.9132417   0.16212867   0.76067144   -1.9132417    2.0753703   439061 
   25000     1.374671   -1.9110524   -1.9110524   0.15094939   0.73875872   -1.9110524    2.0620018   439061 
   26000    1.3661768   -1.9037653   -1.9037653    0.1454953   0.71997774   -1.9037653    2.0492606   439061 
   27000    1.3619117   -1.8985417   -1.8985417   0.14432121   0.69011804   -1.8985417    2.0428629   439061 
   28000    1.3555274   -1.8873734   -1.8873734   0.14591305   0.66569911   -1.8873734    2.0332865   439061 
   29000    1.3468505   -1.8711852   -1.8711852   0.14908589    0.6415908   -1.8711852    2.0202711   439061 
   30000    1.3397289   -1.8560428   -1.8560428   0.15354598   0.62606911   -1.8560428    2.0095887   439061 
   31000    1.3371967   -1.8455696   -1.8455696    0.1602209   0.61923618   -1.8455696    2.0057905   439061 
   32000    1.3385999   -1.8381812   -1.8381812   0.16971407   0.61726522   -1.8381812    2.0078953   439061 
   33000    1.3396825    -1.829375    -1.829375   0.18014415   0.62003771    -1.829375    2.0095191   439061 
   34000    1.3421231   -1.8258693   -1.8258693   0.18731085   0.62546982   -1.8258693    2.0131801   439061 
   35000    1.3431754   -1.8176498   -1.8176498   0.19710872   0.62919461   -1.8176498    2.0147585   439061 
   36000    1.3472843   -1.8156085   -1.8156085   0.20531338   0.62486881   -1.8156085    2.0209219   439061 
   37000    1.3480207   -1.8078114   -1.8078114   0.21421515   0.62692839   -1.8078114    2.0220265   439061 
   38000    1.3505353   -1.8043455   -1.8043455   0.22145281   0.62793314   -1.8043455    2.0257983   439061 
   39000     1.353044   -1.8025514   -1.8025514   0.22701002   0.63219583   -1.8025514    2.0295614   439061 
   40000    1.3571712   -1.8029371   -1.8029371   0.23281504    0.6417527   -1.8029371    2.0357521   439061 
   41000    1.3591021   -1.8072238   -1.8072238   0.23142472   0.65476041   -1.8072238    2.0386485   439061 
   42000    1.3558803   -1.8170467   -1.8170467   0.21676908   0.65448049   -1.8170467    2.0338158   439061 
   43000    1.3478644   -1.8299851   -1.8299851   0.19180691   0.66078085   -1.8299851     2.021792   439061 
   44000    1.3378362   -1.8400266   -1.8400266   0.16672317    0.6611818   -1.8400266    2.0067498   439061 
   45000    1.3310601   -1.8490959   -1.8490959   0.14748959   0.65820663   -1.8490959    1.9965855   439061 
   46000    1.3240366   -1.8537482   -1.8537482   0.13230211   0.65689996   -1.8537482    1.9860503   439061 
   47000    1.3186244   -1.8575055   -1.8575055   0.12042658   0.65123536   -1.8575055    1.9779321   439061 
   48000    1.3139277   -1.8595617   -1.8595617    0.1113254   0.64127078   -1.8595617    1.9708871   439061 
   49000     1.309879   -1.8590667   -1.8590667   0.10574733   0.63653173   -1.8590667     1.964814   439061 
   50000    1.3065936   -1.8595926   -1.8595926   0.10029339     0.630111   -1.8595926     1.959886   439061 
   51000    1.3027674   -1.8572529   -1.8572529  0.096893772   0.62002503   -1.8572529    1.9541466   439061 
   52000    1.2987977     -1.85187     -1.85187  0.096322182   0.61888669     -1.85187    1.9481921   439061 
   53000     1.298107   -1.8493354   -1.8493354   0.09782073   0.60977841   -1.8493354    1.9471561   439061 
   54000    1.2954227   -1.8453576   -1.8453576  0.097772055   0.60181972   -1.8453576    1.9431297   439061 
   55000    1.2930273   -1.8390057   -1.8390057   0.10053087   0.59227297   -1.8390057    1.9395365   439061 
   56000    1.2935866   -1.8356333   -1.8356333    0.1047421   0.58574975   -1.8356333    1.9403754   439061 
   57000    1.2929664   -1.8302784   -1.8302784   0.10916674   0.58852817   -1.8302784    1.9394452   439061 
   58000    1.2933894   -1.8259266   -1.8259266   0.11415304   0.58724868   -1.8259266    1.9400796   439061 
   59000     1.294479   -1.8237094   -1.8237094   0.11800462    0.5845284   -1.8237094     1.941714   439061 
   60000    1.2967367   -1.8217246   -1.8217246   0.12337597   0.58225698   -1.8217246    1.9451006   439061 
   61000     1.297599   -1.8203893   -1.8203893    0.1260048   0.58282648   -1.8203893    1.9463941   439061 
   62000    1.2977647   -1.8168973   -1.8168973   0.12974535   0.58667231   -1.8168973    1.9466426   439061 
   63000    1.3000435   -1.8176925   -1.8176925   0.13236837   0.58396789   -1.8176925    1.9500609   439061 
   64000    1.3005182   -1.8151784   -1.8151784   0.13559442   0.58923358   -1.8151784    1.9507728   439061 
   65000    1.3012453   -1.8163654   -1.8163654   0.13549817   0.60187825   -1.8163654    1.9518635   439061 
   66000    1.3011532   -1.8220111   -1.8220111   0.12971419   0.59750506   -1.8220111    1.9517253   439061 
   67000    1.2995013   -1.8265105   -1.8265105   0.12273698   0.59788358   -1.8265105    1.9492475   439061 
   68000    1.2977232   -1.8324684   -1.8324684   0.11411195   0.60503185   -1.8324684    1.9465804   439061 
   69000    1.2943423   -1.8375886   -1.8375886   0.10392042   0.60361895   -1.8375886     1.941509   439061 
   70000    1.2914473    -1.841516    -1.841516  0.095650658   0.60235009    -1.841516    1.9371666   439061 
   71000    1.2865851    -1.841786    -1.841786   0.08808726   0.60469096    -1.841786    1.9298733   439061 
   72000    1.2851008   -1.8464869   -1.8464869  0.081160011   0.59921205   -1.8464869    1.9276469   439061 
   73000    1.2833977   -1.8485376   -1.8485376   0.07655459   0.59595709   -1.8485376    1.9250922   439061 
   74000    1.2816193   -1.8495624   -1.8495624  0.072862114   0.59312498   -1.8495624    1.9224245   439061 
   75000    1.2776626    -1.847314    -1.847314  0.069175495   0.59105848    -1.847314    1.9164895   439061 
   76000    1.2773477   -1.8492023   -1.8492023  0.066814915   0.58212621   -1.8492023    1.9160172   439061 
   77000    1.2758479   -1.8467183   -1.8467183  0.067049207   0.58376445   -1.8467183    1.9137675   439061 
   78000    1.2762202   -1.8472254   -1.8472254  0.067100534   0.58443443   -1.8472254    1.9143259   439061 
   79000    1.2739581   -1.8429846   -1.8429846  0.067948208   0.57790957   -1.8429846    1.9109328   439061 
   80000    1.2715679   -1.8401195   -1.8401195  0.067228041   0.57520271   -1.8401195    1.9073475   439061 
   81000    1.2704481   -1.8378763   -1.8378763  0.067791567   0.57531357   -1.8378763    1.9056678   439061 
   82000    1.2699836   -1.8348418   -1.8348418  0.070129283   0.57155253   -1.8348418    1.9049711   439061 
   83000    1.2714889    -1.833815    -1.833815  0.073413913   0.57446293    -1.833815    1.9072289   439061 
   84000    1.2718532    -1.833789    -1.833789   0.07398651   0.56916334    -1.833789    1.9077755   439061 
   85000    1.2726936   -1.8339952   -1.8339952  0.075040855    0.5633087   -1.8339952     1.909036   439061 
   86000    1.2726425   -1.8330349   -1.8330349  0.075924413   0.56363995   -1.8330349    1.9089593   439061 
   87000    1.2724953   -1.8301265   -1.8301265  0.078612112   0.56533881   -1.8301265    1.9087386   439061 
   88000    1.2734702    -1.830602    -1.830602  0.079598905   0.56592887    -1.830602    1.9102009   439061 
   89000    1.2735091   -1.8303358   -1.8303358  0.079923561   0.56561214   -1.8303358    1.9102594   439061 
   90000    1.2738713   -1.8303757   -1.8303757  0.080426796   0.57150536   -1.8303757    1.9108025   439061 
   91000    1.2735697   -1.8317716   -1.8317716  0.078578565   0.57293112   -1.8317716    1.9103502   439061 
   92000    1.2730925   -1.8343946   -1.8343946  0.075239883   0.57347018   -1.8343946    1.9096345   439061 
   93000    1.2718322   -1.8346202   -1.8346202  0.073123674   0.57507399   -1.8346202    1.9077439   439061 
   94000    1.2711285   -1.8377208   -1.8377208  0.068967628   0.57758562   -1.8377208    1.9066884   439061 
   95000    1.2704747   -1.8411341   -1.8411341  0.064573703   0.57595455   -1.8411341    1.9057078   439061 
   96000    1.2678886   -1.8415743   -1.8415743  0.060254301   0.57876221   -1.8415743    1.9018286   439061 
   97000    1.2663259   -1.8443367   -1.8443367  0.055147826   0.57677625   -1.8443367    1.8994845   439061 
   98000    1.2651317   -1.8456619   -1.8456619  0.052031304   0.57230155   -1.8456619    1.8976932   439061 
   99000    1.2635576   -1.8466288   -1.8466288  0.048703322   0.56988502   -1.8466288    1.8953322   439061 
  100000    1.2624264   -1.8486841   -1.8486841  0.044951204   0.56773231   -1.8486841    1.8936353   439061 
  101000    1.2614282   -1.8484045   -1.8484045  0.043733436   0.56392773   -1.8484045     1.892138   439061 
  102000    1.2602773   -1.8479692   -1.8479692  0.042442527   0.56356969   -1.8479692    1.8904117   439061 
  103000      1.25904   -1.8454672   -1.8454672   0.04308848   0.56648886   -1.8454672    1.8885556   439061 
  104000    1.2583833   -1.8446194   -1.8446194  0.042951206   0.55888645   -1.8446194    1.8875706   439061 
  105000    1.2567079   -1.8435604   -1.8435604  0.041497131   0.55831578   -1.8435604    1.8850575   439061 
  106000    1.2579281   -1.8439866   -1.8439866  0.042901268   0.55907996   -1.8439866    1.8868878   439061 
  107000    1.2563853   -1.8427468   -1.8427468   0.04182692   0.55260904   -1.8427468    1.8845737   439061 
  108000    1.2566027   -1.8428779   -1.8428779  0.042021854   0.55332952   -1.8428779    1.8848997   439061 
  109000     1.257875   -1.8439101   -1.8439101  0.042898112   0.54910903   -1.8439101    1.8868082   439061 
  110000    1.2561298   -1.8408661   -1.8408661  0.043324286   0.55037881   -1.8408661    1.8841904   439061 
  111000    1.2572843   -1.8405897   -1.8405897  0.045332442   0.54866606   -1.8405897    1.8859222   439061 
  112000    1.2566733   -1.8400823   -1.8400823  0.044923303   0.55338718   -1.8400823    1.8850056   439061 
  113000    1.2560711   -1.8380983   -1.8380983  0.046004076   0.55388877   -1.8380983    1.8841024   439061 
  114000    1.2559078    -1.838391    -1.838391  0.045466419   0.55250322    -1.838391    1.8838574   439061 
  115000    1.2563072   -1.8386278   -1.8386278  0.045828725   0.55064038   -1.8386278    1.8844565   439061 
  116000    1.2550199   -1.8383172   -1.8383172  0.044208317   0.55560027   -1.8383172    1.8825255   439061 
  117000    1.2564464   -1.8413429   -1.8413429  0.043322422   0.55179329   -1.8413429    1.8846653   439061 
  118000    1.2543812   -1.8392389   -1.8392389  0.042328557   0.56209673   -1.8392389    1.8815675   439061 
  119000    1.2542876   -1.8413123   -1.8413123  0.040114863   0.56216945   -1.8413123    1.8814271   439061 
  120000    1.2530336   -1.8432026   -1.8432026  0.036343514   0.55710922   -1.8432026    1.8795461   439061 
  121000    1.2519242   -1.8435712   -1.8435712  0.034310818   0.55669414   -1.8435712     1.877882   439061 
  122000    1.2512819   -1.8447933   -1.8447933  0.032125217   0.55770283   -1.8447933    1.8769185   439061 
  123000    1.2521503   -1.8470431   -1.8470431  0.031178118   0.55511032   -1.8470431    1.8782212   439061 
  124000    1.2520951   -1.8483979   -1.8483979  0.029740584   0.55365903   -1.8483979    1.8781384   439061 
  125000    1.2494242   -1.8465337   -1.8465337  0.027598413   0.55142424   -1.8465337    1.8741321   439061 
  126000    1.2495413   -1.8502584   -1.8502584  0.024049259   0.54548747   -1.8502584    1.8743077   439061 
  127000    1.2471936     -1.84717     -1.84717  0.023616192   0.55304665     -1.84717    1.8707862   439061 
  128000    1.2474558   -1.8493584   -1.8493584  0.021821089   0.54620263   -1.8493584    1.8711795   439061 
  129000    1.2464209   -1.8491371   -1.8491371  0.020489938    0.5428639   -1.8491371     1.869627   439061 
  130000    1.2454113   -1.8492742   -1.8492742  0.018838444   0.54439838   -1.8492742    1.8681126   439061 
  131000    1.2431723   -1.8465522   -1.8465522  0.018202049   0.54340883   -1.8465522    1.8647542   439061 
  132000    1.2411946   -1.8448011   -1.8448011  0.016986561   0.55217559   -1.8448011    1.8617877   439061 
  133000    1.2439227   -1.8484146   -1.8484146  0.017465119   0.53830673   -1.8484146    1.8658797   439061 
  134000    1.2408934   -1.8439134   -1.8439134  0.017422477    0.5482281   -1.8439134    1.8613359   439061 
  135000    1.2433455   -1.8459938   -1.8459938  0.019020244   0.54034584   -1.8459938     1.865014   439061 
  136000    1.2424475   -1.8455125   -1.8455125  0.018154468   0.53989752   -1.8455125     1.863667   439061 
  137000    1.2419257   -1.8455857   -1.8455857  0.017298589   0.54145075   -1.8455857    1.8628843   439061 
  138000    1.2421387   -1.8459866   -1.8459866  0.017217271    0.5394937   -1.8459866    1.8632038   439061 
  139000    1.2424177    -1.846652    -1.846652  0.016970295    0.5415488    -1.846652    1.8636223   439061 
  140000    1.2408867   -1.8454409   -1.8454409  0.015884909    0.5440308   -1.8454409    1.8613258   439061 
  141000    1.2415198   -1.8470767   -1.8470767  0.015198728   0.54050884   -1.8470767    1.8622754   439061 
  142000    1.2419439    -1.847797    -1.847797  0.015114633   0.54057244    -1.847797    1.8629117   439061 
  143000    1.2403866   -1.8461558   -1.8461558  0.014419814   0.54586861   -1.8461558    1.8605756   439061 
  144000    1.2397869   -1.8461543   -1.8461543  0.013521809   0.54321175   -1.8461543    1.8596761   439061 
  145000    1.2409014   -1.8485563   -1.8485563  0.012791541   0.54308734   -1.8485563    1.8613478   439061 
  146000    1.2411407   -1.8490241   -1.8490241  0.012682698   0.54037292   -1.8490241    1.8617068   439061 
  147000     1.238965   -1.8484813   -1.8484813 0.0099619317   0.54276953   -1.8484813    1.8584433   439061 
  148000    1.2382132   -1.8488498   -1.8488498 0.0084657305    0.5441897   -1.8488498    1.8573155   439061 
  149000     1.238184   -1.8486911   -1.8486911 0.0085805956   0.53979218   -1.8486911    1.8572717   439061 
  150000    1.2377917   -1.8494332   -1.8494332 0.0072500292   0.54175798   -1.8494332    1.8566833   439061 
  151000    1.2373148   -1.8496865   -1.8496865 0.0062814768   0.54201674   -1.8496865     1.855968   439061 
  152000    1.2359972   -1.8496494   -1.8496494 0.0043422175   0.53837267   -1.8496494    1.8539916   439061 
  153000    1.2354084   -1.8500605   -1.8500605 0.0030479175   0.53567989   -1.8500605    1.8531084   439061 
  154000    1.2350453   -1.8492979   -1.8492979 0.0032658297   0.53478137   -1.8492979    1.8525637   439061 
  155000    1.2343381   -1.8498795   -1.8498795 0.0016234654   0.53434673   -1.8498795     1.851503   439061 
  156000    1.2360308   -1.8524924   -1.8524924 0.0015495394   0.53200427   -1.8524924    1.8540419   439061 
  157000    1.2341101   -1.8500305   -1.8500305 0.0011305328   0.53756615   -1.8500305     1.851161   439061 
  158000    1.2327566   -1.8503128   -1.8503128 -0.0011820817   0.53113606   -1.8503128    1.8491307   439061 
  159000    1.2321016   -1.8496793   -1.8496793 -0.0015311387    0.5289415   -1.8496793    1.8481482   439061 
  160000    1.2320656   -1.8506036   -1.8506036 -0.0025094653   0.53393291   -1.8506036    1.8480941   439061 
  161000    1.2317867    -1.849879    -1.849879 -0.0022031884   0.52873489    -1.849879    1.8476758   439061 
  162000    1.2318455   -1.8495882   -1.8495882 -0.001824163   0.53324736   -1.8495882     1.847764   439061 
  163000    1.2309752   -1.8496283   -1.8496283 -0.0031696488   0.53269098   -1.8496283    1.8464587   439061 
  164000    1.2311852   -1.8491876   -1.8491876 -0.0024140612    0.5353219   -1.8491876    1.8467736   439061 
  165000    1.2320372   -1.8519909   -1.8519909 -0.0039394307   0.52716281   -1.8519909    1.8480515   439061 
  166000    1.2307073   -1.8495082   -1.8495082 -0.0034514824   0.53195335   -1.8495082    1.8460567   439061 
  167000    1.2297923   -1.8490712   -1.8490712 -0.0043868899   0.53069343   -1.8490712    1.8446843   439061 
  168000    1.2297425   -1.8501351   -1.8501351 -0.0055256075   0.53385619   -1.8501351    1.8446095   439061 
  169000    1.2305273   -1.8507134   -1.8507134 -0.0049267015   0.53291567   -1.8507134    1.8457867   439061 
  170000    1.2294121   -1.8505606   -1.8505606 -0.0064467674   0.53371345   -1.8505606    1.8441139   439061 
  171000    1.2299024   -1.8508558   -1.8508558 -0.0060064192   0.53301879   -1.8508558    1.8448494   439061 
  172000    1.2289755   -1.8513071   -1.8513071 -0.0078480969    0.5283681   -1.8513071     1.843459   439061 
  173000    1.2296356   -1.8531519   -1.8531519 -0.0087027061   0.52875468   -1.8531519    1.8444492   439061 
  174000    1.2282307   -1.8504401   -1.8504401 -0.008098186   0.52778891   -1.8504401    1.8423419   439061 
  175000    1.2296116   -1.8526063   -1.8526063 -0.0081930168   0.52854127   -1.8526063    1.8444133   439061 
  176000    1.2276284    -1.851683    -1.851683  -0.01024461   0.52791966    -1.851683    1.8414383   439061 
  177000    1.2266237   -1.8512118   -1.8512118  -0.01128049   0.53158972   -1.8512118    1.8399313   439061 
  178000    1.2266004   -1.8520273   -1.8520273 -0.012130825     0.522983   -1.8520273    1.8398964   439061 
  179000    1.2259428   -1.8503339   -1.8503339 -0.011423794   0.53053309   -1.8503339    1.8389101   439061 
  180000    1.2259295   -1.8528195   -1.8528195 -0.013929439   0.52206302   -1.8528195      1.83889   439061 
  181000    1.2236676   -1.8516215   -1.8516215 -0.016124204   0.52369449   -1.8516215    1.8354973   439061 
  182000    1.2242002   -1.8521117   -1.8521117 -0.015815492   0.52594394   -1.8521117    1.8362962   439061 
  183000    1.2224985   -1.8509856   -1.8509856 -0.017242085    0.5263274   -1.8509856    1.8337435   439061 
  184000    1.2237846    -1.854485    -1.854485 -0.018812242   0.52421163    -1.854485    1.8356727   439061 
  185000    1.2223482   -1.8519895   -1.8519895 -0.018471482   0.52411023   -1.8519895    1.8335181   439061 
  186000    1.2223531   -1.8527873   -1.8527873 -0.019261888   0.52091328   -1.8527873    1.8335254   439061 
  187000    1.2213366   -1.8529244   -1.8529244 -0.020923713   0.52335728   -1.8529244    1.8320007   439061 
  188000    1.2218496   -1.8538512   -1.8538512 -0.021080995   0.52209964   -1.8538512    1.8327702   439061 
  189000    1.2207058   -1.8527049   -1.8527049 -0.021650334   0.51978036   -1.8527049    1.8310546   439061 
  190000    1.2219982   -1.8542933   -1.8542933 -0.021300271   0.51892025   -1.8542933    1.8329931   439061 
  191000     1.222326   -1.8558054   -1.8558054 -0.022320563   0.52403697   -1.8558054    1.8334848   439061 
  192000    1.2217313   -1.8557433   -1.8557433 -0.023150542   0.51867348   -1.8557433    1.8325928   439061 
  193000    1.2206977   -1.8548441   -1.8548441 -0.023801657   0.51814943   -1.8548441    1.8310424   439061 
  194000    1.2192855   -1.8543402   -1.8543402 -0.025416093   0.52119034   -1.8543402    1.8289242   439061 
  195000    1.2213777   -1.8560211   -1.8560211 -0.023958636   0.52010516   -1.8560211    1.8320624   439061 
  196000    1.2196901   -1.8548289   -1.8548289 -0.025297966   0.52447447   -1.8548289    1.8295309   439061 
  197000    1.2184618   -1.8563005   -1.8563005 -0.028611886   0.51907155   -1.8563005    1.8276886   439061 
  198000    1.2186699    -1.856223    -1.856223 -0.028222263   0.52060864    -1.856223    1.8280007   439061 
  199000    1.2173254   -1.8551283   -1.8551283 -0.029144335   0.51719529   -1.8551283     1.825984   439061 
  200000    1.2173992   -1.8567571   -1.8567571 -0.030662375   0.52131284   -1.8567571    1.8260947   439061 
  201000    1.2176983   -1.8571983   -1.8571983 -0.030654973   0.51515702   -1.8571983    1.8265433   439061 
  202000     1.214404   -1.8540663   -1.8540663 -0.032464393   0.51709942   -1.8540663    1.8216019   439061 
  203000    1.2163265   -1.8556975   -1.8556975 -0.031211986   0.51967507   -1.8556975    1.8244855   439061 
  204000    1.2171684   -1.8573684   -1.8573684 -0.031619869   0.51698942   -1.8573684    1.8257485   439061 
  205000    1.2182885   -1.8576667   -1.8576667  -0.03023816   0.51454152   -1.8576667    1.8274285   439061 
  206000    1.2156914   -1.8540251   -1.8540251 -0.030492208   0.51989392   -1.8540251    1.8235329   439061 
  207000    1.2157165   -1.8543856   -1.8543856 -0.030814915   0.51641674   -1.8543856    1.8235707   439061 
  208000    1.2157098   -1.8558731   -1.8558731 -0.032312562   0.51483527   -1.8558731    1.8235605   439061 
  209000    1.2144642   -1.8537926   -1.8537926 -0.032100335   0.51641883   -1.8537926    1.8216922   439061 
  210000     1.215559   -1.8570264   -1.8570264 -0.033692096   0.51271019   -1.8570264    1.8233343   439061 
  211000    1.2143803   -1.8554828   -1.8554828 -0.033916569   0.51059884   -1.8554828    1.8215662   439061 
  212000    1.2143237   -1.8557315   -1.8557315 -0.034250093   0.51367426   -1.8557315    1.8214814   439061 
  213000     1.214048   -1.8551799   -1.8551799 -0.034112051   0.51419448   -1.8551799    1.8210678   439061 
  214000    1.2129343   -1.8560151   -1.8560151 -0.036617733   0.50846815   -1.8560151    1.8193974   439061 
  215000    1.2133005   -1.8563889   -1.8563889 -0.036442349   0.51232794   -1.8563889    1.8199466   439061 
  216000    1.2121147   -1.8549415   -1.8549415  -0.03677363   0.51603551   -1.8549415    1.8181679   439061 
  217000    1.2121657   -1.8564185   -1.8564185 -0.038174058   0.51214522   -1.8564185    1.8182444   439061 
  218000     1.211805   -1.8559347   -1.8559347  -0.03823141   0.51520464   -1.8559347    1.8177033   439061 
  219000    1.2124425   -1.8566271   -1.8566271 -0.037967484    0.5135664   -1.8566271    1.8186596   439061 
  220000    1.2119158   -1.8553723   -1.8553723 -0.037502724   0.51817364   -1.8553723    1.8178696   439061 
  221000    1.2109906   -1.8557316   -1.8557316 -0.039249764   0.51818186   -1.8557316    1.8164818   439061 
  222000    1.2121914   -1.8573489   -1.8573489 -0.039065947   0.51027569   -1.8573489    1.8182829   439061 
  223000    1.2110676   -1.8570257   -1.8570257 -0.040428482   0.51037685   -1.8570257    1.8165972   439061 
  224000    1.2097185   -1.8556052   -1.8556052 -0.041031516    0.5084561   -1.8556052    1.8145737   439061 
  225000    1.2099061   -1.8563636   -1.8563636 -0.041508529   0.50626084   -1.8563636    1.8148551   439061 
  226000    1.2097225   -1.8573444   -1.8573444 -0.042764864   0.50692851   -1.8573444    1.8145796   439061 
  227000    1.2094867   -1.8578591   -1.8578591 -0.043633127    0.5092682   -1.8578591    1.8142259   439061 
  228000    1.2094553   -1.8580791   -1.8580791 -0.043900295   0.50866756   -1.8580791    1.8141788   439061 
  229000    1.2086967   -1.8567893   -1.8567893 -0.043748277   0.50632543   -1.8567893     1.813041   439061 
  230000    1.2095795   -1.8579548   -1.8579548 -0.043589632   0.50463543   -1.8579548    1.8143652   439061 
  231000    1.2093427    -1.857204    -1.857204 -0.043194016   0.50883191    -1.857204      1.81401   439061 
  232000    1.2093723   -1.8581411   -1.8581411 -0.044086811   0.50794923   -1.8581411    1.8140543   439061 
  233000     1.209128   -1.8587623   -1.8587623 -0.045074512     0.507134   -1.8587623    1.8136878   439061 
  234000    1.2092807   -1.8582358   -1.8582358 -0.044318865   0.50694382   -1.8582358     1.813917   439061 
  235000    1.2073571   -1.8564531   -1.8564531 -0.045421539   0.50803278   -1.8564531    1.8110316   439061 
  236000    1.2073606   -1.8583239   -1.8583239 -0.047287114   0.50432624   -1.8583239    1.8110368   439061 
  237000    1.2063323   -1.8566259   -1.8566259 -0.047131518   0.50622041   -1.8566259    1.8094944   439061 
  238000    1.2066406   -1.8550197   -1.8550197 -0.045062901    0.5088314   -1.8550197    1.8099568   439061 
  239000    1.2061659   -1.8556481   -1.8556481 -0.046403419   0.50813864   -1.8556481    1.8092447   439061 
  240000    1.2080931   -1.8577824   -1.8577824 -0.045646909   0.50347475   -1.8577824    1.8121355   439061 
  241000    1.2061617    -1.855267    -1.855267 -0.046028581   0.51037393    -1.855267    1.8092384   439061 
  242000    1.2066014   -1.8561807   -1.8561807 -0.046282753   0.50637008   -1.8561807    1.8098979   439061 
  243000    1.2068057   -1.8574061   -1.8574061 -0.047201668   0.50468551   -1.8574061    1.8102044   439061 
  244000     1.206334   -1.8572922   -1.8572922 -0.047795239   0.50476041   -1.8572922    1.8094969   439061 
  245000    1.2052751   -1.8577699   -1.8577699   -0.0498613   0.50367339   -1.8577699    1.8079086   439061 
  246000     1.205789   -1.8583389   -1.8583389 -0.049659412   0.50549716   -1.8583389    1.8086794   439061 
  247000    1.2048879    -1.856679    -1.856679  -0.04935133   0.50515174    -1.856679    1.8073277   439061 
  248000    1.2051741    -1.857956    -1.857956 -0.050198961   0.50379591    -1.857956    1.8077571   439061 
  249000     1.204784   -1.8572882   -1.8572882 -0.050116429   0.50189318   -1.8572882    1.8071718   439061 
  250000    1.2018116   -1.8555314   -1.8555314 -0.052818112   0.50448422   -1.8555314    1.8027133   439061 
  251000    1.2038168   -1.8572334   -1.8572334 -0.051512365   0.50505646   -1.8572334     1.805721   439061 
  252000    1.2028784   -1.8562622   -1.8562622 -0.051948729   0.50055151   -1.8562622    1.8043135   439061 
  253000    1.2030954   -1.8565469   -1.8565469 -0.051907958   0.50010237   -1.8565469     1.804639   439061 
  254000    1.2046186     -1.85934     -1.85934 -0.052416145   0.50274226     -1.85934    1.8069238   439061 
  255000    1.2024609   -1.8567154   -1.8567154 -0.053028147    0.5054593   -1.8567154    1.8036873   439061 
  256000    1.2031434   -1.8588908   -1.8588908 -0.054179847   0.49859554   -1.8588908     1.804711   439061 
  257000    1.2018053   -1.8574489   -1.8574489 -0.054745072    0.5043003   -1.8574489    1.8027038   439061 
  258000    1.2007094    -1.855994    -1.855994 -0.054934044   0.50313665    -1.855994      1.80106   439061 
  259000    1.2011392   -1.8573755   -1.8573755 -0.055670779   0.50506166   -1.8573755    1.8017047   439061 
  260000     1.201388   -1.8590572   -1.8590572 -0.056979322   0.49760111   -1.8590572    1.8020779   439061 
  261000    1.2001621   -1.8569479   -1.8569479 -0.056708832   0.50326904   -1.8569479    1.8002391   439061 
  262000    1.2007719   -1.8589887   -1.8589887 -0.057834965   0.50149258   -1.8589887    1.8011537   439061 
  263000    1.2009746    -1.859328    -1.859328  -0.05787014   0.50032745    -1.859328    1.8014579   439061 
  264000    1.1995384   -1.8576529   -1.8576529 -0.058349474   0.50080886   -1.8576529    1.7993035   439061 
  265000    1.2000343   -1.8583218   -1.8583218 -0.058274412   0.50086779   -1.8583218    1.8000474   439061 
  266000    1.1998629   -1.8586407   -1.8586407 -0.058850373   0.49796582   -1.8586407    1.7997903   439061 
  267000    1.1991185   -1.8579641   -1.8579641 -0.059290468   0.50103527   -1.8579641    1.7986736   439061 
  268000    1.1985349   -1.8585024   -1.8585024 -0.060704109   0.49883735   -1.8585024    1.7977983   439061 
  269000    1.1984528   -1.8567436   -1.8567436 -0.059068471   0.50266267   -1.8567436    1.7976751   439061 
  270000    1.1991788   -1.8580391   -1.8580391 -0.059275047   0.50150197   -1.8580391    1.7987641   439061 
  271000    1.1997506    -1.858033    -1.858033 -0.058411153   0.49829769    -1.858033    1.7996219   439061 
  272000    1.1971292   -1.8565794   -1.8565794 -0.060889627   0.49722472   -1.8565794    1.7956897   439061 
  273000    1.1975651   -1.8573641   -1.8573641 -0.061020501   0.49975265   -1.8573641    1.7963436   439061 
  274000    1.1986306   -1.8596808   -1.8596808 -0.061738982   0.49795081   -1.8596808    1.7979418   439061 
  275000     1.197823   -1.8595871   -1.8595871  -0.06285666   0.48896489   -1.8595871    1.7967305   439061 
  276000    1.1980875   -1.8598978   -1.8598978 -0.062770713   0.49353618   -1.8598978    1.7971271   439061 
  277000    1.1981352   -1.8603216   -1.8603216 -0.063122917   0.49054309   -1.8603216    1.7971987   439061 
  278000    1.1959475   -1.8575447   -1.8575447 -0.063627557   0.49926091   -1.8575447    1.7939171   439061 
  279000    1.1968832   -1.8604884   -1.8604884 -0.065167659   0.49243561   -1.8604884    1.7953207   439061 
  280000    1.1956585   -1.8592618   -1.8592618  -0.06577805   0.49584354   -1.8592618    1.7934837   439061 
  281000    1.1955725   -1.8596373   -1.8596373 -0.066282697   0.49285522   -1.8596373    1.7933546   439061 
  282000    1.1963834   -1.8594851   -1.8594851 -0.064914115   0.49477268   -1.8594851     1.794571   439061 
  283000    1.1945471   -1.8576119   -1.8576119  -0.06579528   0.49600412   -1.8576119    1.7918166   439061 
  284000    1.1953617    -1.859155    -1.859155 -0.066116487   0.49693552    -1.859155    1.7930385   439061 
  285000    1.1958938   -1.8595209   -1.8595209 -0.065684198   0.49424771   -1.8595209    1.7938367   439061 
  286000    1.1952177   -1.8579721   -1.8579721 -0.065149652   0.50029857   -1.8579721    1.7928224   439061 
  287000    1.1941774   -1.8581445   -1.8581445 -0.066882378    0.4939833   -1.8581445    1.7912621   439061 
  288000    1.1945809   -1.8593127   -1.8593127 -0.067445519   0.49294813   -1.8593127    1.7918672   439061 
  289000    1.1936108   -1.8596053   -1.8596053 -0.069193214   0.49702961   -1.8596053    1.7904121   439061 
  290000    1.1930948   -1.8591482   -1.8591482 -0.069510053   0.49286684   -1.8591482    1.7896382   439061 
  291000    1.1940069    -1.860582    -1.860582  -0.06957578   0.49280262    -1.860582    1.7910062   439061 
  292000    1.1937355   -1.8604929   -1.8604929 -0.069893666   0.49332161   -1.8604929    1.7905992   439061 
  293000    1.1915601   -1.8594537   -1.8594537 -0.072117657   0.49086386   -1.8594537     1.787336   439061 
  294000    1.1934773   -1.8622862   -1.8622862 -0.072074349   0.48805984   -1.8622862    1.7902118   439061 
  295000    1.1923639   -1.8604542   -1.8604542 -0.071912458   0.48733667   -1.8604542    1.7885418   439061 
  296000    1.1928759   -1.8608081   -1.8608081 -0.071498296   0.49109371   -1.8608081    1.7893098   439061 
  297000    1.1928557   -1.8625262   -1.8625262 -0.073246748   0.48786299   -1.8625262    1.7892794   439061 
  298000    1.1909578   -1.8602163   -1.8602163 -0.073783752   0.49512559   -1.8602163    1.7864326   439061 
  299000    1.1910677   -1.8590593   -1.8590593 -0.072461767   0.49201669   -1.8590593    1.7865975   439061 
  300000    1.1909695   -1.8600868   -1.8600868 -0.073636607   0.49326848   -1.8600868    1.7864501   439061 
  301000    1.1913993    -1.861139    -1.861139 -0.074044063   0.48936333    -1.861139    1.7870949   439061 
  302000    1.1886166   -1.8594101   -1.8594101 -0.076489298   0.49009833   -1.8594101    1.7829208   439061 
  303000    1.1898146   -1.8604204   -1.8604204 -0.075702598   0.48947482   -1.8604204    1.7847178   439061 
  304000    1.1898757   -1.8610616   -1.8610616 -0.076252019   0.49247235   -1.8610616    1.7848096   439061 
  305000    1.1902962   -1.8623015   -1.8623015 -0.076861347   0.48897698   -1.8623015    1.7854402   439061 
  306000    1.1889651   -1.8610786   -1.8610786 -0.077634926   0.48972973   -1.8610786    1.7834436   439061 
  307000     1.189167   -1.8606146   -1.8606146 -0.076868095   0.48693316   -1.8606146    1.7837465   439061 
  308000    1.1891578   -1.8611905   -1.8611905 -0.077457887   0.48675824   -1.8611905    1.7837326   439061 
  309000    1.1889974   -1.8616305   -1.8616305 -0.078138483   0.48910857   -1.8616305     1.783492   439061 
  310000    1.1884214   -1.8603652   -1.8603652 -0.077737125   0.48789102   -1.8603652    1.7826281   439061 
  311000    1.1883485   -1.8602246   -1.8602246 -0.077705846   0.48433211   -1.8602246    1.7825187   439061 
  312000    1.1886573   -1.8616857   -1.8616857 -0.078703764   0.48553916   -1.8616857    1.7829819   439061 
  313000    1.1872871   -1.8598956   -1.8598956 -0.078968952   0.48460878   -1.8598956    1.7809266   439061 
  314000    1.1873053   -1.8599092   -1.8599092 -0.078955299   0.48385204   -1.8599092    1.7809539   439061 
  315000    1.1876708   -1.8615861   -1.8615861 -0.080083894    0.4822898   -1.8615861    1.7815022   439061 
  316000    1.1872136   -1.8607213   -1.8607213 -0.079904964   0.48713716   -1.8607213    1.7808163   439061 
  317000    1.1884173   -1.8631776   -1.8631776 -0.080555723   0.48567639   -1.8631776    1.7826219   439061 
  318000    1.1858638    -1.859168    -1.859168 -0.080376261   0.48834882    -1.859168    1.7787917   439061 
  319000     1.186738    -1.861722    -1.861722 -0.081619112   0.48590334    -1.861722    1.7801029   439061 
  320000     1.186564   -1.8607447   -1.8607447 -0.080902806   0.48674219   -1.8607447    1.7798419   439061 
  321000    1.1868689   -1.8610616   -1.8610616 -0.080762348   0.48605011   -1.8610616    1.7802992   439061 
  322000    1.1867102   -1.8616889   -1.8616889 -0.081627726   0.48420519   -1.8616889    1.7800612   439061 
  323000    1.1869689   -1.8619072   -1.8619072 -0.081457856   0.48243799   -1.8619072    1.7804493   439061 
  324000    1.1856903    -1.861752    -1.861752 -0.083220618   0.48328134    -1.861752    1.7785314   439061 
  325000    1.1843559   -1.8608322   -1.8608322 -0.084302349   0.48276006   -1.8608322    1.7765299   439061 
  326000    1.1843351   -1.8615645   -1.8615645 -0.085065833    0.4822097   -1.8615645    1.7764986   439061 
  327000     1.183714   -1.8613362   -1.8613362 -0.085769247    0.4841501   -1.8613362     1.775567   439061 
  328000    1.1826821   -1.8618788   -1.8618788 -0.087859627   0.47736858   -1.8618788    1.7740192   439061 
  329000    1.1835441   -1.8638576   -1.8638576 -0.088545525   0.47775039   -1.8638576    1.7753121   439061 
  330000    1.1842067   -1.8639793   -1.8639793  -0.08767323   0.48261199   -1.8639793    1.7763061   439061 
  331000    1.1829243   -1.8611385   -1.8611385  -0.08675611   0.48433374   -1.8611385    1.7743824   439061 
  332000    1.1835156   -1.8621299   -1.8621299  -0.08686044   0.48161334   -1.8621299    1.7752694   439061 
  333000    1.1831631   -1.8626102   -1.8626102 -0.087869591   0.48126196   -1.8626102    1.7747406   439061 
  334000    1.1830426   -1.8633333   -1.8633333 -0.088773432    0.4788155   -1.8633333    1.7745599   439061 
  335000    1.1816058     -1.86216     -1.86216 -0.089755374   0.48199048     -1.86216    1.7724046   439061 
  336000    1.1824143   -1.8629095   -1.8629095 -0.089292087   0.48352912   -1.8629095    1.7736174   439061 
  337000    1.1825705   -1.8628277   -1.8628277 -0.088976103   0.48295435   -1.8628277    1.7738516   439061 
  338000      1.18145   -1.8626156   -1.8626156  -0.09044456   0.47900019   -1.8626156     1.772171   439061 
  339000    1.1803484   -1.8609382   -1.8609382 -0.090419531   0.47881831   -1.8609382    1.7705186   439061 
  340000     1.181295   -1.8622353   -1.8622353 -0.090296813   0.48083101   -1.8622353    1.7719385   439061 
  341000    1.1799013   -1.8609652   -1.8609652 -0.091117326   0.47548151   -1.8609652    1.7698479   439061 
  342000    1.1805187   -1.8625203   -1.8625203 -0.091746279   0.47715595   -1.8625203     1.770774   439061 
  343000    1.1805175   -1.8619864   -1.8619864  -0.09121415    0.4812737   -1.8619864    1.7707722   439061 
  344000    1.1806309   -1.8618586   -1.8618586  -0.09091627   0.47756019   -1.8618586    1.7709423   439061 
  345000    1.1813762   -1.8637042   -1.8637042 -0.091643864   0.47963204   -1.8637042    1.7720603   439061 
  346000    1.1796989   -1.8620169   -1.8620169 -0.092472587   0.47950833   -1.8620169    1.7695444   439061 
  347000    1.1790961   -1.8614714   -1.8614714 -0.092831316   0.48184974   -1.8614714    1.7686401   439061 
  348000    1.1788101   -1.8620944   -1.8620944 -0.093883306     0.478324   -1.8620944    1.7682111   439061 
  349000    1.1791299   -1.8634681   -1.8634681 -0.094777267   0.47523053   -1.8634681    1.7686908   439061 
  350000    1.1793527   -1.8638183   -1.8638183 -0.094793298   0.47670315   -1.8638183     1.769025   439061 
  351000    1.1797141   -1.8663436   -1.8663436 -0.096776458   0.47520798   -1.8663436    1.7695671   439061 
  352000    1.1783242   -1.8644516   -1.8644516 -0.096969231   0.47489244   -1.8644516    1.7674823   439061 
  353000    1.1770293   -1.8627592   -1.8627592  -0.09721934   0.47655494   -1.8627592    1.7655399   439061 
  354000    1.1793522   -1.8663441   -1.8663441   -0.0973199   0.47625916   -1.8663441    1.7690242   439061 
  355000    1.1766421    -1.863009    -1.863009   -0.0980499   0.47934405    -1.863009    1.7649591   439061 
  356000    1.1764922   -1.8638664   -1.8638664  -0.09913207   0.47967356   -1.8638664    1.7647343   439061 
  357000    1.1775152   -1.8649269   -1.8649269 -0.098658139   0.47390669   -1.8649269    1.7662687   439061 
  358000    1.1769987   -1.8647893   -1.8647893 -0.099295226   0.47483006   -1.8647893     1.765494   439061 
  359000    1.1776673   -1.8663895   -1.8663895 -0.099892498   0.47518593   -1.8663895     1.766497   439061 
  360000    1.1768499   -1.8656863   -1.8656863  -0.10041556   0.46842047   -1.8656863    1.7652708   439061 
  361000    1.1755852   -1.8641949   -1.8641949  -0.10082121   0.47707532   -1.8641949    1.7633737   439061 
  362000    1.1765364   -1.8646544   -1.8646544 -0.099853859   0.47447375   -1.8646544    1.7648006   439061 
  363000    1.1745439    -1.863722    -1.863722  -0.10191006   0.47536351    -1.863722    1.7618119   439061 
  364000    1.1751889   -1.8639244   -1.8639244  -0.10114517   0.47506278   -1.8639244    1.7627793   439061 
  365000    1.1771588   -1.8651451   -1.8651451 -0.099410828   0.47098717   -1.8651451    1.7657342   439061 
  366000    1.1761015   -1.8642793   -1.8642793  -0.10013108   0.47538274   -1.8642793    1.7641483   439061 
  367000    1.1754334    -1.863143    -1.863143 -0.099996834    0.4743679    -1.863143    1.7631461   439061 
  368000    1.1764225   -1.8640976   -1.8640976 -0.099467953   0.47027735   -1.8640976    1.7646297   439061 
  369000    1.1754635   -1.8635913   -1.8635913  -0.10040007   0.47019397   -1.8635913    1.7631912   439061 
  370000    1.1743038   -1.8624059   -1.8624059  -0.10095417   0.47311286   -1.8624059    1.7614517   439061 
  371000    1.1761262   -1.8655206   -1.8655206  -0.10133532   0.46825121   -1.8655206    1.7641852   439061 
  372000    1.1732407   -1.8623794   -1.8623794  -0.10252234   0.47445097   -1.8623794     1.759857   439061 
  373000    1.1726987    -1.861155    -1.861155  -0.10211097   0.47258506    -1.861155     1.759044   439061 
  374000    1.1739573   -1.8634659   -1.8634659  -0.10253388   0.47241589   -1.8634659     1.760932   439061 
  375000    1.1730325   -1.8631372   -1.8631372  -0.10359248   0.47191092   -1.8631372    1.7595447   439061 
  376000    1.1737039   -1.8639249   -1.8639249  -0.10337314   0.46602118   -1.8639249    1.7605518   439061 
  377000    1.1718643    -1.861827    -1.861827  -0.10403459   0.47206371    -1.861827    1.7577924   439061 
  378000     1.171778   -1.8621217   -1.8621217  -0.10445863   0.46680186   -1.8621217     1.757663   439061 
  379000    1.1732984   -1.8634576   -1.8634576  -0.10351405    0.4703509   -1.8634576    1.7599435   439061 
  380000    1.1712532    -1.861238    -1.861238   -0.1043621    0.4759351    -1.861238    1.7568759   439061 
  381000    1.1728144   -1.8638507   -1.8638507  -0.10463299   0.47585293   -1.8638507    1.7592177   439061 
  382000    1.1718334   -1.8630348   -1.8630348  -0.10528863   0.47297576   -1.8630348    1.7577461   439061 
  383000    1.1718487   -1.8639564   -1.8639564  -0.10618739   0.47077808   -1.8639564    1.7577691   439061 
  384000    1.1717443   -1.8644122   -1.8644122  -0.10679982   0.46965944   -1.8644122    1.7576124   439061 
  385000    1.1711192   -1.8641241   -1.8641241  -0.10744932   0.47367409   -1.8641241    1.7566748   439061 
  386000    1.1706663   -1.8634671   -1.8634671  -0.10747164    0.4737166   -1.8634671    1.7559954   439061 
  387000    1.1715014   -1.8657322   -1.8657322  -0.10848406   0.46965354   -1.8657322    1.7572481   439061 
  388000    1.1717173   -1.8663934   -1.8663934  -0.10882144   0.46688142   -1.8663934     1.757572   439061 
  389000    1.1702588   -1.8653745   -1.8653745  -0.10999035   0.46848431   -1.8653745    1.7553841   439061 
  390000    1.1713013    -1.866349    -1.866349  -0.10940099   0.46868011    -1.866349     1.756948   439061 
  391000    1.1704653   -1.8638032   -1.8638032  -0.10810918   0.47155797   -1.8638032     1.755694   439061 
  392000    1.1710318   -1.8652055   -1.8652055  -0.10866183   0.46645962   -1.8652055    1.7565437   439061 
  393000    1.1702579   -1.8652949   -1.8652949  -0.10991206   0.46779264   -1.8652949    1.7553828   439061 
  394000     1.167939   -1.8627171   -1.8627171  -0.11081263   0.47093381   -1.8627171    1.7519045   439061 
  395000    1.1685308   -1.8643746   -1.8643746  -0.11158239   0.46593063   -1.8643746    1.7527922   439061 
  396000    1.1690108   -1.8654448   -1.8654448  -0.11193266   0.46708333   -1.8654448    1.7535122   439061 
  397000    1.1684276   -1.8649857   -1.8649857  -0.11234826   0.46351921   -1.8649857    1.7526374   439061 
  398000    1.1678321   -1.8641727   -1.8641727  -0.11242855   0.46770311   -1.8641727    1.7517442   439061 
  399000    1.1676608   -1.8644849   -1.8644849  -0.11299767   0.46072008   -1.8644849    1.7514872   439061 
  400000    1.1686497   -1.8652763   -1.8652763  -0.11230582   0.46121489   -1.8652763    1.7529705   439061 
  401000    1.1678755   -1.8640539   -1.8640539  -0.11224466   0.46626116   -1.8640539    1.7518092   439061 
  402000    1.1683226    -1.864936    -1.864936  -0.11245609   0.46603197    -1.864936    1.7524799   439061 
  403000    1.1680008   -1.8644506   -1.8644506  -0.11245338   0.46700665   -1.8644506    1.7519973   439061 
  404000    1.1681625   -1.8651084   -1.8651084  -0.11286869    0.4584479   -1.8651084    1.7522397   439061 
  405000    1.1676421   -1.8652011   -1.8652011  -0.11374188    0.4647897   -1.8652011    1.7514592   439061 
  406000    1.1655851   -1.8632207   -1.8632207  -0.11484705   0.46542408   -1.8632207    1.7483737   439061 
  407000    1.1671384   -1.8664872   -1.8664872  -0.11578361   0.46025236   -1.8664872    1.7507036   439061 
  408000    1.1656302   -1.8648922   -1.8648922  -0.11645096   0.46579311   -1.8648922    1.7484413   439061 
  409000    1.1665668    -1.867202    -1.867202  -0.11735586    0.4628523    -1.867202    1.7498462   439061 
  410000    1.1659201   -1.8669238   -1.8669238  -0.11804771   0.46130199   -1.8669238    1.7488761   439061 
  411000    1.1656315   -1.8663501   -1.8663501  -0.11790693   0.46164013   -1.8663501    1.7484432   439061 
  412000    1.1646227   -1.8664251   -1.8664251  -0.11949501   0.46247678   -1.8664251    1.7469301   439061 
  413000    1.1661882   -1.8686511   -1.8686511  -0.11937275   0.45938573   -1.8686511    1.7492784   439061 
  414000    1.1651017   -1.8667987   -1.8667987  -0.11915008   0.46752875   -1.8667987    1.7476486   439061 
  415000    1.1647043    -1.866049    -1.866049  -0.11899654   0.46196948    -1.866049    1.7470525   439061 
  416000    1.1645998   -1.8665725   -1.8665725  -0.11967668   0.46443813   -1.8665725    1.7468958   439061 
  417000    1.1652906   -1.8672166   -1.8672166  -0.11928458   0.46307901   -1.8672166     1.747932   439061 
  418000    1.1640279   -1.8655715   -1.8655715  -0.11953357   0.46360495   -1.8655715    1.7460379   439061 
  419000    1.1639964   -1.8651423   -1.8651423  -0.11915171   0.46251558   -1.8651423    1.7459906   439061 
  420000    1.1637658   -1.8650664   -1.8650664  -0.11942177   0.46021734   -1.8650664    1.7456447   439061 
  421000    1.1650499   -1.8671133   -1.8671133  -0.11954242   0.45838647   -1.8671133    1.7475709   439061 
  422000     1.163545   -1.8656218   -1.8656218  -0.12030828   0.45836465   -1.8656218    1.7453135   439061 
  423000    1.1647361   -1.8657467   -1.8657467  -0.11864649    0.4620102   -1.8657467    1.7471002   439061 
  424000    1.1643984   -1.8655287   -1.8655287  -0.11893514    0.4580411   -1.8655287    1.7465936   439061 
  425000    1.1634763   -1.8642764   -1.8642764    -0.119066   0.46053936   -1.8642764    1.7452104   439061 
  426000     1.162192   -1.8627327   -1.8627327  -0.11944869   0.46493633   -1.8627327     1.743284   439061 
  427000    1.1621967   -1.8644312   -1.8644312  -0.12114008   0.46314305   -1.8644312    1.7432911   439061 
  428000    1.1621724   -1.8643031   -1.8643031  -0.12104844   0.46061304   -1.8643031    1.7432546   439061 
  429000    1.1624728   -1.8644032   -1.8644032  -0.12069802    0.4593479   -1.8644032    1.7437052   439061 
  430000    1.1633918   -1.8657192   -1.8657192  -0.12063551   0.45988489   -1.8657192    1.7450837   439061 
  431000    1.1619909   -1.8646695   -1.8646695  -0.12168714   0.45618021   -1.8646695    1.7429823   439061 
  432000     1.160533   -1.8620026   -1.8620026  -0.12120697   0.46059937   -1.8620026    1.7407956   439061 
  433000     1.163012   -1.8660467   -1.8660467  -0.12153274   0.45550302   -1.8660467     1.744514   439061 
  434000    1.1630304   -1.8670608   -1.8670608   -0.1225192   0.46048582   -1.8670608    1.7445416   439061 
  435000    1.1618721    -1.864236    -1.864236   -0.1214318   0.46390605    -1.864236    1.7428042   439061 
  436000    1.1637825   -1.8661915   -1.8661915  -0.12052179   0.45668854   -1.8661915    1.7456697   439061 
  437000     1.162174   -1.8651924   -1.8651924  -0.12193534   0.46060361   -1.8651924     1.743257   439061 
  438000    1.1612398   -1.8645029   -1.8645029   -0.1226472   0.46154486   -1.8645029    1.7418557   439061 
  439000    1.1613668   -1.8648347   -1.8648347  -0.12278853   0.46245077   -1.8648347    1.7420462   439061 
  440000    1.1623902   -1.8654087   -1.8654087  -0.12182733   0.45910641   -1.8654087    1.7435814   439061 
  441000     1.162504   -1.8673479   -1.8673479  -0.12359587   0.46044068   -1.8673479     1.743752   439061 
  442000    1.1603745   -1.8641317   -1.8641317  -0.12357391   0.45953331   -1.8641317    1.7405578   439061 
  443000    1.1591843   -1.8639113   -1.8639113   -0.1251388   0.46157612   -1.8639113    1.7387725   439061 
  444000    1.1608904   -1.8666396   -1.8666396  -0.12530786   0.45458778   -1.8666396    1.7413317   439061 
  445000    1.1586906   -1.8656597   -1.8656597  -0.12762779   0.45516096   -1.8656597    1.7380319   439061 
  446000    1.1583323   -1.8642421   -1.8642421  -0.12674756   0.45734867   -1.8642421    1.7374945   439061 
  447000    1.1600104   -1.8671521   -1.8671521  -0.12714052   0.45509307   -1.8671521    1.7400116   439061 
  448000    1.1578789   -1.8643109   -1.8643109  -0.12749646   0.46076617   -1.8643109    1.7368144   439061 
  449000    1.1597992   -1.8660199   -1.8660199  -0.12632509   0.45761422   -1.8660199    1.7396948   439061 
  450000    1.1599343   -1.8661229   -1.8661229  -0.12622544    0.4554654   -1.8661229    1.7398975   439061 
  451000    1.1595601   -1.8654552   -1.8654552  -0.12611906   0.45514687   -1.8654552    1.7393362   439061 
  452000    1.1603672   -1.8663875   -1.8663875   -0.1258407   0.45389097   -1.8663875    1.7405468   439061 
  453000    1.1595714   -1.8662102   -1.8662102  -0.12685709   0.45381265   -1.8662102    1.7393531   439061 
  454000    1.1583638   -1.8652114   -1.8652114  -0.12766971   0.46125098   -1.8652114    1.7375417   439061 
  455000    1.1582092   -1.8649006   -1.8649006  -0.12759073   0.45410347   -1.8649006    1.7373098   439061 
  456000    1.1574127   -1.8642141   -1.8642141  -0.12809901   0.45876335   -1.8642141    1.7361151   439061 
  457000    1.1599657   -1.8674176   -1.8674176  -0.12747301   0.45518412   -1.8674176    1.7399446   439061 
  458000    1.1587876   -1.8643162   -1.8643162  -0.12613881   0.45692075   -1.8643162    1.7381774   439061 
  459000    1.1574159   -1.8643284   -1.8643284   -0.1282085   0.45484328   -1.8643284    1.7361199   439061 
  460000    1.1574318   -1.8654014   -1.8654014  -0.12925769   0.44942877   -1.8654014    1.7361438   439061 
  461000    1.1563852   -1.8640758   -1.8640758  -0.12950192   0.45534389   -1.8640758    1.7345739   439061 
  462000    1.1589143   -1.8682613   -1.8682613  -0.12989386   0.45209788   -1.8682613    1.7383675   439061 
  463000    1.1562372   -1.8645644   -1.8645644  -0.13021267   0.45797206   -1.8645644    1.7343518   439061 
  464000     1.157109   -1.8663444   -1.8663444  -0.13068486   0.45420989   -1.8663444    1.7356595   439061 
  465000    1.1566992   -1.8662558   -1.8662558    -0.131211   0.45194744   -1.8662558    1.7350448   439061 
  466000    1.1561516   -1.8658008   -1.8658008  -0.13157729   0.45238722   -1.8658008    1.7342235   439061 
  467000    1.1560273    -1.866978    -1.866978  -0.13294099   0.45563282    -1.866978     1.734037   439061 
  468000    1.1566587   -1.8676216   -1.8676216  -0.13263754   0.45410499   -1.8676216    1.7349841   439061 
  469000    1.1561857   -1.8651281   -1.8651281  -0.13085356    0.4566113   -1.8651281    1.7342745   439061 
  470000    1.1566888   -1.8662824   -1.8662824  -0.13125318   0.45661095   -1.8662824    1.7350293   439061 
  471000     1.155739   -1.8662126   -1.8662126  -0.13260796   0.45212597   -1.8662126    1.7336046   439061 
  472000    1.1558896   -1.8675168   -1.8675168  -0.13368642   0.44789192   -1.8675168    1.7338304   439061 
  473000    1.1555897   -1.8675268   -1.8675268  -0.13414611   0.45134924   -1.8675268    1.7333806   439061 
  474000    1.1555224   -1.8672829   -1.8672829   -0.1340033   0.45544027   -1.8672829    1.7332796   439061 
  475000    1.1542751   -1.8663096   -1.8663096  -0.13490089   0.45319866   -1.8663096    1.7314087   439061 
  476000    1.1548348    -1.867393    -1.867393  -0.13514474   0.44670126    -1.867393    1.7322482   439061 
  477000    1.1545532   -1.8673095   -1.8673095  -0.13548359   0.44973972   -1.8673095    1.7318259   439061 
  478000    1.1536193   -1.8664522   -1.8664522  -0.13602715     0.453055   -1.8664522    1.7304251   439061 
  479000    1.1542548   -1.8668322   -1.8668322  -0.13545398   0.45148569   -1.8668322    1.7313782   439061 
  480000    1.1537221   -1.8668077   -1.8668077  -0.13622849   0.45205692   -1.8668077    1.7305792   439061 
  481000    1.1521788   -1.8664523   -1.8664523  -0.13818795   0.45122957   -1.8664523    1.7282643   439061 
  482000     1.154131   -1.8688468   -1.8688468  -0.13765426   0.44922958   -1.8688468    1.7311925   439061 
  483000    1.1527423   -1.8669209   -1.8669209  -0.13781131   0.45318035   -1.8669209    1.7291096   439061 
  484000    1.1519057   -1.8668355   -1.8668355  -0.13898083   0.45023875   -1.8668355    1.7278547   439061 
  485000    1.1528332   -1.8681669   -1.8681669  -0.13892101   0.44606787   -1.8681669    1.7292459   439061 
  486000    1.1523581   -1.8670954   -1.8670954  -0.13856214   0.45042731   -1.8670954    1.7285332   439061 
  487000    1.1524257   -1.8670269   -1.8670269  -0.13839227   0.44689357   -1.8670269    1.7286347   439061 
  488000      1.15194   -1.8665658   -1.8665658   -0.1386597   0.44746301   -1.8665658    1.7279061   439061 
  489000    1.1516334   -1.8666092   -1.8666092  -0.13916295   0.44872531   -1.8666092    1.7274462   439061 
  490000    1.1524346   -1.8685543   -1.8685543  -0.13990629   0.44802083   -1.8685543     1.728648   439061 
  491000    1.1520381   -1.8679225   -1.8679225  -0.13986936    0.4455687   -1.8679225    1.7280532   439061 
  492000    1.1521652   -1.8683849   -1.8683849  -0.14014096   0.44498552   -1.8683849    1.7282439   439061 
  493000    1.1509242   -1.8681662   -1.8681662   -0.1417838   0.44780122   -1.8681662    1.7263824   439061 
  494000    1.1501871   -1.8673164   -1.8673164  -0.14203961   0.44743663   -1.8673164    1.7252768   439061 
  495000    1.1519585    -1.867934    -1.867934  -0.14000021   0.44609161    -1.867934    1.7279338   439061 
  496000    1.1498112   -1.8656413   -1.8656413  -0.14092842   0.44655443   -1.8656413    1.7247129   439061 
  497000    1.1504436   -1.8662716   -1.8662716  -0.14061013   0.44980115   -1.8662716    1.7256615   439061 
  498000     1.150339   -1.8672221   -1.8672221  -0.14171761    0.4471832   -1.8672221    1.7255045   439061 
  499000    1.1507561   -1.8669949   -1.8669949  -0.14086471   0.45057244   -1.8669949    1.7261302   439061 
  500000    1.1520091   -1.8689852   -1.8689852  -0.14097551   0.44775795   -1.8689852    1.7280097   439061 
  501000    1.1505674   -1.8667918   -1.8667918  -0.14094455   0.44723815   -1.8667918    1.7258472   439061 
  502000    1.1502976   -1.8669306   -1.8669306  -0.14148807   0.44330177   -1.8669306    1.7254425   439061 
  503000     1.150954   -1.8679536   -1.8679536  -0.14152663   0.44228869   -1.8679536     1.726427   439061 
  504000    1.1516575    -1.868738    -1.868738  -0.14125568   0.44246857    -1.868738    1.7274823   439061 
  505000    1.1500109   -1.8672041   -1.8672041  -0.14219164   0.44664806   -1.8672041    1.7250125   439061 
  506000    1.1495892   -1.8674101   -1.8674101  -0.14303019   0.45186792   -1.8674101    1.7243799   439061 
  507000    1.1503218   -1.8679304   -1.8679304  -0.14245161   0.44594024   -1.8679304    1.7254788   439061 
  508000    1.1489331   -1.8675072   -1.8675072  -0.14411151   0.44559171   -1.8675072    1.7233957   439061 
  509000    1.1486425   -1.8674832   -1.8674832  -0.14452336   0.44367378   -1.8674832    1.7229598   439061 
  510000    1.1480931   -1.8671389   -1.8671389  -0.14500311   0.44349529   -1.8671389    1.7221358   439061 
  511000    1.1480916    -1.866253    -1.866253  -0.14411962   0.44726539    -1.866253    1.7221334   439061 
  512000    1.1479211   -1.8655978   -1.8655978  -0.14372016   0.44830365   -1.8655978    1.7218777   439061 
  513000    1.1481596   -1.8662339   -1.8662339  -0.14399836   0.44668195   -1.8662339    1.7222355   439061 
  514000    1.1473821   -1.8660021   -1.8660021  -0.14493282   0.44181185   -1.8660021    1.7210693   439061 
  515000    1.1485337   -1.8673872   -1.8673872  -0.14459049   0.44477277   -1.8673872    1.7227967   439061 
  516000    1.1475052   -1.8673564   -1.8673564  -0.14610254   0.44303493   -1.8673564    1.7212539   439061 
  517000    1.1465832   -1.8661727   -1.8661727  -0.14630183   0.44422904   -1.8661727    1.7198709   439061 
  518000     1.147704   -1.8683199   -1.8683199  -0.14676772   0.44381795   -1.8683199    1.7215521   439061 
  519000    1.1473319   -1.8675188   -1.8675188  -0.14652484   0.44369402   -1.8675188     1.720994   439061 
  520000    1.1475704   -1.8675783   -1.8675783  -0.14622662   0.44519076   -1.8675783    1.7213517   439061 
  521000    1.1481638   -1.8682788   -1.8682788   -0.1460371   0.44715565   -1.8682788    1.7222417   439061 
  522000      1.14742   -1.8677135   -1.8677135  -0.14658745   0.44054048   -1.8677135    1.7211261   439061 
  523000    1.1461435   -1.8659175   -1.8659175  -0.14670615   0.44402453   -1.8659175    1.7192114   439061 
  524000    1.1468129    -1.867012    -1.867012   -0.1467966   0.44253052    -1.867012    1.7202154   439061 
  525000    1.1462404   -1.8673273   -1.8673273  -0.14797052   0.44128263   -1.8673273    1.7193567   439061 
  526000    1.1466412    -1.868081    -1.868081  -0.14812313   0.44175259    -1.868081    1.7199578   439061 
  527000    1.1449777   -1.8660576   -1.8660576  -0.14859499   0.44487779   -1.8660576    1.7174626   439061 
  528000    1.1449879   -1.8668433   -1.8668433  -0.14936537   0.44644884   -1.8668433     1.717478   439061 
  529000    1.1455925   -1.8667256   -1.8667256  -0.14834071   0.44735236   -1.8667256    1.7183849   439061 
  530000    1.1460355    -1.867989    -1.867989  -0.14893973   0.44243606    -1.867989    1.7190493   439061 
  531000    1.1460486   -1.8676963   -1.8676963  -0.14862728   0.44026571   -1.8676963     1.719069   439061 
  532000    1.1469845   -1.8681645   -1.8681645  -0.14769157   0.43800017   -1.8681645    1.7204729   439061 
  533000    1.1447303   -1.8672753   -1.8672753  -0.15018381   0.43605991   -1.8672753    1.7170915   439061 
  534000     1.146503   -1.8680483   -1.8680483  -0.14829763   0.44304145   -1.8680483    1.7197506   439061 
  535000    1.1465416   -1.8687424   -1.8687424  -0.14893387   0.44140467   -1.8687424    1.7198085   439061 
  536000    1.1444466   -1.8656934   -1.8656934   -0.1490274   0.44051755   -1.8656934     1.716666   439061 
  537000    1.1447546   -1.8668168   -1.8668168  -0.14968879   0.44210412   -1.8668168     1.717128   439061 
  538000    1.1452403   -1.8661253   -1.8661253  -0.14826865    0.4434873   -1.8661253    1.7178566   439061 
  539000    1.1434841   -1.8650956   -1.8650956  -0.14987326   0.43950488   -1.8650956    1.7152223   439061 
  540000    1.1451592   -1.8666257   -1.8666257  -0.14889087   0.44267339   -1.8666257    1.7177349   439061 
  541000     1.144878     -1.86585     -1.86585  -0.14853683   0.44497093     -1.86585    1.7173131   439061 
  542000    1.1449984    -1.866449    -1.866449  -0.14895536   0.44191505    -1.866449    1.7174937   439061 
  543000    1.1453702    -1.868564    -1.868564  -0.15051264   0.44108586    -1.868564    1.7180513   439061 
  544000     1.142972   -1.8668465   -1.8668465  -0.15239236   0.44058838   -1.8668465    1.7144541   439061 
  545000    1.1431933   -1.8669539   -1.8669539  -0.15216785   0.43605728   -1.8669539    1.7147861   439061 
  546000    1.1439326   -1.8679104   -1.8679104  -0.15201546   0.44207081   -1.8679104     1.715895   439061 
  547000    1.1440528   -1.8694915   -1.8694915  -0.15341611   0.43954809   -1.8694915    1.7160754   439061 
  548000    1.1426854   -1.8680844   -1.8680844  -0.15406026   0.44180979   -1.8680844    1.7140242   439061 
  549000    1.1432689   -1.8677698   -1.8677698  -0.15287043   0.44159184   -1.8677698    1.7148994   439061 
  550000    1.1438194   -1.8696038   -1.8696038  -0.15387865   0.43821462   -1.8696038    1.7157251   439061 
  551000    1.1425727   -1.8689731   -1.8689731  -0.15511798   0.44141955   -1.8689731    1.7138551   439061 
  552000    1.1405017   -1.8660033   -1.8660033   -0.1552546   0.44350553   -1.8660033    1.7107487   439061 
  553000    1.1421154   -1.8695491   -1.8695491  -0.15637981   0.44075371   -1.8695491    1.7131693   439061 
  554000    1.1427097   -1.8678484   -1.8678484  -0.15378774   0.44187994   -1.8678484    1.7140607   439061 
  555000    1.1423085   -1.8679924   -1.8679924  -0.15453344   0.43801146   -1.8679924    1.7134589   439061 
  556000    1.1417459   -1.8679722   -1.8679722  -0.15535724   0.44080302   -1.8679722     1.712615   439061 
  557000     1.142842   -1.8689927   -1.8689927  -0.15473349   0.43638736   -1.8689927    1.7142592   439061 
  558000    1.1420269   -1.8691382   -1.8691382  -0.15610169   0.43781071   -1.8691382    1.7130365   439061 
  559000    1.1415684   -1.8691701   -1.8691701  -0.15682134   0.43400177   -1.8691701    1.7123488   439061 
  560000    1.1403689   -1.8675723   -1.8675723  -0.15702278    0.4354493   -1.8675723    1.7105495   439061 
  561000    1.1413913   -1.8692305   -1.8692305  -0.15714748   0.43364701   -1.8692305    1.7120831   439061 
  562000    1.1407086   -1.8682484   -1.8682484   -0.1571894   0.43739807   -1.8682484     1.711059   439061 
  563000    1.1412749    -1.868062    -1.868062  -0.15615354   0.43929133    -1.868062    1.7119085   439061 
  564000      1.14123   -1.8678742   -1.8678742  -0.15603309     0.437207   -1.8678742    1.7118411   439061 
  565000    1.1429132   -1.8697341   -1.8697341  -0.15536829   0.43833115   -1.8697341    1.7143658   439061 
  566000    1.1411821   -1.8678121   -1.8678121  -0.15604288    0.4385197   -1.8678121    1.7117692   439061 
  567000    1.1400802    -1.866269    -1.866269   -0.1561525   0.44044535    -1.866269    1.7101165   439061 
  568000    1.1420728   -1.8681557   -1.8681557  -0.15505043   0.43322069   -1.8681557    1.7131053   439061 
  569000    1.1397019   -1.8663804   -1.8663804  -0.15683145   0.44017688   -1.8663804    1.7095489   439061 
  570000    1.1410545   -1.8685816   -1.8685816  -0.15700374   0.43891068   -1.8685816    1.7115779   439061 
  571000    1.1385955   -1.8654167   -1.8654167  -0.15752739    0.4390827   -1.8654167    1.7078893   439061 
  572000    1.1396816   -1.8681963   -1.8681963  -0.15867776   0.42942144   -1.8681963    1.7095185   439061 
  573000    1.1393276   -1.8673511   -1.8673511  -0.15836367    0.4359462   -1.8673511    1.7089875   439061 
  574000    1.1393994   -1.8679604   -1.8679604  -0.15886521   0.43531326   -1.8679604    1.7090952   439061 
  575000     1.141282    -1.870262    -1.870262  -0.15834297   0.43033688    -1.870262    1.7119191   439061 
  576000    1.1377142    -1.865139    -1.865139  -0.15857169   0.44166856    -1.865139    1.7065674   439061 
  577000    1.1395257   -1.8666172   -1.8666172  -0.15733256   0.43684263   -1.8666172    1.7092847   439061 
  578000     1.138699   -1.8660596   -1.8660596  -0.15801504   0.43539068   -1.8660596    1.7080446   439061 
  579000    1.1393722   -1.8671183   -1.8671183  -0.15806387   0.43463093   -1.8671183    1.7090544   439061 
  580000    1.1405611   -1.8685794   -1.8685794  -0.15774156   0.44015201   -1.8685794    1.7108378   439061 
  581000    1.1402677   -1.8683938   -1.8683938  -0.15799618   0.43407042   -1.8683938    1.7103977   439061 
  582000    1.1414039   -1.8703751   -1.8703751  -0.15827305    0.4332634   -1.8703751     1.712102   439061 
  583000     1.139966   -1.8681649   -1.8681649  -0.15821971   0.43594638   -1.8681649    1.7099451   439061 
  584000     1.139604   -1.8681861   -1.8681861  -0.15878392   0.43196232   -1.8681861    1.7094021   439061 
  585000    1.1386281   -1.8672143   -1.8672143  -0.15927609   0.43700099   -1.8672143    1.7079382   439061 
  586000    1.1386542    -1.867814    -1.867814  -0.15983656   0.43964045    -1.867814    1.7079774   439061 
  587000    1.1383111   -1.8674775   -1.8674775  -0.16001471   0.43668669   -1.8674775    1.7074628   439061 
  588000    1.1384979   -1.8679034   -1.8679034  -0.16016043   0.43538853   -1.8679034    1.7077429   439061 
  589000     1.138576   -1.8693888   -1.8693888  -0.16152878    0.4372914   -1.8693888    1.7078601   439061 
  590000    1.1360865   -1.8676436   -1.8676436  -0.16351775    0.4317916   -1.8676436    1.7041259   439061 
  591000    1.1375954   -1.8692995   -1.8692995  -0.16291024   0.43489947   -1.8692995    1.7063892   439061 
  592000     1.138078   -1.8701999   -1.8701999  -0.16308674   0.43226963   -1.8701999    1.7071132   439061 
  593000    1.1372449   -1.8687305   -1.8687305  -0.16286701   0.43244491   -1.8687305    1.7058635   439061 
  594000    1.1369467   -1.8678151   -1.8678151  -0.16239898    0.4310009   -1.8678151    1.7054162   439061 
  595000    1.1366332   -1.8678815   -1.8678815   -0.1629356   0.43345467   -1.8678815    1.7049459   439061 
  596000    1.1368289   -1.8677799   -1.8677799  -0.16254042   0.43230311   -1.8677799    1.7052395   439061 
  597000    1.1376052   -1.8702208   -1.8702208  -0.16381697   0.42990038   -1.8702208    1.7064039   439061 
  598000    1.1385051   -1.8688966   -1.8688966  -0.16114296   0.43555732   -1.8688966    1.7077537   439061 
  599000    1.1368871   -1.8687876   -1.8687876  -0.16346078   0.42958395   -1.8687876    1.7053268   439061 
  600000    1.1365224    -1.868668    -1.868668  -0.16388831   0.43024535    -1.868668    1.7047797   439061 
  601000    1.1354153    -1.866454    -1.866454  -0.16333491   0.43299616    -1.866454    1.7031191   439061 
  602000    1.1364793   -1.8682268   -1.8682268  -0.16351167   0.43235041   -1.8682268    1.7047151   439061 
  603000    1.1354691   -1.8669826   -1.8669826  -0.16378287   0.43324004   -1.8669826    1.7031997   439061 
  604000     1.136548   -1.8695488   -1.8695488  -0.16473061   0.42735215   -1.8695488    1.7048182   439061 
  605000    1.1357631   -1.8679071   -1.8679071  -0.16426636   0.42934167   -1.8679071    1.7036408   439061 
  606000    1.1350714   -1.8669827   -1.8669827  -0.16437949   0.43293472   -1.8669827    1.7026032   439061 
  607000    1.1340909   -1.8660982   -1.8660982  -0.16496567   0.43809376   -1.8660982    1.7011325   439061 
  608000    1.1356037   -1.8680583   -1.8680583   -0.1646566   0.42924923   -1.8680583    1.7034017   439061 
  609000    1.1351463   -1.8674888   -1.8674888  -0.16477326   0.43095508   -1.8674888    1.7027156   439061 
  610000    1.1336896   -1.8659131   -1.8659131  -0.16538261   0.43292324   -1.8659131    1.7005305   439061 
  611000    1.1351458   -1.8680452   -1.8680452  -0.16533041   0.42991825   -1.8680452    1.7027148   439061 
  612000    1.1356789   -1.8687092   -1.8687092  -0.16519465   0.43591021   -1.8687092    1.7035145   439061 
  613000    1.1344405   -1.8679942   -1.8679942  -0.16633731     0.432499   -1.8679942    1.7016569   439061 
  614000    1.1359211   -1.8679122   -1.8679122  -0.16403445   0.43086868   -1.8679122    1.7038777   439061 
  615000    1.1358496   -1.8682093   -1.8682093  -0.16443873   0.42997728   -1.8682093    1.7037706   439061 
  616000    1.1344959   -1.8656488   -1.8656488  -0.16390884   0.43238379   -1.8656488    1.7017399   439061 
  617000    1.1353068   -1.8670314   -1.8670314  -0.16407503   0.42928708   -1.8670314    1.7029564   439061 
  618000    1.1352427   -1.8682175   -1.8682175  -0.16535732   0.43401134   -1.8682175    1.7028601   439061 
  619000    1.1341274   -1.8674033   -1.8674033  -0.16621612   0.42913474   -1.8674033    1.7011872   439061 
  620000    1.1346773   -1.8680773   -1.8680773  -0.16606521   0.42797188   -1.8680773     1.702012   439061 
  621000    1.1343753   -1.8680825   -1.8680825  -0.16652348   0.43271593   -1.8680825     1.701559   439061 
  622000     1.132559   -1.8672557   -1.8672557  -0.16842111   0.42790342   -1.8672557    1.6988346   439061 
  623000    1.1329491   -1.8668008   -1.8668008  -0.16738101   0.42733604   -1.8668008    1.6994198   439061 
  624000    1.1326917   -1.8678011   -1.8678011  -0.16876736   0.43007314   -1.8678011    1.6990337   439061 
  625000    1.1325161   -1.8689261   -1.8689261  -0.17015576   0.42784101   -1.8689261    1.6987703   439061 
  626000     1.133178   -1.8692023   -1.8692023   -0.1694392   0.43147128   -1.8692023    1.6997631   439061 
  627000    1.1325999   -1.8680088   -1.8680088  -0.16911282   0.42791951   -1.8680088    1.6988959   439061 
  628000    1.1330128   -1.8683465   -1.8683465  -0.16883113   0.43082201   -1.8683465    1.6995153   439061 
  629000    1.1330385    -1.869324    -1.869324  -0.16977018   0.42797086    -1.869324    1.6995539   439061 
  630000    1.1325061   -1.8686725   -1.8686725  -0.16991726   0.42499182   -1.8686725    1.6987553   439061 
  631000    1.1321414   -1.8693087   -1.8693087  -0.17110048   0.43221035   -1.8693087    1.6982082   439061 
  632000    1.1321676   -1.8691032   -1.8691032  -0.17085564   0.42625744   -1.8691032    1.6982475   439061 
  633000    1.1317013   -1.8691592   -1.8691592  -0.17161104   0.42196153   -1.8691592    1.6975481   439061 
  634000    1.1325537   -1.8704792   -1.8704792  -0.17165248   0.42540473   -1.8704792    1.6988267   439061 
  635000    1.1316759   -1.8688237   -1.8688237  -0.17131377   0.42804185   -1.8688237      1.69751   439061 
  636000    1.1321442    -1.869933    -1.869933  -0.17172061   0.42535901    -1.869933    1.6982124   439061 
  637000    1.1320843    -1.867983    -1.867983  -0.16986038   0.42912282    -1.867983    1.6981226   439061 
  638000    1.1321942   -1.8691598   -1.8691598  -0.17087238   0.42548272   -1.8691598    1.6982874   439061 
  639000    1.1310608   -1.8690003   -1.8690003  -0.17241289   0.42877828   -1.8690003    1.6965874   439061 
  640000    1.1308247   -1.8680441   -1.8680441  -0.17181089   0.42842793   -1.8680441    1.6962332   439061 
  641000    1.1317639   -1.8691571   -1.8691571  -0.17151506   0.42591363   -1.8691571     1.697642   439061 
  642000    1.1315386   -1.8694089   -1.8694089  -0.17210478   0.42782479   -1.8694089    1.6973041   439061 
  643000    1.1307251   -1.8677529   -1.8677529  -0.17166914   0.42496566   -1.8677529    1.6960837   439061 
  644000    1.1298894   -1.8676027   -1.8676027   -0.1727724   0.42694251   -1.8676027    1.6948303   439061 
  645000    1.1299042   -1.8680672   -1.8680672  -0.17321484   0.42710251   -1.8680672    1.6948524   439061 
  646000     1.131146   -1.8696536   -1.8696536  -0.17293847   0.42470484   -1.8696536    1.6967151   439061 
  647000    1.1315424   -1.8689774   -1.8689774  -0.17166756   0.42545307   -1.8689774    1.6973098   439061 
  648000    1.1316197   -1.8699761   -1.8699761   -0.1725503    0.4247673   -1.8699761    1.6974258   439061 
  649000    1.1312864   -1.8694708   -1.8694708  -0.17254498   0.42255185   -1.8694708    1.6969258   439061 
  650000    1.1313845   -1.8700079   -1.8700079  -0.17293497   0.42294274   -1.8700079    1.6970729   439061 
  651000    1.1297887   -1.8675021   -1.8675021  -0.17282287   0.42837053   -1.8675021    1.6946792   439061 
  652000    1.1305938   -1.8669449   -1.8669449  -0.17105805   0.43161415   -1.8669449    1.6958868   439061 
  653000    1.1305605   -1.8678568   -1.8678568  -0.17201987   0.42500991   -1.8678568     1.695837   439061 
  654000    1.1302213   -1.8671252   -1.8671252  -0.17179713   0.42252708   -1.8671252     1.695328   439061 
  655000    1.1313171   -1.8677933   -1.8677933  -0.17082141    0.4263174   -1.8677933    1.6969718   439061 
  656000    1.1294604   -1.8661209   -1.8661209  -0.17193412   0.42609157   -1.8661209    1.6941868   439061 
  657000    1.1303447    -1.867608    -1.867608  -0.17209476   0.42281377    -1.867608    1.6955132   439061 
  658000    1.1293268   -1.8654957   -1.8654957  -0.17150938   0.42805527   -1.8654957    1.6939863   439061 
  659000    1.1301785    -1.866907    -1.866907  -0.17164316   0.42785336    -1.866907    1.6952639   439061 
  660000    1.1291388   -1.8658769   -1.8658769  -0.17217263   0.42840762   -1.8658769    1.6937043   439061 
  661000    1.1290357   -1.8671212   -1.8671212  -0.17357152   0.42584384   -1.8671212    1.6935497   439061 
  662000    1.1287706   -1.8680388   -1.8680388  -0.17488672    0.4195451   -1.8680388     1.693152   439061 
  663000    1.1297202   -1.8682667   -1.8682667  -0.17369019   0.42146748   -1.8682667    1.6945765   439061 
  664000    1.1293375   -1.8679011   -1.8679011  -0.17389872   0.42430877   -1.8679011    1.6940024   439061 
  665000     1.128825   -1.8689606   -1.8689606  -0.17572694   0.42244065   -1.8689606    1.6932336   439061 
  666000    1.1287025   -1.8682055   -1.8682055  -0.17515558   0.42000365   -1.8682055      1.69305   439061 
  667000      1.12886   -1.8684682   -1.8684682  -0.17518208   0.42081301   -1.8684682    1.6932861   439061 
  668000    1.1296992   -1.8688205   -1.8688205  -0.17427549   0.42543815   -1.8688205     1.694545   439061 
  669000    1.1279814   -1.8684968   -1.8684968  -0.17652859   0.42294803   -1.8684968    1.6919682   439061 
  670000    1.1288375   -1.8699631   -1.8699631  -0.17671065   0.42304329   -1.8699631    1.6932524   439061 
  671000    1.1276972   -1.8686943   -1.8686943  -0.17715238   0.42081917   -1.8686943     1.691542   439061 
  672000    1.1269471   -1.8676227   -1.8676227  -0.17720596   0.42130469   -1.8676227    1.6904167   439061 
  673000    1.1261656   -1.8678279   -1.8678279  -0.17858334   0.42036373   -1.8678279    1.6892445   439061 
  674000     1.126865   -1.8686526   -1.8686526  -0.17835889   0.42438396   -1.8686526    1.6902937   439061 
  675000    1.1270117   -1.8694583   -1.8694583  -0.17894456   0.41615634   -1.8694583    1.6905137   439061 
  676000    1.1276473   -1.8701173   -1.8701173  -0.17865022   0.42527061   -1.8701173    1.6914671   439061 
  677000      1.12831   -1.8716602   -1.8716602  -0.17919907   0.41951892   -1.8716602    1.6924611   439061 
  678000    1.1271727   -1.8700364   -1.8700364  -0.17928119   0.42354474   -1.8700364    1.6907552   439061 
  679000      1.12668   -1.8690308   -1.8690308  -0.17901475    0.4230582   -1.8690308    1.6900161   439061 
  680000    1.1265357   -1.8680153   -1.8680153  -0.17821559   0.42302788   -1.8680153    1.6897997   439061 
  681000    1.1276871   -1.8699434   -1.8699434  -0.17841652   0.42394902   -1.8699434    1.6915268   439061 
  682000     1.126529   -1.8687593   -1.8687593  -0.17896968   0.42255594   -1.8687593    1.6897896   439061 
  683000     1.126594   -1.8682028   -1.8682028  -0.17831566   0.42347412   -1.8682028    1.6898871   439061 
  684000    1.1270648   -1.8692732   -1.8692732   -0.1786799   0.42000223   -1.8692732    1.6905933   439061 
  685000    1.1263622   -1.8686982   -1.8686982  -0.17915874   0.42133358   -1.8686982    1.6895395   439061 
  686000    1.1257688    -1.867338    -1.867338  -0.17868874    0.4219702    -1.867338    1.6886493   439061 
  687000    1.1262747   -1.8678325   -1.8678325  -0.17842438   0.42213003   -1.8678325    1.6894082   439061 
  688000    1.1249651   -1.8662786   -1.8662786  -0.17883479   0.42428656   -1.8662786    1.6874438   439061 
  689000    1.1270981   -1.8706242   -1.8706242  -0.17998094   0.41621241   -1.8706242    1.6906433   439061 
  690000    1.1262198   -1.8695936   -1.8695936  -0.18026776   0.41929511   -1.8695936    1.6893258   439061 
  691000    1.1243063   -1.8666696   -1.8666696  -0.18021396    0.4233805   -1.8666696    1.6864556   439061 
  692000    1.1251004   -1.8685736   -1.8685736  -0.18092688   0.41917699   -1.8685736    1.6876467   439061 
  693000    1.1253967   -1.8683077   -1.8683077  -0.18021658   0.42132991   -1.8683077    1.6880912   439061 
  694000    1.1262224   -1.8688029   -1.8688029   -0.1794731   0.42134702   -1.8688029    1.6893298   439061 
  695000    1.1257195   -1.8682001   -1.8682001  -0.17962474   0.42280617   -1.8682001    1.6885754   439061 
  696000    1.1244512   -1.8661838   -1.8661838  -0.17951087   0.42393193   -1.8661838    1.6866729   439061 
  697000    1.1250383   -1.8673884   -1.8673884  -0.17983483   0.42407641   -1.8673884    1.6875535   439061 
  698000    1.1263818   -1.8700875   -1.8700875  -0.18051869   0.41598514   -1.8700875    1.6895688   439061 
  699000     1.124619   -1.8685544   -1.8685544   -0.1816298   0.42571754   -1.8685544    1.6869246   439061 
  700000    1.1234312   -1.8672674   -1.8672674  -0.18212436   0.41751982   -1.8672674     1.685143   439061 
  701000    1.1245168   -1.8693034   -1.8693034  -0.18253198   0.42165004   -1.8693034    1.6867714   439061 
  702000    1.1243417   -1.8686855   -1.8686855  -0.18217679   0.41931405   -1.8686855    1.6865087   439061 
  703000    1.1246639   -1.8694345   -1.8694345   -0.1824425   0.42181091   -1.8694345     1.686992   439061 
  704000    1.1239085   -1.8679671   -1.8679671  -0.18210822     0.419761   -1.8679671    1.6858589   439061 
[...]
 2833000    1.0447526   -1.8822273   -1.8822273  -0.31510204   0.33369897   -1.8822273    1.5671253   439061 
 2834000     1.044731   -1.8832924   -1.8832924  -0.31619948    0.3339079   -1.8832924    1.5670929   439061 
 2835000    1.0445544   -1.8832595   -1.8832595  -0.31643145   0.32982622   -1.8832595    1.5668281   439061 
 2836000    1.0437895   -1.8819614   -1.8819614  -0.31628074   0.33486245   -1.8819614    1.5656807   439061 
 2837000    1.0447506   -1.8820881   -1.8820881  -0.31496588   0.33299335   -1.8820881    1.5671223   439061 
 2838000    1.0448395    -1.881433    -1.881433  -0.31417731   0.33653625    -1.881433    1.5672557   439061 
 2839000    1.0443847    -1.880946    -1.880946  -0.31437252   0.33482694    -1.880946    1.5665734   439061 
 2840000    1.0425654   -1.8800557   -1.8800557  -0.31621118   0.33501867   -1.8800557    1.5638445   439061 
 2841000    1.0458788   -1.8837293   -1.8837293   -0.3149147   0.33643638   -1.8837293    1.5688146   439061 
 2842000    1.0450763   -1.8827104   -1.8827104  -0.31509954   0.33458433   -1.8827104    1.5676109   439061 
 2843000    1.0441288   -1.8812612   -1.8812612  -0.31507161   0.33383323   -1.8812612    1.5661896   439061 
 2844000    1.0456649    -1.883119    -1.883119  -0.31462522   0.33652522    -1.883119    1.5684937   439061 
 2845000    1.0443851   -1.8808196   -1.8808196  -0.31424548   0.33631078   -1.8808196    1.5665741   439061 
 2846000    1.0443476   -1.8803661   -1.8803661  -0.31384819   0.33418717   -1.8803661    1.5665179   439061 
 2847000     1.045262    -1.882181    -1.882181  -0.31429154   0.33649204    -1.882181    1.5678894   439061 
 2848000    1.0447442   -1.8809278   -1.8809278  -0.31381512    0.3378885   -1.8809278    1.5671127   439061 
 2849000    1.0449342    -1.881737    -1.881737  -0.31433928   0.33584113    -1.881737    1.5673977   439061 
 2850000    1.0445648   -1.8811217   -1.8811217  -0.31427814   0.33674586   -1.8811217    1.5668436   439061 
 2851000    1.0441197   -1.8798202   -1.8798202  -0.31364412   0.33696956   -1.8798202     1.566176   439061 
 2852000     1.045406   -1.8816858   -1.8816858  -0.31358044   0.33224018   -1.8816858    1.5681054   439061 
 2853000    1.0457507   -1.8820256   -1.8820256  -0.31340308   0.33062236   -1.8820256    1.5686225   439061 
 2854000    1.0453498    -1.881539    -1.881539  -0.31351782   0.33652965    -1.881539    1.5680212   439061 
 2855000    1.0458413   -1.8809505   -1.8809505  -0.31219212   0.33697423   -1.8809505    1.5687584   439061 
 2856000     1.046068   -1.8819063   -1.8819063  -0.31280787   0.33650516   -1.8819063    1.5690984   439061 
 2857000    1.0438141    -1.879327    -1.879327  -0.31360946   0.33787014    -1.879327    1.5657176   439061 
 2858000    1.0463498   -1.8820505   -1.8820505  -0.31252942   0.33667681   -1.8820505    1.5695211   439061 
 2859000    1.0460075   -1.8824272   -1.8824272  -0.31341957   0.33123657   -1.8824272    1.5690077   439061 
 2860000    1.0461075   -1.8825921   -1.8825921  -0.31343448   0.33191349   -1.8825921    1.5691576   439061 
 2861000    1.0458216   -1.8824283   -1.8824283  -0.31369939    0.3312059   -1.8824283    1.5687289   439061 
 2862000    1.0460201   -1.8817928   -1.8817928  -0.31276626   0.33395611   -1.8817928    1.5690266   439061 
 2863000    1.0437324    -1.880453    -1.880453  -0.31485795   0.33533248    -1.880453    1.5655951   439061 
 2864000    1.0438139   -1.8822081   -1.8822081  -0.31649086   0.33452461   -1.8822081    1.5657173   439061 
 2865000    1.0441657   -1.8821234   -1.8821234   -0.3158785   0.33760469   -1.8821234    1.5662449   439061 
 2866000     1.043491   -1.8813626   -1.8813626  -0.31612959    0.3300907   -1.8813626     1.565233   439061 
 2867000    1.0442739   -1.8823816   -1.8823816  -0.31597435   0.33392459   -1.8823816    1.5664072   439061 
 2868000    1.0444865   -1.8818764   -1.8818764  -0.31515019    0.3351878   -1.8818764    1.5667262   439061 
 2869000    1.0447323   -1.8815491   -1.8815491  -0.31445429   0.33034551   -1.8815491    1.5670949   439061 
 2870000     1.043766   -1.8819808   -1.8819808  -0.31633544   0.33552909   -1.8819808    1.5656454   439061 
 2871000     1.043979   -1.8825468   -1.8825468  -0.31658194   0.33759792   -1.8825468    1.5659649   439061 
 2872000    1.0423244   -1.8803915   -1.8803915   -0.3169084   0.33621003   -1.8803915    1.5634831   439061 
 2873000    1.0431205   -1.8803013   -1.8803013  -0.31562407   0.33235674   -1.8803013    1.5646772   439061 
 2874000    1.0441406   -1.8819194   -1.8819194  -0.31571207    0.3363455   -1.8819194    1.5662073   439061 
 2875000    1.0441981   -1.8822666   -1.8822666  -0.31597297    0.3381791   -1.8822666    1.5662936   439061 
 2876000    1.0445013   -1.8828359   -1.8828359  -0.31608755   0.33586119   -1.8828359    1.5667484   439061 
 2877000    1.0437601   -1.8822346   -1.8822346  -0.31659801   0.33525084   -1.8822346    1.5656366   439061 
 2878000    1.0443037    -1.882235    -1.882235  -0.31578314   0.33798094    -1.882235    1.5664519   439061 
 2879000    1.0450322   -1.8831322   -1.8831322  -0.31558742   0.33755179   -1.8831322    1.5675447   439061 
 2880000    1.0441623   -1.8826144   -1.8826144  -0.31637449   0.33307839   -1.8826144    1.5662399   439061 
 2881000    1.0432935   -1.8819483   -1.8819483  -0.31701158   0.33239449   -1.8819483    1.5649367   439061 
 2882000    1.0439348   -1.8825747   -1.8825747  -0.31667605   0.33131523   -1.8825747    1.5658986   439061 
 2883000    1.0448171   -1.8838653   -1.8838653  -0.31664315   0.33235615   -1.8838653    1.5672221   439061 
 2884000    1.0442303   -1.8822451   -1.8822451   -0.3159032   0.33400384   -1.8822451    1.5663419   439061 
 2885000    1.0449219   -1.8825539   -1.8825539  -0.31517471   0.33491299   -1.8825539    1.5673792   439061 
 2886000    1.0449101   -1.8822831   -1.8822831   -0.3149215   0.33267341   -1.8822831    1.5673616   439061 
 2887000    1.0433328   -1.8805784   -1.8805784  -0.31558269   0.33587522   -1.8805784    1.5649957   439061 
 2888000    1.0447804   -1.8814385   -1.8814385  -0.31427137   0.33372404   -1.8814385    1.5671671   439061 
 2889000     1.044816   -1.8813905   -1.8813905  -0.31417005   0.33331495   -1.8813905    1.5672204   439061 
 2890000    1.0446687   -1.8816554   -1.8816554  -0.31465592   0.33094068   -1.8816554    1.5669995   439061 
 2891000    1.0437503   -1.8802605   -1.8802605  -0.31463865   0.33332585   -1.8802605    1.5656219   439061 
 2892000    1.0452129   -1.8819911   -1.8819911  -0.31417533   0.32788946   -1.8819911    1.5678157   439061 
 2893000    1.0449924   -1.8810219   -1.8810219  -0.31353688   0.33399473   -1.8810219     1.567485   439061 
 2894000    1.0447727   -1.8808192   -1.8808192  -0.31366364   0.33471369   -1.8808192    1.5671555   439061 
 2895000    1.0440067     -1.88001     -1.88001  -0.31400361   0.33532583     -1.88001    1.5660064   439061 
 2896000    1.0453239   -1.8818278   -1.8818278  -0.31384551   0.33806953   -1.8818278    1.5679823   439061 
 2897000    1.0451653   -1.8812442   -1.8812442  -0.31349983   0.33178433   -1.8812442    1.5677444   439061 
 2898000    1.0445128   -1.8801468   -1.8801468  -0.31338118   0.33855563   -1.8801468    1.5667657   439061 
 2899000    1.0446644   -1.8813713   -1.8813713  -0.31437829   0.33571499   -1.8813713     1.566993   439061 
 2900000    1.0461141   -1.8818805   -1.8818805  -0.31271293   0.33117706   -1.8818805    1.5691676   439061 
 2901000    1.0454857   -1.8816448   -1.8816448  -0.31341978    0.3324598   -1.8816448     1.568225   439061 
 2902000    1.0440308   -1.8813933   -1.8813933  -0.31535072   0.33570023   -1.8813933    1.5660426   439061 
 2903000    1.0448077    -1.882341    -1.882341  -0.31513294   0.33548155    -1.882341     1.567208   439061 
 2904000    1.0433869   -1.8809337   -1.8809337  -0.31585682   0.33275748   -1.8809337    1.5650769   439061 
 2905000    1.0433969   -1.8811265   -1.8811265  -0.31603469   0.33565902   -1.8811265    1.5650918   439061 
 2906000    1.0442715   -1.8823072   -1.8823072   -0.3159035   0.33575092   -1.8823072    1.5664037   439061 
 2907000    1.0443559   -1.8820028   -1.8820028  -0.31547241   0.33697773   -1.8820028    1.5665303   439061 
 2908000    1.0441452   -1.8814553   -1.8814553  -0.31524106   0.33709765   -1.8814553    1.5662142   439061 
 2909000       1.0446   -1.8818591   -1.8818591   -0.3149626   0.33626806   -1.8818591    1.5668965   439061 
 2910000    1.0433455   -1.8818244   -1.8818244  -0.31680981   0.33414181   -1.8818244    1.5650146   439061 
 2911000    1.0444498   -1.8815234   -1.8815234  -0.31485237   0.33257179   -1.8815234    1.5666711   439061 
 2912000    1.0449613   -1.8822576   -1.8822576  -0.31481918   0.33818729   -1.8822576    1.5674384   439061 
 2913000    1.0448773   -1.8823135   -1.8823135  -0.31500109   0.33146454   -1.8823135    1.5673124   439061 
 2914000    1.0449322    -1.882808    -1.882808  -0.31541319   0.33663538    -1.882808    1.5673948   439061 
 2915000    1.0434004   -1.8815865   -1.8815865  -0.31648953   0.33849651   -1.8815865     1.565097   439061 
 2916000    1.0438385   -1.8831779   -1.8831779  -0.31742365   0.32944881   -1.8831779    1.5657542   439061 
 2917000    1.0427735   -1.8819712   -1.8819712   -0.3178145   0.33303409   -1.8819712    1.5641567   439061 
 2918000    1.0444191   -1.8833694   -1.8833694  -0.31674433   0.33286853   -1.8833694    1.5666251   439061 
 2919000    1.0440319   -1.8821395   -1.8821395  -0.31609528   0.33533847   -1.8821395    1.5660443   439061 
 2920000    1.0446534   -1.8821341   -1.8821341  -0.31515758   0.33690435   -1.8821341    1.5669766   439061 
 2921000     1.044133   -1.8821082   -1.8821082  -0.31591226   0.33664167   -1.8821082    1.5661959   439061 
 2922000    1.0427471   -1.8799112   -1.8799112  -0.31579413   0.33223997   -1.8799112    1.5641171   439061 
 2923000    1.0442709   -1.8824092   -1.8824092  -0.31600641   0.33000628   -1.8824092    1.5664028   439061 
 2924000    1.0440747   -1.8828799   -1.8828799  -0.31677138   0.33449303   -1.8828799    1.5661085   439061 
 2925000    1.0432109   -1.8819305   -1.8819305  -0.31711767   0.33341389   -1.8819305    1.5648128   439061 
 2926000    1.0437305   -1.8823889   -1.8823889  -0.31679673   0.33401556   -1.8823889    1.5655922   439061 
 2927000    1.0434868   -1.8815155   -1.8815155  -0.31628884   0.33909211   -1.8815155    1.5652267   439061 
 2928000    1.0433504   -1.8822279   -1.8822279  -0.31720591   0.33097772   -1.8822279     1.565022   439061 
 2929000    1.0440667     -1.88168     -1.88168  -0.31558351   0.33485151     -1.88168    1.5660965   439061 
 2930000     1.044551   -1.8833201   -1.8833201  -0.31649717   0.32906397   -1.8833201    1.5668229   439061 
 2931000    1.0449839   -1.8834498   -1.8834498  -0.31597752   0.32974368   -1.8834498    1.5674723   439061 
 2932000    1.0433414   -1.8811923   -1.8811923  -0.31618379   0.33701557   -1.8811923    1.5650085   439061 
 2933000    1.0444274   -1.8819448   -1.8819448  -0.31530735   0.33163102   -1.8819448    1.5666375   439061 
 2934000    1.0442967   -1.8818604   -1.8818604  -0.31541898   0.34045037   -1.8818604    1.5664414   439061 
 2935000    1.0423911   -1.8796863   -1.8796863  -0.31610331    0.3335773   -1.8796863     1.563583   439061 
 2936000    1.0442851   -1.8826821   -1.8826821  -0.31625808   0.33396487   -1.8826821    1.5664241   439061 
 2937000    1.0433856   -1.8807697   -1.8807697  -0.31569489   0.33600342   -1.8807697    1.5650748   439061 
 2938000    1.0452688   -1.8822347   -1.8822347  -0.31433502   0.33310373   -1.8822347    1.5678996   439061 
 2939000    1.0434023   -1.8804723   -1.8804723  -0.31537242   0.33698926   -1.8804723    1.5650999   439061 
 2940000    1.0454005   -1.8844861   -1.8844861    -0.316389   0.33729875   -1.8844861    1.5680971   439061 
 2941000    1.0442497   -1.8827519   -1.8827519  -0.31638081    0.3341509   -1.8827519     1.566371   439061 
 2942000     1.044005   -1.8806846   -1.8806846  -0.31468063   0.33894506   -1.8806846    1.5660039   439061 
 2943000    1.0454504   -1.8841362   -1.8841362  -0.31596414   0.33126446   -1.8841362    1.5681721   439061 
 2944000    1.0440973   -1.8812365   -1.8812365  -0.31509419    0.3349398   -1.8812365    1.5661424   439061 
 2945000    1.0450735   -1.8820481   -1.8820481  -0.31444137   0.33573169   -1.8820481    1.5676067   439061 
 2946000    1.0456308   -1.8817035   -1.8817035  -0.31326082   0.33490352   -1.8817035    1.5684427   439061 
 2947000    1.0444621   -1.8808023   -1.8808023  -0.31411273   0.34150914   -1.8808023    1.5666895   439061 
 2948000    1.0447272    -1.881513    -1.881513  -0.31442574   0.33634526    -1.881513    1.5670872   439061 
 2949000    1.0444147   -1.8813531   -1.8813531  -0.31473467   0.33575242   -1.8813531    1.5666184   439061 
 2950000    1.0441174    -1.881323    -1.881323  -0.31515047   0.33501914    -1.881323    1.5661726   439061 
 2951000    1.0440149   -1.8803079   -1.8803079  -0.31428923   0.33669323   -1.8803079    1.5660187   439061 
 2952000    1.0446745   -1.8813732   -1.8813732  -0.31436504   0.33428178   -1.8813732    1.5670082   439061 
 2953000     1.045237   -1.8821196   -1.8821196  -0.31426766   0.33432751   -1.8821196    1.5678519   439061 
 2954000    1.0445826   -1.8804842   -1.8804842  -0.31361395   0.33349167   -1.8804842    1.5668703   439061 
 2955000    1.0453638   -1.8820125   -1.8820125  -0.31397033   0.33421136   -1.8820125    1.5680422   439061 
 2956000    1.0461679   -1.8820701   -1.8820701  -0.31282184   0.33438586   -1.8820701    1.5692483   439061 
 2957000     1.044935   -1.8811796   -1.8811796  -0.31378063   0.33122345   -1.8811796     1.567399   439061 
 2958000    1.0425914   -1.8785326   -1.8785326  -0.31464907   0.33966072   -1.8785326    1.5638836   439061 
 2959000     1.044497   -1.8813936   -1.8813936  -0.31465166   0.33441879   -1.8813936    1.5667419   439061 
 2960000    1.0449997   -1.8820134   -1.8820134  -0.31451736   0.33787188   -1.8820134     1.567496   439061 
 2961000    1.0457981   -1.8837105   -1.8837105  -0.31501686    0.3276563   -1.8837105    1.5686936   439061 
 2962000     1.043825   -1.8808204   -1.8808204  -0.31508643   0.33398479   -1.8808204    1.5657339   439061 
 2963000    1.0459454    -1.883623    -1.883623   -0.3147084   0.33083358    -1.883623    1.5689146   439061 
 2964000    1.0429522   -1.8802533   -1.8802533  -0.31582859   0.33608251   -1.8802533    1.5644248   439061 
 2965000    1.0442942   -1.8812608   -1.8812608  -0.31482303   0.33452739   -1.8812608    1.5664378   439061 
 2966000    1.0427447   -1.8795256   -1.8795256  -0.31541206   0.33795037   -1.8795256    1.5641135   439061 
 2967000    1.0439826   -1.8813582   -1.8813582  -0.31538781   0.33414854   -1.8813582    1.5659704   439061 
 2968000    1.0438082   -1.8816255   -1.8816255  -0.31591678   0.33299692   -1.8816255    1.5657087   439061 
 2969000    1.0444667   -1.8819358   -1.8819358  -0.31523922   0.33250834   -1.8819358    1.5666966   439061 
 2970000    1.0446522    -1.881169    -1.881169  -0.31419428   0.33321962    -1.881169    1.5669747   439061 
 2971000    1.0449422   -1.8810724   -1.8810724  -0.31366271   0.33630252   -1.8810724    1.5674097   439061 
 2972000    1.0454685   -1.8822651   -1.8822651  -0.31406596   0.33780189   -1.8822651    1.5681992   439061 
 2973000    1.0446767   -1.8816457   -1.8816457  -0.31463421   0.33314357   -1.8816457    1.5670115   439061 
 2974000    1.0441976   -1.8815589   -1.8815589    -0.315266   0.33028847   -1.8815589    1.5662929   439061 
 2975000    1.0429353     -1.88025     -1.88025  -0.31585064   0.33292702     -1.88025    1.5643994   439061 
 2976000    1.0435294   -1.8810014   -1.8810014  -0.31571081   0.33594231   -1.8810014    1.5652906   439061 
 2977000    1.0442804   -1.8829668   -1.8829668  -0.31654983   0.33509865   -1.8829668     1.566417   439061 
 2978000    1.0444051   -1.8828197   -1.8828197  -0.31621559   0.33565184   -1.8828197    1.5666041   439061 
 2979000    1.0426208   -1.8807567   -1.8807567    -0.316829   0.33384905   -1.8807567    1.5639277   439061 
 2980000    1.0434668   -1.8835701   -1.8835701   -0.3183735   0.33400582   -1.8835701    1.5651966   439061 
 2981000    1.0426537   -1.8828341   -1.8828341  -0.31885705   0.32955254   -1.8828341     1.563977   439061 
 2982000    1.0429781   -1.8829504   -1.8829504  -0.31848689   0.33405643   -1.8829504    1.5644635   439061 
 2983000    1.0428833   -1.8822936   -1.8822936   -0.3179721    0.3352935   -1.8822936    1.5643215   439061 
 2984000    1.0440428   -1.8844446   -1.8844446  -0.31838397   0.32869991   -1.8844446    1.5660606   439061 
 2985000    1.0430909   -1.8827829   -1.8827829  -0.31815022   0.33033653   -1.8827829    1.5646327   439061 
 2986000    1.0439516   -1.8825328   -1.8825328  -0.31660892   0.33584298   -1.8825328    1.5659238   439061 
 2987000    1.0435302   -1.8813938   -1.8813938  -0.31610203   0.33109202   -1.8813938    1.5652918   439061 
 2988000    1.0457267   -1.8832949   -1.8832949  -0.31470838   0.33102117   -1.8832949    1.5685865   439061 
 2989000     1.043743   -1.8809496   -1.8809496  -0.31533875   0.34117096   -1.8809496    1.5656109   439061 
 2990000    1.0446629   -1.8821342   -1.8821342  -0.31514336    0.3351014   -1.8821342    1.5669908   439061 
 2991000    1.0435651   -1.8824843   -1.8824843  -0.31714016   0.33299129   -1.8824843    1.5653441   439061 
 2992000    1.0438422   -1.8827026   -1.8827026  -0.31694286   0.33549716   -1.8827026    1.5657598   439061 
 2993000    1.0438885   -1.8820596   -1.8820596  -0.31623048   0.33301133   -1.8820596    1.5658292   439061 
 2994000    1.0425224   -1.8798885   -1.8798885  -0.31610836   0.33360979   -1.8798885    1.5637801   439061 
 2995000    1.0437374   -1.8820442   -1.8820442  -0.31644166   0.33750003   -1.8820442    1.5656025   439061 
 2996000    1.0437733   -1.8817673   -1.8817673    -0.316111   0.33142517   -1.8817673    1.5656563   439061 
 2997000    1.0435479   -1.8815857   -1.8815857   -0.3162675   0.33146434   -1.8815857    1.5653182   439061 
 2998000    1.0441833   -1.8825018   -1.8825018  -0.31623041   0.33164017   -1.8825018    1.5662714   439061 
 2999000     1.042838   -1.8822185   -1.8822185  -0.31796504   0.33393189   -1.8822185    1.5642534   439061 
 3000000    1.0432083   -1.8829242   -1.8829242   -0.3181153   0.33404507   -1.8829242    1.5648089   439061 
Loop time of 9708.93 on 96 procs for 3000000 steps with 439061 atoms

Performance: 133485.400 tau/day, 308.994 timesteps/s
91.5% CPU use with 96 MPI tasks x 1 OpenMP threads

MPI task timing breakdown:
Section |  min time  |  avg time  |  max time  |%varavg|  %CPU | %total
-----------------------------------------------------------------------
Pair    | 4288.8     | 5210.4     | 5992.1     | 700.5 |  95.5 | 53.67
Bond    | 2.1469     | 2.2457     | 2.3867     |   3.0 | 100.0 |  0.02
Neigh   | 1513.6     | 1718.7     | 1879.1     | 235.6 |  99.3 | 17.70
Comm    | 922.56     | 2172.7     | 3144.6     |1295.0 |  81.6 | 22.38
Output  | 113.66     | 113.89     | 113.9      |   0.2 |  68.5 |  1.17
Modify  | 164.74     | 256.52     | 772.17     |1195.4 |  85.2 |  2.64
Other   |            | 234.6      |            |       |       |  2.42

Nlocal:        4573.55 ave        4734 max        4432 min
Histogram: 1 5 11 20 16 19 15 5 2 2
Nghost:        4462.61 ave        5054 max        3447 min
Histogram: 7 13 4 0 0 0 5 30 32 5
Neighs:        100002.0 ave      114817 max       83916 min
Histogram: 7 5 5 11 16 15 12 11 10 4

Total # of neighbors = 9600194
Ave neighs/atom = 21.865285
Ave special neighs/atom = 0.0000000
Neighbor list builds = 300000
Dangerous builds = 297000
System init for write_data ...
WARNING: Not all mixed pair coeffs generated from mixing. Use write_data with 'pair ij' option to store all pair coeffs. (src/write_data.cpp:312)
Total wall time: 2:41:51
