LAMMPS (24 Dec 2020)
OMP_NUM_THREADS environment is not set. Defaulting to 1 thread. (src/comm.cpp:94)
  using 1 OpenMP thread(s) per MPI task
#Read the equilibrated lj fluid and add nanocubes

units           lj
atom_style      full
atom_modify     map array first cubes
dimension       3
boundary        p p f
pair_style      lj/cut/opt 2.5

variable        sigma           equal 1.0
variable        epsilon         equal 1.0
read_restart	restart.dat.3000000
Reading restart file ...
  restart file = 29 Oct 2020, LAMMPS = 24 Dec 2020
  restoring atom style full from restart
  orthogonal box = (0.0000000 0.0000000 0.0000000) to (100.00000 100.00000 200.00000)
  4 by 5 by 12 MPI processor grid
  restoring pair style lj/cut/opt from restart
  1010000 atoms
Finding 1-2 1-3 1-4 neighbors ...
  special bond factors lj:    0        0        0       
  special bond factors coul:  0        0        0       
     0 = max # of 1-2 neighbors
     0 = max # of 1-3 neighbors
     0 = max # of 1-4 neighbors
     1 = max # of special neighbors
  special bonds CPU = 1.957 seconds
  read_restart CPU = 2.551 seconds

group		solvent type 1
1010000 atoms in group solvent

read_data	data490_seed1.cubes group cubes add append
Reading data file ...
  orthogonal box = (0.0000000 0.0000000 0.0000000) to (100.00000 100.00000 200.00000)
  4 by 5 by 12 MPI processor grid
  reading atoms ...
  560070 atoms
  reading velocities ...
  560070 velocities
Finding 1-2 1-3 1-4 neighbors ...
  special bond factors lj:    0        0        0       
  special bond factors coul:  0        0        0       
     0 = max # of 1-2 neighbors
     0 = max # of 1-3 neighbors
     0 = max # of 1-4 neighbors
     1 = max # of special neighbors
  special bonds CPU = 0.007 seconds
  read_data CPU = 1.544 seconds

neighbor      0.4 bin
neigh_modify  exclude molecule/intra cubes


pair_modify   shift yes

pair_coeff    1 1 1.0 1.0 #solvent
pair_coeff    2 2 0.6 1.0 #np
pair_coeff    3 3 0.0 0.0 0.0 #dummy
pair_coeff    2 3 0.0 0.0 0.0 #np dummy
pair_coeff    1 2 0.8 1.0 #np solvent
pair_coeff    1 3 0.0 0.0 0.0 #dummy solvent


# delete solvent where the cubes are
delete_atoms  overlap 1.0 solvent cubes
System init for delete_atoms ...
Neighbor list info ...
  update every 1 steps, delay 10 steps, check yes
  max neighbors/atom: 2000, page size: 100000
  master list distance cutoff = 2.9
  ghost atom cutoff = 2.9
  binsize = 1.45, bins = 69 69 138
  2 neighbor lists, perpetual/occasional/extra = 1 1 0
  (1) command delete_atoms, occasional
      attributes: full, newton on
      pair build: full/bin
      stencil: full/bin/3d
      bin: standard
  (2) pair lj/cut/opt, perpetual
      attributes: half, newton on
      pair build: half/bin/newton
      stencil: half/bin/3d/newton
      bin: standard
WARNING: Delete_atoms cutoff > minimum neighbor cutoff (src/delete_atoms.cpp:307)
WARNING: Ignoring 'compress yes' for molecular system (src/delete_atoms.cpp:125)
Deleted 317179 atoms, new total = 1252891



comm_modify   mode multi cutoff/multi 1 2.5 cutoff/multi 2 2.5 cutoff/multi 3 6.95

reset_timestep 	0

balance 	1.05 shift z 10 1.05
Balancing ...
Neighbor list info ...
  update every 1 steps, delay 10 steps, check yes
  max neighbors/atom: 2000, page size: 100000
  master list distance cutoff = 2.9
  ghost atom cutoff = 6.95
  binsize = 1.45, bins = 69 69 138
  1 neighbor lists, perpetual/occasional/extra = 1 0 0
  (1) pair lj/cut/opt, perpetual
      attributes: half, newton on
      pair build: half/bin/newton
      stencil: half/bin/3d/newton
      bin: standard
 rebalancing time: 0.013 seconds
  iteration count = 4
  initial/final maximal load/proc = 8226.0000 7750.0000
  initial/final imbalance factor  = 1.5757476 1.4845665
  x cuts: 0.0000000 0.25000000 0.50000000 0.75000000 1.0000000
  y cuts: 0.0000000 0.20000000 0.40000000 0.60000000 0.80000000 1.0000000
  z cuts: 0.0000000 0.057291667 0.11979167 0.17187500 0.23958333 0.28125000 0.34375000 0.41145833 0.46354167 0.51562500 0.56250000 0.64583333 1.0000000

####################### WALLS ###########################

variable       epsilonWall equal 2*${epsilon}
variable       epsilonWall equal 2*1

variable       cutoffTop   equal   0.7147*${sigma}
variable       cutoffTop   equal   0.7147*1

variable       cutoffLow   equal   3*${sigma}
variable       cutoffLow   equal   3*1

region         lowWall block EDGE EDGE EDGE EDGE EDGE 2


fix            topWall all wall/lj93 zhi EDGE 	       ${epsilonWall} ${sigma} ${cutoffTop} units box
fix            topWall all wall/lj93 zhi EDGE 	       2 ${sigma} ${cutoffTop} units box
fix            topWall all wall/lj93 zhi EDGE 	       2 1 ${cutoffTop} units box
fix            topWall all wall/lj93 zhi EDGE 	       2 1 0.7147 units box

fix            lowWall all wall/lj93 zlo EDGE                ${epsilonWall} ${sigma} ${cutoffLow} units box
fix            lowWall all wall/lj93 zlo EDGE                2 ${sigma} ${cutoffLow} units box
fix            lowWall all wall/lj93 zlo EDGE                2 1 ${cutoffLow} units box
fix            lowWall all wall/lj93 zlo EDGE                2 1 3 units box




###################### COMPUTES ##########################

compute        bin1 solvent chunk/atom bin/1d z upper 1.0


######################  FIXES ############################


fix             peclet solvent ave/chunk 1000 1 1000 bin1 density/number norm                  none ave one file density.profile

fix              temp solvent ave/chunk 1000 1 1000 bin1 temp norm                  none ave one file temp.profile

fix             1 cubes rigid/nve/small molecule #temp 1.0 1.0 0.25
  create bodies CPU = 0.043 seconds
  490 rigid bodies with 560070 atoms
  6.9283446 = max distance from body owner to body atom

fix             2 solvent nve


## Thermostat

region          regthermo block EDGE EDGE EDGE EDGE 0 20

group           thermo dynamic solvent region regthermo every 1000
dynamic group thermo defined

fix             3 thermo langevin ${startTemp} ${temp} 0.1 156453
fix             3 thermo langevin 0.8 ${temp} 0.1 156453
fix             3 thermo langevin 0.8 0.8 0.1 156453




#### Load balancing

fix             bal all balance 1000 1.05 shift z 10 1.05

############### Diagnostics and computes ###################

compute        com cubes          rigid/local   1 mol x y z
compute        quat cubes         rigid/local   1 mol quatw quati quatj quatk
compute 	cc2 cubes chunk/atom molecule

compute 	msd cubes msd/chunk cc2

thermo          1000
thermo_style    custom step temp epair evdwl etotal press pe ke atoms

dump            1 all custom 100000 dump.lammpstrj id mol type x y z
dump            2 all image 10000 image.*.png type type

dump_modify     2 pad 8


dump		image cubes image 10000 image_cubes.*.png type type

dump_modify	image pad 8

dump            3 all movie 5000 movie.avi type type
dump           com cubes local 1000 dump.*.xyz c_com[*]
dump           quat cubes      local 1000 dump.*.quat c_quat[*]


restart         500000 restart.dat
timestep        0.005
timer           full
New timer settings: style=full  mode=nosync  timeout=off

run            3000000
Per MPI rank memory allocation (min/avg/max) = 17.45 | 28.11 | 30.16 Mbytes
Step Temp E_pair E_vdwl TotEng Press PotEng KinEng Atoms 
       0   0.88237228   -2.3069393   -2.3069393   -1.5740066  -0.17032453   -2.3069393   0.73293274  1252891 
    1000   0.86907013   -2.3125365   -2.3125365   -1.5906531 -0.065647663   -2.3125365   0.72188345  1252891 
    2000   0.86733856   -2.3155534   -2.3155534   -1.5951083  -0.08050208   -2.3155534   0.72044515  1252891 
    3000   0.86919114   -2.3197863   -2.3197863   -1.5978024 -0.069512299   -2.3197863   0.72198397  1252891 
    4000   0.86917931    -2.322759    -2.322759   -1.6007848 -0.066000081    -2.322759   0.72197414  1252891 
    5000   0.87056992   -2.3264749   -2.3264749   -1.6033456 -0.058309155   -2.3264749   0.72312924  1252891 
    6000   0.87432226   -2.3308114   -2.3308114   -1.6045654 -0.060179134   -2.3308114   0.72624608  1252891 
    7000   0.87591014   -2.3346218   -2.3346218   -1.6070568 -0.034163794   -2.3346218   0.72756504  1252891 
    8000   0.87938351    -2.340157    -2.340157   -1.6097069 -0.025242013    -2.340157   0.73045015  1252891 
    9000   0.88145305   -2.3442496   -2.3442496   -1.6120804 -0.0011876743   -2.3442496   0.73216919  1252891 
   10000   0.88595599   -2.3499153   -2.3499153   -1.6140058 0.0068045339   -2.3499153   0.73590951  1252891 
   11000   0.88971684   -2.3563999   -2.3563999   -1.6173665  0.025729584   -2.3563999   0.73903342  1252891 
   12000    0.8944706   -2.3624262   -2.3624262   -1.6194441  0.045384559   -2.3624262   0.74298208  1252891 
   13000   0.89658621   -2.3667663   -2.3667663   -1.6220269  0.060545802   -2.3667663   0.74473938  1252891 
   14000   0.89960352   -2.3714124   -2.3714124   -1.6241667  0.067886396   -2.3714124   0.74724567  1252891 
   15000   0.89928462   -2.3744211   -2.3744211   -1.6274403  0.076844377   -2.3744211   0.74698079  1252891 
   16000   0.89873258   -2.3756792   -2.3756792   -1.6291569  0.076901804   -2.3756792   0.74652224  1252891 
   17000   0.89945329   -2.3784156   -2.3784156   -1.6312947  0.082606481   -2.3784156   0.74712089  1252891 
   18000   0.89803393   -2.3800555   -2.3800555   -1.6341136  0.063613033   -2.3800555   0.74594192  1252891 
   19000    0.8939707   -2.3788476   -2.3788476   -1.6362807  0.064897775   -2.3788476   0.74256684  1252891 
   20000   0.89078924   -2.3771149   -2.3771149   -1.6371908  0.045340565   -2.3771149    0.7399242  1252891 
   21000   0.88761636   -2.3754612   -2.3754612   -1.6381725  0.029746514   -2.3754612   0.73728868  1252891 
   22000   0.88415514    -2.372848    -2.372848   -1.6384343  0.017732725    -2.372848   0.73441365  1252891 
   23000   0.88267912   -2.3722795   -2.3722795   -1.6390919  0.010677822   -2.3722795   0.73318761  1252891 
   24000   0.87957815   -2.3711289   -2.3711289   -1.6405171 -0.014748583   -2.3711289   0.73061183  1252891 
   25000   0.87633789   -2.3681785   -2.3681785   -1.6402581 -0.020010171   -2.3681785   0.72792034  1252891 
   26000   0.87394116   -2.3670553   -2.3670553   -1.6411258 -0.024087146   -2.3670553   0.72592952  1252891 
   27000   0.87288877   -2.3666363   -2.3666363   -1.6415809 -0.021781504   -2.3666363   0.72505537  1252891 
   28000   0.87300616   -2.3666659   -2.3666659    -1.641513 -0.029422334   -2.3666659   0.72515287  1252891 
   29000   0.87248829    -2.366935    -2.366935   -1.6422123 -0.014631844    -2.366935   0.72472272  1252891 
   30000   0.87332559   -2.3681472   -2.3681472    -1.642729 -0.036121253   -2.3681472   0.72541821  1252891 
   31000   0.87261506   -2.3687887   -2.3687887   -1.6439607 -0.027039474   -2.3687887   0.72482801  1252891 
   32000   0.87271359   -2.3685589   -2.3685589    -1.643649 -0.010311907   -2.3685589   0.72490985  1252891 
   33000   0.87662464   -2.3727953   -2.3727953   -1.6446368 -0.010871522   -2.3727953   0.72815852  1252891 
   34000   0.87705329   -2.3730901   -2.3730901   -1.6445755 0.0054817521   -2.3730901   0.72851458  1252891 
   35000   0.87887297   -2.3764479   -2.3764479   -1.6464218 -0.0008874772   -2.3764479   0.73002608  1252891 
   36000   0.88017118   -2.3781787   -2.3781787   -1.6470742 0.0094325526   -2.3781787   0.73110442  1252891 
   37000   0.88193957   -2.3811567   -2.3811567   -1.6485834  0.022501179   -2.3811567   0.73257332  1252891 
   38000   0.88536643   -2.3839392   -2.3839392   -1.6485194  0.020771564   -2.3839392    0.7354198  1252891 
   39000   0.88644404   -2.3865182   -2.3865182   -1.6502033  0.037920314   -2.3865182    0.7363149  1252891 
   40000   0.88703294   -2.3889667   -2.3889667   -1.6521626   0.04039115   -2.3889667   0.73680406  1252891 
   41000   0.88757795   -2.3900479   -2.3900479   -1.6527911  0.047145756   -2.3900479   0.73725677  1252891 
   42000   0.88760831   -2.3917091   -2.3917091   -1.6544272   0.05435775   -2.3917091   0.73728199  1252891 
   43000   0.88682012   -2.3921034   -2.3921034   -1.6554761  0.053738419   -2.3921034   0.73662728  1252891 
   44000   0.88729235    -2.392648    -2.392648   -1.6556285  0.049999724    -2.392648   0.73701954  1252891 
   45000   0.88559566   -2.3926034   -2.3926034   -1.6569932  0.054802404   -2.3926034    0.7356102  1252891 
   46000   0.88396263   -2.3921633   -2.3921633   -1.6579096   0.04067996   -2.3921633   0.73425374  1252891 
   47000   0.88376625   -2.3917894   -2.3917894   -1.6576988   0.03401535   -2.3917894   0.73409062  1252891 
   48000   0.88082062   -2.3902725   -2.3902725   -1.6586286  0.027194536   -2.3902725   0.73164387  1252891 
   49000   0.87941839   -2.3901141   -2.3901141    -1.659635  0.012425391   -2.3901141   0.73047913  1252891 
   50000   0.87870811   -2.3889998   -2.3889998   -1.6591107  0.011833848   -2.3889998   0.72988913  1252891 
   51000   0.87704596   -2.3886062   -2.3886062   -1.6600977  0.013460187   -2.3886062   0.72850849  1252891 
   52000    0.8759242   -2.3880041   -2.3880041   -1.6604274 0.0037336641   -2.3880041   0.72757672  1252891 
   53000    0.8749137   -2.3875325   -2.3875325   -1.6607951  0.003398157   -2.3875325   0.72673735  1252891 
   54000   0.87541745   -2.3873641   -2.3873641   -1.6602083  0.016171891   -2.3873641   0.72715579  1252891 
   55000    0.8748471    -2.387652    -2.387652   -1.6609699 0.0080026593    -2.387652   0.72668203  1252891 
   56000   0.87587392    -2.389198    -2.389198   -1.6616631 -0.0039390085    -2.389198   0.72753495  1252891 
   57000   0.87508645   -2.3896287   -2.3896287   -1.6627479 0.0080206563   -2.3896287   0.72688084  1252891 
   58000   0.87678547   -2.3905329   -2.3905329   -1.6622408 0.0059159577   -2.3905329   0.72829212  1252891 
   59000   0.87802057    -2.391902    -2.391902   -1.6625839  0.021340201    -2.391902   0.72931804  1252891 
   60000   0.87748009   -2.3925238   -2.3925238   -1.6636547  0.019697399   -2.3925238   0.72886909  1252891 
   61000   0.87829538   -2.3936416   -2.3936416   -1.6640953  0.024012074   -2.3936416   0.72954631  1252891 
   62000   0.87908973   -2.3945966   -2.3945966   -1.6643905  0.027029072   -2.3945966   0.73020612  1252891 
   63000   0.87986645   -2.3961173   -2.3961173    -1.665266  0.030616242   -2.3961173   0.73085129  1252891 
   64000   0.88034631   -2.3976242   -2.3976242   -1.6663743  0.036642389   -2.3976242   0.73124989  1252891 
   65000    0.8807921   -2.3980048   -2.3980048   -1.6663847  0.032400734   -2.3980048   0.73162018  1252891 
   66000    0.8811371   -2.3987113   -2.3987113   -1.6668045  0.040884716   -2.3987113   0.73190675  1252891 
   67000   0.88182311   -2.4005136   -2.4005136    -1.668037  0.043145456   -2.4005136   0.73247657  1252891 
   68000   0.88082205   -2.4006223   -2.4006223   -1.6689772  0.036911637   -2.4006223   0.73164506  1252891 
   69000    0.8800415   -2.4008241   -2.4008241   -1.6698274  0.041000316   -2.4008241   0.73099671  1252891 
   70000   0.87957588   -2.4003045   -2.4003045   -1.6696945  0.049230331   -2.4003045   0.73060994  1252891 
   71000   0.88063408   -2.4014863   -2.4014863   -1.6699974  0.043471884   -2.4014863   0.73148892  1252891 
   72000   0.88069223   -2.4016027   -2.4016027   -1.6700655  0.032585428   -2.4016027   0.73153722  1252891 
   73000   0.87957108   -2.4016183   -2.4016183   -1.6710123   0.03589721   -2.4016183   0.73060595  1252891 
   74000   0.87801027   -2.4002029   -2.4002029   -1.6708934  0.032947167   -2.4002029   0.72930949  1252891 
   75000   0.87688468   -2.4000196   -2.4000196   -1.6716451  0.024178461   -2.4000196   0.72837453  1252891 
   76000   0.87683046   -2.3999203   -2.3999203   -1.6715908  0.021332763   -2.3999203   0.72832949  1252891 
   77000   0.87608412    -2.400491    -2.400491   -1.6727815  0.026130041    -2.400491   0.72770954  1252891 
   78000   0.87588859   -2.4004724   -2.4004724   -1.6729252  0.020454037   -2.4004724   0.72754713  1252891 
   79000    0.8763365   -2.4009138   -2.4009138   -1.6729946     0.023656   -2.4009138   0.72791919  1252891 
   80000   0.87582048   -2.4007692   -2.4007692   -1.6732786  0.020864405   -2.4007692   0.72749056  1252891 
   81000    0.8757538   -2.4010622   -2.4010622    -1.673627  0.024179138   -2.4010622   0.72743517  1252891 
   82000   0.87639424   -2.4017483   -2.4017483   -1.6737812  0.025852236   -2.4017483   0.72796714  1252891 
   83000   0.87649305   -2.4019887   -2.4019887   -1.6739395  0.020899487   -2.4019887   0.72804922  1252891 
   84000   0.87757658   -2.4032893   -2.4032893   -1.6743401  0.025755702   -2.4032893   0.72894924  1252891 
   85000   0.87690818   -2.4031512   -2.4031512   -1.6747572  0.029865752   -2.4031512   0.72839404  1252891 
   86000   0.87747605   -2.4041593   -2.4041593   -1.6752936  0.035034643   -2.4041593   0.72886574  1252891 
   87000    0.8773685    -2.405213    -2.405213   -1.6764366   0.03102753    -2.405213    0.7287764  1252891 
   88000   0.87777175   -2.4045899   -2.4045899   -1.6754785  0.034543056   -2.4045899   0.72911136  1252891 
   89000   0.87843138   -2.4065035   -2.4065035   -1.6768442  0.028418341   -2.4065035   0.72965927  1252891 
   90000   0.87978171   -2.4064828   -2.4064828   -1.6757019  0.041749648   -2.4064828   0.73078091  1252891 
   91000   0.87759896   -2.4062574   -2.4062574   -1.6772896  0.043576731   -2.4062574   0.72896783  1252891 
   92000     0.877919   -2.4062694   -2.4062694   -1.6770358  0.030710817   -2.4062694   0.72923367  1252891 
   93000   0.87922074   -2.4076113   -2.4076113   -1.6772964  0.037209391   -2.4076113   0.73031495  1252891 
   94000   0.87736819   -2.4063285   -2.4063285   -1.6775523  0.038909339   -2.4063285   0.72877615  1252891 
   95000   0.87867883   -2.4080116   -2.4080116   -1.6781468   0.03180213   -2.4080116   0.72986481  1252891 
   96000   0.87731199   -2.4075791   -2.4075791   -1.6788497  0.028709988   -2.4075791   0.72872946  1252891 
   97000   0.87833876   -2.4078438   -2.4078438   -1.6782614   0.02726967   -2.4078438   0.72958234  1252891 
   98000   0.87710979   -2.4079731   -2.4079731   -1.6794116  0.033071613   -2.4079731   0.72856151  1252891 
   99000   0.87611885   -2.4083493   -2.4083493   -1.6806109  0.021892323   -2.4083493    0.7277384  1252891 
  100000   0.87646061   -2.4083319   -2.4083319   -1.6803096  0.024195514   -2.4083319   0.72802228  1252891 
  101000   0.87460118   -2.4067751   -2.4067751   -1.6802973  0.028605925   -2.4067751   0.72647776  1252891 
  102000   0.87580185   -2.4076452   -2.4076452   -1.6801701   0.03344296   -2.4076452   0.72747508  1252891 
  103000   0.87551774   -2.4067488   -2.4067488   -1.6795097  0.036391699   -2.4067488   0.72723909  1252891 
  104000    0.8756946   -2.4081015   -2.4081015   -1.6807155  0.024002787   -2.4081015     0.727386  1252891 
  105000   0.87472633   -2.4070679   -2.4070679   -1.6804862  0.027829502   -2.4070679   0.72658171  1252891 
  106000   0.87599392   -2.4077675   -2.4077675   -1.6801329   0.03268532   -2.4077675   0.72763462  1252891 
  107000   0.87543814    -2.408332    -2.408332    -1.681159  0.020949376    -2.408332   0.72717297  1252891 
  108000   0.87527759   -2.4087821   -2.4087821   -1.6817425  0.033862429   -2.4087821   0.72703961  1252891 
  109000   0.87581615   -2.4084804   -2.4084804   -1.6809934  0.031867572   -2.4084804   0.72748696  1252891 
  110000   0.87605367    -2.409229    -2.409229   -1.6815447  0.041425317    -2.409229   0.72768426  1252891 
  111000   0.87639597    -2.409516    -2.409516   -1.6815474  0.037560962    -2.409516   0.72796858  1252891 
  112000   0.87473841   -2.4090231   -2.4090231   -1.6824314   0.03394647   -2.4090231   0.72659175  1252891 
  113000   0.87511703   -2.4099854   -2.4099854   -1.6830792  0.041962277   -2.4099854   0.72690624  1252891 
  114000   0.87568581   -2.4109328   -2.4109328   -1.6835541  0.036206312   -2.4109328   0.72737869  1252891 
  115000   0.87538282   -2.4102712   -2.4102712   -1.6831442  0.031750073   -2.4102712   0.72712702  1252891 
  116000   0.87510183    -2.410119    -2.410119   -1.6832254  0.036862368    -2.410119   0.72689362  1252891 
  117000   0.87488436   -2.4106227   -2.4106227   -1.6839097    0.0364072   -2.4106227   0.72671298  1252891 
  118000   0.87484179   -2.4118534   -2.4118534   -1.6851757  0.034810438   -2.4118534   0.72667762  1252891 
  119000   0.87620539    -2.412487    -2.412487   -1.6846767  0.027720866    -2.412487   0.72781028  1252891 
  120000   0.87598013   -2.4121299   -2.4121299   -1.6845067  0.039969781   -2.4121299   0.72762317  1252891 
  121000   0.87427636   -2.4118776   -2.4118776   -1.6856697  0.042261145   -2.4118776   0.72620795  1252891 
  122000   0.87513368   -2.4125104   -2.4125104   -1.6855903  0.031048769   -2.4125104   0.72692007  1252891 
  123000   0.87414378   -2.4114676   -2.4114676   -1.6853698  0.041696919   -2.4114676   0.72609783  1252891 
  124000   0.87452871   -2.4128327   -2.4128327   -1.6864152   0.03407074   -2.4128327   0.72641756  1252891 
  125000   0.87564659   -2.4139006   -2.4139006   -1.6865545  0.028936535   -2.4139006   0.72734612  1252891 
  126000   0.87408219   -2.4133534   -2.4133534   -1.6873067  0.034924107   -2.4133534   0.72604667  1252891 
  127000   0.87362886   -2.4125355   -2.4125355   -1.6868653  0.031372335   -2.4125355   0.72567011  1252891 
  128000   0.87422569   -2.4135044   -2.4135044   -1.6873385  0.045512385   -2.4135044   0.72616587  1252891 
  129000    0.8740557   -2.4140551   -2.4140551   -1.6880304  0.028984215   -2.4140551   0.72602467  1252891 
  130000   0.87317078   -2.4137685   -2.4137685   -1.6884789  0.041657457   -2.4137685   0.72528961  1252891 
  131000   0.87428674   -2.4146701   -2.4146701   -1.6884536  0.041246597   -2.4146701   0.72621658  1252891 
  132000   0.87281387   -2.4144475   -2.4144475   -1.6894544  0.025324871   -2.4144475   0.72499315  1252891 
  133000   0.87430603   -2.4154041   -2.4154041   -1.6891715  0.034475798   -2.4154041    0.7262326  1252891 
  134000   0.87477401    -2.416063    -2.416063   -1.6894417  0.033340357    -2.416063   0.72662132  1252891 
  135000   0.87546742    -2.416481    -2.416481   -1.6892837  0.035300371    -2.416481   0.72719729  1252891 
  136000   0.87276544    -2.415284    -2.415284    -1.690331  0.041619946    -2.415284   0.72495292  1252891 
  137000   0.87344435   -2.4158414   -2.4158414   -1.6903246  0.033137524   -2.4158414   0.72551685  1252891 
  138000   0.87497147   -2.4168919   -2.4168919   -1.6901065  0.036115391   -2.4168919   0.72678534  1252891 
  139000   0.87416984   -2.4166092   -2.4166092   -1.6904897  0.045677578   -2.4166092   0.72611947  1252891 
  140000   0.87497944   -2.4174075   -2.4174075   -1.6906155  0.039919447   -2.4174075   0.72679196  1252891 
  141000   0.87370167   -2.4173922   -2.4173922   -1.6916616  0.038521046   -2.4173922   0.72573059  1252891 
  142000   0.87325995   -2.4173485   -2.4173485   -1.6919848  0.031878786   -2.4173485   0.72536368  1252891 
  143000   0.87373788   -2.4176016   -2.4176016   -1.6918409  0.040125865   -2.4176016   0.72576067  1252891 
  144000   0.87347424   -2.4172119   -2.4172119   -1.6916702  0.042853819   -2.4172119   0.72554168  1252891 
  145000     0.873221   -2.4172543   -2.4172543    -1.691923   0.04166254   -2.4172543   0.72533133  1252891 
  146000   0.87324335   -2.4180817   -2.4180817   -1.6927318  0.038586042   -2.4180817    0.7253499  1252891 
  147000   0.87341962   -2.4175558   -2.4175558   -1.6920595  0.034011595   -2.4175558   0.72549631  1252891 
  148000   0.87278378   -2.4173075   -2.4173075   -1.6923393  0.029831111   -2.4173075   0.72496816  1252891 
  149000   0.87258777   -2.4174744   -2.4174744   -1.6926691  0.037134108   -2.4174744   0.72480534  1252891 
  150000   0.87386203   -2.4180248   -2.4180248    -1.692161  0.041394763   -2.4180248   0.72586379  1252891 
  151000    0.8725496   -2.4180472   -2.4180472   -1.6932735  0.033383346   -2.4180472   0.72477364  1252891 
  152000   0.87312924    -2.418011    -2.418011   -1.6927559  0.034847242    -2.418011   0.72525511  1252891 
  153000   0.87265623   -2.4180752   -2.4180752    -1.693213  0.041972031   -2.4180752   0.72486221  1252891 
  154000   0.87208293   -2.4171862   -2.4171862   -1.6928001  0.045284387   -2.4171862   0.72438601  1252891 
  155000   0.87291371   -2.4177943   -2.4177943   -1.6927182  0.036435847   -2.4177943   0.72507608  1252891 
  156000    0.8721761   -2.4181683   -2.4181683   -1.6937049  0.041298311   -2.4181683   0.72446339  1252891 
  157000   0.87282566    -2.418957    -2.418957    -1.693954  0.039365339    -2.418957   0.72500295  1252891 
  158000    0.8724966   -2.4186243   -2.4186243   -1.6938947  0.038151988   -2.4186243   0.72472961  1252891 
  159000   0.87274531   -2.4196436   -2.4196436   -1.6947074  0.043680459   -2.4196436    0.7249362  1252891 
  160000   0.87263106   -2.4200034   -2.4200034   -1.6951621   0.03930841   -2.4200034    0.7248413  1252891 
  161000   0.87200117   -2.4198016   -2.4198016   -1.6954835  0.047322407   -2.4198016   0.72431809  1252891 
  162000   0.87225287   -2.4200787   -2.4200787   -1.6955516  0.039384274   -2.4200787   0.72452716  1252891 
  163000   0.87286552   -2.4204434   -2.4204434   -1.6954074  0.038812036   -2.4204434   0.72503605  1252891 
  164000   0.87173783    -2.420148    -2.420148   -1.6960487  0.046910868    -2.420148   0.72409935  1252891 
  165000    0.8725382   -2.4207263   -2.4207263   -1.6959621  0.032772526   -2.4207263   0.72476417  1252891 
  166000   0.87214728   -2.4201965   -2.4201965    -1.695757  0.042595397   -2.4201965   0.72443946  1252891 
  167000   0.87134386   -2.4196875   -2.4196875   -1.6959154   0.04055524   -2.4196875    0.7237721  1252891 
  168000   0.87208723   -2.4205572   -2.4205572   -1.6961676  0.040931045   -2.4205572   0.72438958  1252891 
  169000   0.87110325   -2.4193785   -2.4193785   -1.6958063  0.033413278   -2.4193785   0.72357224  1252891 
  170000   0.87123131     -2.42039     -2.42039   -1.6967114  0.032361838     -2.42039   0.72367862  1252891 
  171000   0.87117767   -2.4200642   -2.4200642   -1.6964301  0.033139431   -2.4200642   0.72363406  1252891 
  172000   0.87024614    -2.420567    -2.420567   -1.6977067  0.030862219    -2.420567   0.72286029  1252891 
  173000   0.86962328   -2.4197254   -2.4197254   -1.6973825  0.038974254   -2.4197254   0.72234292  1252891 
  174000   0.87033696   -2.4209113   -2.4209113   -1.6979755  0.044724849   -2.4209113   0.72293574  1252891 
  175000   0.87140198   -2.4222523   -2.4222523   -1.6984319   0.03526802   -2.4222523   0.72382038  1252891 
  176000   0.87110442   -2.4219503   -2.4219503    -1.698377  0.031657543   -2.4219503   0.72357322  1252891 
  177000   0.87289355   -2.4228999   -2.4228999   -1.6978406  0.038221886   -2.4228999   0.72505934  1252891 
  178000   0.87160353   -2.4221837   -2.4221837   -1.6981959  0.044820031   -2.4221837    0.7239878  1252891 
  179000   0.87158524   -2.4227835   -2.4227835   -1.6988109  0.040397127   -2.4227835    0.7239726  1252891 
  180000   0.87062555   -2.4229153   -2.4229153   -1.6997398  0.037755468   -2.4229153   0.72317545  1252891 
  181000   0.87227429   -2.4237235   -2.4237235   -1.6991785  0.036376488   -2.4237235   0.72454495  1252891 
  182000   0.87104586   -2.4231463   -2.4231463   -1.6996217   0.04634537   -2.4231463   0.72352458  1252891 
  183000   0.87221279   -2.4241235   -2.4241235   -1.6996296  0.044870262   -2.4241235   0.72449387  1252891 
  184000    0.8716106   -2.4244256   -2.4244256    -1.700432  0.042799835   -2.4244256   0.72399367  1252891 
  185000   0.87107489   -2.4245471   -2.4245471   -1.7009984  0.035809849   -2.4245471   0.72354869  1252891 
  186000   0.87004986   -2.4237811   -2.4237811   -1.7010838  0.045416561   -2.4237811   0.72269726  1252891 
  187000   0.87151832   -2.4251125   -2.4251125   -1.7011955  0.039523872   -2.4251125   0.72391702  1252891 
  188000   0.87032613   -2.4246011   -2.4246011   -1.7016744  0.043858525   -2.4246011   0.72292674  1252891 
  189000    0.8691248   -2.4236894   -2.4236894   -1.7017606  0.043717134   -2.4236894   0.72192887  1252891 
  190000   0.87093348   -2.4258659   -2.4258659   -1.7024346  0.041834169   -2.4258659   0.72343123  1252891 
  191000   0.86910718   -2.4241716   -2.4241716   -1.7022573  0.038522782   -2.4241716   0.72191423  1252891 
  192000   0.87081618   -2.4261108   -2.4261108    -1.702777  0.037235854   -2.4261108    0.7233338  1252891 
  193000   0.86789364   -2.4243588   -2.4243588   -1.7034526  0.032858501   -2.4243588   0.72090621  1252891 
  194000   0.86982179   -2.4250538   -2.4250538    -1.702546  0.033161558   -2.4250538   0.72250781  1252891 
  195000   0.86902674   -2.4248184   -2.4248184    -1.702971  0.034375298   -2.4248184   0.72184741  1252891 
  196000   0.86901195   -2.4255814   -2.4255814   -1.7037463  0.029360812   -2.4255814   0.72183513  1252891 
  197000   0.87045133   -2.4257248   -2.4257248    -1.702694  0.030270524   -2.4257248   0.72303074  1252891 
  198000   0.86959712   -2.4257118   -2.4257118   -1.7033906  0.041956158   -2.4257118    0.7223212  1252891 
  199000   0.87005003   -2.4257213   -2.4257213    -1.703024  0.040659154   -2.4257213    0.7226974  1252891 
  200000   0.87009799    -2.426575    -2.426575   -1.7038378  0.047069097    -2.426575   0.72273724  1252891 
  201000   0.86993034   -2.4275241   -2.4275241   -1.7049261   0.03967867   -2.4275241   0.72259798  1252891 
  202000   0.87083341   -2.4272432   -2.4272432   -1.7038951  0.041947216   -2.4272432   0.72334811  1252891 
  203000   0.86869314   -2.4267286   -2.4267286   -1.7051583  0.042621288   -2.4267286   0.72157031  1252891 
  204000   0.87048459   -2.4279114   -2.4279114    -1.704853  0.035715103   -2.4279114   0.72305836  1252891 
  205000   0.86977088   -2.4274913   -2.4274913   -1.7050258  0.035967907   -2.4274913   0.72246552  1252891 
  206000   0.87024018    -2.427803    -2.427803   -1.7049477  0.037729639    -2.427803   0.72285534  1252891 
  207000   0.87144935   -2.4297053   -2.4297053   -1.7058456  0.043802729   -2.4297053   0.72385973  1252891 
  208000   0.87014102   -2.4283858   -2.4283858   -1.7056128  0.042292508   -2.4283858   0.72277297  1252891 
  209000   0.87059042   -2.4281786   -2.4281786   -1.7050324  0.046509616   -2.4281786   0.72314627  1252891 
  210000   0.86961917   -2.4277986   -2.4277986   -1.7054591  0.046490868   -2.4277986   0.72233951  1252891 
  211000   0.86895841    -2.427035    -2.427035   -1.7052443  0.031828462    -2.427035   0.72179066  1252891 
  212000   0.86967805   -2.4280634   -2.4280634    -1.705675  0.029040356   -2.4280634   0.72238842  1252891 
  213000   0.86889117   -2.4275806   -2.4275806   -1.7058458  0.037864838   -2.4275806   0.72173481  1252891 
  214000   0.86901958    -2.428359    -2.428359   -1.7065175  0.038537427    -2.428359   0.72184146  1252891 
  215000   0.86905688   -2.4277443   -2.4277443   -1.7058719  0.035555271   -2.4277443   0.72187245  1252891 
  216000   0.86893641   -2.4280281   -2.4280281   -1.7062557  0.045426773   -2.4280281   0.72177238  1252891 
  217000   0.86862802   -2.4276148   -2.4276148   -1.7060986  0.037432147   -2.4276148   0.72151622  1252891 
  218000   0.86872425   -2.4281772   -2.4281772    -1.706581  0.030405623   -2.4281772   0.72159615  1252891 
  219000    0.8685022    -2.428411    -2.428411   -1.7069993  0.033669173    -2.428411   0.72141171  1252891 
  220000    0.8676691   -2.4283011   -2.4283011   -1.7075814  0.021708614   -2.4283011   0.72071971  1252891 
  221000   0.86816697   -2.4281065   -2.4281065   -1.7069732   0.03370498   -2.4281065   0.72113326  1252891 
  222000   0.86884529   -2.4289814   -2.4289814   -1.7072847  0.032422131   -2.4289814   0.72169669  1252891 
  223000   0.86828048   -2.4288719   -2.4288719   -1.7076444  0.035194364   -2.4288719   0.72122754  1252891 
  224000   0.86813897   -2.4290326   -2.4290326   -1.7079226  0.034103381   -2.4290326      0.72111  1252891 
  225000    0.8681035    -2.428904    -2.428904   -1.7078235  0.039862812    -2.428904   0.72108054  1252891 
  226000   0.86849299   -2.4297343   -2.4297343   -1.7083302  0.040220184   -2.4297343   0.72140406  1252891 
  227000   0.86853583   -2.4298537   -2.4298537   -1.7084141  0.044687537   -2.4298537   0.72143965  1252891 
  228000   0.86878338   -2.4301201   -2.4301201   -1.7084748  0.042520701   -2.4301201   0.72164527  1252891 
  229000   0.86947819    -2.431605    -2.431605   -1.7093826  0.036000715    -2.431605   0.72222241  1252891 
  230000   0.86710389   -2.4298727   -2.4298727   -1.7096225   0.04292881   -2.4298727   0.72025022  1252891 
  231000   0.86814234   -2.4301802   -2.4301802   -1.7090674  0.041160315   -2.4301802    0.7211128  1252891 
  232000   0.86896369   -2.4316781   -2.4316781   -1.7098831  0.033095524   -2.4316781   0.72179504  1252891 
  233000   0.86759062   -2.4309615   -2.4309615   -1.7103069  0.040706117   -2.4309615   0.72065452  1252891 
  234000   0.86784447   -2.4307585   -2.4307585   -1.7098931  0.044637793   -2.4307585   0.72086537  1252891 
  235000   0.86698289   -2.4301385   -2.4301385   -1.7099888  0.044775352   -2.4301385   0.72014971  1252891 
  236000   0.86713451   -2.4309062   -2.4309062   -1.7106305  0.045433353   -2.4309062   0.72027565  1252891 
  237000    0.8681223   -2.4313814   -2.4313814   -1.7102852  0.034737145   -2.4313814   0.72109615  1252891 
  238000   0.86788207   -2.4318622   -2.4318622   -1.7109656  0.039138872   -2.4318622   0.72089661  1252891 
  239000   0.86651228   -2.4308141   -2.4308141   -1.7110553  0.039469825   -2.4308141   0.71975881  1252891 
  240000   0.86685961   -2.4309297   -2.4309297   -1.7108824  0.041393748   -2.4309297   0.72004731  1252891 
  241000   0.86720605   -2.4311785   -2.4311785   -1.7108434  0.033354623   -2.4311785   0.72033508  1252891 
  242000   0.86778046   -2.4321684   -2.4321684   -1.7113562  0.044024988   -2.4321684    0.7208122  1252891 
  243000   0.86770425   -2.4318798   -2.4318798   -1.7111309  0.045230708   -2.4318798    0.7207489  1252891 
  244000   0.86678403   -2.4321929   -2.4321929   -1.7122084  0.033856702   -2.4321929   0.71998453  1252891 
  245000   0.86806181   -2.4328346   -2.4328346   -1.7117887  0.047958649   -2.4328346   0.72104591  1252891 
  246000   0.86631358   -2.4318814   -2.4318814   -1.7122876   0.03839141   -2.4318814   0.71959376  1252891 
  247000   0.86618251   -2.4320907   -2.4320907   -1.7126058  0.046527961   -2.4320907   0.71948488  1252891 
  248000   0.86750297   -2.4332226   -2.4332226   -1.7126409  0.033717219   -2.4332226   0.72058171  1252891 
  249000    0.8671375   -2.4333965   -2.4333965   -1.7131184  0.031861391   -2.4333965   0.72027814  1252891 
  250000   0.86653812   -2.4335521   -2.4335521   -1.7137718  0.038509824   -2.4335521   0.71978027  1252891 
  251000   0.86616392   -2.4329831   -2.4329831   -1.7135137  0.038935293   -2.4329831   0.71946945  1252891 
  252000   0.86606511    -2.433293    -2.433293   -1.7139056  0.046579901    -2.433293   0.71938737  1252891 
  253000   0.86689044    -2.433801    -2.433801   -1.7137281  0.040921395    -2.433801   0.72007292  1252891 
  254000   0.86686384   -2.4335153   -2.4335153   -1.7134645  0.048196115   -2.4335153   0.72005083  1252891 
  255000   0.86657089   -2.4335076   -2.4335076   -1.7137001  0.038425803   -2.4335076   0.71980749  1252891 
  256000    0.8666123   -2.4340769   -2.4340769   -1.7142351  0.039132358   -2.4340769   0.71984188  1252891 
  257000   0.86606025   -2.4333493   -2.4333493    -1.713966  0.034528246   -2.4333493   0.71938333  1252891 
  258000   0.86728911   -2.4340096   -2.4340096   -1.7136055  0.038515154   -2.4340096   0.72040407  1252891 
  259000   0.86664848   -2.4340203   -2.4340203   -1.7141484  0.033466237   -2.4340203   0.71987194  1252891 
  260000   0.86494694   -2.4335258   -2.4335258   -1.7150672  0.038090505   -2.4335258   0.71845857  1252891 
  261000   0.86562639   -2.4341265   -2.4341265   -1.7151036  0.037823471   -2.4341265   0.71902295  1252891 
  262000   0.86681048   -2.4342097   -2.4342097   -1.7142032  0.039156286   -2.4342097    0.7200065  1252891 
  263000   0.86651142   -2.4348379   -2.4348379   -1.7150798   0.03705686   -2.4348379    0.7197581  1252891 
  264000   0.86599486   -2.4348949   -2.4348949   -1.7155659  0.038405539   -2.4348949   0.71932902  1252891 
  265000   0.86610453   -2.4354309   -2.4354309   -1.7160108  0.033162118   -2.4354309   0.71942012  1252891 
  266000   0.86613528   -2.4349977   -2.4349977    -1.715552   0.04754203   -2.4349977   0.71944566  1252891 
  267000   0.86654237   -2.4354538   -2.4354538     -1.71567  0.043061227   -2.4354538    0.7197838  1252891 
  268000   0.86739505   -2.4355273   -2.4355273   -1.7150352  0.037222957   -2.4355273   0.72049207  1252891 
  269000    0.8659446   -2.4354895   -2.4354895   -1.7162023  0.040114092   -2.4354895   0.71928726  1252891 
  270000   0.86559354   -2.4354944   -2.4354944   -1.7164987  0.046085745   -2.4354944   0.71899567  1252891 
  271000   0.86617096   -2.4364124   -2.4364124   -1.7169371  0.042963666   -2.4364124   0.71947529  1252891 
  272000   0.86698043   -2.4361037   -2.4361037    -1.715956  0.044658929   -2.4361037   0.72014767  1252891 
  273000   0.86553764   -2.4358074   -2.4358074   -1.7168582  0.040206422   -2.4358074   0.71894923  1252891 
  274000   0.86514967   -2.4350943   -2.4350943   -1.7164674  0.049463034   -2.4350943   0.71862697  1252891 
  275000   0.86542886   -2.4366164   -2.4366164   -1.7177575  0.026629112   -2.4366164   0.71885887  1252891 
  276000   0.86554188   -2.4366527   -2.4366527   -1.7176999  0.039137728   -2.4366527   0.71895275  1252891 
  277000    0.8647934   -2.4367283   -2.4367283   -1.7183972  0.037228204   -2.4367283   0.71833104  1252891 
  278000   0.86425806   -2.4362137   -2.4362137   -1.7183273  0.034617967   -2.4362137   0.71788636  1252891 
  279000   0.86396979   -2.4357647   -2.4357647   -1.7181178  0.042645624   -2.4357647   0.71764691  1252891 
  280000   0.86513002   -2.4370759   -2.4370759   -1.7184652  0.037119521   -2.4370759   0.71861065  1252891 
  281000   0.86551648   -2.4369627   -2.4369627    -1.718031  0.048058129   -2.4369627   0.71893166  1252891 
  282000   0.86452152   -2.4364287   -2.4364287   -1.7183235  0.040366898   -2.4364287    0.7181052  1252891 
  283000   0.86423013   -2.4364324   -2.4364324   -1.7185692  0.053308767   -2.4364324   0.71786317  1252891 
  284000   0.86540277   -2.4376385   -2.4376385   -1.7188013   0.04487988   -2.4376385    0.7188372  1252891 
  285000   0.86475587   -2.4377568   -2.4377568   -1.7194569  0.025339548   -2.4377568   0.71829986  1252891 
  286000   0.86532124   -2.4371414   -2.4371414   -1.7183719  0.041534569   -2.4371414   0.71876948  1252891 
  287000   0.86590591   -2.4380577   -2.4380577   -1.7188026  0.039655862   -2.4380577   0.71925513  1252891 
  288000   0.86440469   -2.4375982   -2.4375982     -1.71959  0.038760043   -2.4375982   0.71800816  1252891 
  289000   0.86512694   -2.4375263   -2.4375263   -1.7189182  0.050152075   -2.4375263   0.71860809  1252891 
  290000   0.86592071   -2.4376602   -2.4376602   -1.7183928  0.040188616   -2.4376602   0.71926742  1252891 
  291000   0.86442826   -2.4375813   -2.4375813   -1.7195536   0.03886556   -2.4375813   0.71802774  1252891 
  292000   0.86558233   -2.4384853   -2.4384853   -1.7194989  0.042184108   -2.4384853   0.71898636  1252891 
  293000   0.86481872   -2.4385611   -2.4385611    -1.720209  0.045314287   -2.4385611   0.71835207  1252891 
  294000   0.86407664   -2.4379825   -2.4379825   -1.7202468  0.047213492   -2.4379825   0.71773566  1252891 
  295000   0.86448782   -2.4386375   -2.4386375   -1.7205603  0.033136041   -2.4386375   0.71807721  1252891 
  296000    0.8645211   -2.4384781   -2.4384781   -1.7203732  0.052027298   -2.4384781   0.71810486  1252891 
  297000   0.86453955   -2.4386832   -2.4386832    -1.720563  0.038421367   -2.4386832   0.71812018  1252891 
  298000   0.86420402   -2.4390794   -2.4390794    -1.721238   0.04223559   -2.4390794   0.71784147  1252891 
  299000   0.86389432   -2.4381838   -2.4381838   -1.7205996  0.043395385   -2.4381838   0.71758423  1252891 
  300000   0.86312153   -2.4378317   -2.4378317   -1.7208894  0.045445315   -2.4378317   0.71694232  1252891 
  301000   0.86462063   -2.4389541   -2.4389541   -1.7207665  0.046090094   -2.4389541   0.71818753  1252891 
  302000   0.86474795   -2.4389466   -2.4389466   -1.7206533  0.046808707   -2.4389466   0.71829328  1252891 
  303000   0.86337859   -2.4387022   -2.4387022   -1.7215464  0.046915096   -2.4387022   0.71715584  1252891 
  304000   0.86369356   -2.4390775   -2.4390775     -1.72166  0.042730514   -2.4390775   0.71741747  1252891 
  305000   0.86382346    -2.439491    -2.439491   -1.7219657  0.040532032    -2.439491   0.71752536  1252891 
  306000   0.86278453   -2.4388812   -2.4388812   -1.7222188   0.05156064   -2.4388812   0.71666239  1252891 
  307000   0.86395537   -2.4401592   -2.4401592   -1.7225243  0.047552605   -2.4401592   0.71763493  1252891 
  308000    0.8648746   -2.4405297   -2.4405297   -1.7221312  0.035098193   -2.4405297   0.71839848  1252891 
  309000   0.86369453   -2.4393273   -2.4393273    -1.721909  0.045980193   -2.4393273   0.71741828  1252891 
  310000   0.86309946   -2.4393872   -2.4393872   -1.7224632   0.04405961   -2.4393872   0.71692398  1252891 
  311000   0.86547991    -2.440127    -2.440127   -1.7212258  0.047088041    -2.440127   0.71890128  1252891 
  312000   0.86352605   -2.4395654   -2.4395654    -1.722287  0.045793997   -2.4395654   0.71727833  1252891 
  313000   0.86433538   -2.4396559   -2.4396559   -1.7217054  0.055891389   -2.4396559   0.71795059  1252891 
  314000   0.86495962   -2.4408017   -2.4408017   -1.7223326  0.037088812   -2.4408017   0.71846911  1252891 
  315000   0.86446785   -2.4409469   -2.4409469   -1.7228863  0.030480072   -2.4409469   0.71806062  1252891 
  316000   0.86425625   -2.4403666   -2.4403666   -1.7224817  0.043801128   -2.4403666   0.71788486  1252891 
  317000   0.86344297    -2.439803    -2.439803   -1.7225936  0.048291697    -2.439803   0.71720932  1252891 
  318000   0.86312515   -2.4398243   -2.4398243    -1.722879  0.046791082   -2.4398243   0.71694533  1252891 
  319000   0.86344637   -2.4409676   -2.4409676   -1.7237555  0.042925007   -2.4409676   0.71721214  1252891 
  320000   0.86377817   -2.4405179   -2.4405179   -1.7230302  0.034075603   -2.4405179   0.71748775  1252891 
  321000   0.86303513   -2.4406832   -2.4406832   -1.7238127  0.050637995   -2.4406832   0.71687055  1252891 
  322000   0.86397007   -2.4414381   -2.4414381    -1.723791  0.035088214   -2.4414381   0.71764715  1252891 
  323000   0.86364781   -2.4411201   -2.4411201   -1.7237406  0.047347862   -2.4411201   0.71737947  1252891 
  324000   0.86249872   -2.4408507   -2.4408507   -1.7244257  0.041768638   -2.4408507   0.71642499  1252891 
  325000   0.86284064   -2.4418876   -2.4418876   -1.7251786   0.04100123   -2.4418876     0.716709  1252891 
  326000   0.86358315   -2.4417753   -2.4417753   -1.7244496  0.035081229   -2.4417753   0.71732576  1252891 
  327000   0.86292482   -2.4412568   -2.4412568   -1.7244779  0.049354658   -2.4412568   0.71677892  1252891 
  328000   0.86351079   -2.4426238   -2.4426238   -1.7253582   0.04041081   -2.4426238   0.71726565  1252891 
  329000   0.86224769   -2.4416566   -2.4416566   -1.7254402  0.043854089   -2.4416566   0.71621647  1252891 
  330000   0.86169403   -2.4413536   -2.4413536    -1.725597  0.046352145   -2.4413536   0.71575658  1252891 
  331000   0.86365658   -2.4420062   -2.4420062   -1.7246194  0.044119774   -2.4420062   0.71738675  1252891 
  332000   0.86307145   -2.4426304   -2.4426304   -1.7257297  0.046389056   -2.4426304   0.71690072  1252891 
  333000   0.86278944   -2.4424326   -2.4424326   -1.7257661  0.053644899   -2.4424326   0.71666647  1252891 
  334000   0.86393122   -2.4432431   -2.4432431   -1.7256282  0.045342469   -2.4432431   0.71761488  1252891 
  335000   0.86207015   -2.4420612   -2.4420612   -1.7259922  0.050231273   -2.4420612     0.716069  1252891 
  336000   0.86273055   -2.4421875   -2.4421875     -1.72557  0.051722038   -2.4421875   0.71661755  1252891 
  337000   0.86251508   -2.4424814   -2.4424814   -1.7260428  0.047963602   -2.4424814   0.71643857  1252891 
  338000   0.86340233   -2.4430671   -2.4430671   -1.7258915  0.046307836   -2.4430671   0.71717556  1252891 
  339000   0.86136704   -2.4422913   -2.4422913   -1.7268063  0.048236539   -2.4422913   0.71548497  1252891 
  340000   0.86233424   -2.4428825   -2.4428825   -1.7265941  0.042916045   -2.4428825   0.71628836  1252891 
  341000   0.86218338   -2.4432799   -2.4432799   -1.7271168    0.0416521   -2.4432799   0.71616306  1252891 
  342000   0.86200491   -2.4423085   -2.4423085   -1.7262937  0.033955143   -2.4423085   0.71601481  1252891 
  343000   0.86125467   -2.4425099   -2.4425099   -1.7271182  0.038414024   -2.4425099   0.71539163  1252891 
  344000   0.86103915   -2.4422171   -2.4422171   -1.7270045  0.034949501   -2.4422171   0.71521261  1252891 
  345000   0.86181578    -2.443355    -2.443355   -1.7274973  0.037887736    -2.443355   0.71585771  1252891 
  346000   0.86125881   -2.4423629   -2.4423629   -1.7269679  0.039442322   -2.4423629   0.71539507  1252891 
  347000   0.86241162   -2.4435995   -2.4435995   -1.7272469  0.044264415   -2.4435995   0.71635264  1252891 
  348000    0.8615967   -2.4436452   -2.4436452   -1.7279695  0.036855553   -2.4436452   0.71567574  1252891 
  349000   0.86056079    -2.442385    -2.442385   -1.7275697  0.042388009    -2.442385   0.71481527  1252891 
  350000   0.86208951   -2.4434067   -2.4434067   -1.7273217  0.043891049   -2.4434067   0.71608508  1252891 
  351000   0.86205314    -2.443972    -2.443972   -1.7279171  0.045206799    -2.443972   0.71605487  1252891 
  352000   0.86309168   -2.4444101   -2.4444101   -1.7274925  0.045321873   -2.4444101   0.71691752  1252891 
  353000   0.86213181   -2.4452114   -2.4452114   -1.7290912  0.041865639   -2.4452114   0.71612022  1252891 
  354000   0.86158792   -2.4438259   -2.4438259   -1.7281574  0.056428993   -2.4438259   0.71566844  1252891 
  355000   0.86027949   -2.4434247   -2.4434247   -1.7288431  0.035788681   -2.4434247   0.71458161  1252891 
  356000   0.86165423   -2.4437679   -2.4437679   -1.7280444   0.05210265   -2.4437679   0.71572352  1252891 
  357000   0.86037385   -2.4445883   -2.4445883   -1.7299283  0.046008331   -2.4445883   0.71465999  1252891 
  358000   0.86162229   -2.4445893   -2.4445893   -1.7288923  0.048264073   -2.4445893   0.71569699  1252891 
  359000   0.86123015   -2.4449631   -2.4449631   -1.7295918  0.045531913   -2.4449631   0.71537127  1252891 
  360000   0.86018771   -2.4446982   -2.4446982   -1.7301929  0.032055733   -2.4446982   0.71450537  1252891 
  361000   0.86044398   -2.4450451   -2.4450451   -1.7303269  0.046107967   -2.4450451   0.71471824  1252891 
  362000    0.8598995   -2.4443328   -2.4443328   -1.7300668  0.052231187   -2.4443328   0.71426597  1252891 
  363000   0.86127794   -2.4457712   -2.4457712   -1.7303603   0.04377543   -2.4457712   0.71541096  1252891 
  364000   0.86049416   -2.4448488   -2.4448488   -1.7300889  0.032306356   -2.4448488   0.71475992  1252891 
  365000   0.86050721   -2.4448235   -2.4448235   -1.7300527   0.04127406   -2.4448235   0.71477076  1252891 
  366000   0.86008609    -2.444797    -2.444797   -1.7303761  0.036545261    -2.444797   0.71442096  1252891 
  367000    0.8609872   -2.4455747   -2.4455747   -1.7304052  0.035669872   -2.4455747   0.71516946  1252891 
  368000    0.8611327   -2.4449861   -2.4449861   -1.7296958  0.038887382   -2.4449861   0.71529032  1252891 
  369000   0.85985574   -2.4450976   -2.4450976    -1.730868   0.04187152   -2.4450976   0.71422963  1252891 
  370000   0.86045023   -2.4451553   -2.4451553   -1.7304319  0.049557117   -2.4451553   0.71472343  1252891 
  371000   0.86018749   -2.4455228   -2.4455228   -1.7310176  0.039039583   -2.4455228   0.71450519  1252891 
  372000    0.8608964   -2.4461731   -2.4461731   -1.7310791  0.040672195   -2.4461731   0.71509403  1252891 
  373000   0.85958896   -2.4446949   -2.4446949   -1.7306868  0.042444997   -2.4446949   0.71400802  1252891 
  374000   0.85933911   -2.4455876   -2.4455876   -1.7317871  0.049442334   -2.4455876   0.71380049  1252891 
  375000   0.86087075   -2.4468469   -2.4468469   -1.7317742  0.045898027   -2.4468469   0.71507273  1252891 
  376000   0.86045278    -2.447542    -2.447542   -1.7328165  0.041020177    -2.447542   0.71472555  1252891 
  377000   0.85965557   -2.4461652   -2.4461652   -1.7321019  0.030652372   -2.4461652   0.71406336  1252891 
  378000   0.85951539     -2.44625     -2.44625   -1.7323031  0.044361503     -2.44625   0.71394692  1252891 
  379000    0.8589267   -2.4462866   -2.4462866   -1.7328286  0.038252766   -2.4462866   0.71345793  1252891 
  380000   0.85917389   -2.4464105   -2.4464105   -1.7327472  0.050920743   -2.4464105   0.71366326  1252891 
  381000   0.86014352   -2.4475134   -2.4475134   -1.7330447  0.036988263   -2.4475134   0.71446867  1252891 
  382000   0.85934054    -2.447151    -2.447151   -1.7333493  0.048123788    -2.447151   0.71380168  1252891 
  383000    0.8601632   -2.4484506   -2.4484506   -1.7339656  0.043059332   -2.4484506   0.71448502  1252891 
  384000   0.85959045    -2.447294    -2.447294   -1.7332847  0.051235897    -2.447294   0.71400927  1252891 
  385000   0.85864943   -2.4474892   -2.4474892   -1.7342616  0.039709702   -2.4474892   0.71322762  1252891 
  386000   0.85947501   -2.4474304   -2.4474304    -1.733517   0.04684488   -2.4474304   0.71391338  1252891 
  387000    0.8583456   -2.4466754   -2.4466754   -1.7337001  0.038830091   -2.4466754   0.71297524  1252891 
  388000     0.858806   -2.4469703   -2.4469703   -1.7336127  0.046619194   -2.4469703   0.71335767  1252891 
  389000   0.85934732   -2.4473137   -2.4473137   -1.7335064  0.036693569   -2.4473137   0.71380731  1252891 
  390000   0.85946158   -2.4476943   -2.4476943   -1.7337921  0.036021337   -2.4476943   0.71390222  1252891 
  391000   0.86076265   -2.4482196   -2.4482196   -1.7332366  0.043019946   -2.4482196   0.71498294  1252891 
  392000   0.86018244   -2.4482762   -2.4482762   -1.7337752  0.043557051   -2.4482762   0.71450099  1252891 
  393000    0.8589182   -2.4475818   -2.4475818   -1.7341309  0.043596007   -2.4475818   0.71345087  1252891 
  394000   0.85982885    -2.448018    -2.448018   -1.7338107  0.049262136    -2.448018   0.71420729  1252891 
  395000   0.86036999   -2.4483488   -2.4483488    -1.733692  0.040577135   -2.4483488   0.71465678  1252891 
  396000   0.85995753   -2.4485187   -2.4485187   -1.7342045  0.040468994   -2.4485187   0.71431417  1252891 
  397000   0.85912065   -2.4481934   -2.4481934   -1.7345744  0.044743863   -2.4481934   0.71361903  1252891 
  398000   0.85905585   -2.4482419   -2.4482419   -1.7346767  0.048907589   -2.4482419   0.71356521  1252891 
  399000   0.85854707   -2.4478246   -2.4478246    -1.734682  0.044121516   -2.4478246   0.71314259  1252891 
  400000   0.86009549   -2.4486096   -2.4486096   -1.7341809  0.041386458   -2.4486096   0.71442877  1252891 
  401000   0.85798936   -2.4472696   -2.4472696   -1.7345902  0.045673496   -2.4472696   0.71267934  1252891 
  402000   0.85930954    -2.448276    -2.448276   -1.7345001  0.044481904    -2.448276   0.71377593  1252891 
  403000   0.85975289   -2.4488817   -2.4488817   -1.7347375  0.034653135   -2.4488817   0.71414419  1252891 
  404000   0.85881414   -2.4479611   -2.4479611   -1.7345966  0.052916014   -2.4479611   0.71336444  1252891 
  405000   0.85874299   -2.4485285   -2.4485285   -1.7352231  0.035810296   -2.4485285   0.71330533  1252891 
  406000   0.85866118   -2.4483035   -2.4483035   -1.7350662  0.040148941   -2.4483035   0.71323738  1252891 
  407000   0.85842389   -2.4478069   -2.4478069   -1.7347667  0.049157301   -2.4478069   0.71304027  1252891 
  408000   0.85759215   -2.4482049   -2.4482049   -1.7358555     0.034721   -2.4482049    0.7123494  1252891 
  409000   0.85776473   -2.4476959   -2.4476959   -1.7352032  0.042296674   -2.4476959   0.71249275  1252891 
  410000   0.85834747     -2.44904     -2.44904   -1.7360632  0.039041788     -2.44904    0.7129768  1252891 
  411000   0.85876372   -2.4490887   -2.4490887   -1.7357661  0.039429248   -2.4490887   0.71332255  1252891 
  412000   0.85938537   -2.4500052   -2.4500052   -1.7361663  0.038013198   -2.4500052   0.71383891  1252891 
  413000    0.8585282   -2.4493763   -2.4493763   -1.7362494  0.038773199   -2.4493763   0.71312692  1252891 
  414000   0.85838436   -2.4493686   -2.4493686   -1.7363611  0.042255902   -2.4493686   0.71300744  1252891 
  415000   0.85827338   -2.4494245   -2.4494245   -1.7365092  0.044814883   -2.4494245   0.71291526  1252891 
  416000   0.85890453   -2.4499973   -2.4499973   -1.7365578  0.044772076   -2.4499973   0.71343951  1252891 
  417000   0.85821347   -2.4497773   -2.4497773   -1.7369118   0.05263918   -2.4497773   0.71286549  1252891 
  418000   0.85743796   -2.4486633   -2.4486633    -1.736442   0.04955402   -2.4486633   0.71222132  1252891 
  419000   0.85811486   -2.4498364   -2.4498364   -1.7370528  0.049334638   -2.4498364   0.71278358  1252891 
  420000   0.85874071   -2.4501528   -2.4501528   -1.7368494  0.039524689   -2.4501528   0.71330344  1252891 
  421000   0.85834909   -2.4503546   -2.4503546   -1.7373765  0.044718381   -2.4503546   0.71297814  1252891 
  422000   0.85686372   -2.4488025   -2.4488025   -1.7370581  0.046957016   -2.4488025   0.71174434  1252891 
  423000   0.85756911   -2.4496891   -2.4496891   -1.7373588  0.037596474   -2.4496891   0.71233026  1252891 
  424000   0.85812121    -2.450426    -2.450426   -1.7376371  0.045183937    -2.450426   0.71278886  1252891 
  425000   0.85853245   -2.4510793   -2.4510793   -1.7379488  0.050320271   -2.4510793   0.71313045  1252891 
  426000    0.8579433   -2.4508456   -2.4508456   -1.7382045  0.050215747   -2.4508456   0.71264107  1252891 
  427000   0.85782963   -2.4510802   -2.4510802   -1.7385336  0.038923778   -2.4510802   0.71254666  1252891 
  428000   0.85713408   -2.4498014   -2.4498014   -1.7378325  0.040937367   -2.4498014   0.71196891  1252891 
  429000   0.85728517   -2.4511393   -2.4511393   -1.7390449  0.048055774   -2.4511393   0.71209441  1252891 
  430000   0.85778924   -2.4509233   -2.4509233   -1.7384102  0.029806818   -2.4509233   0.71251311  1252891 
  431000   0.85739883   -2.4507604   -2.4507604   -1.7385716  0.041561871   -2.4507604   0.71218882  1252891 
  432000    0.8578734   -2.4507746   -2.4507746   -1.7381916  0.048572125   -2.4507746   0.71258302  1252891 
  433000      0.85754    -2.450946    -2.450946     -1.73864  0.052695216    -2.450946   0.71230608  1252891 
  434000    0.8575506   -2.4513622   -2.4513622   -1.7390473  0.032135413   -2.4513622   0.71231489  1252891 
  435000   0.85779797   -2.4513074   -2.4513074    -1.738787  0.038254343   -2.4513074   0.71252036  1252891 
  436000   0.85685598    -2.450786    -2.450786   -1.7390481  0.041869937    -2.450786    0.7117379  1252891 
  437000   0.85694405   -2.4504593   -2.4504593   -1.7386482  0.033886804   -2.4504593   0.71181107  1252891 
  438000   0.85759084   -2.4513505   -2.4513505   -1.7390022  0.049478916   -2.4513505   0.71234831  1252891 
  439000    0.8561572   -2.4503051   -2.4503051   -1.7391476  0.036109608   -2.4503051   0.71115748  1252891 
  440000    0.8574822   -2.4508778   -2.4508778   -1.7386198  0.039404657   -2.4508778   0.71225807  1252891 
  441000   0.85737488    -2.451852    -2.451852   -1.7396831  0.041202977    -2.451852   0.71216893  1252891 
  442000   0.85631788   -2.4511534   -2.4511534   -1.7398625  0.035963653   -2.4511534   0.71129094  1252891 
  443000   0.85570059   -2.4504826   -2.4504826   -1.7397044  0.048174341   -2.4504826   0.71077819  1252891 
  444000   0.85827915     -2.45218     -2.45218   -1.7392599  0.038807212     -2.45218   0.71292005  1252891 
  445000   0.85685773   -2.4514962   -2.4514962   -1.7397568  0.035948448   -2.4514962   0.71173936  1252891 
  446000   0.85644929    -2.451555    -2.451555   -1.7401549  0.047419466    -2.451555    0.7114001  1252891 
  447000   0.85627996   -2.4516879   -2.4516879   -1.7404285  0.042347231   -2.4516879   0.71125944  1252891 
  448000   0.85768119   -2.4523474   -2.4523474    -1.739924  0.036609818   -2.4523474   0.71242336  1252891 
  449000    0.8564079   -2.4521543   -2.4521543   -1.7407886  0.041464777   -2.4521543   0.71136572  1252891 
  450000   0.85645827    -2.452201    -2.452201   -1.7407934  0.046882944    -2.452201   0.71140756  1252891 
  451000   0.85578828   -2.4520851   -2.4520851   -1.7412341  0.040658965   -2.4520851   0.71085103  1252891 
  452000   0.85678755   -2.4528925   -2.4528925   -1.7412115   0.03663797   -2.4528925   0.71168106  1252891 
  453000   0.85681456   -2.4534626   -2.4534626   -1.7417591  0.041667811   -2.4534626    0.7117035  1252891 
  454000   0.85606622   -2.4527031   -2.4527031   -1.7416212  0.044898846   -2.4527031    0.7110819  1252891 
  455000   0.85677887    -2.452543    -2.452543   -1.7408691  0.044037281    -2.452543   0.71167386  1252891 
  456000   0.85728795   -2.4535311   -2.4535311   -1.7414343  0.042356459   -2.4535311   0.71209672  1252891 
  457000   0.85684178   -2.4530527   -2.4530527   -1.7413266  0.044899268   -2.4530527   0.71172611  1252891 
  458000   0.85537907   -2.4518374   -2.4518374   -1.7413262  0.040986115   -2.4518374   0.71051113  1252891 
  459000   0.85639306   -2.4527029   -2.4527029   -1.7413495  0.052549472   -2.4527029   0.71135339  1252891 
  460000    0.8554299   -2.4524296   -2.4524296   -1.7418763  0.041281948   -2.4524296   0.71055335  1252891 
  461000   0.85662554   -2.4531329   -2.4531329   -1.7415865  0.037559006   -2.4531329   0.71154649  1252891 
  462000   0.85677963   -2.4527089   -2.4527089   -1.7410344  0.050287287   -2.4527089   0.71167449  1252891 
  463000    0.8571608   -2.4538542   -2.4538542   -1.7418631    0.0293432   -2.4538542    0.7119911  1252891 
  464000   0.85714058   -2.4539148   -2.4539148   -1.7419404  0.046411392   -2.4539148    0.7119743  1252891 
  465000   0.85668062   -2.4532044   -2.4532044   -1.7416122   0.04326236   -2.4532044   0.71159225  1252891 
  466000   0.85668401   -2.4534669   -2.4534669   -1.7418719  0.041474142   -2.4534669   0.71159506  1252891 
  467000   0.85679227   -2.4541726   -2.4541726   -1.7424876   0.03445741   -2.4541726   0.71168499  1252891 
  468000    0.8569574   -2.4546159   -2.4546159   -1.7427937  0.041744425   -2.4546159   0.71182215  1252891 
  469000   0.85635953   -2.4536831   -2.4536831   -1.7423576  0.047920519   -2.4536831   0.71132553  1252891 
  470000   0.85685184   -2.4542249   -2.4542249   -1.7424905  0.042511111   -2.4542249   0.71173447  1252891 
  471000   0.85570476   -2.4540506   -2.4540506   -1.7432689  0.029318992   -2.4540506   0.71078166  1252891 
  472000    0.8565593   -2.4540434   -2.4540434    -1.742552  0.047277058   -2.4540434   0.71149148  1252891 
  473000    0.8555206   -2.4535148   -2.4535148   -1.7428861  0.037963066   -2.4535148   0.71062869  1252891 
  474000   0.85522717   -2.4535621   -2.4535621   -1.7431772   0.03405719   -2.4535621   0.71038496  1252891 
  475000   0.85597272   -2.4550403   -2.4550403    -1.744036  0.038308378   -2.4550403   0.71100424  1252891 
  476000   0.85574778   -2.4549078   -2.4549078   -1.7440905  0.044925013   -2.4549078   0.71081739  1252891 
  477000   0.85550096   -2.4545618   -2.4545618   -1.7439494  0.032017439   -2.4545618   0.71061237  1252891 
  478000   0.85602701   -2.4549662   -2.4549662   -1.7439168  0.053653566   -2.4549662   0.71104933  1252891 
  479000   0.85551243   -2.4543633   -2.4543633   -1.7437414  0.050361662   -2.4543633    0.7106219  1252891 
  480000   0.85598034   -2.4545614   -2.4545614   -1.7435509  0.043182904   -2.4545614   0.71101057  1252891 
  481000   0.85546136   -2.4549596   -2.4549596   -1.7443802  0.048409414   -2.4549596   0.71057948  1252891 
  482000   0.85542114    -2.455296    -2.455296     -1.74475  0.042670415    -2.455296   0.71054607  1252891 
  483000    0.8560132   -2.4554678   -2.4554678   -1.7444299  0.043290076   -2.4554678   0.71103786  1252891 
  484000   0.85595995   -2.4556713   -2.4556713   -1.7446777  0.056053491   -2.4556713   0.71099363  1252891 
  485000   0.85640824   -2.4563939   -2.4563939   -1.7450279  0.047537947   -2.4563939     0.711366  1252891 
  486000   0.85664011   -2.4558017   -2.4558017   -1.7442431  0.042546348   -2.4558017    0.7115586  1252891 
  487000   0.85539247   -2.4551857   -2.4551857   -1.7446635  0.051202838   -2.4551857   0.71052226  1252891 
  488000   0.85437066   -2.4548559   -2.4548559   -1.7451824  0.046199004   -2.4548559    0.7096735  1252891 
  489000   0.85489845   -2.4555034   -2.4555034   -1.7453915  0.039222724   -2.4555034   0.71011191  1252891 
  490000   0.85525522   -2.4550687   -2.4550687   -1.7446604  0.047634185   -2.4550687   0.71040826  1252891 
  491000   0.85500076   -2.4561893   -2.4561893   -1.7459924  0.038873669   -2.4561893   0.71019689  1252891 
  492000   0.85571033   -2.4559954   -2.4559954   -1.7452091  0.045175565   -2.4559954   0.71078629  1252891 
  493000   0.85573158   -2.4563055   -2.4563055   -1.7455016  0.046776189   -2.4563055   0.71080394  1252891 
  494000   0.85557587   -2.4550398   -2.4550398   -1.7443652  0.042143084   -2.4550398    0.7106746  1252891 
  495000   0.85374298   -2.4547389   -2.4547389   -1.7455868  0.041427544   -2.4547389   0.70915212  1252891 
  496000   0.85500378   -2.4554559   -2.4554559   -1.7452566  0.047069725   -2.4554559    0.7101994  1252891 
  497000   0.85528394   -2.4556932   -2.4556932   -1.7452611  0.043745037   -2.4556932   0.71043211  1252891 
  498000   0.85505951   -2.4554178   -2.4554178   -1.7451721   0.05205827   -2.4554178   0.71024569  1252891 
  499000   0.85479629   -2.4558728   -2.4558728   -1.7458457   0.03998196   -2.4558728   0.71002705  1252891 
  500000   0.85537938   -2.4556458   -2.4556458   -1.7451344  0.047191493   -2.4556458   0.71051139  1252891 
  501000   0.85509311    -2.455493    -2.455493   -1.7452194  0.044647865    -2.455493    0.7102736  1252891 
  502000   0.85411299    -2.454979    -2.454979   -1.7455195  0.043912198    -2.454979   0.70945948  1252891 
  503000   0.85476482   -2.4560002   -2.4560002   -1.7459993  0.045754232   -2.4560002    0.7100009  1252891 
  504000   0.85432209   -2.4551961   -2.4551961    -1.745563  0.039643078   -2.4551961   0.70963316  1252891 
  505000    0.8541957   -2.4564313   -2.4564313   -1.7469032   0.04318956   -2.4564313   0.70952818  1252891 
  506000   0.85480869   -2.4559224   -2.4559224   -1.7458851  0.037234838   -2.4559224   0.71003735  1252891 
  507000   0.85392519   -2.4554665   -2.4554665    -1.746163  0.047250824   -2.4554665   0.70930348  1252891 
  508000   0.85448791   -2.4558717   -2.4558717   -1.7461008  0.041231074   -2.4558717   0.70977089  1252891 
  509000   0.85513533   -2.4570503   -2.4570503   -1.7467416  0.036709422   -2.4570503   0.71030867  1252891 
  510000   0.85498577   -2.4569314   -2.4569314   -1.7467469  0.039795469   -2.4569314   0.71018444  1252891 
  511000   0.85384406   -2.4563589   -2.4563589   -1.7471228   0.03645397   -2.4563589   0.70923609  1252891 
  512000   0.85430256   -2.4559074   -2.4559074   -1.7462904  0.041191968   -2.4559074   0.70961694  1252891 
  513000   0.85409884   -2.4564901   -2.4564901   -1.7470424  0.048893646   -2.4564901   0.70944772  1252891 
  514000    0.8555418   -2.4581739   -2.4581739   -1.7475276   0.04991298   -2.4581739    0.7106463  1252891 
  515000   0.85423156   -2.4575009   -2.4575009   -1.7479429  0.049288135   -2.4575009   0.70955796  1252891 
  516000   0.85400428   -2.4570563   -2.4570563   -1.7476871   0.04968716   -2.4570563   0.70936917  1252891 
  517000   0.85381063   -2.4568799   -2.4568799   -1.7476716  0.036617763   -2.4568799   0.70920832  1252891 
  518000   0.85437172   -2.4569809   -2.4569809   -1.7473066  0.040388116   -2.4569809   0.70967438  1252891 
  519000   0.85371151   -2.4564989   -2.4564989    -1.747373  0.041886535   -2.4564989   0.70912599  1252891 
  520000   0.85443869   -2.4571083   -2.4571083   -1.7473783  0.039109039   -2.4571083   0.70973001  1252891 
  521000   0.85307592   -2.4567582   -2.4567582   -1.7481602  0.035024733   -2.4567582   0.70859804  1252891 
  522000    0.8532746   -2.4566384   -2.4566384   -1.7478754  0.042301179   -2.4566384   0.70876307  1252891 
  523000   0.85407413   -2.4576271   -2.4576271   -1.7481999  0.049097131   -2.4576271   0.70942719  1252891 
  524000   0.85408674   -2.4581596   -2.4581596   -1.7487219  0.046946823   -2.4581596   0.70943767  1252891 
  525000   0.85371438   -2.4575998   -2.4575998   -1.7484714  0.045906118   -2.4575998   0.70912837  1252891 
  526000   0.85417336   -2.4578146   -2.4578146    -1.748305  0.050560089   -2.4578146   0.70950962  1252891 
  527000   0.85378622    -2.457996    -2.457996   -1.7488079   0.04956759    -2.457996   0.70918805  1252891 
  528000   0.85288748   -2.4579927   -2.4579927   -1.7495512  0.046945703   -2.4579927   0.70844151  1252891 
  529000   0.85332606   -2.4573184   -2.4573184   -1.7485125  0.043668462   -2.4573184   0.70880581  1252891 
  530000   0.85275349   -2.4571163   -2.4571163   -1.7487861  0.055699806   -2.4571163   0.70833022  1252891 
  531000   0.85329951    -2.457296    -2.457296   -1.7485122  0.048708361    -2.457296   0.70878377  1252891 
  532000   0.85408396   -2.4580173   -2.4580173    -1.748582  0.048724192   -2.4580173   0.70943536  1252891 
  533000   0.85387335   -2.4578938   -2.4578938   -1.7486334  0.048791055   -2.4578938   0.70926042  1252891 
  534000   0.85339974   -2.4579213   -2.4579213   -1.7490543  0.044413106   -2.4579213   0.70886702  1252891 
  535000   0.85351994   -2.4578414   -2.4578414   -1.7488745  0.041862371   -2.4578414   0.70896686  1252891 
  536000   0.85277636    -2.457739    -2.457739   -1.7493898  0.042609005    -2.457739   0.70834922  1252891 
  537000   0.85302558   -2.4579128   -2.4579128   -1.7493566  0.043490124   -2.4579128   0.70855623  1252891 
  538000   0.85315917   -2.4579475   -2.4579475   -1.7492803  0.036191018   -2.4579475   0.70866719  1252891 
  539000   0.85375276   -2.4583757   -2.4583757   -1.7492154  0.041050258   -2.4583757   0.70916025  1252891 
  540000   0.85380662   -2.4586651   -2.4586651   -1.7494601  0.037799717   -2.4586651   0.70920499  1252891 
  541000   0.85377895   -2.4585017   -2.4585017   -1.7493197   0.03993921   -2.4585017   0.70918201  1252891 
  542000   0.85301689   -2.4580961   -2.4580961   -1.7495471  0.043624709   -2.4580961   0.70854901  1252891 
  543000   0.85400672   -2.4594697   -2.4594697   -1.7500985  0.035892797   -2.4594697    0.7093712  1252891 
  544000   0.85274378   -2.4586955   -2.4586955   -1.7503733  0.039081214   -2.4586955   0.70832215  1252891 
  545000    0.8528145   -2.4585965   -2.4585965   -1.7502156  0.043076672   -2.4585965    0.7083809  1252891 
  546000   0.85299118   -2.4591129   -2.4591129   -1.7505852  0.046680057   -2.4591129   0.70852766  1252891 
  547000   0.85275082   -2.4594447   -2.4594447   -1.7511167   0.04109672   -2.4594447     0.708328  1252891 
  548000   0.85324624   -2.4600499   -2.4600499   -1.7513104  0.035783811   -2.4600499   0.70873952  1252891 
  549000    0.8528525   -2.4592043   -2.4592043   -1.7507918  0.040955114   -2.4592043   0.70841246  1252891 
  550000   0.85274863   -2.4599361   -2.4599361   -1.7516099  0.046660926   -2.4599361   0.70832618  1252891 
  551000   0.85317334   -2.4603237   -2.4603237   -1.7516447  0.041496508   -2.4603237   0.70867896  1252891 
  552000   0.85249581   -2.4602528   -2.4602528   -1.7521366  0.043354175   -2.4602528   0.70811618  1252891 
  553000   0.85312616   -2.4605106   -2.4605106   -1.7518708  0.042213244   -2.4605106   0.70863977  1252891 
  554000   0.85196324   -2.4599873   -2.4599873   -1.7523135  0.044748577   -2.4599873   0.70767381  1252891 
  555000   0.85205942   -2.4596644   -2.4596644   -1.7519107  0.048863649   -2.4596644   0.70775369  1252891 
  556000   0.85252126   -2.4605657   -2.4605657   -1.7524283  0.041855735   -2.4605657   0.70813732  1252891 
  557000   0.85357135   -2.4611241   -2.4611241   -1.7521145  0.048773788   -2.4611241   0.70900957  1252891 
  558000   0.85309036    -2.461212    -2.461212    -1.752602   0.05034208    -2.461212   0.70861004  1252891 
  559000   0.85197491   -2.4603924   -2.4603924   -1.7527089  0.046788527   -2.4603924    0.7076835  1252891 
  560000   0.85250034   -2.4601939   -2.4601939   -1.7520739  0.050886733   -2.4601939   0.70811995  1252891 
  561000   0.85183998   -2.4608444   -2.4608444    -1.753273   0.04018845   -2.4608444   0.70757142  1252891 
  562000   0.85257515   -2.4609102   -2.4609102   -1.7527281  0.052253833   -2.4609102   0.70818209  1252891 
  563000   0.85331162   -2.4612804   -2.4612804   -1.7524866  0.044595365   -2.4612804   0.70879382  1252891 
  564000   0.85285631   -2.4609287   -2.4609287    -1.752513  0.039481968   -2.4609287   0.70841563  1252891 
  565000   0.85201032   -2.4604566   -2.4604566   -1.7527437  0.035353828   -2.4604566   0.70771291  1252891 
  566000   0.85055254   -2.4601731   -2.4601731    -1.753671  0.041807985   -2.4601731   0.70650202  1252891 
  567000   0.85243838   -2.4607844   -2.4607844   -1.7527159  0.043312241   -2.4607844   0.70806848  1252891 
  568000   0.85128814   -2.4604682   -2.4604682   -1.7533551  0.047897885   -2.4604682   0.70711304  1252891 
  569000   0.85220777   -2.4605519   -2.4605519    -1.752675  0.047080011   -2.4605519   0.70787692  1252891 
  570000   0.85166904    -2.460586    -2.460586   -1.7531566  0.045295315    -2.460586   0.70742944  1252891 
  571000   0.85083625   -2.4603712   -2.4603712   -1.7536335   0.05301107   -2.4603712   0.70673769  1252891 
  572000   0.85259198   -2.4617479   -2.4617479   -1.7535518  0.034639057   -2.4617479   0.70819606  1252891 
  573000   0.85135894   -2.4607415   -2.4607415   -1.7535697  0.039959134   -2.4607415   0.70717185  1252891 
  574000   0.85198585    -2.461245    -2.461245   -1.7535524  0.042304274    -2.461245   0.70769259  1252891 
  575000    0.8511207   -2.4609833   -2.4609833   -1.7540094  0.052011681   -2.4609833   0.70697396  1252891 
  576000   0.85232384   -2.4622101   -2.4622101   -1.7542367  0.049023124   -2.4622101   0.70797334  1252891 
  577000   0.85191213   -2.4617073   -2.4617073   -1.7540759  0.044897815   -2.4617073   0.70763136  1252891 
  578000   0.85168917   -2.4619911   -2.4619911    -1.754545  0.043759941   -2.4619911   0.70744616  1252891 
  579000   0.85244882   -2.4629413   -2.4629413   -1.7548641  0.040617151   -2.4629413   0.70807715  1252891 
  580000   0.85074822   -2.4622608   -2.4622608   -1.7555963  0.044020187   -2.4622608   0.70666456  1252891 
  581000   0.85183756   -2.4623942   -2.4623942   -1.7548248  0.041416339   -2.4623942   0.70756942  1252891 
  582000   0.85119477   -2.4621296   -2.4621296   -1.7550941  0.049380693   -2.4621296   0.70703549  1252891 
  583000    0.8524287   -2.4630045   -2.4630045   -1.7549441  0.050028925   -2.4630045   0.70806044  1252891 
  584000   0.85223722   -2.4634537   -2.4634537   -1.7555523  0.036761992   -2.4634537   0.70790139  1252891 
  585000   0.85262823   -2.4631363   -2.4631363   -1.7549101  0.051166192   -2.4631363   0.70822618  1252891 
  586000   0.85187762    -2.463059    -2.463059   -1.7554563   0.04762173    -2.463059   0.70760269  1252891 
  587000   0.85115357    -2.462728    -2.462728   -1.7557267  0.041254612    -2.462728   0.70700127  1252891 
  588000   0.85083693   -2.4625564   -2.4625564   -1.7558182  0.044628574   -2.4625564   0.70673825  1252891 
  589000   0.85151854   -2.4629868   -2.4629868   -1.7556823  0.043743968   -2.4629868   0.70730442  1252891 
  590000   0.85121855   -2.4626603   -2.4626603   -1.7556051  0.044020065   -2.4626603   0.70705524  1252891 
  591000   0.85253885   -2.4636161   -2.4636161   -1.7554642  0.049242251   -2.4636161   0.70815193  1252891 
  592000   0.85186167   -2.4632933   -2.4632933   -1.7557038  0.044571284   -2.4632933   0.70758944  1252891 
  593000   0.84995088   -2.4613199   -2.4613199   -1.7553177  0.046375649   -2.4613199   0.70600226  1252891 
  594000   0.85063659   -2.4624764   -2.4624764   -1.7559046  0.045635187   -2.4624764   0.70657184  1252891 
  595000   0.85168081    -2.463005    -2.463005   -1.7555658  0.044321748    -2.463005   0.70743921  1252891 
  596000    0.8503104   -2.4619022   -2.4619022   -1.7556013  0.042410965   -2.4619022   0.70630089  1252891 
  597000   0.85171719   -2.4636037   -2.4636037   -1.7561343  0.038437381   -2.4636037   0.70746943  1252891 
  598000   0.85157291   -2.4621948   -2.4621948   -1.7548452  0.051762054   -2.4621948   0.70734958  1252891 
  599000   0.85213375   -2.4634304   -2.4634304   -1.7556149  0.046448314   -2.4634304   0.70781544  1252891 
  600000   0.85187654   -2.4636097   -2.4636097    -1.756008  0.052298285   -2.4636097   0.70760179  1252891 
  601000   0.85200337   -2.4635227   -2.4635227   -1.7558156  0.046687258   -2.4635227   0.70770714  1252891 
  602000   0.85066681   -2.4630657   -2.4630657   -1.7564688  0.041996018   -2.4630657   0.70659694  1252891 
  603000   0.85083474   -2.4630925   -2.4630925   -1.7563561  0.046997357   -2.4630925   0.70673643  1252891 
  604000   0.85207271   -2.4645211   -2.4645211   -1.7567563  0.037652759   -2.4645211   0.70776474  1252891 
  605000   0.85173618    -2.464295    -2.464295   -1.7568098  0.041267673    -2.464295    0.7074852  1252891 
  606000   0.85159606   -2.4633749   -2.4633749   -1.7560061  0.059582632   -2.4633749   0.70736881  1252891 
  607000   0.85248405   -2.4641781   -2.4641781   -1.7560717   0.05139584   -2.4641781   0.70810641  1252891 
  608000   0.85083555   -2.4632577   -2.4632577   -1.7565206  0.039463304   -2.4632577    0.7067371  1252891 
  609000   0.85160176   -2.4646002   -2.4646002   -1.7572266  0.030775018   -2.4646002   0.70737355  1252891 
  610000   0.85064284    -2.463631    -2.463631   -1.7570539  0.040262724    -2.463631   0.70657703  1252891 
  611000   0.85075538   -2.4634451   -2.4634451   -1.7567746  0.042918863   -2.4634451   0.70667051  1252891 
  612000   0.85047978   -2.4634819   -2.4634819   -1.7570403  0.044164371   -2.4634819   0.70644159  1252891 
  613000   0.85127759   -2.4642637   -2.4642637   -1.7571594  0.047695185   -2.4642637   0.70710428  1252891 
  614000   0.85135565   -2.4647029   -2.4647029   -1.7575338  0.042059063   -2.4647029   0.70716912  1252891 
  615000    0.8506819    -2.463246    -2.463246   -1.7566365  0.047592832    -2.463246   0.70660948  1252891 
  616000   0.85231576   -2.4646566   -2.4646566     -1.75669  0.046175629   -2.4646566   0.70796662  1252891 
  617000   0.85134182   -2.4641803   -2.4641803   -1.7570227  0.049098333   -2.4641803   0.70715763  1252891 
  618000   0.85181674   -2.4643591   -2.4643591    -1.756807  0.047614412   -2.4643591   0.70755212  1252891 
  619000    0.8513618   -2.4644507   -2.4644507   -1.7572765  0.049765798   -2.4644507   0.70717422  1252891 
  620000   0.85114105   -2.4643852   -2.4643852   -1.7573944  0.048847494   -2.4643852   0.70699086  1252891 
  621000   0.85011104   -2.4639911   -2.4639911   -1.7578558  0.046154096   -2.4639911    0.7061353  1252891 
  622000   0.85156241   -2.4653426   -2.4653426   -1.7580018  0.043249646   -2.4653426   0.70734086  1252891 
  623000   0.84993629   -2.4636719   -2.4636719   -1.7576817  0.035511346   -2.4636719   0.70599014  1252891 
  624000   0.85042874    -2.464105    -2.464105   -1.7577059   0.04018002    -2.464105   0.70639919  1252891 
  625000   0.85005522   -2.4635887   -2.4635887   -1.7574998  0.039918073   -2.4635887   0.70608893  1252891 
  626000   0.84934368   -2.4630222   -2.4630222   -1.7575244  0.047505568   -2.4630222    0.7054979  1252891 
  627000   0.85060014   -2.4641295   -2.4641295   -1.7575879  0.035717136   -2.4641295   0.70654156  1252891 
  628000   0.85008236     -2.46382     -2.46382   -1.7577085  0.037195145     -2.46382   0.70611148  1252891 
  629000   0.84985741    -2.463208    -2.463208   -1.7572834  0.040418216    -2.463208   0.70592462  1252891 
  630000   0.85023943   -2.4637449   -2.4637449   -1.7575029  0.037517299   -2.4637449   0.70624195  1252891 
  631000   0.85040751   -2.4640346   -2.4640346   -1.7576531  0.055183823   -2.4640346   0.70638156  1252891 
  632000   0.84986971   -2.4645623   -2.4645623   -1.7586274  0.043745215   -2.4645623   0.70593484  1252891 
  633000    0.8502228   -2.4643209   -2.4643209   -1.7580928  0.047394049   -2.4643209   0.70622813  1252891 
  634000   0.85088932   -2.4648419   -2.4648419   -1.7580601  0.046606493   -2.4648419   0.70678177  1252891 
  635000   0.85073782   -2.4652602   -2.4652602   -1.7586043  0.042206722   -2.4652602   0.70665593  1252891 
  636000   0.84980466   -2.4643629   -2.4643629   -1.7584821  0.047916145   -2.4643629    0.7058808  1252891 
  637000   0.85084281   -2.4649408   -2.4649408   -1.7581977  0.043156565   -2.4649408   0.70674314  1252891 
  638000   0.85079018   -2.4649625   -2.4649625   -1.7582631  0.033057219   -2.4649625   0.70669942  1252891 
  639000   0.84880618   -2.4642465   -2.4642465    -1.759195  0.044753293   -2.4642465   0.70505143  1252891 
  640000   0.84933689   -2.4647028   -2.4647028   -1.7592105    0.0453453   -2.4647028   0.70549226  1252891 
  641000    0.8495665   -2.4650299   -2.4650299   -1.7593469  0.048580207   -2.4650299   0.70568298  1252891 
  642000   0.84984102   -2.4652403   -2.4652403   -1.7593292  0.050517012   -2.4652403   0.70591101  1252891 
  643000   0.85034852   -2.4661094   -2.4661094   -1.7597769  0.038441979   -2.4661094   0.70633256  1252891 
  644000   0.85175574    -2.466751    -2.466751   -1.7592495  0.043439838    -2.466751   0.70750145  1252891 
  645000   0.85104244   -2.4663286   -2.4663286   -1.7594196  0.037234593   -2.4663286   0.70690896  1252891 
  646000    0.8506274   -2.4657557   -2.4657557   -1.7591915  0.044983563   -2.4657557    0.7065642  1252891 
  647000   0.85069779   -2.4660471   -2.4660471   -1.7594244  0.052430831   -2.4660471   0.70662267  1252891 
  648000   0.85086359   -2.4666794   -2.4666794    -1.759919  0.050515401   -2.4666794    0.7067604  1252891 
  649000     0.849795   -2.4652627   -2.4652627   -1.7593899  0.046033087   -2.4652627   0.70587278  1252891 
  650000   0.85048306   -2.4659387   -2.4659387   -1.7594944  0.053228013   -2.4659387   0.70644431  1252891 
  651000   0.84982058   -2.4653052   -2.4653052   -1.7594111  0.048390797   -2.4653052   0.70589403  1252891 
  652000   0.85011817    -2.466146    -2.466146   -1.7600048  0.042684592    -2.466146   0.70614122  1252891 
  653000   0.84980517   -2.4653735   -2.4653735   -1.7594922  0.043419333   -2.4653735   0.70588123  1252891 
  654000    0.8503875   -2.4655455   -2.4655455   -1.7591805   0.04207608   -2.4655455   0.70636494  1252891 
  655000   0.84942337   -2.4646813   -2.4646813   -1.7591172  0.037438265   -2.4646813   0.70556409  1252891 
  656000   0.84940193   -2.4657655   -2.4657655   -1.7602192  0.032760334   -2.4657655   0.70554629  1252891 
  657000   0.85009267   -2.4660863   -2.4660863   -1.7599663  0.033192479   -2.4660863   0.70612004  1252891 
  658000   0.84809228   -2.4649493   -2.4649493   -1.7604908  0.036278029   -2.4649493   0.70445844  1252891 
  659000   0.84858675    -2.465446    -2.465446   -1.7605768  0.046148221    -2.465446   0.70486916  1252891 
[...]
 2832000   0.82561184   -2.5364184   -2.5364184   -1.8506331  0.035028346   -2.5364184   0.68578531  1252891 
 2833000    0.8236751    -2.535898    -2.535898   -1.8517214  0.030911323    -2.535898   0.68417657  1252891 
 2834000   0.82494869    -2.536793    -2.536793   -1.8515585  0.034194539    -2.536793   0.68523447  1252891 
 2835000   0.82538744   -2.5382256   -2.5382256   -1.8526267  0.024100974   -2.5382256   0.68559891  1252891 
 2836000   0.82479396   -2.5367516   -2.5367516   -1.8516456  0.040208135   -2.5367516   0.68510595  1252891 
 2837000   0.82476465    -2.537157    -2.537157   -1.8520754  0.036360571    -2.537157    0.6850816  1252891 
 2838000   0.82467328   -2.5371377   -2.5371377    -1.852132  0.043174767   -2.5371377    0.6850057  1252891 
 2839000   0.82407795   -2.5369334   -2.5369334   -1.8524222  0.042270045   -2.5369334    0.6845112  1252891 
 2840000    0.8252493   -2.5380677   -2.5380677   -1.8525835  0.035402389   -2.5380677   0.68548417  1252891 
 2841000   0.82429765   -2.5374173   -2.5374173   -1.8527236   0.03373257   -2.5374173   0.68469369  1252891 
 2842000   0.82443053   -2.5371801   -2.5371801   -1.8523761  0.042714996   -2.5371801   0.68480407  1252891 
 2843000   0.82400658   -2.5372625   -2.5372625   -1.8528105  0.044637216   -2.5372625   0.68445191  1252891 
 2844000   0.82398486   -2.5371066   -2.5371066   -1.8526727  0.041861349   -2.5371066   0.68443387  1252891 
 2845000   0.82519416   -2.5383408   -2.5383408   -1.8529024  0.037693341   -2.5383408   0.68543837  1252891 
 2846000   0.82390446   -2.5371765   -2.5371765   -1.8528094  0.037720764   -2.5371765   0.68436709  1252891 
 2847000   0.82503772   -2.5382469   -2.5382469   -1.8529385  0.045107158   -2.5382469   0.68530842  1252891 
 2848000   0.82512648   -2.5382049   -2.5382049   -1.8528227  0.036247627   -2.5382049   0.68538215  1252891 
 2849000   0.82440746    -2.538012    -2.538012   -1.8532271  0.034034132    -2.538012    0.6847849  1252891 
 2850000   0.82471654   -2.5380448   -2.5380448   -1.8530032  0.032653706   -2.5380448   0.68504164  1252891 
 2851000     0.823494   -2.5372363   -2.5372363   -1.8532102  0.033861515   -2.5372363   0.68402615  1252891 
 2852000   0.82494688   -2.5384452   -2.5384452   -1.8532122  0.039972124   -2.5384452   0.68523297  1252891 
 2853000   0.82491784   -2.5383151   -2.5383151   -1.8531062   0.04180927   -2.5383151   0.68520884  1252891 
 2854000   0.82453305   -2.5383047   -2.5383047   -1.8534155  0.039091382   -2.5383047   0.68488922  1252891 
 2855000   0.82402263   -2.5375621   -2.5375621   -1.8530968  0.044938916   -2.5375621   0.68446525  1252891 
 2856000   0.82551572    -2.538224    -2.538224   -1.8525185  0.038282629    -2.538224   0.68570547  1252891 
 2857000   0.82484224   -2.5376957   -2.5376957   -1.8525496  0.045815891   -2.5376957   0.68514605  1252891 
 2858000   0.82599157    -2.538452    -2.538452   -1.8523512  0.047710207    -2.538452   0.68610073  1252891 
 2859000     0.826016   -2.5386602   -2.5386602   -1.8525392  0.046493024   -2.5386602   0.68612102  1252891 
 2860000   0.82437431   -2.5378199   -2.5378199   -1.8530625  0.037404146   -2.5378199   0.68475737  1252891 
 2861000   0.82383466    -2.537494    -2.537494   -1.8531849  0.039301772    -2.537494   0.68430911  1252891 
 2862000   0.82385995   -2.5366811   -2.5366811    -1.852351  0.041582463   -2.5366811   0.68433012  1252891 
 2863000   0.82432791   -2.5376085   -2.5376085   -1.8528897  0.031567888   -2.5376085   0.68471883  1252891 
 2864000   0.82459149   -2.5384299   -2.5384299   -1.8534921  0.037392723   -2.5384299   0.68493777  1252891 
 2865000   0.82326494    -2.536801    -2.536801   -1.8529651  0.039449467    -2.536801   0.68383588  1252891 
 2866000   0.82351951   -2.5373166   -2.5373166   -1.8532693  0.037694649   -2.5373166   0.68404734  1252891 
 2867000   0.82489216   -2.5375244   -2.5375244   -1.8523369  0.028602632   -2.5375244   0.68518752  1252891 
 2868000   0.82453902   -2.5381655   -2.5381655   -1.8532713  0.035375667   -2.5381655   0.68489419  1252891 
 2869000   0.82433594   -2.5376155   -2.5376155     -1.85289   0.04040214   -2.5376155    0.6847255  1252891 
 2870000   0.82405687   -2.5380825   -2.5380825   -1.8535888  0.050194772   -2.5380825   0.68449369  1252891 
 2871000   0.82496308   -2.5384074   -2.5384074    -1.853161  0.035145549   -2.5384074   0.68524643  1252891 
 2872000   0.82382898   -2.5377158   -2.5377158   -1.8534114  0.036644168   -2.5377158   0.68430439  1252891 
 2873000   0.82383024   -2.5382373   -2.5382373   -1.8539319  0.034296977   -2.5382373   0.68430545  1252891 
 2874000   0.82417461    -2.538517    -2.538517   -1.8539255  0.027139881    -2.538517   0.68459149  1252891 
 2875000   0.82418637   -2.5385807   -2.5385807   -1.8539794  0.040632249   -2.5385807   0.68460126  1252891 
 2876000   0.82284054   -2.5385124   -2.5385124    -1.855029  0.035683049   -2.5385124   0.68348336  1252891 
 2877000   0.82391521   -2.5383583   -2.5383583   -1.8539822  0.048242114   -2.5383583   0.68437602  1252891 
 2878000   0.82546661   -2.5390097   -2.5390097   -1.8533451  0.040036545   -2.5390097   0.68566467  1252891 
 2879000   0.82551014   -2.5385952   -2.5385952   -1.8528943  0.046406936   -2.5385952   0.68570084  1252891 
 2880000   0.82538332   -2.5393682   -2.5393682   -1.8537727  0.044015904   -2.5393682   0.68559549  1252891 
 2881000    0.8236661   -2.5378361   -2.5378361    -1.853667  0.037567571   -2.5378361    0.6841691  1252891 
 2882000   0.82466221   -2.5384446   -2.5384446   -1.8534481  0.044185889   -2.5384446   0.68499651  1252891 
 2883000   0.82517889   -2.5385065   -2.5385065   -1.8530809   0.02939482   -2.5385065   0.68542568  1252891 
 2884000   0.82386574   -2.5378131   -2.5378131   -1.8534781  0.034057166   -2.5378131   0.68433493  1252891 
 2885000   0.82389509   -2.5382058   -2.5382058   -1.8538465  0.035955813   -2.5382058   0.68435931  1252891 
 2886000   0.82383611   -2.5370349   -2.5370349   -1.8527246  0.035382106   -2.5370349   0.68431032  1252891 
 2887000   0.82433057   -2.5382105   -2.5382105   -1.8534895  0.038615556   -2.5382105   0.68472103  1252891 
 2888000   0.82483142   -2.5386373   -2.5386373   -1.8535002  0.034806642   -2.5386373   0.68513706  1252891 
 2889000   0.82384532   -2.5381992   -2.5381992   -1.8538812  0.031702271   -2.5381992   0.68431797  1252891 
 2890000    0.8247459   -2.5388468   -2.5388468   -1.8537808  0.033749127   -2.5388468   0.68506603  1252891 
 2891000   0.82402982   -2.5380219   -2.5380219   -1.8535507  0.039461858   -2.5380219   0.68447122  1252891 
 2892000   0.82461815   -2.5387454   -2.5387454   -1.8537854  0.037063269   -2.5387454   0.68495991  1252891 
 2893000   0.82349181   -2.5389192   -2.5389192   -1.8548948  0.033876194   -2.5389192   0.68402433  1252891 
 2894000   0.82406182   -2.5390984   -2.5390984   -1.8546006  0.034685429   -2.5390984   0.68449781  1252891 
 2895000   0.82441619   -2.5383648   -2.5383648   -1.8535726  0.034722559   -2.5383648   0.68479216  1252891 
 2896000   0.82328015   -2.5388976   -2.5388976   -1.8550491  0.034466009   -2.5388976   0.68384852  1252891 
 2897000   0.82426453    -2.539164    -2.539164   -1.8544978  0.040316618    -2.539164   0.68466618  1252891 
 2898000   0.82454482   -2.5390635   -2.5390635   -1.8541645  0.045587068   -2.5390635     0.684899  1252891 
 2899000   0.82454709   -2.5398021   -2.5398021   -1.8549012  0.036142722   -2.5398021   0.68490089  1252891 
 2900000   0.82490146   -2.5395147   -2.5395147   -1.8543194  0.038269292   -2.5395147   0.68519524  1252891 
 2901000   0.82432994   -2.5397046   -2.5397046   -1.8549841  0.040174176   -2.5397046   0.68472051  1252891 
 2902000   0.82352109   -2.5394497   -2.5394497   -1.8554011  0.041096773   -2.5394497   0.68404865  1252891 
 2903000   0.82512573   -2.5391059   -2.5391059   -1.8537243  0.048042177   -2.5391059   0.68538153  1252891 
 2904000    0.8240257   -2.5389276   -2.5389276   -1.8544598  0.041246284   -2.5389276    0.6844678  1252891 
 2905000   0.82331298    -2.538275    -2.538275   -1.8543992  0.048783424    -2.538275   0.68387579  1252891 
 2906000   0.82346916   -2.5386331   -2.5386331   -1.8546276   0.04115862   -2.5386331   0.68400551  1252891 
 2907000   0.82479754   -2.5387606   -2.5387606   -1.8536517  0.030600099   -2.5387606   0.68510892  1252891 
 2908000   0.82541591    -2.539448    -2.539448   -1.8538255  0.042042841    -2.539448   0.68562256  1252891 
 2909000   0.82413546   -2.5386849   -2.5386849   -1.8541259  0.035669406   -2.5386849   0.68455897  1252891 
 2910000   0.82310202   -2.5381426   -2.5381426   -1.8544421  0.039189538   -2.5381426   0.68370055  1252891 
 2911000   0.82460259   -2.5385428   -2.5385428   -1.8535958  0.025680268   -2.5385428   0.68494699  1252891 
 2912000   0.82520011   -2.5390914   -2.5390914   -1.8536481  0.033352532   -2.5390914   0.68544331  1252891 
 2913000   0.82454819   -2.5394166   -2.5394166   -1.8545148  0.033628242   -2.5394166    0.6849018  1252891 
 2914000   0.82554344   -2.5389718   -2.5389718   -1.8532433  0.035865421   -2.5389718   0.68572849  1252891 
 2915000   0.82586863   -2.5396923   -2.5396923   -1.8536937  0.034434068   -2.5396923   0.68599861  1252891 
 2916000    0.8242415   -2.5383937   -2.5383937   -1.8537467   0.03577541   -2.5383937   0.68464705  1252891 
 2917000   0.82267943    -2.537913    -2.537913   -1.8545635  0.046629795    -2.537913   0.68334954  1252891 
 2918000   0.82375618   -2.5390683   -2.5390683   -1.8548244  0.039873146   -2.5390683   0.68424392  1252891 
 2919000   0.82376311   -2.5381563   -2.5381563   -1.8539067  0.039047064   -2.5381563   0.68424968  1252891 
 2920000   0.82386979   -2.5385411   -2.5385411   -1.8542028   0.03556973   -2.5385411   0.68433829  1252891 
 2921000   0.82507199   -2.5394218   -2.5394218   -1.8540849  0.040346407   -2.5394218   0.68533689  1252891 
 2922000   0.82494134   -2.5393544   -2.5393544    -1.854126  0.038114791   -2.5393544   0.68522836  1252891 
 2923000   0.82544916   -2.5402289   -2.5402289   -1.8545787  0.037084726   -2.5402289   0.68565018  1252891 
 2924000   0.82478493   -2.5388152   -2.5388152   -1.8537168   0.03829788   -2.5388152   0.68509844  1252891 
 2925000   0.82450762   -2.5390244   -2.5390244   -1.8541563  0.042313808   -2.5390244    0.6848681  1252891 
 2926000   0.82630081   -2.5400501   -2.5400501   -1.8536925  0.043931666   -2.5400501   0.68635759  1252891 
 2927000   0.82392013   -2.5390667   -2.5390667   -1.8546866  0.044412188   -2.5390667   0.68438011  1252891 
 2928000    0.8250336   -2.5400555   -2.5400555   -1.8547505  0.033169343   -2.5400555     0.685305  1252891 
 2929000   0.82469841   -2.5390947   -2.5390947   -1.8540682  0.040832693   -2.5390947   0.68502658  1252891 
 2930000   0.82534716   -2.5400341   -2.5400341   -1.8544687   0.05241469   -2.5400341   0.68556545  1252891 
 2931000   0.82505683   -2.5396043   -2.5396043     -1.85428  0.037096098   -2.5396043   0.68532429  1252891 
 2932000   0.82504661   -2.5391385   -2.5391385   -1.8538227   0.03494313   -2.5391385   0.68531581  1252891 
 2933000   0.82450506    -2.539076    -2.539076   -1.8542101  0.034337051    -2.539076   0.68486597  1252891 
 2934000   0.82301069   -2.5379147   -2.5379147     -1.85429   0.03911479   -2.5379147   0.68362469  1252891 
 2935000   0.82343013   -2.5375701   -2.5375701    -1.853597  0.044381554   -2.5375701   0.68397309  1252891 
 2936000    0.8237799   -2.5384469   -2.5384469   -1.8541833    0.0329463   -2.5384469   0.68426363  1252891 
 2937000    0.8236255   -2.5384063   -2.5384063   -1.8542709  0.037733458   -2.5384063   0.68413537  1252891 
 2938000   0.82498759   -2.5384349   -2.5384349   -1.8531681  0.042137818   -2.5384349   0.68526678  1252891 
 2939000   0.82547685   -2.5387603   -2.5387603   -1.8530871  0.043822117   -2.5387603   0.68567318  1252891 
 2940000   0.82412125   -2.5386818   -2.5386818   -1.8541346  0.034266175   -2.5386818   0.68454717  1252891 
 2941000   0.82339113   -2.5389046   -2.5389046   -1.8549639  0.028212108   -2.5389046    0.6839407  1252891 
 2942000   0.82383144   -2.5381806   -2.5381806   -1.8538741  0.034992398   -2.5381806   0.68430644  1252891 
 2943000    0.8252078   -2.5401657   -2.5401657    -1.854716  0.036815298   -2.5401657    0.6854497  1252891 
 2944000   0.82408101   -2.5385559   -2.5385559   -1.8540421  0.037202027   -2.5385559   0.68451374  1252891 
 2945000   0.82514611   -2.5404063   -2.5404063   -1.8550079  0.040141256   -2.5404063   0.68539846  1252891 
 2946000   0.82559688   -2.5404448   -2.5404448   -1.8546719  0.032041385   -2.5404448   0.68577288  1252891 
 2947000   0.82534865   -2.5402375   -2.5402375   -1.8546708  0.027233899   -2.5402375    0.6855667  1252891 
 2948000   0.82455478   -2.5395744   -2.5395744   -1.8546671  0.031745134   -2.5395744   0.68490727  1252891 
 2949000   0.82357449   -2.5390076   -2.5390076   -1.8549146  0.038671077   -2.5390076     0.684093  1252891 
 2950000   0.82383071   -2.5387644   -2.5387644   -1.8544585  0.035013464   -2.5387644   0.68430583  1252891 
 2951000   0.82383868   -2.5399674   -2.5399674   -1.8556549  0.027018879   -2.5399674   0.68431245  1252891 
 2952000   0.82330475   -2.5393272   -2.5393272   -1.8554583  0.047306792   -2.5393272   0.68386895  1252891 
 2953000   0.82407412   -2.5392054   -2.5392054   -1.8546974  0.039015239   -2.5392054   0.68450802  1252891 
 2954000   0.82356373   -2.5384384   -2.5384384   -1.8543544  0.044466119   -2.5384384   0.68408407  1252891 
 2955000     0.823669   -2.5392409   -2.5392409   -1.8550693  0.035533948   -2.5392409   0.68417151  1252891 
 2956000   0.82428266   -2.5393193   -2.5393193   -1.8546381  0.041879324   -2.5393193   0.68468124  1252891 
 2957000   0.82451343   -2.5398924   -2.5398924   -1.8550195  0.036093923   -2.5398924   0.68487293  1252891 
 2958000   0.82424343   -2.5394861   -2.5394861   -1.8548374  0.030699655   -2.5394861   0.68464865  1252891 
 2959000   0.82444918   -2.5391962   -2.5391962   -1.8543766   0.02887421   -2.5391962   0.68481956  1252891 
 2960000   0.82467333   -2.5397318   -2.5397318   -1.8547261  0.036176432   -2.5397318   0.68500575  1252891 
 2961000   0.82378618   -2.5395203   -2.5395203   -1.8552514  0.036772179   -2.5395203   0.68426885  1252891 
 2962000   0.82372618   -2.5391073   -2.5391073   -1.8548883   0.02390019   -2.5391073     0.684219  1252891 
 2963000   0.82352735   -2.5392997   -2.5392997   -1.8552459  0.035275129   -2.5392997   0.68405385  1252891 
 2964000   0.82408302   -2.5399785   -2.5399785   -1.8554631  0.041810394   -2.5399785   0.68451542  1252891 
 2965000   0.82547251   -2.5407633   -2.5407633   -1.8550937  0.029194801   -2.5407633   0.68566957  1252891 
 2966000   0.82503003   -2.5404921   -2.5404921     -1.85519  0.040624108   -2.5404921   0.68530203  1252891 
 2967000   0.82456913   -2.5408393   -2.5408393   -1.8559201  0.036473423   -2.5408393    0.6849192  1252891 
 2968000   0.82534777   -2.5416681   -2.5416681   -1.8561021  0.035483429   -2.5416681   0.68556596  1252891 
 2969000   0.82453526   -2.5405374   -2.5405374   -1.8556463   0.04281709   -2.5405374   0.68489106  1252891 
 2970000   0.82488631   -2.5408681   -2.5408681   -1.8556855  0.042863201   -2.5408681   0.68518265  1252891 
 2971000   0.82514507   -2.5415478   -2.5415478   -1.8561502  0.038323258   -2.5415478   0.68539759  1252891 
 2972000   0.82470935   -2.5406769   -2.5406769   -1.8556412  0.039453401   -2.5406769   0.68503567  1252891 
 2973000   0.82587242    -2.540961    -2.540961   -1.8549592  0.031404457    -2.540961   0.68600175  1252891 
 2974000   0.82356811   -2.5398438   -2.5398438   -1.8557561  0.040635177   -2.5398438   0.68408771  1252891 
 2975000   0.82407575   -2.5399888   -2.5399888   -1.8554794  0.042361316   -2.5399888   0.68450937  1252891 
 2976000   0.82447973    -2.540073    -2.540073    -1.855228  0.026422651    -2.540073   0.68484494  1252891 
 2977000   0.82378902   -2.5399143   -2.5399143   -1.8556431  0.043862273   -2.5399143   0.68427121  1252891 
 2978000    0.8248847    -2.540467    -2.540467   -1.8552857  0.043678917    -2.540467   0.68518132  1252891 
 2979000    0.8244311   -2.5400174   -2.5400174   -1.8552129  0.044621076   -2.5400174   0.68480454  1252891 
 2980000   0.82454687   -2.5407745   -2.5407745   -1.8558738   0.04268956   -2.5407745    0.6849007  1252891 
 2981000    0.8245811   -2.5403338   -2.5403338   -1.8554047  0.038430305   -2.5403338   0.68492914  1252891 
 2982000   0.82511458   -2.5403423   -2.5403423     -1.85497  0.040632198   -2.5403423   0.68537227  1252891 
 2983000   0.82378287   -2.5400516   -2.5400516   -1.8557855  0.039294999   -2.5400516   0.68426609  1252891 
 2984000   0.82462496   -2.5399998   -2.5399998   -1.8550343  0.040077795   -2.5399998   0.68496557  1252891 
 2985000   0.82460375   -2.5405133   -2.5405133   -1.8555654  0.049409945   -2.5405133   0.68494795  1252891 
 2986000   0.82361642   -2.5400368   -2.5400368    -1.855909  0.038849988   -2.5400368   0.68412784  1252891 
 2987000   0.82363107   -2.5401991   -2.5401991   -1.8560591  0.033547864   -2.5401991      0.68414  1252891 
 2988000    0.8259094   -2.5417991   -2.5417991   -1.8557666  0.042188156   -2.5417991   0.68603247  1252891 
 2989000   0.82326374   -2.5404301   -2.5404301   -1.8565952  0.033675138   -2.5404301   0.68383488  1252891 
 2990000   0.82374878   -2.5400816   -2.5400816   -1.8558438  0.040291808   -2.5400816   0.68423778  1252891 
 2991000   0.82428349   -2.5402793   -2.5402793   -1.8555974  0.040573704   -2.5402793   0.68468193  1252891 
 2992000   0.82514634   -2.5396604   -2.5396604   -1.8542618  0.042071389   -2.5396604   0.68539865  1252891 
 2993000    0.8245148   -2.5402698   -2.5402698   -1.8553957  0.034236453   -2.5402698   0.68487406  1252891 
 2994000   0.82383601   -2.5401488   -2.5401488   -1.8558385  0.042897983   -2.5401488   0.68431023  1252891 
 2995000   0.82421126   -2.5404679   -2.5404679   -1.8558459   0.04180183   -2.5404679   0.68462193  1252891 
 2996000   0.82478659   -2.5408323   -2.5408323   -1.8557325  0.032444675   -2.5408323   0.68509982  1252891 
 2997000   0.82460068   -2.5408988   -2.5408988   -1.8559534  0.030605479   -2.5408988    0.6849454  1252891 
 2998000    0.8232659    -2.539626    -2.539626   -1.8557893  0.039746332    -2.539626   0.68383668  1252891 
 2999000    0.8238978   -2.5404918   -2.5404918   -1.8561303  0.033331239   -2.5404918   0.68436156  1252891 
 3000000   0.82454333   -2.5404497   -2.5404497    -1.855552  0.046457779   -2.5404497   0.68489776  1252891 
Loop time of 14697.2 on 240 procs for 3000000 steps with 1252891 atoms

Performance: 88179.831 tau/day, 204.120 timesteps/s
96.5% CPU use with 240 MPI tasks x 1 OpenMP threads

MPI task timing breakdown:
Section |  min time  |  avg time  |  max time  |%varavg|  %CPU | %total
-----------------------------------------------------------------------
Pair    | 3225.3     | 3860.4     | 4651.5     | 432.2 |  98.3 | 26.27
Bond    | 2.179      | 2.3648     | 2.7663     |   5.8 | 100.0 |  0.02
Neigh   | 2160.2     | 4492.5     | 5469.4     | 900.6 |  99.5 | 30.57
Comm    | 3044       | 4253.6     | 7014.1     |1079.1 |  94.0 | 28.94
Output  | 129.47     | 130.16     | 130.17     |   0.4 |  89.2 |  0.89
Modify  | 1358.1     | 1761       | 2398.5     | 510.3 |  94.2 | 11.98
Other   |            | 197.2      |            |       |       |  1.34

Nlocal:        5220.38 ave        6098 max        4385 min
Histogram: 3 8 18 37 54 64 40 10 5 1
Nghost:        12370.3 ave       15083 max        6303 min
Histogram: 10 20 10 0 0 8 25 58 75 34
Neighs:        121953.0 ave      161969 max       86765 min
Histogram: 1 2 8 56 125 27 1 0 6 14

Total # of neighbors = 29268768
Ave neighs/atom = 23.360985
Ave special neighs/atom = 0.0000000
Neighbor list builds = 300000
Dangerous builds = 297000
Total wall time: 4:05:03
