LAMMPS (3 Mar 2020)
  using 1 OpenMP thread(s) per MPI task
  orthogonal box = (0 0 0) to (80 80 160)
  2 by 2 by 4 MPI processor grid
  reading atoms ...
  489200 atoms
  reading velocities ...
  489200 velocities
  0 = max # of 1-2 neighbors
  0 = max # of 1-3 neighbors
  0 = max # of 1-4 neighbors
  1 = max # of special neighbors
  special bonds CPU = 0.130099 secs
  read_data CPU = 1.56655 secs
489200 atoms in group solvent
  orthogonal box = (0 0 0) to (80 80 160)
  2 by 2 by 4 MPI processor grid
  reading atoms ...
  73152 atoms
  reading velocities ...
  73152 velocities
  0 = max # of 1-2 neighbors
  0 = max # of 1-3 neighbors
  0 = max # of 1-4 neighbors
  1 = max # of special neighbors
  special bonds CPU = 0.0124196 secs
  read_data CPU = 0.210983 secs
Neighbor list info ...
  update every 1 steps, delay 10 steps, check yes
  max neighbors/atom: 2000, page size: 100000
  master list distance cutoff = 4.8
  ghost atom cutoff = 4.8
  binsize = 2.4, bins = 34 34 67
  2 neighbor lists, perpetual/occasional/extra = 1 1 0
  (1) command delete_atoms, occasional
      attributes: full, newton on
      pair build: full/bin
      stencil: full/bin/3d
      bin: standard
  (2) pair lj/cut, perpetual
      attributes: half, newton on
      pair build: half/bin/newton
      stencil: half/bin/3d/newton
      bin: standard
WARNING: Delete_atoms cutoff > minimum neighbor cutoff (src/delete_atoms.cpp:338)
WARNING: Ignoring 'compress yes' for molecular system (src/delete_atoms.cpp:125)
Deleted 40261 atoms, new total = 522091
Neighbor list info ...
  update every 1 steps, delay 10 steps, check yes
  max neighbors/atom: 2000, page size: 100000
  master list distance cutoff = 4.8
  ghost atom cutoff = 6.95
  binsize = 2.4, bins = 34 34 67
  1 neighbor lists, perpetual/occasional/extra = 1 0 0
  (1) pair lj/cut, perpetual
      attributes: half, newton on
      pair build: half/bin/newton
      stencil: half/bin/3d/newton
      bin: standard
  rebalancing time: 0.0307659 seconds
  iteration count = 4
  initial/final max load/proc = 48720 35698
  initial/final imbalance factor = 1.49307 1.094
  x cuts: 0 0.5 1
  y cuts: 0 0.5 1
  z cuts: 0 0.171875 0.328125 0.515625 1
WARNING: Ignoring 'compress yes' for molecular system (src/delete_atoms.cpp:125)
Deleted 6661 atoms, new total = 515430
  create bodies CPU = 0.002737 secs
64 rigid bodies with 73152 atoms
  6.94564 = max distance from body owner to body atom
dynamic group thermo defined
New timer settings: style=full  mode=nosync  timeout=off
Per MPI rank memory allocation (min/avg/max) = 77.79 | 86.63 | 89.83 Mbytes
Step Temp E_pair E_vdwl TotEng Press PotEng KinEng Volume 
       0   0.98761916   -3.9573298   -3.9573298   -2.6857866 -0.012303543   -3.9573298    1.2715431      1024000 
    1000   0.98648242   -3.9500262   -3.9500262   -2.6799466 -0.012062099   -3.9500262    1.2700796      1024000 
    2000    0.9851048   -3.9453165   -3.9453165   -2.6770105 -0.016998654   -3.9453165    1.2683059      1024000 
    3000   0.98528844   -3.9420478   -3.9420478   -2.6735055 -0.017729522   -3.9420478    1.2685424      1024000 
    4000   0.98650429   -3.9421208   -3.9421208    -2.672013 -0.0052091409   -3.9421208    1.2701078      1024000 
    5000   0.98973258   -3.9434068   -3.9434068   -2.6691426 -0.0054418336   -3.9434068    1.2742641      1024000 
    6000   0.99191306   -3.9465861   -3.9465861   -2.6695147 0.0047703177   -3.9465861    1.2770715      1024000 
    7000   0.99442462    -3.948007    -3.948007    -2.667702  0.017704392    -3.948007    1.2803051      1024000 
    8000   0.99492711    -3.947677    -3.947677    -2.666725  0.024412246    -3.947677     1.280952      1024000 
    9000   0.99635032   -3.9501935   -3.9501935   -2.6674091  0.036560062   -3.9501935    1.2827844      1024000 
   10000   0.99682339   -3.9517111   -3.9517111   -2.6683176  0.024852719   -3.9517111    1.2833934      1024000 
   11000   0.99908241   -3.9530633   -3.9530633   -2.6667615  0.029681782   -3.9530633    1.2863019      1024000 
   12000   0.99991709   -3.9559129   -3.9559129   -2.6685364  0.029554608   -3.9559129    1.2873765      1024000 
   13000    1.0002651   -3.9582209   -3.9582209   -2.6703963   0.03229156   -3.9582209    1.2878246      1024000 
   14000   0.99964395   -3.9588861   -3.9588861   -2.6718612  0.047973653   -3.9588861    1.2870249      1024000 
   15000    1.0011635    -3.961001    -3.961001   -2.6720198  0.028709655    -3.961001    1.2889812      1024000 
   16000    1.0026084   -3.9636629   -3.9636629   -2.6728213  0.046762733   -3.9636629    1.2908415      1024000 
   17000    1.0033911   -3.9646165   -3.9646165   -2.6727672  0.047755594   -3.9646165    1.2918493      1024000 
   18000    1.0034219   -3.9672886   -3.9672886   -2.6753997  0.048372421   -3.9672886    1.2918889      1024000 
   19000    1.0027272    -3.967796    -3.967796   -2.6768015   0.04167726    -3.967796    1.2909945      1024000 
   20000    1.0024495   -3.9669492   -3.9669492   -2.6763122  0.066496877   -3.9669492     1.290637      1024000 
   21000    1.0017109   -3.9695172   -3.9695172   -2.6798311  0.045629588   -3.9695172     1.289686      1024000 
   22000    1.0018734   -3.9677284   -3.9677284   -2.6778331  0.057814498   -3.9677284    1.2898953      1024000 
   23000    1.0023159   -3.9687166   -3.9687166   -2.6782517  0.053728124   -3.9687166    1.2904649      1024000 
   24000    1.0020977   -3.9707958   -3.9707958   -2.6806117   0.04370505   -3.9707958     1.290184      1024000 
   25000    1.0001582   -3.9685361   -3.9685361   -2.6808492  0.049771152   -3.9685361    1.2876869      1024000 
   26000   0.99886197    -3.966971    -3.966971    -2.680953  0.040177407    -3.966971    1.2860181      1024000 
   27000   0.99789107   -3.9675767   -3.9675767   -2.6828087  0.040322051   -3.9675767     1.284768      1024000 
   28000   0.99812939   -3.9667267   -3.9667267   -2.6816518  0.033344866   -3.9667267    1.2850749      1024000 
   29000   0.99842835   -3.9671174   -3.9671174   -2.6816576  0.028951074   -3.9671174    1.2854598      1024000 
   30000   0.99770685   -3.9650966   -3.9650966   -2.6805657  0.029506169   -3.9650966    1.2845309      1024000 
   31000   0.99487341   -3.9627153   -3.9627153   -2.6818325  0.034333979   -3.9627153    1.2808829      1024000 
   32000   0.99709797   -3.9656503   -3.9656503   -2.6819033  0.035270444   -3.9656503    1.2837469      1024000 
   33000   0.99648883   -3.9648109   -3.9648109   -2.6818482  0.027238846   -3.9648109    1.2829627      1024000 
   34000   0.99695788   -3.9638351   -3.9638351   -2.6802685  0.027341706   -3.9638351    1.2835666      1024000 
   35000   0.99710776   -3.9630131   -3.9630131   -2.6792535  0.024395052   -3.9630131    1.2837596      1024000 
   36000   0.99452215   -3.9614293   -3.9614293   -2.6809986  0.017934213   -3.9614293    1.2804306      1024000 
   37000    0.9924168   -3.9603126   -3.9603126   -2.6825925  0.025153277   -3.9603126      1.27772      1024000 
   38000    0.9942482   -3.9602713   -3.9602713   -2.6801934  0.023131462   -3.9602713    1.2800779      1024000 
   39000   0.99327266   -3.9603285   -3.9603285   -2.6815066  0.021282835   -3.9603285    1.2788219      1024000 
   40000    0.9920842   -3.9593446   -3.9593446   -2.6820528  0.016698197   -3.9593446    1.2772918      1024000 
   41000   0.99274752   -3.9599632   -3.9599632   -2.6818173 0.0012711118   -3.9599632    1.2781458      1024000 
   42000   0.99413312   -3.9591086   -3.9591086   -2.6791788  0.018618793   -3.9591086    1.2799298      1024000 
   43000   0.99338369    -3.959473    -3.959473   -2.6805081  0.018060677    -3.959473    1.2789649      1024000 
   44000   0.99211656   -3.9587242   -3.9587242   -2.6813907  0.020583993   -3.9587242    1.2773335      1024000 
   45000   0.99296848   -3.9588706   -3.9588706   -2.6804403  0.015974018   -3.9588706    1.2784303      1024000 
   46000   0.99544414   -3.9605886   -3.9605886   -2.6789709  0.025950443   -3.9605886    1.2816177      1024000 
   47000   0.99356629   -3.9605899   -3.9605899     -2.68139  0.027668689   -3.9605899       1.2792      1024000 
   48000   0.99482385     -3.96132     -3.96132   -2.6805009  0.017074511     -3.96132    1.2808191      1024000 
   49000   0.99477654   -3.9619559   -3.9619559   -2.6811977  0.023499097   -3.9619559    1.2807581      1024000 
   50000   0.99358665   -3.9603338   -3.9603338   -2.6811076  0.025967831   -3.9603338    1.2792262      1024000 
   51000   0.99634289   -3.9621022   -3.9621022   -2.6793274  0.037086769   -3.9621022    1.2827748      1024000 
   52000   0.99526273   -3.9625653   -3.9625653   -2.6811811  0.035874778   -3.9625653    1.2813841      1024000 
   53000   0.99707543   -3.9646924   -3.9646924   -2.6809745  0.020468925   -3.9646924    1.2837179      1024000 
   54000   0.99746499   -3.9658669   -3.9658669   -2.6816475  0.026458948   -3.9658669    1.2842195      1024000 
   55000   0.99702021   -3.9655664   -3.9655664   -2.6819195  0.032764732   -3.9655664    1.2836468      1024000 
   56000   0.99729614   -3.9665901   -3.9665901    -2.682588  0.031774699   -3.9665901    1.2840021      1024000 
   57000   0.99621177   -3.9680496   -3.9680496   -2.6854437  0.035308389   -3.9680496     1.282606      1024000 
   58000   0.99759278    -3.969892    -3.969892    -2.685508  0.026441705    -3.969892     1.284384      1024000 
   59000   0.99587801   -3.9685638   -3.9685638   -2.6863875  0.031435304   -3.9685638    1.2821763      1024000 
   60000    0.9964444   -3.9683604   -3.9683604   -2.6854549  0.026191466   -3.9683604    1.2829055      1024000 
   61000   0.99559695   -3.9707216   -3.9707216   -2.6889072  0.020509585   -3.9707216    1.2818144      1024000 
   62000   0.99632943   -3.9704841   -3.9704841   -2.6877267  0.030049377   -3.9704841    1.2827575      1024000 
   63000   0.99615472   -3.9715346   -3.9715346    -2.689002  0.035249638   -3.9715346    1.2825325      1024000 
   64000   0.99549147   -3.9705923   -3.9705923   -2.6889137  0.032526842   -3.9705923    1.2816786      1024000 
   65000   0.99659941   -3.9717471   -3.9717471    -2.688642  0.032554687   -3.9717471    1.2831051      1024000 
   66000   0.99655788   -3.9726091   -3.9726091   -2.6895575  0.033973295   -3.9726091    1.2830516      1024000 
   67000   0.99736877   -3.9725832   -3.9725832   -2.6884876  0.036540388   -3.9725832    1.2840956      1024000 
   68000   0.99593255   -3.9713389   -3.9713389   -2.6890925  0.046223729   -3.9713389    1.2822465      1024000 
   69000   0.99582483   -3.9717752   -3.9717752   -2.6896674  0.037501731   -3.9717752    1.2821078      1024000 
   70000   0.99607331   -3.9715696   -3.9715696   -2.6891418  0.041221832   -3.9715696    1.2824277      1024000 
   71000    0.9955037   -3.9719723   -3.9719723    -2.690278  0.029791424   -3.9719723    1.2816944      1024000 
   72000   0.99565131   -3.9726306   -3.9726306   -2.6907462   0.03382374   -3.9726306    1.2818844      1024000 
   73000   0.99531493   -3.9731216   -3.9731216   -2.6916702  0.036085802   -3.9731216    1.2814513      1024000 
   74000   0.99517435   -3.9727227   -3.9727227   -2.6914523  0.023790418   -3.9727227    1.2812703      1024000 
   75000   0.99550366   -3.9724977   -3.9724977   -2.6908034  0.034294398   -3.9724977    1.2816943      1024000 
   76000   0.99351957   -3.9716349   -3.9716349    -2.692495  0.028563154   -3.9716349    1.2791398      1024000 
   77000   0.99542963   -3.9725192   -3.9725192   -2.6909203  0.031188534   -3.9725192     1.281599      1024000 
   78000   0.99532019   -3.9724126   -3.9724126   -2.6909545  0.022916373   -3.9724126    1.2814581      1024000 
   79000   0.99485387   -3.9720586   -3.9720586   -2.6912009  0.034952464   -3.9720586    1.2808577      1024000 
   80000   0.99357766   -3.9712545   -3.9712545   -2.6920398  0.034218354   -3.9712545    1.2792146      1024000 
   81000   0.99401853   -3.9720269   -3.9720269   -2.6922446  0.024946839   -3.9720269    1.2797822      1024000 
   82000   0.99488219   -3.9735358   -3.9735358   -2.6926416  0.022546591   -3.9735358    1.2808942      1024000 
   83000   0.99447626   -3.9729968   -3.9729968   -2.6926253   0.02843925   -3.9729968    1.2803715      1024000 
   84000   0.99496097   -3.9732387   -3.9732387    -2.692243  0.026866761   -3.9732387    1.2809956      1024000 
   85000   0.99451413   -3.9718156   -3.9718156   -2.6913953  0.031712101   -3.9718156    1.2804203      1024000 
   86000   0.99364248   -3.9715712   -3.9715712   -2.6922732  0.033402057   -3.9715712    1.2792981      1024000 
   87000   0.99324266   -3.9717195   -3.9717195   -2.6929362  0.028871502   -3.9717195    1.2787833      1024000 
   88000   0.99321429    -3.971448    -3.971448   -2.6927013   0.03059352    -3.971448    1.2787468      1024000 
   89000   0.99396114   -3.9736124   -3.9736124   -2.6939041  0.031490314   -3.9736124    1.2797083      1024000 
   90000    0.9938094   -3.9735581   -3.9735581   -2.6940451  0.032986346   -3.9735581     1.279513      1024000 
   91000   0.99358715   -3.9738852   -3.9738852   -2.6946584  0.031139038   -3.9738852    1.2792268      1024000 
   92000   0.99213022   -3.9735799   -3.9735799   -2.6962288  0.028067368   -3.9735799    1.2773511      1024000 
   93000   0.99173081   -3.9726735   -3.9726735   -2.6958367  0.029631154   -3.9726735    1.2768368      1024000 
   94000   0.99325974   -3.9753544   -3.9753544   -2.6965491  0.027580011   -3.9753544    1.2788053      1024000 
   95000   0.99326503   -3.9759694   -3.9759694   -2.6971573  0.033491949   -3.9759694    1.2788121      1024000 
   96000   0.99261143   -3.9760896   -3.9760896    -2.698119  0.028719411   -3.9760896    1.2779706      1024000 
   97000   0.99175454    -3.977348    -3.977348   -2.7004806  0.024246694    -3.977348    1.2768674      1024000 
   98000   0.99384961   -3.9773852   -3.9773852   -2.6978205   0.03409564   -3.9773852    1.2795647      1024000 
   99000    0.9945692   -3.9804345   -3.9804345   -2.6999433  0.026611269   -3.9804345    1.2804912      1024000 
  100000   0.99524432   -3.9795906   -3.9795906   -2.6982302  0.028417999   -3.9795906    1.2813604      1024000 
  101000   0.99418604   -3.9814462   -3.9814462   -2.7014483  0.032628978   -3.9814462    1.2799979      1024000 
  102000   0.99398441   -3.9805119   -3.9805119   -2.7007736  0.035011268   -3.9805119    1.2797383      1024000 
  103000   0.99563237   -3.9833323   -3.9833323   -2.7014723  0.027311262   -3.9833323      1.28186      1024000 
  104000   0.99358059    -3.981378    -3.981378   -2.7021596  0.038884644    -3.981378    1.2792184      1024000 
  105000   0.99431308   -3.9815944   -3.9815944    -2.701433  0.040306876   -3.9815944    1.2801615      1024000 
  106000   0.99439956   -3.9833094   -3.9833094   -2.7030366  0.046836908   -3.9833094    1.2802728      1024000 
  107000    0.9961956   -3.9842383   -3.9842383   -2.7016531  0.030944447   -3.9842383    1.2825852      1024000 
  108000   0.99436765   -3.9835042   -3.9835042   -2.7032725  0.045466423   -3.9835042    1.2802317      1024000 
  109000   0.99594229   -3.9862013   -3.9862013   -2.7039423  0.035162356   -3.9862013     1.282259      1024000 
  110000   0.99531786   -3.9856497   -3.9856497   -2.7041946  0.042322051   -3.9856497    1.2814551      1024000 
  111000   0.99410052   -3.9863522   -3.9863522   -2.7064644  0.046386282   -3.9863522    1.2798878      1024000 
  112000   0.99377435   -3.9855948   -3.9855948    -2.706127  0.044579564   -3.9855948    1.2794678      1024000 
  113000    0.9926065   -3.9839384   -3.9839384   -2.7059741  0.047465641   -3.9839384    1.2779643      1024000 
  114000   0.99211094   -3.9840174   -3.9840174   -2.7066911  0.049600578   -3.9840174    1.2773262      1024000 
  115000   0.99387474   -3.9873545   -3.9873545   -2.7077574  0.033180941   -3.9873545    1.2795971      1024000 
  116000   0.99304337   -3.9864404   -3.9864404   -2.7079137  0.047194722   -3.9864404    1.2785267      1024000 
  117000   0.99319112   -3.9879855   -3.9879855   -2.7092685  0.034626998   -3.9879855    1.2787169      1024000 
  118000     0.995067   -3.9868819   -3.9868819   -2.7057498  0.043149634   -3.9868819    1.2811321      1024000 
  119000   0.99335234   -3.9848952   -3.9848952   -2.7059707   0.04233007   -3.9848952    1.2789245      1024000 
  120000   0.99275356   -3.9868777   -3.9868777   -2.7087241  0.042934856   -3.9868777    1.2781536      1024000 
  121000   0.99424379   -3.9874978   -3.9874978   -2.7074255  0.043362037   -3.9874978    1.2800722      1024000 
  122000   0.99323667   -3.9867039   -3.9867039   -2.7079283  0.033988615   -3.9867039    1.2787756      1024000 
  123000   0.99215329   -3.9862072   -3.9862072   -2.7088265  0.042351485   -3.9862072    1.2773808      1024000 
  124000   0.99158816   -3.9857532   -3.9857532      -2.7091  0.038089723   -3.9857532    1.2766532      1024000 
  125000   0.99204489   -3.9861414   -3.9861414   -2.7089002  0.037901633   -3.9861414    1.2772412      1024000 
  126000   0.99208657   -3.9859297   -3.9859297   -2.7086349  0.045401992   -3.9859297    1.2772949      1024000 
  127000   0.99234848   -3.9877359   -3.9877359   -2.7101038  0.032397496   -3.9877359    1.2776321      1024000 
  128000   0.99277211   -3.9881731   -3.9881731   -2.7099957  0.034902182   -3.9881731    1.2781775      1024000 
  129000   0.99095356   -3.9867081   -3.9867081    -2.710872  0.039182176   -3.9867081    1.2758361      1024000 
  130000   0.99196695   -3.9861676   -3.9861676   -2.7090268  0.045330984   -3.9861676    1.2771409      1024000 
  131000   0.99110316   -3.9869791   -3.9869791   -2.7109504  0.038462972   -3.9869791    1.2760287      1024000 
  132000   0.99233368   -3.9891147   -3.9891147   -2.7115017    0.0396073   -3.9891147     1.277613      1024000 
  133000   0.99222935   -3.9883816   -3.9883816   -2.7109029  0.044528411   -3.9883816    1.2774787      1024000 
  134000   0.99277488   -3.9882329   -3.9882329   -2.7100519  0.043270203   -3.9882329     1.278181      1024000 
  135000   0.99288408   -3.9897703   -3.9897703   -2.7114486  0.041192055   -3.9897703    1.2783216      1024000 
  136000   0.99376658   -3.9920333   -3.9920333   -2.7125755   0.03993158   -3.9920333    1.2794578      1024000 
  137000   0.99196451   -3.9896186   -3.9896186   -2.7124808  0.043484424   -3.9896186    1.2771377      1024000 
  138000   0.99346175   -3.9906921   -3.9906921   -2.7116267  0.041422784   -3.9906921    1.2790654      1024000 
  139000   0.99277232   -3.9925348   -3.9925348    -2.714357  0.050281875   -3.9925348    1.2781777      1024000 
  140000   0.99287064   -3.9922289   -3.9922289   -2.7139246  0.047260674   -3.9922289    1.2783043      1024000 
  141000   0.99428051     -3.99389     -3.99389   -2.7137705  0.043255761     -3.99389    1.2801195      1024000 
  142000    0.9914716    -3.991441    -3.991441   -2.7149379    0.0484085    -3.991441    1.2765031      1024000 
  143000    0.9931171   -3.9938965   -3.9938965   -2.7152749  0.054467416   -3.9938965    1.2786217      1024000 
  144000   0.99323712   -3.9928913   -3.9928913   -2.7141151  0.042444523   -3.9928913    1.2787762      1024000 
  145000   0.99233325   -3.9924486   -3.9924486   -2.7148361  0.046360595   -3.9924486    1.2776124      1024000 
  146000   0.99281815   -3.9925481   -3.9925481   -2.7143114  0.063228292   -3.9925481    1.2782368      1024000 
  147000   0.99194012   -3.9938453   -3.9938453    -2.716739  0.040930449   -3.9938453    1.2771063      1024000 
  148000   0.99043469   -3.9923302   -3.9923302   -2.7171621  0.046773531   -3.9923302    1.2751681      1024000 
  149000   0.99223967   -3.9943497   -3.9943497   -2.7168578   0.04306935   -3.9943497     1.277492      1024000 
  150000   0.99165096   -3.9943106   -3.9943106   -2.7175765  0.056163072   -3.9943106     1.276734      1024000 
  151000   0.99234504   -3.9969687   -3.9969687    -2.719341  0.037452602   -3.9969687    1.2776276      1024000 
  152000   0.99240854   -3.9954757   -3.9954757   -2.7177663  0.043621718   -3.9954757    1.2777094      1024000 
  153000   0.99317937    -3.995724    -3.995724   -2.7170221  0.056516079    -3.995724    1.2787018      1024000 
  154000   0.99131439   -3.9946615   -3.9946615   -2.7183608  0.054143875   -3.9946615    1.2763007      1024000 
  155000   0.99212722   -3.9968213   -3.9968213   -2.7194741  0.047901961   -3.9968213    1.2773472      1024000 
  156000   0.99177111   -3.9962578   -3.9962578    -2.719369  0.050113551   -3.9962578    1.2768887      1024000 
  157000   0.99108001   -3.9957891   -3.9957891   -2.7197902  0.050055223   -3.9957891    1.2759989      1024000 
  158000   0.99060878   -3.9952402   -3.9952402    -2.719848  0.043842411   -3.9952402    1.2753922      1024000 
  159000   0.99254181   -3.9972662   -3.9972662   -2.7193852  0.051774934   -3.9972662     1.277881      1024000 
  160000   0.99222212   -3.9977423   -3.9977423   -2.7202729  0.044756169   -3.9977423    1.2774694      1024000 
  161000   0.99277131   -3.9967447   -3.9967447   -2.7185683  0.061868539   -3.9967447    1.2781764      1024000 
  162000   0.99274705    -3.999328    -3.999328   -2.7211828  0.051023721    -3.999328    1.2781452      1024000 
  163000   0.99301423   -3.9974106   -3.9974106   -2.7189214  0.056714226   -3.9974106    1.2784892      1024000 
  164000    0.9924892   -3.9990848   -3.9990848   -2.7212716  0.044574991   -3.9990848    1.2778132      1024000 
  165000   0.99260116   -3.9988887   -3.9988887   -2.7209313  0.047490444   -3.9988887    1.2779574      1024000 
  166000   0.99335929    -4.000694    -4.000694   -2.7217606  0.048986728    -4.000694    1.2789335      1024000 
  167000   0.99187925   -3.9986651   -3.9986651   -2.7216372  0.053535125   -3.9986651    1.2770279      1024000 
  168000    0.9917001   -3.9980006   -3.9980006   -2.7212033  0.049078705   -3.9980006    1.2767973      1024000 
  169000   0.99023859   -3.9975165   -3.9975165   -2.7226008  0.054943607   -3.9975165    1.2749156      1024000 
  170000   0.99137555   -3.9972004   -3.9972004   -2.7208209  0.046784778   -3.9972004    1.2763794      1024000 
  171000    0.9909135    -3.998006    -3.998006   -2.7222215  0.046554317    -3.998006    1.2757846      1024000 
  172000   0.99033704   -3.9991069   -3.9991069   -2.7240645  0.040005454   -3.9991069    1.2750424      1024000 
  173000   0.99131162   -3.9990401   -3.9990401    -2.722743  0.052764064   -3.9990401    1.2762971      1024000 
  174000   0.99200536   -4.0004709   -4.0004709   -2.7232806    0.0469678   -4.0004709    1.2771903      1024000 
  175000   0.99139175   -4.0004538   -4.0004538   -2.7240535  0.045418823   -4.0004538    1.2764003      1024000 
  176000   0.99007537   -3.9990763   -3.9990763   -2.7243708  0.052004134   -3.9990763    1.2747055      1024000 
  177000   0.99093855    -3.999919    -3.999919   -2.7241022  0.049333957    -3.999919    1.2758168      1024000 
  178000   0.99106908     -3.99902     -3.99902   -2.7230352  0.047943982     -3.99902    1.2759849      1024000 
  179000   0.99088911   -4.0004628   -4.0004628   -2.7247096  0.047255435   -4.0004628    1.2757532      1024000 
  180000   0.99179906   -4.0016283   -4.0016283   -2.7247036  0.053966582   -4.0016283    1.2769247      1024000 
  181000   0.99245882   -4.0023682   -4.0023682   -2.7245941  0.053253085   -4.0023682    1.2777741      1024000 
  182000   0.99376788   -4.0040241   -4.0040241   -2.7245646  0.049029972   -4.0040241    1.2794595      1024000 
  183000   0.99255328   -4.0018475   -4.0018475   -2.7239518  0.058646214   -4.0018475    1.2778957      1024000 
  184000   0.99082708   -4.0017843   -4.0017843    -2.726111  0.046725715   -4.0017843    1.2756733      1024000 
  185000   0.99158029   -4.0035051   -4.0035051   -2.7268621  0.048544525   -4.0035051     1.276643      1024000 
  186000   0.99286741   -4.0034726   -4.0034726   -2.7251724  0.059268812   -4.0034726    1.2783002      1024000 
  187000   0.99299536   -4.0027255   -4.0027255   -2.7242606  0.060562058   -4.0027255    1.2784649      1024000 
  188000   0.99286006   -4.0027177   -4.0027177    -2.724427   0.05750785   -4.0027177    1.2782907      1024000 
  189000   0.99286029   -4.0052962   -4.0052962   -2.7270052  0.048797151   -4.0052962     1.278291      1024000 
  190000   0.99269863   -4.0046929   -4.0046929   -2.7266101  0.043854755   -4.0046929    1.2780829      1024000 
  191000   0.99309353   -4.0050651   -4.0050651   -2.7264738  0.048702169   -4.0050651    1.2785913      1024000 
  192000   0.99251207   -4.0051996   -4.0051996   -2.7273569  0.049387408   -4.0051996    1.2778427      1024000 
  193000   0.99232223    -4.003179    -4.003179   -2.7255808  0.065832192    -4.003179    1.2775983      1024000 
  194000   0.98995574   -4.0014385   -4.0014385    -2.726887  0.056392904   -4.0014385    1.2745514      1024000 
  195000   0.99014886    -4.001265    -4.001265   -2.7264649  0.063820945    -4.001265    1.2748001      1024000 
  196000   0.99104804   -4.0031047   -4.0031047    -2.727147  0.055271527   -4.0031047    1.2759578      1024000 
  197000   0.99286988   -4.0034539   -4.0034539   -2.7251505  0.050542187   -4.0034539    1.2783034      1024000 
  198000   0.99144909   -4.0041657   -4.0041657   -2.7276915   0.04742489   -4.0041657    1.2764741      1024000 
  199000   0.99148915   -4.0045012   -4.0045012   -2.7279756  0.053484646   -4.0045012    1.2765257      1024000 
  200000   0.99122559   -4.0038313   -4.0038313   -2.7276449  0.058466085   -4.0038313    1.2761864      1024000 
  201000   0.99055074   -4.0023355   -4.0023355    -2.727018  0.058257428   -4.0023355    1.2753175      1024000 
  202000   0.99200328   -4.0037087   -4.0037087    -2.726521  0.054245694   -4.0037087    1.2771876      1024000 
  203000   0.99097146   -4.0023554   -4.0023554   -2.7264963  0.060346799   -4.0023554    1.2758592      1024000 
  204000   0.99214973   -4.0044825   -4.0044825   -2.7271063  0.056341919   -4.0044825    1.2773762      1024000 
  205000   0.99265895   -4.0044595   -4.0044595   -2.7264277  0.053492301   -4.0044595    1.2780318      1024000 
  206000   0.99207931   -4.0054725   -4.0054725    -2.728187  0.057188501   -4.0054725    1.2772855      1024000 
  207000   0.99038154   -4.0029513   -4.0029513   -2.7278516  0.068225907   -4.0029513    1.2750997      1024000 
  208000   0.99168755   -4.0047364   -4.0047364   -2.7279553  0.046754082   -4.0047364    1.2767811      1024000 
  209000   0.99086081   -4.0031625   -4.0031625   -2.7274458  0.056484053   -4.0031625    1.2757167      1024000 
  210000   0.99006474   -4.0036003   -4.0036003   -2.7289085  0.052857329   -4.0036003    1.2746918      1024000 
  211000   0.99085164   -4.0042246   -4.0042246   -2.7285197  0.057118272   -4.0042246    1.2757049      1024000 
  212000   0.99127212   -4.0045776   -4.0045776   -2.7283313  0.058962035   -4.0045776    1.2762463      1024000 
  213000   0.99140318   -4.0046946   -4.0046946   -2.7282796  0.058326096   -4.0046946     1.276415      1024000 
  214000   0.99277943   -4.0049365   -4.0049365   -2.7267496  0.063682974   -4.0049365    1.2781869      1024000 
  215000   0.99239135   -4.0055003   -4.0055003    -2.727813  0.064672974   -4.0055003    1.2776873      1024000 
  216000    0.9926569   -4.0068075   -4.0068075   -2.7287783  0.061092396   -4.0068075    1.2780291      1024000 
  217000   0.99387807   -4.0056886   -4.0056886   -2.7260872  0.065261492   -4.0056886    1.2796014      1024000 
  218000   0.99206398   -4.0036723   -4.0036723   -2.7264065  0.065501045   -4.0036723    1.2772658      1024000 
  219000   0.99377359   -4.0060114   -4.0060114   -2.7265446  0.056400332   -4.0060114    1.2794669      1024000 
  220000   0.99308744   -4.0048833   -4.0048833   -2.7262998  0.063737897   -4.0048833    1.2785835      1024000 
  221000   0.99272765   -4.0056117   -4.0056117   -2.7274915  0.060609811   -4.0056117    1.2781202      1024000 
  222000   0.99138863   -4.0055183   -4.0055183    -2.729122  0.053594956   -4.0055183    1.2763963      1024000 
  223000    0.9913692   -4.0051658   -4.0051658   -2.7287946  0.057057817   -4.0051658    1.2763713      1024000 
  224000   0.99131924   -4.0062066   -4.0062066   -2.7298996  0.045842023   -4.0062066    1.2763069      1024000 
  225000   0.99235304   -4.0061481   -4.0061481   -2.7285102   0.04931855   -4.0061481    1.2776379      1024000 
  226000   0.99190785   -4.0045001   -4.0045001   -2.7274354  0.059935085   -4.0045001    1.2770648      1024000 
  227000   0.99067745   -4.0067023   -4.0067023   -2.7312217   0.05628965   -4.0067023    1.2754806      1024000 
  228000   0.99194448   -4.0053155   -4.0053155   -2.7282035  0.058275172   -4.0053155    1.2771119      1024000 
  229000   0.99179765   -4.0057143   -4.0057143   -2.7287914  0.048026461   -4.0057143    1.2769229      1024000 
  230000   0.99124926   -4.0055446   -4.0055446   -2.7293277  0.064000103   -4.0055446    1.2762168      1024000 
  231000   0.99414404   -4.0088579   -4.0088579   -2.7289141  0.059521966   -4.0088579    1.2799438      1024000 
  232000   0.99183104   -4.0057352   -4.0057352   -2.7287694  0.053823179   -4.0057352    1.2769659      1024000 
  233000   0.99099473   -4.0061573   -4.0061573   -2.7302682  0.056403995   -4.0061573    1.2758891      1024000 
  234000   0.99008899   -4.0050872   -4.0050872   -2.7303642  0.054193631   -4.0050872     1.274723      1024000 
  235000   0.98983792   -4.0049402   -4.0049402   -2.7305404  0.058295145   -4.0049402    1.2743998      1024000 
  236000   0.99082893    -4.003654    -4.003654   -2.7279784  0.053425596    -4.003654    1.2756757      1024000 
  237000   0.99093329   -4.0064769   -4.0064769   -2.7306669  0.053089001   -4.0064769      1.27581      1024000 
  238000   0.99110635   -4.0058238   -4.0058238    -2.729791  0.058114781   -4.0058238    1.2760328      1024000 
  239000   0.99229971   -4.0070054   -4.0070054   -2.7294361  0.067728027   -4.0070054    1.2775693      1024000 
  240000   0.99166102   -4.0072957   -4.0072957   -2.7305488  0.070585158   -4.0072957     1.276747      1024000 
  241000   0.99280491   -4.0109421   -4.0109421   -2.7327224  0.057189292   -4.0109421    1.2782197      1024000 
  242000   0.99266596   -4.0085389   -4.0085389   -2.7304981  0.066508531   -4.0085389    1.2780408      1024000 
  243000   0.99105025   -4.0074539   -4.0074539   -2.7314932  0.059638583   -4.0074539    1.2759606      1024000 
  244000   0.99338735   -4.0110042   -4.0110042   -2.7320346  0.056203965   -4.0110042    1.2789696      1024000 
  245000   0.99297767   -4.0110982   -4.0110982   -2.7326561   0.06782273   -4.0110982    1.2784421      1024000 
  246000   0.99149877   -4.0098735   -4.0098735   -2.7333355  0.065895752   -4.0098735    1.2765381      1024000 
  247000   0.99210245   -4.0090346   -4.0090346   -2.7317193   0.06294669   -4.0090346    1.2773153      1024000 
  248000   0.99211659   -4.0112802   -4.0112802   -2.7339467  0.060235276   -4.0112802    1.2773335      1024000 
  249000   0.99190498   -4.0099048   -4.0099048   -2.7328437  0.060278172   -4.0099048    1.2770611      1024000 
  250000   0.99287487   -4.0107444   -4.0107444   -2.7324346  0.068011129   -4.0107444    1.2783098      1024000 
  251000   0.99164578    -4.010754    -4.010754   -2.7340266  0.060646921    -4.010754    1.2767273      1024000 
  252000   0.99355043    -4.012028    -4.012028   -2.7328485   0.06420401    -4.012028    1.2791796      1024000 
  253000   0.99161539   -4.0105116   -4.0105116   -2.7338234  0.064322201   -4.0105116    1.2766882      1024000 
  254000   0.99137864   -4.0096615   -4.0096615   -2.7332781  0.065901774   -4.0096615    1.2763834      1024000 
  255000   0.99290495   -4.0110147   -4.0110147   -2.7326662    0.0641811   -4.0110147    1.2783485      1024000 
  256000   0.99131764   -4.0108048   -4.0108048   -2.7344999   0.06777698   -4.0108048    1.2763049      1024000 
  257000   0.99301973   -4.0103757   -4.0103757   -2.7318794   0.06145106   -4.0103757    1.2784963      1024000 
  258000      0.99225   -4.0108818   -4.0108818   -2.7333765   0.05994401   -4.0108818    1.2775053      1024000 
  259000   0.99163995   -4.0100809   -4.0100809   -2.7333611  0.059097665   -4.0100809    1.2767198      1024000 
  260000    0.9921158    -4.011326    -4.011326   -2.7339936  0.061765081    -4.011326    1.2773325      1024000 
  261000   0.99073124   -4.0094099   -4.0094099     -2.73386  0.063233424   -4.0094099    1.2755499      1024000 
  262000   0.99068482   -4.0087525   -4.0087525   -2.7332624  0.061117712   -4.0087525    1.2754901      1024000 
  263000   0.99118615   -4.0080539   -4.0080539   -2.7319183  0.062872011   -4.0080539    1.2761356      1024000 
  264000   0.99183946    -4.009215    -4.009215   -2.7322383  0.063677919    -4.009215    1.2769767      1024000 
  265000   0.99170178   -4.0088727   -4.0088727   -2.7320732  0.062997809   -4.0088727    1.2767994      1024000 
  266000   0.99226098   -4.0097947   -4.0097947   -2.7322753  0.057741308   -4.0097947    1.2775194      1024000 
  267000   0.99299474   -4.0106643   -4.0106643   -2.7322002  0.054476692   -4.0106643    1.2784641      1024000 
  268000   0.98978011   -4.0079566   -4.0079566   -2.7336312  0.064690582   -4.0079566    1.2743253      1024000 
  269000   0.99201239   -4.0097134   -4.0097134    -2.732514  0.057788967   -4.0097134    1.2771994      1024000 
  270000   0.99188215   -4.0077954   -4.0077954   -2.7307637  0.062617078   -4.0077954    1.2770317      1024000 
  271000   0.99064378   -4.0088782   -4.0088782   -2.7334409  0.061853248   -4.0088782    1.2754373      1024000 
  272000    0.9916096   -4.0094874   -4.0094874   -2.7328066  0.053843896   -4.0094874    1.2766808      1024000 
  273000   0.99048631   -4.0086466   -4.0086466    -2.733412  0.061329347   -4.0086466    1.2752346      1024000 
  274000   0.99020292    -4.007863    -4.007863   -2.7329934  0.066439339    -4.007863    1.2748697      1024000 
  275000   0.99091143   -4.0064397   -4.0064397   -2.7306578  0.066848585   -4.0064397    1.2757819      1024000 
  276000   0.99104594   -4.0064005   -4.0064005   -2.7304454  0.071534688   -4.0064005    1.2759551      1024000 
  277000   0.99075952   -4.0087265   -4.0087265   -2.7331402  0.052790367   -4.0087265    1.2755863      1024000 
  278000   0.99109175   -4.0067887   -4.0067887   -2.7307746  0.062610237   -4.0067887     1.276014      1024000 
  279000   0.99066751   -4.0085947   -4.0085947   -2.7331269  0.059384427   -4.0085947    1.2754678      1024000 
  280000    0.9917872   -4.0078882   -4.0078882   -2.7309788  0.057187308   -4.0078882    1.2769094      1024000 
  281000   0.99065577   -4.0081265   -4.0081265   -2.7326738  0.066799105   -4.0081265    1.2754527      1024000 
  282000    0.9911294   -4.0086217   -4.0086217   -2.7325592  0.055759552   -4.0086217    1.2760625      1024000 
  283000    0.9908505   -4.0089933   -4.0089933   -2.7332898  0.063037903   -4.0089933    1.2757034      1024000 
  284000   0.98994385   -4.0075955   -4.0075955   -2.7330593  0.067674602   -4.0075955    1.2745361      1024000 
  285000   0.99027892    -4.008766    -4.008766   -2.7337984  0.067150116    -4.008766    1.2749675      1024000 
  286000   0.99153146   -4.0088418   -4.0088418   -2.7322617  0.063302045   -4.0088418    1.2765802      1024000 
  287000   0.99010454   -4.0088826   -4.0088826   -2.7341396  0.054434508   -4.0088826     1.274743      1024000 
  288000   0.99053932   -4.0083689   -4.0083689   -2.7330661  0.066248238   -4.0083689    1.2753028      1024000 
  289000    0.9902877   -4.0075522   -4.0075522   -2.7325733  0.069740923   -4.0075522    1.2749788      1024000 
  290000   0.99155827   -4.0108285   -4.0108285   -2.7342138  0.056448646   -4.0108285    1.2766147      1024000 
  291000   0.98998705   -4.0083467   -4.0083467   -2.7337549  0.066311676   -4.0083467    1.2745918      1024000 
  292000   0.99019676   -4.0078942   -4.0078942   -2.7330325  0.072148055   -4.0078942    1.2748618      1024000 
  293000   0.99215931   -4.0106442   -4.0106442   -2.7332557  0.058363569   -4.0106442    1.2773885      1024000 
  294000   0.99227185   -4.0105805   -4.0105805   -2.7330471  0.061275796   -4.0105805    1.2775334      1024000 
  295000   0.99341237   -4.0104569   -4.0104569   -2.7314551  0.065797727   -4.0104569    1.2790018      1024000 
  296000   0.99246797   -4.0110107   -4.0110107   -2.7332248  0.054919984   -4.0110107    1.2777859      1024000 
  297000   0.99157139   -4.0076096   -4.0076096    -2.730978  0.073980957   -4.0076096    1.2766316      1024000 
  298000   0.99333448   -4.0110636   -4.0110636    -2.732162  0.060510349   -4.0110636    1.2789015      1024000 
  299000   0.99182345   -4.0109363   -4.0109363   -2.7339802  0.060305934   -4.0109363    1.2769561      1024000 
  300000   0.99228614   -4.0098659   -4.0098659   -2.7323141  0.070123565   -4.0098659    1.2775518      1024000 
  301000   0.99117662   -4.0079176   -4.0079176   -2.7317943  0.081237471   -4.0079176    1.2761233      1024000 
  302000   0.99356697   -4.0094095   -4.0094095   -2.7302086  0.077233093   -4.0094095    1.2792009      1024000 
  303000   0.99114771   -4.0081694   -4.0081694   -2.7320834  0.072397198   -4.0081694    1.2760861      1024000 
  304000   0.99210624    -4.010247    -4.010247   -2.7329268  0.069175637    -4.010247    1.2773202      1024000 
  305000    0.9918022   -4.0107048   -4.0107048    -2.733776  0.067942358   -4.0107048    1.2769287      1024000 
  306000   0.98993156   -4.0077035   -4.0077035   -2.7331831  0.068801581   -4.0077035    1.2745203      1024000 
  307000   0.98993705   -4.0101377   -4.0101377   -2.7356103  0.061879458   -4.0101377    1.2745274      1024000 
  308000    0.9914309   -4.0100783   -4.0100783   -2.7336276  0.075075131   -4.0100783    1.2764507      1024000 
  309000     0.990743   -4.0094259   -4.0094259   -2.7338609  0.069248965   -4.0094259     1.275565      1024000 
  310000   0.99237664   -4.0113435   -4.0113435   -2.7336751  0.059745057   -4.0113435    1.2776683      1024000 
  311000   0.99052929   -4.0092628   -4.0092628   -2.7339729  0.069657036   -4.0092628    1.2752899      1024000 
  312000   0.99197241   -4.0113723   -4.0113723   -2.7342244  0.059763343   -4.0113723    1.2771479      1024000 
  313000    0.9908694   -4.0094113   -4.0094113   -2.7336835   0.06539079   -4.0094113    1.2757278      1024000 
  314000   0.99095991   -4.0086057   -4.0086057   -2.7327614  0.069437289   -4.0086057    1.2758443      1024000 
  315000   0.99173308   -4.0099541   -4.0099541   -2.7331143  0.081684517   -4.0099541    1.2768398      1024000 
  316000   0.99101189   -4.0100632   -4.0100632    -2.734152  0.070558201   -4.0100632    1.2759112      1024000 
  317000   0.99107183   -4.0099733   -4.0099733   -2.7339849  0.063684819   -4.0099733    1.2759884      1024000 
  318000   0.98988096   -4.0091887   -4.0091887   -2.7347335  0.066105644   -4.0091887    1.2744552      1024000 
  319000   0.99121347   -4.0105825   -4.0105825   -2.7344118  0.063520984   -4.0105825    1.2761708      1024000 
  320000   0.99001372   -4.0092744   -4.0092744   -2.7346483  0.061295618   -4.0092744    1.2746261      1024000 
  321000   0.99031936   -4.0088884   -4.0088884   -2.7338688    0.0629024   -4.0088884    1.2750196      1024000 
  322000   0.98977082   -4.0100303   -4.0100303   -2.7357169  0.064481207   -4.0100303    1.2743134      1024000 
  323000   0.99064047   -4.0096235   -4.0096235   -2.7341905  0.061955886   -4.0096235     1.275433      1024000 
  324000   0.99178098   -4.0096934   -4.0096934    -2.732792  0.070235574   -4.0096934    1.2769014      1024000 
  325000   0.99270281   -4.0115169   -4.0115169   -2.7334287  0.064740794   -4.0115169    1.2780883      1024000 
  326000   0.99210884   -4.0103337   -4.0103337   -2.7330102  0.065297147   -4.0103337    1.2773235      1024000 
  327000    0.9910018    -4.010973    -4.010973   -2.7350748  0.062168355    -4.010973    1.2758982      1024000 
  328000   0.99165951   -4.0110284   -4.0110284   -2.7342834  0.063592698   -4.0110284     1.276745      1024000 
  329000   0.99150448   -4.0113023   -4.0113023   -2.7347569  0.067017009   -4.0113023    1.2765454      1024000 
  330000   0.99112273   -4.0102057   -4.0102057   -2.7341517  0.064890716   -4.0102057    1.2760539      1024000 
  331000   0.98933396   -4.0088589   -4.0088589    -2.735108  0.067154037   -4.0088589    1.2737509      1024000 
  332000   0.99014314     -4.00973     -4.00973   -2.7349373  0.067162096     -4.00973    1.2747927      1024000 
  333000   0.98967932   -4.0081854   -4.0081854   -2.7339899  0.058776789   -4.0081854    1.2741956      1024000 
  334000   0.99121408   -4.0118353   -4.0118353   -2.7356638  0.065276869   -4.0118353    1.2761715      1024000 
  335000   0.99096691   -4.0122187   -4.0122187   -2.7363654  0.062575064   -4.0122187    1.2758533      1024000 
  336000   0.99180522   -4.0113329   -4.0113329   -2.7344002  0.069312634   -4.0113329    1.2769326      1024000 
  337000    0.9926726   -4.0120647   -4.0120647   -2.7340154  0.066175154   -4.0120647    1.2780494      1024000 
  338000   0.99084362   -4.0108234   -4.0108234   -2.7351288  0.067385039   -4.0108234    1.2756946      1024000 
  339000   0.99097971   -4.0107581   -4.0107581   -2.7348883   0.06284152   -4.0107581    1.2758698      1024000 
  340000   0.98965577   -4.0106033   -4.0106033    -2.736438  0.059981044   -4.0106033    1.2741652      1024000 
  341000   0.99055238   -4.0100568   -4.0100568   -2.7347372  0.070310842   -4.0100568    1.2753196      1024000 
  342000   0.99090275   -4.0101611   -4.0101611   -2.7343904   0.06509616   -4.0101611    1.2757707      1024000 
  343000   0.99084946   -4.0107799   -4.0107799   -2.7350778  0.066858439   -4.0107799    1.2757021      1024000 
  344000   0.99000457   -4.0095701   -4.0095701   -2.7349557  0.067239196   -4.0095701    1.2746143      1024000 
  345000   0.99038759   -4.0089507   -4.0089507   -2.7338433  0.063136228   -4.0089507    1.2751075      1024000 
  346000   0.98910731   -4.0097259   -4.0097259   -2.7362668  0.064538066   -4.0097259    1.2734591      1024000 
  347000   0.99156356   -4.0115159   -4.0115159   -2.7348944  0.052489101   -4.0115159    1.2766215      1024000 
  348000   0.99143404    -4.008807    -4.008807   -2.7323523  0.069139255    -4.008807    1.2764547      1024000 
  349000   0.99064835   -4.0100587   -4.0100587   -2.7346155  0.065144452   -4.0100587    1.2754432      1024000 
  350000   0.99198718   -4.0109466   -4.0109466   -2.7337797  0.071727572   -4.0109466    1.2771669      1024000 
  351000   0.99050863   -4.0085133   -4.0085133     -2.73325  0.069264528   -4.0085133    1.2752633      1024000 
  352000   0.98946176   -4.0080759   -4.0080759   -2.7341605  0.069551764   -4.0080759    1.2739155      1024000 
  353000   0.99162014   -4.0115296   -4.0115296   -2.7348353  0.063353025   -4.0115296    1.2766943      1024000 
  354000   0.99160703   -4.0095418   -4.0095418   -2.7328644  0.057025436   -4.0095418    1.2766775      1024000 
  355000   0.99000981   -4.0105572   -4.0105572   -2.7359361  0.062533798   -4.0105572    1.2746211      1024000 
  356000   0.99255084   -4.0123234   -4.0123234   -2.7344308  0.063087306   -4.0123234    1.2778926      1024000 
  357000   0.99035769    -4.010309    -4.010309     -2.73524   0.06527318    -4.010309     1.275069      1024000 
  358000   0.99058679   -4.0111935   -4.0111935   -2.7358296  0.052567187   -4.0111935    1.2753639      1024000 
  359000   0.99006849   -4.0100256   -4.0100256    -2.735329  0.065590683   -4.0100256    1.2746966      1024000 
  360000   0.99072924   -4.0104886   -4.0104886   -2.7349413  0.066855553   -4.0104886    1.2755473      1024000 
  361000   0.99053645   -4.0091692   -4.0091692   -2.7338701  0.075151297   -4.0091692    1.2752991      1024000 
  362000   0.99086372   -4.0103726   -4.0103726   -2.7346522  0.075378674   -4.0103726    1.2757205      1024000 
  363000   0.99164819   -4.0110337   -4.0110337   -2.7343032  0.061070865   -4.0110337    1.2767305      1024000 
  364000   0.99226665   -4.0114855   -4.0114855   -2.7339588  0.065136759   -4.0114855    1.2775267      1024000 
  365000   0.99297663   -4.0119514   -4.0119514   -2.7335105  0.073140211   -4.0119514    1.2784408      1024000 
  366000   0.99298577   -4.0119542   -4.0119542   -2.7335016  0.061817509   -4.0119542    1.2784526      1024000 
  367000   0.99278069   -4.0120596   -4.0120596   -2.7338711  0.073608047   -4.0120596    1.2781885      1024000 
  368000   0.99253167   -4.0104725   -4.0104725   -2.7326046  0.065373558   -4.0104725    1.2778679      1024000 
  369000   0.99160079   -4.0114112   -4.0114112   -2.7347418  0.060930699   -4.0114112    1.2766694      1024000 
  370000   0.99065422   -4.0095777   -4.0095777    -2.734127  0.071400959   -4.0095777    1.2754507      1024000 
  371000   0.99193809   -4.0108482   -4.0108482   -2.7337445  0.072812732   -4.0108482    1.2771037      1024000 
  372000   0.99160388    -4.011387    -4.011387   -2.7347136  0.064476903    -4.011387    1.2766734      1024000 
  373000   0.98915488   -4.0092568   -4.0092568   -2.7357365  0.066283395   -4.0092568    1.2735204      1024000 
  374000   0.99005497   -4.0086061   -4.0086061   -2.7339269  0.063843644   -4.0086061    1.2746792      1024000 
  375000   0.99001603   -4.0106529   -4.0106529   -2.7360239  0.063675807   -4.0106529    1.2746291      1024000 
  376000   0.99008558   -4.0105719   -4.0105719   -2.7358532  0.059044986   -4.0105719    1.2747186      1024000 
  377000   0.99086578   -4.0103804   -4.0103804   -2.7346573   0.05916326   -4.0103804    1.2757231      1024000 
  378000   0.98979512   -4.0090539   -4.0090539   -2.7347092  0.062441942   -4.0090539    1.2743447      1024000 
  379000   0.99154271   -4.0093072   -4.0093072   -2.7327126  0.064802024   -4.0093072    1.2765946      1024000 
  380000   0.99228596   -4.0098431   -4.0098431   -2.7322915  0.067569484   -4.0098431    1.2775516      1024000 
  381000   0.99271024   -4.0110173   -4.0110173   -2.7329194  0.059601349   -4.0110173    1.2780978      1024000 
  382000   0.98864863   -4.0075165   -4.0075165    -2.734648  0.059461786   -4.0075165    1.2728686      1024000 
  383000   0.98892135   -4.0082172   -4.0082172   -2.7349975  0.059423821   -4.0082172    1.2732197      1024000 
  384000   0.98929407    -4.007576    -4.007576   -2.7338765  0.066137863    -4.007576    1.2736996      1024000 
  385000   0.99006027   -4.0078763   -4.0078763   -2.7331903   0.06595117   -4.0078763     1.274686      1024000 
  386000   0.98945775   -4.0090149   -4.0090149   -2.7351046  0.064388876   -4.0090149    1.2739103      1024000 
  387000   0.99051039   -4.0100656   -4.0100656      -2.7348  0.066299952   -4.0100656    1.2752656      1024000 
  388000   0.98932983   -4.0090693   -4.0090693   -2.7353237  0.079596735   -4.0090693    1.2737456      1024000 
  389000   0.98964627   -4.0093474   -4.0093474   -2.7351944  0.060333179   -4.0093474     1.274153      1024000 
  390000    0.9909307   -4.0099052   -4.0099052   -2.7340985  0.070143561   -4.0099052    1.2758067      1024000 
  391000   0.99218226   -4.0105495   -4.0105495   -2.7331315   0.07387149   -4.0105495    1.2774181      1024000 
  392000   0.99224653   -4.0112111   -4.0112111   -2.7337103  0.061813454   -4.0112111    1.2775008      1024000 
  393000   0.99244341    -4.012486    -4.012486   -2.7347317  0.063988487    -4.012486    1.2777543      1024000 
  394000   0.99256752   -4.0127764   -4.0127764   -2.7348623  0.078768948   -4.0127764    1.2779141      1024000 
  395000   0.99086035   -4.0111822   -4.0111822   -2.7354661   0.07135342   -4.0111822    1.2757161      1024000 
  396000   0.99043126   -4.0109486   -4.0109486   -2.7357849  0.061756086   -4.0109486    1.2751637      1024000 
  397000   0.99095131    -4.011245    -4.011245   -2.7354117  0.068230294    -4.011245    1.2758332      1024000 
  398000   0.99132115   -4.0113548   -4.0113548   -2.7350454  0.062200628   -4.0113548    1.2763094      1024000 
  399000   0.99045922   -4.0109235   -4.0109235   -2.7357238   0.06493995   -4.0109235    1.2751997      1024000 
  400000   0.99015875   -4.0104994   -4.0104994   -2.7356865  0.074686291   -4.0104994    1.2748128      1024000 
  401000   0.98800253   -4.0098774   -4.0098774   -2.7378407  0.066065052   -4.0098774    1.2720367      1024000 
  402000   0.98975645   -4.0114786   -4.0114786   -2.7371837   0.06423124   -4.0114786    1.2742949      1024000 
  403000   0.99145741   -4.0130472   -4.0130472   -2.7365624   0.06138282   -4.0130472    1.2764848      1024000 
  404000   0.99018769   -4.0115412   -4.0115412   -2.7366911  0.072675941   -4.0115412    1.2748501      1024000 
  405000   0.98902676   -4.0105022   -4.0105022   -2.7371468  0.070803022   -4.0105022    1.2733554      1024000 
  406000   0.99215977   -4.0122109   -4.0122109   -2.7348218  0.068258998   -4.0122109    1.2773891      1024000 
  407000   0.99302943   -4.0119568   -4.0119568   -2.7334481  0.061964039   -4.0119568    1.2785088      1024000 
  408000   0.99120365   -4.0091009   -4.0091009   -2.7329428  0.080012075   -4.0091009    1.2761581      1024000 
  409000   0.99097762   -4.0105749   -4.0105749   -2.7347078  0.069433505   -4.0105749    1.2758671      1024000 
  410000   0.99237049   -4.0118582   -4.0118582   -2.7341978  0.070951954   -4.0118582    1.2776604      1024000 
  411000   0.98931948   -4.0099289   -4.0099289   -2.7361966  0.066333965   -4.0099289    1.2737323      1024000 
  412000   0.99033228   -4.0115296   -4.0115296   -2.7364933  0.060210978   -4.0115296    1.2750362      1024000 
  413000   0.99189085   -4.0122965   -4.0122965   -2.7352536  0.074512445   -4.0122965    1.2770429      1024000 
  414000   0.99308185   -4.0120213   -4.0120213    -2.733445  0.061826291   -4.0120213    1.2785763      1024000 
  415000   0.99144437   -4.0106522   -4.0106522   -2.7341842  0.065041604   -4.0106522     1.276468      1024000 
  416000   0.98829715   -4.0068077   -4.0068077   -2.7343917  0.068873348   -4.0068077     1.272416      1024000 
  417000   0.99077919   -4.0087065   -4.0087065   -2.7330948  0.065525371   -4.0087065    1.2756116      1024000 
  418000   0.98938305   -4.0072302   -4.0072302    -2.733416  0.071556072   -4.0072302    1.2738141      1024000 
  419000   0.98966285   -4.0091325   -4.0091325   -2.7349582  0.057052693   -4.0091325    1.2741744      1024000 
  420000   0.99119894   -4.0097743   -4.0097743   -2.7336223  0.064670881   -4.0097743     1.276152      1024000 
  421000   0.99038836   -4.0091938   -4.0091938   -2.7340854  0.060404979   -4.0091938    1.2751084      1024000 
  422000   0.99029773   -4.0081575   -4.0081575   -2.7331657  0.061505533   -4.0081575    1.2749918      1024000 
  423000   0.98970464   -4.0076077   -4.0076077   -2.7333795  0.059112165   -4.0076077    1.2742282      1024000 
  424000   0.98993118   -4.0079344   -4.0079344   -2.7334146  0.072632801   -4.0079344    1.2745198      1024000 
  425000   0.99033924   -4.0066271   -4.0066271   -2.7315819  0.070415247   -4.0066271    1.2750452      1024000 
  426000   0.98866536   -4.0062627   -4.0062627   -2.7333726  0.064383614   -4.0062627    1.2728901      1024000 
  427000   0.98880231   -4.0069472   -4.0069472   -2.7338808  0.067430365   -4.0069472    1.2730664      1024000 
  428000   0.98767926    -4.005223    -4.005223   -2.7336025  0.064537064    -4.005223    1.2716205      1024000 
  429000   0.98886631   -4.0076646   -4.0076646   -2.7345158   0.05603392   -4.0076646    1.2731488      1024000 
  430000   0.99030003    -4.008614    -4.008614   -2.7336193  0.062860417    -4.008614    1.2749947      1024000 
  431000   0.99019745   -4.0083167   -4.0083167    -2.733454  0.066290323   -4.0083167    1.2748627      1024000 
  432000   0.98837773   -4.0080102   -4.0080102   -2.7354904  0.066063846   -4.0080102    1.2725198      1024000 
  433000   0.98810127   -4.0063402   -4.0063402   -2.7341763  0.064659011   -4.0063402    1.2721638      1024000 
  434000    0.9900492   -4.0092928   -4.0092928   -2.7346211  0.057898896   -4.0092928    1.2746718      1024000 
  435000   0.99197269    -4.008602    -4.008602   -2.7314537  0.068658974    -4.008602    1.2771482      1024000 
  436000   0.99079038   -4.0097915   -4.0097915   -2.7341654  0.073666447   -4.0097915     1.275626      1024000 
  437000   0.99158782   -4.0098614   -4.0098614   -2.7332086  0.060137867   -4.0098614    1.2766527      1024000 
  438000   0.99004916   -4.0086101   -4.0086101   -2.7339384  0.077898926   -4.0086101    1.2746717      1024000 
  439000   0.99005176   -4.0102359   -4.0102359   -2.7355608  0.070346407   -4.0102359    1.2746751      1024000 
  440000   0.99188886   -4.0108934   -4.0108934   -2.7338531  0.066447746   -4.0108934    1.2770403      1024000 
  441000    0.9903538   -4.0097505   -4.0097505   -2.7346865  0.072098081   -4.0097505    1.2750639      1024000 
  442000   0.99142426   -4.0114831   -4.0114831    -2.735041  0.071392017   -4.0114831    1.2764421      1024000 
  443000    0.9896266   -4.0103294   -4.0103294   -2.7362017  0.068654754   -4.0103294    1.2741277      1024000 
  444000   0.99182393   -4.0115787   -4.0115787   -2.7346219   0.06901487   -4.0115787    1.2769567      1024000 
  445000   0.99152416   -4.0110299   -4.0110299   -2.7344592  0.073742817   -4.0110299    1.2765708      1024000 
  446000   0.99002102   -4.0103149   -4.0103149   -2.7356794  0.072056069   -4.0103149    1.2746355      1024000 
  447000   0.99156845   -4.0103039   -4.0103039   -2.7336762   0.07506051   -4.0103039    1.2766278      1024000 
  448000   0.99261368   -4.0132462   -4.0132462   -2.7352727  0.065964312   -4.0132462    1.2779735      1024000 
  449000   0.99145394   -4.0116447   -4.0116447   -2.7351643  0.063593767   -4.0116447    1.2764804      1024000 
  450000   0.99191088   -4.0119354   -4.0119354   -2.7348668  0.074820518   -4.0119354    1.2770687      1024000 
  451000   0.99256142   -4.0128353   -4.0128353   -2.7349291  0.070535526   -4.0128353    1.2779062      1024000 
  452000   0.99113621   -4.0124126   -4.0124126   -2.7363413  0.065749185   -4.0124126    1.2760713      1024000 
  453000   0.99247954   -4.0137745   -4.0137745   -2.7359737  0.058234714   -4.0137745    1.2778008      1024000 
  454000   0.98978774   -4.0095042   -4.0095042    -2.735169  0.068217261   -4.0095042    1.2743351      1024000 
  455000   0.98990499   -4.0104046   -4.0104046   -2.7359185  0.070061023   -4.0104046    1.2744861      1024000 
  456000    0.9897984   -4.0098827   -4.0098827   -2.7355338   0.06847591   -4.0098827    1.2743489      1024000 
  457000   0.99055885   -4.0107883   -4.0107883   -2.7354604  0.065454718   -4.0107883    1.2753279      1024000 
  458000   0.98929775   -4.0107365   -4.0107365   -2.7370322   0.05855156   -4.0107365    1.2737043      1024000 
  459000   0.98964216   -4.0116278   -4.0116278   -2.7374801  0.065181589   -4.0116278    1.2741477      1024000 
  460000   0.99057882   -4.0095803   -4.0095803   -2.7342267  0.068784437   -4.0095803    1.2753537      1024000 
  461000   0.98969102   -4.0090188   -4.0090188   -2.7348081  0.064000059   -4.0090188    1.2742106      1024000 
  462000   0.99063089   -4.0111743   -4.0111743   -2.7357536  0.064459175   -4.0111743    1.2754207      1024000 
  463000   0.99106195   -4.0093045   -4.0093045   -2.7333288  0.063521691   -4.0093045    1.2759757      1024000 
  464000   0.99076028   -4.0110153   -4.0110153    -2.735428  0.056723723   -4.0110153    1.2755873      1024000 
  465000   0.98980663   -4.0078841   -4.0078841   -2.7335247  0.071223769   -4.0078841    1.2743595      1024000 
  466000   0.99193008   -4.0113426   -4.0113426   -2.7342492  0.061593025   -4.0113426    1.2770934      1024000 
  467000   0.99077281   -4.0080234   -4.0080234   -2.7324199  0.067261124   -4.0080234    1.2756034      1024000 
  468000   0.99138831   -4.0092157   -4.0092157   -2.7328199   0.05769805   -4.0092157    1.2763959      1024000 
  469000   0.99082749   -4.0099138   -4.0099138     -2.73424  0.058776399   -4.0099138    1.2756738      1024000 
  470000   0.99010501   -4.0098158   -4.0098158   -2.7350722  0.066104584   -4.0098158    1.2747436      1024000 
  471000    0.9914579   -4.0102174   -4.0102174   -2.7337319  0.060178439   -4.0102174    1.2764855      1024000 
  472000   0.98928173   -4.0075661   -4.0075661   -2.7338824  0.063504668   -4.0075661    1.2736837      1024000 
  473000   0.99027235    -4.008762    -4.008762   -2.7338029  0.068456889    -4.008762    1.2749591      1024000 
  474000   0.98925685   -4.0082298   -4.0082298   -2.7345781  0.063658779   -4.0082298    1.2736516      1024000 
  475000   0.99059492   -4.0082604   -4.0082604    -2.732886  0.061276545   -4.0082604    1.2753744      1024000 
  476000   0.98927801   -4.0073978   -4.0073978   -2.7337189   0.07839321   -4.0073978    1.2736789      1024000 
  477000   0.99063792   -4.0097502   -4.0097502   -2.7343205  0.063586998   -4.0097502    1.2754297      1024000 
  478000   0.98977994   -4.0090395   -4.0090395   -2.7347144  0.074097308   -4.0090395    1.2743251      1024000 
  479000   0.99104146   -4.0107802   -4.0107802   -2.7348309  0.064430837   -4.0107802    1.2759493      1024000 
  480000   0.99071532   -4.0084053   -4.0084053   -2.7328759  0.067200541   -4.0084053    1.2755294      1024000 
  481000   0.99066245   -4.0102657   -4.0102657   -2.7348044  0.070215799   -4.0102657    1.2754613      1024000 
  482000   0.98987969    -4.008443    -4.008443   -2.7339894  0.075425356    -4.008443    1.2744535      1024000 
  483000    0.9919668   -4.0096431   -4.0096431   -2.7325025  0.064090783   -4.0096431    1.2771407      1024000 
  484000   0.98978172   -4.0084849   -4.0084849   -2.7341575  0.072655716   -4.0084849    1.2743274      1024000 
  485000   0.99079408   -4.0100155   -4.0100155   -2.7343847  0.066309606   -4.0100155    1.2756308      1024000 
  486000   0.99124196   -4.0104323   -4.0104323   -2.7342249  0.071337642   -4.0104323    1.2762074      1024000 
  487000   0.99219692   -4.0119515   -4.0119515   -2.7345146  0.062334099   -4.0119515    1.2774369      1024000 
  488000    0.9929228   -4.0114887   -4.0114887   -2.7331172  0.073129041   -4.0114887    1.2783715      1024000 
  489000   0.99166846    -4.009868    -4.009868   -2.7331115  0.076169762    -4.009868    1.2767566      1024000 
  490000   0.99217515   -4.0116392   -4.0116392   -2.7342303  0.064478846   -4.0116392    1.2774089      1024000 
  491000   0.99335595   -4.0129394   -4.0129394   -2.7340103  0.068058027   -4.0129394    1.2789292      1024000 
  492000   0.99040941   -4.0102811   -4.0102811   -2.7351456  0.066476306   -4.0102811    1.2751355      1024000 
  493000   0.99076759   -4.0113987   -4.0113987    -2.735802  0.066432839   -4.0113987    1.2755967      1024000 
  494000   0.99170368   -4.0121868   -4.0121868   -2.7353849  0.060181153   -4.0121868    1.2768019      1024000 
  495000   0.99034992   -4.0094156   -4.0094156   -2.7343567  0.069173201   -4.0094156    1.2750589      1024000 
  496000   0.99076385   -4.0096215   -4.0096215   -2.7340296   0.06244452   -4.0096215    1.2755919      1024000 
  497000   0.98910443   -4.0086249   -4.0086249   -2.7351695  0.067107773   -4.0086249    1.2734554      1024000 
  498000   0.99239209   -4.0125104   -4.0125104   -2.7348222  0.064430579   -4.0125104    1.2776882      1024000 
  499000    0.9912529   -4.0087565   -4.0087565    -2.732535  0.074550154   -4.0087565    1.2762215      1024000 
  500000   0.99026702   -4.0083758   -4.0083758   -2.7334235  0.072299338   -4.0083758    1.2749522      1024000 
  501000   0.99275713   -4.0094606   -4.0094606   -2.7313024   0.07601662   -4.0094606    1.2781582      1024000 
  502000   0.99146585   -4.0113537   -4.0113537    -2.734858  0.061921745   -4.0113537    1.2764957      1024000 
  503000   0.99137952   -4.0103369   -4.0103369   -2.7339524  0.070652699   -4.0103369    1.2763845      1024000 
  504000   0.99225457   -4.0103908   -4.0103908   -2.7328796    0.0692563   -4.0103908    1.2775112      1024000 
  505000   0.98905168   -4.0079358   -4.0079358   -2.7345484  0.068560946   -4.0079358    1.2733875      1024000 
  506000   0.99070929   -4.0086806   -4.0086806    -2.733159  0.057742676   -4.0086806    1.2755216      1024000 
  507000   0.98975122   -4.0083057   -4.0083057   -2.7340176  0.057563764   -4.0083057    1.2742881      1024000 
  508000   0.99088238    -4.009182    -4.009182   -2.7334375  0.063189139    -4.009182    1.2757445      1024000 
  509000   0.99255464   -4.0115425   -4.0115425    -2.733645  0.065146259   -4.0115425    1.2778975      1024000 
  510000   0.99022441   -4.0101281   -4.0101281   -2.7352307  0.060925425   -4.0101281    1.2748974      1024000 
  511000   0.98907746   -4.0076568   -4.0076568   -2.7342361  0.068689403   -4.0076568    1.2734207      1024000 
  512000   0.99112999   -4.0094626   -4.0094626   -2.7333993   0.07223822   -4.0094626    1.2760633      1024000 
  513000   0.99174264   -4.0099567   -4.0099567   -2.7331047  0.075732861   -4.0099567     1.276852      1024000 
  514000    0.9915652   -4.0095263   -4.0095263   -2.7329027  0.065989253   -4.0095263    1.2766236      1024000 
  515000   0.99075933   -4.0092165   -4.0092165   -2.7336305  0.072946406   -4.0092165    1.2755861      1024000 
  516000   0.99194663   -4.0106305   -4.0106305   -2.7335158  0.073096213   -4.0106305    1.2771147      1024000 
  517000   0.99018773   -4.0094005   -4.0094005   -2.7345504  0.066745603   -4.0094005    1.2748501      1024000 
  518000   0.98945084    -4.009388    -4.009388   -2.7354866  0.072485799    -4.009388    1.2739014      1024000 
  519000    0.9917726    -4.010088    -4.010088   -2.7331974  0.071778568    -4.010088    1.2768906      1024000 
  520000   0.98975583   -4.0078804   -4.0078804   -2.7335864  0.071865377   -4.0078804    1.2742941      1024000 
  521000   0.99078857   -4.0091958   -4.0091958   -2.7335721  0.071582143   -4.0091958    1.2756237      1024000 
  522000   0.99173469   -4.0102981   -4.0102981   -2.7334563  0.064422566   -4.0102981    1.2768418      1024000 
  523000   0.99227848   -4.0100444   -4.0100444   -2.7325025  0.073742529   -4.0100444    1.2775419      1024000 
  524000   0.99007048    -4.008249    -4.008249   -2.7335498  0.078536702    -4.008249    1.2746992      1024000 
  525000   0.99111968   -4.0080155   -4.0080155   -2.7319655  0.073107352   -4.0080155      1.27605      1024000 
  526000   0.99277235   -4.0101652   -4.0101652   -2.7319875  0.066509328   -4.0101652    1.2781778      1024000 
  527000   0.99147991   -4.0079317   -4.0079317   -2.7314179  0.073370713   -4.0079317    1.2765138      1024000 
  528000   0.99092691   -4.0083297   -4.0083297   -2.7325279  0.075539719   -4.0083297    1.2758018      1024000 
  529000   0.99300954   -4.0099174   -4.0099174   -2.7314342  0.060705107   -4.0099174    1.2784832      1024000 
  530000   0.99080624   -4.0074345   -4.0074345   -2.7317881   0.07690072   -4.0074345    1.2756465      1024000 
  531000   0.99195092   -4.0095146   -4.0095146   -2.7323943   0.07628242   -4.0095146    1.2771202      1024000 
  532000   0.99289175   -4.0093163   -4.0093163   -2.7309848  0.063576124   -4.0093163    1.2783315      1024000 
  533000   0.99062863   -4.0070435   -4.0070435   -2.7316258  0.069964214   -4.0070435    1.2754178      1024000 
  534000   0.99038025   -4.0070876   -4.0070876   -2.7319896  0.067066803   -4.0070876     1.275098      1024000 
  535000   0.99092522   -4.0064243   -4.0064243   -2.7306247  0.070163448   -4.0064243    1.2757996      1024000 
  536000   0.99035155   -4.0051789   -4.0051789   -2.7301179  0.065400038   -4.0051789     1.275061      1024000 
  537000   0.99029384   -4.0074861   -4.0074861   -2.7324994  0.057326635   -4.0074861    1.2749867      1024000 
  538000   0.98955319   -4.0065481   -4.0065481    -2.732515  0.071630281   -4.0065481    1.2740332      1024000 
  539000    0.9890064   -4.0061694   -4.0061694   -2.7328402  0.057803444   -4.0061694    1.2733292      1024000 
  540000   0.98845432   -4.0056205   -4.0056205   -2.7330021  0.071578232   -4.0056205    1.2726184      1024000 
  541000   0.99016203    -4.006282    -4.006282   -2.7314649  0.068353934    -4.006282     1.274817      1024000 
  542000   0.98969072   -4.0049472   -4.0049472    -2.730737  0.071050671   -4.0049472    1.2742102      1024000 
  543000    0.9907838   -4.0071858   -4.0071858   -2.7315682  0.072880059   -4.0071858    1.2756176      1024000 
  544000    0.9915709   -4.0080845   -4.0080845   -2.7314536  0.067861278   -4.0080845    1.2766309      1024000 
  545000   0.98982513   -4.0066114   -4.0066114   -2.7322281  0.061465896   -4.0066114    1.2743833      1024000 
  546000   0.99055043   -4.0056993   -4.0056993   -2.7303822  0.060234005   -4.0056993    1.2753171      1024000 
  547000   0.99104399   -4.0080637   -4.0080637   -2.7321111  0.071043007   -4.0080637    1.2759526      1024000 
  548000   0.99007824   -4.0059655   -4.0059655   -2.7312564  0.062279499   -4.0059655    1.2747092      1024000 
  549000   0.99018014   -4.0066767   -4.0066767   -2.7318364  0.075529781   -4.0066767    1.2748404      1024000 
  550000   0.99104524   -4.0090811   -4.0090811   -2.7331269  0.067586183   -4.0090811    1.2759542      1024000 
  551000   0.99158865   -4.0084565   -4.0084565   -2.7318027  0.070756625   -4.0084565    1.2766538      1024000 
  552000    0.9919642   -4.0090158   -4.0090158   -2.7318785  0.073298451   -4.0090158    1.2771373      1024000 
  553000   0.99124572   -4.0086031   -4.0086031   -2.7323908  0.071852688   -4.0086031    1.2762123      1024000 
  554000   0.99223639   -4.0107442   -4.0107442   -2.7332565  0.068464091   -4.0107442    1.2774877      1024000 
  555000   0.99137656   -4.0089928   -4.0089928   -2.7326121  0.065582923   -4.0089928    1.2763807      1024000 
  556000   0.99300972     -4.00928     -4.00928   -2.7307966  0.079496038     -4.00928    1.2784834      1024000 
  557000   0.99202661   -4.0113283   -4.0113283   -2.7341107  0.068554525   -4.0113283    1.2772177      1024000 
  558000   0.99126149   -4.0093812   -4.0093812   -2.7331486  0.068149059   -4.0093812    1.2762326      1024000 
  559000   0.98987725   -4.0086333   -4.0086333   -2.7341829  0.060767552   -4.0086333    1.2744504      1024000 
  560000   0.99087984   -4.0099372   -4.0099372    -2.734196  0.057156719   -4.0099372    1.2757412      1024000 
  561000   0.99063819   -4.0090906   -4.0090906   -2.7336605   0.07156134   -4.0090906    1.2754301      1024000 
  562000   0.99065028   -4.0088783   -4.0088783   -2.7334326  0.073094616   -4.0088783    1.2754457      1024000 
  563000   0.99035297   -4.0077866   -4.0077866   -2.7327237  0.070520703   -4.0077866    1.2750629      1024000 
  564000   0.99064611   -4.0091486   -4.0091486   -2.7337084  0.072504502   -4.0091486    1.2754403      1024000 
  565000   0.98946614   -4.0080647   -4.0080647   -2.7341436  0.066508617   -4.0080647    1.2739211      1024000 
  566000    0.9903965   -4.0084657   -4.0084657   -2.7333468  0.066638932   -4.0084657    1.2751189      1024000 
  567000   0.99084746   -4.0082656   -4.0082656   -2.7325661  0.065105734   -4.0082656    1.2756995      1024000 
  568000   0.99020242    -4.007954    -4.007954    -2.733085  0.073958933    -4.007954     1.274869      1024000 
  569000   0.99036123   -4.0079322   -4.0079322   -2.7328587  0.073214494   -4.0079322    1.2750735      1024000 
  570000   0.99115958   -4.0076471   -4.0076471   -2.7315457  0.075897632   -4.0076471    1.2761014      1024000 
  571000   0.99173051   -4.0089318   -4.0089318   -2.7320953  0.066874249   -4.0089318    1.2768364      1024000 
  572000   0.99106667   -4.0075579   -4.0075579   -2.7315762  0.064670346   -4.0075579    1.2759818      1024000 
  573000   0.99140916   -4.0071147   -4.0071147    -2.730692  0.073075935   -4.0071147    1.2764227      1024000 
  574000   0.99143686   -4.0080594   -4.0080594    -2.731601  0.064207448   -4.0080594    1.2764584      1024000 
  575000   0.98951628   -4.0066718   -4.0066718   -2.7326862  0.069161056   -4.0066718    1.2739857      1024000 
  576000   0.98903244   -4.0061963   -4.0061963   -2.7328335  0.066264419   -4.0061963    1.2733627      1024000 
  577000   0.98894128   -4.0059554   -4.0059554     -2.73271  0.063689394   -4.0059554    1.2732454      1024000 
  578000    0.9897056   -4.0055385   -4.0055385   -2.7313091  0.066621905   -4.0055385    1.2742294      1024000 
  579000   0.98896279   -4.0050423   -4.0050423   -2.7317692  0.073293212   -4.0050423     1.273273      1024000 
  580000   0.98861014   -4.0042805   -4.0042805   -2.7314615  0.080208373   -4.0042805     1.272819      1024000 
  581000   0.98870663   -4.0055699   -4.0055699   -2.7326267  0.064631072   -4.0055699    1.2729432      1024000 
  582000   0.98981396    -4.004695    -4.004695   -2.7303261  0.064809292    -4.004695    1.2743689      1024000 
  583000   0.98876926     -4.00701     -4.00701   -2.7339861  0.063331766     -4.00701    1.2730239      1024000 
  584000   0.99018592   -4.0068786   -4.0068786   -2.7320308  0.067855898   -4.0068786    1.2748478      1024000 
  585000   0.99177495   -4.0074468   -4.0074468   -2.7305531  0.063607576   -4.0074468    1.2768937      1024000 
  586000   0.99039877   -4.0071018   -4.0071018   -2.7319799  0.067613211   -4.0071018    1.2751218      1024000 
  587000   0.99182701   -4.0081679   -4.0081679   -2.7312072   0.07142003   -4.0081679    1.2769607      1024000 
  588000    0.9901118   -4.0056561   -4.0056561   -2.7309038  0.074738992   -4.0056561    1.2747524      1024000 
  589000   0.99131051    -4.007817    -4.007817   -2.7315214  0.060911567    -4.007817    1.2762957      1024000 
  590000   0.99161603   -4.0072095   -4.0072095   -2.7305205  0.066174051   -4.0072095     1.276689      1024000 
  591000   0.99173272   -4.0087095   -4.0087095   -2.7318702  0.068006891   -4.0087095    1.2768393      1024000 
  592000   0.99059698   -4.0047643   -4.0047643   -2.7293872  0.071572119   -4.0047643     1.275377      1024000 
  593000    0.9903652   -4.0069847   -4.0069847   -2.7319061  0.059078342   -4.0069847    1.2750786      1024000 
  594000   0.98886126   -4.0054819   -4.0054819   -2.7323396  0.070636352   -4.0054819    1.2731423      1024000 
  595000   0.99025433   -4.0074861   -4.0074861   -2.7325502  0.060719703   -4.0074861    1.2749359      1024000 
  596000   0.99150396   -4.0074217   -4.0074217    -2.730877  0.065877164   -4.0074217    1.2765448      1024000 
  597000   0.99244861   -4.0081227   -4.0081227   -2.7303617  0.068099903   -4.0081227     1.277761      1024000 
  598000    0.9916811   -4.0062691   -4.0062691   -2.7294963  0.072006372   -4.0062691    1.2767728      1024000 
  599000    0.9909331   -4.0076503   -4.0076503   -2.7318405  0.068378341   -4.0076503    1.2758098      1024000 
  600000   0.99096282   -4.0056644   -4.0056644   -2.7298163  0.078315157   -4.0056644     1.275848      1024000 
  601000   0.99086266   -4.0068583   -4.0068583   -2.7311392  0.066709115   -4.0068583    1.2757191      1024000 
  602000   0.99038896   -4.0057773   -4.0057773   -2.7306681   0.07016199   -4.0057773    1.2751092      1024000 
  603000   0.99166674   -4.0066976   -4.0066976   -2.7299433  0.073176526   -4.0066976    1.2767543      1024000 
  604000   0.99134765   -4.0083004   -4.0083004   -2.7319569  0.068370503   -4.0083004    1.2763435      1024000 
  605000   0.99171692   -4.0075068   -4.0075068   -2.7306879  0.066508027   -4.0075068    1.2768189      1024000 
  606000   0.99055119   -4.0045915   -4.0045915   -2.7292734   0.06880469   -4.0045915    1.2753181      1024000 
  607000   0.99301335   -4.0081943   -4.0081943   -2.7297062  0.052789079   -4.0081943    1.2784881      1024000 
  608000   0.98909531   -4.0060752   -4.0060752   -2.7326315  0.059816665   -4.0060752    1.2734437      1024000 
  609000   0.99275043   -4.0078942   -4.0078942   -2.7297447  0.071145014   -4.0078942    1.2781496      1024000 
  610000   0.99161272   -4.0059796   -4.0059796   -2.7292948  0.070831256   -4.0059796    1.2766848      1024000 
  611000   0.99096308   -4.0068169   -4.0068169   -2.7309685  0.064533881   -4.0068169    1.2758484      1024000 
  612000   0.99119909   -4.0058656   -4.0058656   -2.7297134  0.064270567   -4.0058656    1.2761522      1024000 
  613000   0.99073591   -4.0052457   -4.0052457   -2.7296898  0.071655806   -4.0052457    1.2755559      1024000 
  614000   0.99232897   -4.0065404   -4.0065404   -2.7289335  0.060982323   -4.0065404    1.2776069      1024000 
  615000    0.9913269   -4.0059538   -4.0059538    -2.729637   0.06071441   -4.0059538    1.2763168      1024000 
  616000   0.99060304    -4.002879    -4.002879   -2.7274942  0.079648313    -4.002879    1.2753848      1024000 
  617000   0.99018822   -4.0045978   -4.0045978   -2.7297471  0.068185529   -4.0045978    1.2748508      1024000 
  618000   0.99024037   -4.0038421   -4.0038421   -2.7289242    0.0680977   -4.0038421    1.2749179      1024000 
  619000   0.98966843    -4.003722    -4.003722   -2.7295404  0.067195032    -4.003722    1.2741815      1024000 
  620000   0.98909262   -4.0027933   -4.0027933   -2.7293531  0.063805636   -4.0027933    1.2734402      1024000 
  621000   0.99068864   -4.0035278   -4.0035278   -2.7280328  0.065507823   -4.0035278     1.275495      1024000 
  622000    0.9909914   -4.0035248   -4.0035248   -2.7276399  0.062408842   -4.0035248    1.2758849      1024000 
  623000   0.99156503   -4.0046854   -4.0046854    -2.728062  0.064796155   -4.0046854    1.2766234      1024000 
  624000   0.99135875   -4.0053333   -4.0053333   -2.7289755  0.063404599   -4.0053333    1.2763578      1024000 
  625000   0.98870407   -4.0039624   -4.0039624   -2.7310224  0.058486139   -4.0039624    1.2729399      1024000 
  626000   0.98911602   -4.0027756   -4.0027756   -2.7293053  0.073221415   -4.0027756    1.2734703      1024000 
  627000   0.98958907   -4.0028101   -4.0028101   -2.7287308  0.069183521   -4.0028101    1.2740794      1024000 
  628000   0.98903498    -4.003796    -4.003796   -2.7304301  0.057297807    -4.003796     1.273366      1024000 
  629000   0.99221337   -4.0060794   -4.0060794   -2.7286213  0.060589474   -4.0060794    1.2774581      1024000 
  630000     0.990732   -4.0038938   -4.0038938    -2.728343  0.066263094   -4.0038938    1.2755509      1024000 
  631000   0.99152117   -4.0038357   -4.0038357   -2.7272688  0.066442086   -4.0038357    1.2765669      1024000 
  632000   0.99254975   -4.0065696   -4.0065696   -2.7286784  0.063707814   -4.0065696    1.2778912      1024000 
  633000   0.99163658   -4.0047797   -4.0047797   -2.7280642  0.072908238   -4.0047797    1.2767155      1024000 
  634000   0.99280677   -4.0069927   -4.0069927   -2.7287706  0.078648098   -4.0069927    1.2782221      1024000 
  635000   0.99359492   -4.0070987   -4.0070987   -2.7278619  0.066104612   -4.0070987    1.2792368      1024000 
  636000   0.99379636   -4.0083689   -4.0083689   -2.7288727  0.065270638   -4.0083689    1.2794962      1024000 
  637000   0.99291559   -4.0067223   -4.0067223   -2.7283601   0.07370927   -4.0067223    1.2783622      1024000 
  638000   0.99352488   -4.0071467   -4.0071467       -2.728  0.063833998   -4.0071467    1.2791467      1024000 
  639000   0.99263503   -4.0062994   -4.0062994   -2.7282985  0.073853644   -4.0062994     1.278001      1024000 
  640000   0.99122173   -4.0063183   -4.0063183   -2.7301369  0.070466692   -4.0063183    1.2761814      1024000 
  641000   0.99201039   -4.0072381   -4.0072381   -2.7300414   0.07485762   -4.0072381    1.2771968      1024000 
  642000   0.99032564   -4.0057199   -4.0057199   -2.7306922  0.067886016   -4.0057199    1.2750277      1024000 
  643000   0.99172115   -4.0047014   -4.0047014    -2.727877  0.078535718   -4.0047014    1.2768244      1024000 
  644000    0.9926092   -4.0052152   -4.0052152   -2.7272474  0.071619615   -4.0052152    1.2779677      1024000 
  645000   0.99162149   -4.0053586   -4.0053586   -2.7286625  0.077611188   -4.0053586    1.2766961      1024000 
  646000   0.99235297   -4.0061895   -4.0061895   -2.7285516  0.066485267   -4.0061895    1.2776378      1024000 
  647000   0.99193477   -4.0057957   -4.0057957   -2.7286962   0.06492668   -4.0057957    1.2770994      1024000 
  648000     0.992825   -4.0051185   -4.0051185    -2.726873  0.077581922   -4.0051185    1.2782456      1024000 
  649000   0.99336671   -4.0068725   -4.0068725   -2.7279294  0.071080645   -4.0068725     1.278943      1024000 
  650000   0.99296012   -4.0057055   -4.0057055   -2.7272859   0.06841115   -4.0057055    1.2784195      1024000 
  651000    0.9907826   -4.0040988   -4.0040988   -2.7284828  0.073231993   -4.0040988     1.275616      1024000 
  652000   0.98982483   -4.0025632   -4.0025632   -2.7281803  0.065223493   -4.0025632    1.2743829      1024000 
  653000   0.99128669   -4.0038222   -4.0038222   -2.7275572   0.05441605   -4.0038222     1.276265      1024000 
  654000   0.98976827   -4.0006024   -4.0006024   -2.7262923  0.071375309   -4.0006024    1.2743101      1024000 
  655000    0.9891575   -4.0019575   -4.0019575   -2.7284337  0.064339822   -4.0019575    1.2735237      1024000 
  656000   0.99075684   -4.0023086   -4.0023086   -2.7267258  0.054872258   -4.0023086    1.2755829      1024000 
  657000    0.9898499   -4.0020429   -4.0020429   -2.7276277   0.06745838   -4.0020429    1.2744152      1024000 
  658000    0.9905074   -4.0050594   -4.0050594   -2.7297977  0.062152284   -4.0050594    1.2752617      1024000 
  659000   0.99097079   -4.0034747   -4.0034747   -2.7276164  0.061862657   -4.0034747    1.2758583      1024000 
  660000   0.99051422   -4.0025308   -4.0025308   -2.7272603  0.074378701   -4.0025308    1.2752705      1024000 
  661000   0.99030239   -4.0012413   -4.0012413   -2.7262435  0.060194316   -4.0012413    1.2749978      1024000 
  662000   0.99145223   -4.0029761   -4.0029761    -2.726498   0.06379206   -4.0029761    1.2764782      1024000 
  663000   0.99050935    -4.001109    -4.001109   -2.7258448  0.064854603    -4.001109    1.2752642      1024000 
  664000   0.99191614   -4.0036511   -4.0036511   -2.7265757  0.067000838   -4.0036511    1.2770754      1024000 
  665000   0.99085167   -4.0034487   -4.0034487   -2.7277438  0.064132614   -4.0034487    1.2757049      1024000 
  666000   0.99273694   -4.0060314   -4.0060314   -2.7278992  0.057366316   -4.0060314    1.2781322      1024000 
  667000   0.99073957   -4.0030753   -4.0030753   -2.7275147  0.067945959   -4.0030753    1.2755606      1024000 
  668000   0.99010167   -4.0018837   -4.0018837   -2.7271444  0.074451079   -4.0018837    1.2747393      1024000 
  669000    0.9913141   -4.0039226   -4.0039226   -2.7276223   0.07018737   -4.0039226    1.2763003      1024000 
  670000    0.9908625   -4.0018073   -4.0018073   -2.7260884  0.076237627   -4.0018073    1.2757189      1024000 
  671000   0.99213263   -4.0038883   -4.0038883   -2.7265342   0.07410593   -4.0038883    1.2773542      1024000 
  672000   0.99254611   -4.0050309   -4.0050309   -2.7271444  0.067621715   -4.0050309    1.2778865      1024000 
  673000   0.99201978   -4.0055491   -4.0055491   -2.7283403  0.070004585   -4.0055491    1.2772089      1024000 
  674000   0.99255206   -4.0047542   -4.0047542     -2.72686  0.069015805   -4.0047542    1.2778942      1024000 
  675000   0.99188737   -4.0040812   -4.0040812   -2.7270428  0.078258572   -4.0040812    1.2770384      1024000 
  676000   0.99345884   -4.0053905   -4.0053905   -2.7263289  0.069201301   -4.0053905    1.2790616      1024000 
  677000   0.99365966   -4.0055023   -4.0055023   -2.7261821  0.063570136   -4.0055023    1.2793202      1024000 
[...]
  837000    0.9931454    -4.001485    -4.001485    -2.722827  0.066669844    -4.001485    1.2786581      1024000 
  838000   0.99187555   -4.0001279   -4.0001279   -2.7231047   0.06804451   -4.0001279    1.2770232      1024000 
  839000   0.99312966   -4.0014948   -4.0014948    -2.722857   0.06467786   -4.0014948    1.2786378      1024000 
  840000   0.99189805    -4.000081    -4.000081   -2.7230289  0.077736566    -4.000081    1.2770521      1024000 
  841000   0.99096265   -4.0001711   -4.0001711   -2.7243232  0.068095119   -4.0001711    1.2758478      1024000 
  842000   0.99162583   -3.9992518   -3.9992518   -2.7225502  0.067308565   -3.9992518    1.2767017      1024000 
  843000   0.99213775   -3.9994388   -3.9994388   -2.7220781   0.06377369   -3.9994388    1.2773607      1024000 
  844000   0.99177713   -3.9984455   -3.9984455   -2.7215491  0.066871948   -3.9984455    1.2768965      1024000 
  845000   0.99242482   -3.9994688   -3.9994688   -2.7217384  0.074999994   -3.9994688    1.2777303      1024000 
  846000   0.99199646   -3.9988296   -3.9988296   -2.7216507  0.072725264   -3.9988296    1.2771788      1024000 
  847000   0.99444639    -4.002486    -4.002486   -2.7221529  0.066142309    -4.002486    1.2803331      1024000 
  848000   0.99274865   -4.0007686   -4.0007686   -2.7226213  0.065101148   -4.0007686    1.2781473      1024000 
  849000   0.99209583   -3.9985871   -3.9985871   -2.7212803  0.065537036   -3.9985871    1.2773068      1024000 
  850000   0.99392432   -3.9993879   -3.9993879    -2.719727  0.067323304   -3.9993879    1.2796609      1024000 
  851000   0.99298328    -3.999755    -3.999755   -2.7213056  0.058978552    -3.999755    1.2784494      1024000 
  852000   0.99189279   -3.9985729   -3.9985729   -2.7215275  0.061854233   -3.9985729    1.2770454      1024000 
  853000   0.99000059   -3.9985594   -3.9985594   -2.7239502  0.062886691   -3.9985594    1.2746092      1024000 
  854000   0.99032156    -3.998872    -3.998872   -2.7238496  0.060973124    -3.998872    1.2750224      1024000 
  855000   0.99159997   -3.9988933   -3.9988933   -2.7222249  0.063293482   -3.9988933    1.2766684      1024000 
  856000   0.99175618   -3.9989092   -3.9989092   -2.7220397  0.057584435   -3.9989092    1.2768695      1024000 
  857000   0.99124991   -3.9987165   -3.9987165   -2.7224988  0.061306784   -3.9987165    1.2762177      1024000 
  858000   0.99181395   -3.9999712   -3.9999712   -2.7230274  0.065308013   -3.9999712    1.2769439      1024000 
  859000   0.99118708    -3.996984    -3.996984   -2.7208473  0.072970676    -3.996984    1.2761368      1024000 
  860000   0.99331324   -4.0001057   -4.0001057   -2.7212315  0.068622226   -4.0001057    1.2788742      1024000 
  861000   0.99369158   -4.0002027   -4.0002027   -2.7208415  0.072445801   -4.0002027    1.2793613      1024000 
  862000   0.99314689   -4.0009272   -4.0009272   -2.7222672   0.07573049   -4.0009272      1.27866      1024000 
  863000   0.99365148   -4.0017479   -4.0017479   -2.7224383  0.060884556   -4.0017479    1.2793097      1024000 
  864000   0.99276276   -4.0007121   -4.0007121   -2.7225466   0.07221408   -4.0007121    1.2781654      1024000 
  865000   0.99253645   -3.9995808   -3.9995808   -2.7217068  0.069812545   -3.9995808    1.2778741      1024000 
  866000   0.99303833   -3.9999225   -3.9999225   -2.7214022  0.065026672   -3.9999225    1.2785202      1024000 
  867000   0.99160138   -3.9991176   -3.9991176   -2.7224474  0.067645173   -3.9991176    1.2766702      1024000 
  868000   0.99208848   -3.9984522   -3.9984522   -2.7211549  0.071896987   -3.9984522    1.2772973      1024000 
  869000   0.99390623   -4.0009085   -4.0009085   -2.7212709  0.061409495   -4.0009085    1.2796376      1024000 
  870000   0.99318331   -4.0011156   -4.0011156   -2.7224087  0.066335551   -4.0011156    1.2787069      1024000 
  871000   0.99378727   -4.0019319   -4.0019319   -2.7224474  0.067888133   -4.0019319    1.2794845      1024000 
  872000   0.99490888   -4.0023851   -4.0023851   -2.7214566  0.072616674   -4.0023851    1.2809285      1024000 
  873000   0.99596881   -4.0022677   -4.0022677   -2.7199745  0.065715149   -4.0022677    1.2822932      1024000 
  874000   0.99433884   -4.0002445   -4.0002445   -2.7200499  0.071726925   -4.0002445    1.2801946      1024000 
  875000    0.9915434   -3.9971319   -3.9971319   -2.7205363  0.080419905   -3.9971319    1.2765955      1024000 
  876000   0.99388491   -3.9984392   -3.9984392    -2.718829  0.074103703   -3.9984392    1.2796102      1024000 
  877000   0.99482718   -4.0002271   -4.0002271   -2.7194038  0.069368166   -4.0002271    1.2808234      1024000 
  878000   0.99176478   -3.9977977   -3.9977977   -2.7209171  0.070786078   -3.9977977    1.2768806      1024000 
  879000   0.99120271   -3.9986716   -3.9986716   -2.7225147  0.066242674   -3.9986716    1.2761569      1024000 
  880000   0.99149046   -3.9971698   -3.9971698   -2.7206424  0.072543912   -3.9971698    1.2765274      1024000 
  881000   0.99221367    -3.999015    -3.999015   -2.7215565  0.064307811    -3.999015    1.2774585      1024000 
  882000   0.99055101   -3.9972594   -3.9972594   -2.7219416   0.07111236   -3.9972594    1.2753178      1024000 
  883000   0.99059543   -3.9982393   -3.9982393   -2.7228643  0.063900976   -3.9982393     1.275375      1024000 
  884000   0.99174003   -3.9976288   -3.9976288   -2.7207802  0.064251894   -3.9976288    1.2768487      1024000 
  885000   0.99271519   -3.9988776   -3.9988776   -2.7207734  0.068304591   -3.9988776    1.2781042      1024000 
  886000   0.99351692   -3.9995597   -3.9995597   -2.7204233  0.067052852   -3.9995597    1.2791364      1024000 
  887000   0.99483029   -3.9996381   -3.9996381   -2.7188107   0.08559326   -3.9996381    1.2808274      1024000 
  888000   0.99480978   -3.9997245   -3.9997245   -2.7189235  0.077190274   -3.9997245    1.2808009      1024000 
  889000   0.99332678   -3.9977773   -3.9977773   -2.7188857  0.074454921   -3.9977773    1.2788916      1024000 
  890000   0.99244136   -3.9975448   -3.9975448   -2.7197932  0.072844167   -3.9975448    1.2777516      1024000 
  891000   0.99278775   -3.9991776   -3.9991776     -2.72098  0.059347813   -3.9991776    1.2781976      1024000 
  892000   0.99273982   -3.9961216   -3.9961216   -2.7179857  0.072538209   -3.9961216    1.2781359      1024000 
  893000   0.99238376   -3.9967757   -3.9967757   -2.7190982  0.072172783   -3.9967757    1.2776775      1024000 
  894000   0.99100875   -3.9952032   -3.9952032   -2.7192961  0.068462451   -3.9952032    1.2759072      1024000 
  895000   0.99184078   -3.9963821   -3.9963821   -2.7194037   0.07034862   -3.9963821    1.2769784      1024000 
  896000   0.99160585   -3.9963367   -3.9963367   -2.7196607   0.06052851   -3.9963367    1.2766759      1024000 
  897000   0.99383348   -3.9964686   -3.9964686   -2.7169246  0.069971994   -3.9964686     1.279544      1024000 
  898000   0.99367214   -3.9991857   -3.9991857   -2.7198495   0.05504332   -3.9991857    1.2793363      1024000 
  899000   0.99184525   -3.9956722   -3.9956722    -2.718688  0.069891665   -3.9956722    1.2769842      1024000 
  900000   0.99352534   -3.9968224   -3.9968224   -2.7176751  0.061455435   -3.9968224    1.2791473      1024000 
  901000   0.99136041   -3.9963612   -3.9963612   -2.7200012  0.075621549   -3.9963612    1.2763599      1024000 
  902000   0.99392887   -3.9978962   -3.9978962   -2.7182294  0.070484391   -3.9978962    1.2796668      1024000 
  903000   0.99278728   -3.9948991   -3.9948991    -2.716702  0.071677783   -3.9948991     1.278197      1024000 
  904000   0.99257069   -3.9955468   -3.9955468   -2.7176287  0.066221134   -3.9955468    1.2779181      1024000 
  905000   0.99282823   -3.9954243   -3.9954243   -2.7171745  0.061354263   -3.9954243    1.2782497      1024000 
  906000   0.99195451   -3.9972247   -3.9972247   -2.7200998  0.055445749   -3.9972247    1.2771248      1024000 
  907000   0.99273681   -3.9950548   -3.9950548   -2.7169228  0.067942908   -3.9950548     1.278132      1024000 
  908000   0.99184521   -3.9967254   -3.9967254   -2.7197413  0.058061552   -3.9967254    1.2769841      1024000 
  909000   0.99110822   -3.9947563   -3.9947563   -2.7187211  0.076998977   -3.9947563    1.2760353      1024000 
  910000   0.99240641    -3.995502    -3.995502   -2.7177953  0.071941926    -3.995502    1.2777066      1024000 
  911000   0.99224036   -3.9973864   -3.9973864   -2.7198936   0.07305471   -3.9973864    1.2774929      1024000 
  912000   0.99346718   -3.9967317   -3.9967317   -2.7176593   0.06279576   -3.9967317    1.2790724      1024000 
  913000   0.99232943   -3.9970626   -3.9970626    -2.719455  0.053254845   -3.9970626    1.2776075      1024000 
  914000   0.99293818   -3.9974791   -3.9974791   -2.7190878  0.071485512   -3.9974791    1.2783913      1024000 
  915000   0.99336331   -3.9970725   -3.9970725   -2.7181339  0.072673902   -3.9970725    1.2789386      1024000 
  916000   0.99136544   -3.9957811   -3.9957811   -2.7194147  0.079494384   -3.9957811    1.2763664      1024000 
  917000   0.99209829   -3.9968463   -3.9968463   -2.7195364  0.076194298   -3.9968463    1.2773099      1024000 
  918000   0.99269675   -3.9964418   -3.9964418   -2.7183614  0.070806064   -3.9964418    1.2780805      1024000 
  919000   0.99401294   -3.9994762   -3.9994762   -2.7197012  0.058771805   -3.9994762     1.279775      1024000 
  920000   0.99409329   -3.9983758   -3.9983758   -2.7184973   0.07150101   -3.9983758    1.2798785      1024000 
  921000   0.99450151   -3.9995985   -3.9995985   -2.7191944  0.069656313   -3.9995985    1.2804041      1024000 
  922000    0.9936067   -3.9981642   -3.9981642   -2.7189122  0.070533932   -3.9981642     1.279252      1024000 
  923000   0.99308518   -3.9971348   -3.9971348   -2.7185543  0.072248712   -3.9971348    1.2785806      1024000 
  924000   0.99367536   -3.9974942   -3.9974942   -2.7181538  0.069625912   -3.9974942    1.2793404      1024000 
  925000   0.99342317   -3.9987195   -3.9987195   -2.7197038  0.070159127   -3.9987195    1.2790157      1024000 
  926000   0.99346669   -3.9987961   -3.9987961   -2.7197243  0.070951824   -3.9987961    1.2790717      1024000 
  927000   0.99289001   -3.9982024   -3.9982024   -2.7198732    0.0738247   -3.9982024    1.2783293      1024000 
  928000   0.99264518   -3.9976332   -3.9976332   -2.7196191   0.06297786   -3.9976332    1.2780141      1024000 
  929000   0.99244108   -3.9970248   -3.9970248   -2.7192736  0.071371996   -3.9970248    1.2777513      1024000 
  930000   0.99218819   -3.9970227   -3.9970227    -2.719597   0.07755501   -3.9970227    1.2774257      1024000 
  931000   0.99211991   -3.9979419   -3.9979419   -2.7206041  0.067728772   -3.9979419    1.2773378      1024000 
  932000    0.9913975   -3.9982568   -3.9982568   -2.7218491  0.073700702   -3.9982568    1.2764077      1024000 
  933000   0.99245022   -3.9967938   -3.9967938   -2.7190308   0.06706815   -3.9967938    1.2777631      1024000 
  934000    0.9921882   -3.9966849   -3.9966849   -2.7192592  0.076911877   -3.9966849    1.2774257      1024000 
  935000   0.99255786   -3.9998925   -3.9998925   -2.7219909  0.070633675   -3.9998925    1.2779016      1024000 
  936000   0.99102131   -3.9990261   -3.9990261   -2.7231027  0.067248486   -3.9990261    1.2759234      1024000 
  937000   0.99286663   -3.9985015   -3.9985015   -2.7202023  0.067874331   -3.9985015    1.2782992      1024000 
  938000   0.99425637   -3.9987912   -3.9987912   -2.7187027  0.078805594   -3.9987912    1.2800884      1024000 
  939000    0.9921852   -3.9962106   -3.9962106   -2.7187888  0.071862762   -3.9962106    1.2774218      1024000 
  940000   0.99306194   -3.9981948   -3.9981948   -2.7196442  0.068113753   -3.9981948    1.2785506      1024000 
  941000   0.99369711   -3.9973252   -3.9973252   -2.7179568  0.071208483   -3.9973252    1.2793684      1024000 
  942000   0.99207931   -3.9967762   -3.9967762   -2.7194907  0.063668503   -3.9967762    1.2772855      1024000 
  943000   0.99104519   -3.9972556   -3.9972556   -2.7213015  0.063258733   -3.9972556    1.2759541      1024000 
  944000   0.99235019   -3.9973175   -3.9973175   -2.7196832  0.059830748   -3.9973175    1.2776343      1024000 
  945000   0.99210625   -3.9979361   -3.9979361   -2.7206159  0.068147537   -3.9979361    1.2773202      1024000 
  946000   0.99232825   -3.9978161   -3.9978161   -2.7202101  0.073378336   -3.9978161     1.277606      1024000 
  947000   0.99333759   -3.9980057   -3.9980057   -2.7191002  0.070468693   -3.9980057    1.2789055      1024000 
  948000   0.99148836   -3.9966153   -3.9966153   -2.7200906   0.07236654   -3.9966153    1.2765247      1024000 
  949000    0.9926857   -3.9982975   -3.9982975   -2.7202313  0.077449472   -3.9982975    1.2780662      1024000 
  950000    0.9932112   -3.9973903   -3.9973903   -2.7186475  0.067306685   -3.9973903    1.2787428      1024000 
  951000   0.99310717   -3.9968464   -3.9968464   -2.7182375  0.068488104   -3.9968464    1.2786089      1024000 
  952000   0.99147362   -3.9951746   -3.9951746   -2.7186689  0.075040908   -3.9951746    1.2765057      1024000 
  953000   0.99179323   -3.9969115   -3.9969115   -2.7199944  0.063901449   -3.9969115    1.2769172      1024000 
  954000   0.99250166   -3.9978362   -3.9978362    -2.720007  0.061583355   -3.9978362    1.2778293      1024000 
  955000   0.99273419   -3.9969493   -3.9969493   -2.7188206  0.066936702   -3.9969493    1.2781287      1024000 
  956000   0.99305922   -3.9988168   -3.9988168   -2.7202696  0.064021477   -3.9988168    1.2785471      1024000 
  957000    0.9939917    -3.996983    -3.996983   -2.7172354   0.06404257    -3.996983    1.2797477      1024000 
  958000   0.99362321   -3.9964691   -3.9964691   -2.7171959  0.074376553   -3.9964691    1.2792733      1024000 
  959000    0.9924029   -3.9964407   -3.9964407   -2.7187386  0.068851806   -3.9964407    1.2777021      1024000 
  960000   0.99312904   -3.9957966   -3.9957966   -2.7171595  0.081403737   -3.9957966     1.278637      1024000 
  961000   0.99380591    -3.997787    -3.997787   -2.7182785  0.075356756    -3.997787    1.2795085      1024000 
  962000   0.99367992   -3.9971703   -3.9971703    -2.717824  0.081799831   -3.9971703    1.2793463      1024000 
  963000   0.99173825   -3.9956786   -3.9956786   -2.7188322  0.067528412   -3.9956786    1.2768464      1024000 
  964000    0.9939532   -3.9973467   -3.9973467   -2.7176486  0.070045947   -3.9973467    1.2796981      1024000 
  965000   0.99291161   -3.9972396   -3.9972396   -2.7188825  0.067900286   -3.9972396    1.2783571      1024000 
  966000    0.9921003   -3.9951437   -3.9951437   -2.7178312  0.075566446   -3.9951437    1.2773125      1024000 
  967000   0.99189884   -3.9951572   -3.9951572    -2.718104  0.066630439   -3.9951572    1.2770532      1024000 
  968000   0.99252425   -3.9963322   -3.9963322   -2.7184738   0.07219172   -3.9963322    1.2778584      1024000 
  969000   0.99224464    -3.995075    -3.995075   -2.7175766  0.078255851    -3.995075    1.2774984      1024000 
  970000   0.99113924   -3.9948052   -3.9948052     -2.71873  0.072107365   -3.9948052    1.2760752      1024000 
  971000   0.99257018   -3.9963017   -3.9963017   -2.7183842  0.062426095   -3.9963017    1.2779175      1024000 
  972000    0.9915622    -3.995987    -3.995987   -2.7193672  0.060087942    -3.995987    1.2766197      1024000 
  973000   0.99308322   -3.9947553   -3.9947553   -2.7161772   0.07608014   -3.9947553     1.278578      1024000 
  974000   0.99340771   -3.9944276   -3.9944276   -2.7154318  0.069131945   -3.9944276    1.2789958      1024000 
  975000   0.99286239   -3.9955034   -3.9955034   -2.7172097  0.064331405   -3.9955034    1.2782937      1024000 
  976000   0.99279244   -3.9949387   -3.9949387   -2.7167351  0.064672276   -3.9949387    1.2782037      1024000 
  977000   0.99176225   -3.9943761   -3.9943761   -2.7174988  0.064510128   -3.9943761    1.2768773      1024000 
  978000     0.992849   -3.9943821   -3.9943821   -2.7161056  0.067667073   -3.9943821    1.2782765      1024000 
  979000   0.99197568   -3.9947993   -3.9947993   -2.7176472  0.064812864   -3.9947993    1.2771521      1024000 
  980000   0.99059106   -3.9936315   -3.9936315   -2.7182621   0.06042294   -3.9936315    1.2753694      1024000 
  981000   0.99036946   -3.9937672   -3.9937672   -2.7186831  0.063863976   -3.9937672    1.2750841      1024000 
  982000   0.98956356   -3.9928425   -3.9928425    -2.718796  0.073758602   -3.9928425    1.2740465      1024000 
  983000   0.99077263   -3.9934691   -3.9934691   -2.7178659  0.063596344   -3.9934691    1.2756032      1024000 
  984000   0.99351424   -3.9965829   -3.9965829   -2.7174499  0.061651113   -3.9965829     1.279133      1024000 
  985000   0.99221326   -3.9947935   -3.9947935   -2.7173355  0.066765623   -3.9947935     1.277458      1024000 
  986000   0.99412942   -3.9977904   -3.9977904   -2.7178654  0.061441412   -3.9977904     1.279925      1024000 
  987000   0.99295125   -3.9961689   -3.9961689   -2.7177608  0.063765843   -3.9961689    1.2784081      1024000 
  988000   0.99272248   -3.9961373   -3.9961373   -2.7180237  0.078018878   -3.9961373    1.2781136      1024000 
  989000   0.99211998   -3.9972543   -3.9972543   -2.7199164  0.069318966   -3.9972543    1.2773379      1024000 
  990000   0.99553635   -3.9980414   -3.9980414    -2.716305  0.071553366   -3.9980414    1.2817364      1024000 
  991000   0.99489278   -4.0002863   -4.0002863   -2.7193785  0.069633672   -4.0002863    1.2809078      1024000 
  992000   0.99556895    -3.999833    -3.999833   -2.7180547  0.070733624    -3.999833    1.2817784      1024000 
  993000   0.99529278   -4.0008586   -4.0008586   -2.7194358  0.059359465   -4.0008586    1.2814228      1024000 
  994000   0.99497572   -3.9980722   -3.9980722   -2.7170576  0.085249449   -3.9980722    1.2810146      1024000 
  995000   0.99550753   -3.9992657   -3.9992657   -2.7175664   0.07484893   -3.9992657    1.2816993      1024000 
  996000   0.99383833   -3.9972759   -3.9972759   -2.7177256  0.077450532   -3.9972759    1.2795502      1024000 
  997000   0.99253826    -3.996406    -3.996406   -2.7185296  0.076895104    -3.996406    1.2778764      1024000 
  998000   0.99227027    -3.997409    -3.997409   -2.7198776  0.067563309    -3.997409    1.2775314      1024000 
  999000   0.99334841   -3.9973824   -3.9973824    -2.718463  0.072179024   -3.9973824    1.2789195      1024000 
 1000000   0.99387009   -3.9975973   -3.9975973   -2.7180061  0.070049082   -3.9975973    1.2795911      1024000 
Loop time of 206944 on 16 procs for 1000000 steps with 515430 atoms

Performance: 1043.760 tau/day, 4.832 timesteps/s
99.7% CPU use with 16 MPI tasks x 1 OpenMP threads

MPI task timing breakdown:
Section |  min time  |  avg time  |  max time  |%varavg|  %CPU | %total
-----------------------------------------------------------------------
Pair    | 1.2385e+05 | 1.4266e+05 | 1.5851e+05 |3099.7 |  99.8 | 68.93
Bond    | 0.71554    | 0.77193    | 0.86408    |   4.1 | 100.0 |  0.00
Neigh   | 25477      | 33207      | 38304      |2418.8 | 100.0 | 16.05
Comm    | 8027.3     | 26714      | 48804      |8413.8 |  98.2 | 12.91
Output  | 20.715     | 21.023     | 21.85      |  10.4 | 100.0 |  0.01
Modify  | 2453.8     | 3947.4     | 8106       |3809.8 |  99.3 |  1.91
Other   |            | 397.8      |            |       |       |  0.19

Nlocal:    32214.4 ave 33179 max 31336 min
Histogram: 1 1 2 5 0 2 1 1 2 1
Nghost:    48970.6 ave 57457 max 40941 min
Histogram: 8 0 0 0 0 0 0 0 3 5
Neighs:    4.47335e+06 ave 4.70906e+06 max 4.20354e+06 min
Histogram: 1 2 3 2 0 0 0 3 2 3

Total # of neighbors = 71573678
Ave neighs/atom = 138.862
Ave special neighs/atom = 0
Neighbor list builds = 65459
Dangerous builds = 0
Total wall time: 57:29:09
