LAMMPS (24 Dec 2020)
OMP_NUM_THREADS environment is not set. Defaulting to 1 thread. (src/comm.cpp:94)
  using 1 OpenMP thread(s) per MPI task
Created orthogonal box = (0.0000000 0.0000000 0.0000000) to (80.000000 80.000000 160.00000)
  6 by 4 by 8 MPI processor grid
Lattice spacing in x,y,z = 1.1485556 1.1485556 1.1485556
Created 421400 atoms
  create_atoms CPU = 0.214 seconds
Lattice spacing in x,y,z = 2.8114422 2.8114422 2.8114422
Created 17661 atoms
  create_atoms CPU = 0.007 seconds
439061 atoms in group solvent
System init for delete_atoms ...
Neighbor list info ...
  update every 1 steps, delay 10 steps, check yes
  max neighbors/atom: 2000, page size: 100000
  master list distance cutoff = 2.4
  ghost atom cutoff = 2.4
  binsize = 1.2, bins = 67 67 134
  2 neighbor lists, perpetual/occasional/extra = 1 1 0
  (1) command delete_atoms, occasional
      attributes: full, newton on
      pair build: full/bin
      stencil: full/bin/3d
      bin: standard
  (2) pair lj/smooth/linear, perpetual
      attributes: half, newton on
      pair build: half/bin/newton
      stencil: half/bin/3d/newton
      bin: standard
WARNING: Ignoring 'compress yes' for molecular system (src/delete_atoms.cpp:125)
Deleted 0 atoms, new total = 439061
Balancing ...
Neighbor list info ...
  update every 1 steps, delay 10 steps, check yes
  max neighbors/atom: 2000, page size: 100000
  master list distance cutoff = 2.4
  ghost atom cutoff = 2.4
  binsize = 1.2, bins = 67 67 134
  1 neighbor lists, perpetual/occasional/extra = 1 0 0
  (1) pair lj/smooth/linear, perpetual
      attributes: half, newton on
      pair build: half/bin/newton
      stencil: half/bin/3d/newton
      bin: standard
 rebalancing time: 0.009 seconds
  iteration count = 5
  initial/final maximal load/proc = 3888.0000 2808.0000
  initial/final imbalance factor  = 1.7002102 1.2279296
  x cuts: 0.0000000 0.16666667 0.33333333 0.50000000 0.66666667 0.83333333 1.0000000
  y cuts: 0.0000000 0.25000000 0.50000000 0.75000000 1.0000000
  z cuts: 0.0000000 0.089843750 0.17578125 0.25390625 0.33593750 0.41406250 0.50390625 0.58203125 1.0000000
dynamic group thermo defined
New timer settings: style=full  mode=nosync  timeout=off
Setting up Verlet run ...
  Unit style    : lj
  Current step  : 0
  Time step     : 0.005
Per MPI rank memory allocation (min/avg/max) = 9.917 | 9.995 | 10.07 Mbytes
Step Temp E_pair E_vdwl TotEng Press PotEng KinEng Atoms 
       0          0.9   0.22342731   0.22342731    1.5734242    4.6177994   0.22342731    1.3499969   439061 
    1000    1.9377522   -1.8161448   -1.8161448    1.0904768    2.4565299   -1.8161448    2.9066216   439061 
    2000     1.848322   -1.8703695   -1.8703695   0.90210724    1.5799185   -1.8703695    2.7724767   439061 
    3000    1.7045471   -1.8085866   -1.8085866   0.74822823    1.2469683   -1.8085866    2.5568148   439061 
    4000    1.6289461   -1.7889485   -1.7889485   0.65446507    1.0044459   -1.7889485    2.4434136   439061 
    5000    1.5876635   -1.7513571   -1.7513571   0.63013264   0.84491391   -1.7513571    2.3814898   439061 
    6000     1.561856   -1.7039986   -1.7039986   0.63878011   0.80750454   -1.7039986    2.3427787   439061 
    7000    1.5458159   -1.6555293   -1.6555293   0.66318936   0.84045944   -1.6555293    2.3187186   439061 
    8000    1.5374119   -1.6180471   -1.6180471   0.68806552   0.89665389   -1.6180471    2.3061126   439061 
    9000    1.5351927    -1.591057    -1.591057   0.71172688   0.95212764    -1.591057    2.3027839   439061 
   10000    1.5425763   -1.5806825   -1.5806825   0.73317662   0.99256265   -1.5806825    2.3138592   439061 
   11000    1.5480823    -1.567597    -1.567597   0.75452127    1.0166233    -1.567597    2.3221182   439061 
   12000    1.5475353   -1.5477865   -1.5477865   0.77351122   0.97126293   -1.5477865    2.3212977   439061 
   13000    1.5431186   -1.5249482   -1.5249482   0.78972444   0.91767586   -1.5249482    2.3146727   439061 
   14000    1.5461692   -1.5145911   -1.5145911    0.8046574   0.92850114   -1.5145911    2.3192485   439061 
   15000    1.5526866   -1.5122841   -1.5122841    0.8167404   0.93390563   -1.5122841    2.3290245   439061 
   16000    1.5451793   -1.5095795   -1.5095795   0.80818416   0.92145931   -1.5095795    2.3177636   439061 
   17000    1.5157547   -1.5194023   -1.5194023    0.7542246   0.89675812   -1.5194023    2.2736269   439061 
   18000    1.4738095   -1.5395931   -1.5395931   0.67111611   0.91045094   -1.5395931    2.2107092   439061 
   19000    1.4337146   -1.5706204   -1.5706204   0.57994667   0.91508047   -1.5706204     2.150567   439061 
   20000    1.3986249    -1.593721    -1.593721   0.50421167   0.91380131    -1.593721    2.0979326   439061 
   21000    1.3744318   -1.6125828   -1.6125828   0.44906017   0.89834954   -1.6125828     2.061643   439061 
   22000    1.3540511   -1.6180583   -1.6180583   0.41301365   0.87927519   -1.6180583     2.031072   439061 
   23000    1.3401062   -1.6203496   -1.6203496    0.3898051   0.84769121   -1.6203496    2.0101547   439061 
   24000    1.3306933   -1.6197487   -1.6197487   0.37628668   0.81969756   -1.6197487    1.9960354   439061 
   25000    1.3237062   -1.6170772   -1.6170772    0.3684775   0.79460651   -1.6170772    1.9855547   439061 
   26000    1.3168049   -1.6103904   -1.6103904    0.3648125   0.77291956   -1.6103904    1.9752029   439061 
   27000    1.3120078   -1.6026313   -1.6026313   0.36537597    0.7495675   -1.6026313    1.9680073   439061 
   28000    1.3057144   -1.5901877   -1.5901877   0.36837946   0.71510836   -1.5901877    1.9585672   439061 
   29000     1.297612    -1.574236    -1.574236   0.37217757    0.6952557    -1.574236    1.9464136   439061 
   30000    1.2967753   -1.5656713   -1.5656713   0.37948711   0.68174801   -1.5656713    1.9451585   439061 
   31000     1.294369   -1.5552488   -1.5552488   0.38630029   0.68347879   -1.5552488     1.941549   439061 
   32000    1.2955488   -1.5479774   -1.5479774    0.3953414   0.68890378   -1.5479774    1.9433188   439061 
   33000    1.2978205   -1.5421216   -1.5421216   0.40460471   0.69551205   -1.5421216    1.9467263   439061 
   34000    1.2993505   -1.5364378   -1.5364378   0.41258356    0.6983746   -1.5364378    1.9490213   439061 
   35000     1.301647   -1.5312561   -1.5312561   0.42120996   0.70097862   -1.5312561    1.9524661   439061 
   36000    1.3052578    -1.529752    -1.529752    0.4281303   0.69210083    -1.529752    1.9578823   439061 
   37000    1.3055931   -1.5243538   -1.5243538   0.43403134   0.69427737   -1.5243538    1.9583851   439061 
   38000    1.3081733   -1.5225528   -1.5225528   0.43970271   0.70235005   -1.5225528    1.9622555   439061 
   39000    1.3135648   -1.5260251   -1.5260251   0.44431763   0.71815677   -1.5260251    1.9703427   439061 
   40000    1.3134292    -1.533237    -1.533237    0.4369024   0.72151338    -1.533237    1.9701394   439061 
   41000    1.3068821   -1.5429288   -1.5429288   0.41738994   0.72833784   -1.5429288    1.9603187   439061 
   42000    1.2975271   -1.5550093   -1.5550093   0.39127697    0.7353222   -1.5550093    1.9462863   439061 
   43000    1.2881355   -1.5647867   -1.5647867   0.36741215   0.73404384   -1.5647867    1.9321989   439061 
   44000    1.2803772   -1.5734412   -1.5734412   0.34712024   0.73475678   -1.5734412    1.9205615   439061 
   45000    1.2726626   -1.5771179   -1.5771179   0.33187159   0.73007414   -1.5771179    1.9089895   439061 
   46000    1.2698657   -1.5824776   -1.5824776   0.32231656   0.72257134   -1.5824776    1.9047942   439061 
   47000    1.2647742   -1.5834971   -1.5834971   0.31365987    0.7127433   -1.5834971     1.897157   439061 
   48000    1.2600551   -1.5809831   -1.5809831   0.30909522   0.70572595   -1.5809831    1.8900783   439061 
   49000    1.2566582   -1.5797091   -1.5797091   0.30527398   0.70046796   -1.5797091    1.8849831   439061 
   50000    1.2537573   -1.5770927   -1.5770927   0.30353898   0.68588688   -1.5770927    1.8806317   439061 
   51000     1.251194   -1.5723263   -1.5723263   0.30446036    0.6721945   -1.5723263    1.8767867   439061 
   52000    1.2482045   -1.5674079   -1.5674079   0.30489469   0.66494175   -1.5674079    1.8723026   439061 
   53000    1.2468807   -1.5619999   -1.5619999   0.30831694   0.65962138   -1.5619999    1.8703169   439061 
   54000    1.2448566   -1.5572573   -1.5572573   0.31002331   0.65630432   -1.5572573    1.8672806   439061 
   55000    1.2448556   -1.5535075   -1.5535075   0.31377162   0.64981439   -1.5535075    1.8672791   439061 
   56000    1.2447882   -1.5485428   -1.5485428   0.31863531   0.64760451   -1.5485428    1.8671781   439061 
   57000    1.2454791   -1.5457785   -1.5457785   0.32243593   0.64875863   -1.5457785    1.8682144   439061 
   58000     1.247306   -1.5440108   -1.5440108   0.32694404   0.65039457   -1.5440108    1.8709548   439061 
   59000    1.2502358   -1.5429881   -1.5429881   0.33236128   0.64559483   -1.5429881    1.8753494   439061 
   60000    1.2507252   -1.5397656   -1.5397656   0.33631793   0.64970101   -1.5397656    1.8760835   439061 
   61000    1.2522451   -1.5390221   -1.5390221   0.33934127   0.65098153   -1.5390221    1.8783634   439061 
   62000    1.2542794   -1.5403481   -1.5403481    0.3410667   0.65710215   -1.5403481    1.8814148   439061 
   63000    1.2549108   -1.5411477   -1.5411477   0.34121421   0.66834351   -1.5411477    1.8823619   439061 
   64000    1.2559351   -1.5481734   -1.5481734   0.33572496   0.66358326   -1.5481734    1.8838983   439061 
   65000    1.2530737   -1.5526809   -1.5526809    0.3269254   0.66809353   -1.5526809    1.8796063   439061 
   66000    1.2495757   -1.5581512   -1.5581512   0.31620811   0.67809185   -1.5581512    1.8743593   439061 
   67000    1.2455723   -1.5630251   -1.5630251   0.30532913   0.67292831   -1.5630251    1.8683542   439061 
   68000    1.2416729    -1.568168    -1.568168   0.29433707   0.66847955    -1.568168    1.8625051   439061 
   69000    1.2390022   -1.5701401   -1.5701401   0.28835897   0.66995678   -1.5701401    1.8584991   439061 
   70000     1.236835   -1.5736384   -1.5736384    0.2816099   0.66509964   -1.5736384    1.8552483   439061 
   71000    1.2323982   -1.5717821   -1.5717821     0.276811   0.66659657   -1.5717821    1.8485931   439061 
   72000    1.2314284   -1.5737312   -1.5737312   0.27340717   0.65905856   -1.5737312    1.8471384   439061 
   73000    1.2286137   -1.5719907   -1.5719907   0.27092565   0.65736851   -1.5719907    1.8429163   439061 
   74000    1.2258634   -1.5705737   -1.5705737   0.26821722   0.65329806   -1.5705737    1.8387909   439061 
   75000    1.2249332   -1.5696506   -1.5696506   0.26774509   0.64432867   -1.5696506    1.8373956   439061 
   76000     1.222024   -1.5648192   -1.5648192    0.2682127    0.6446851   -1.5648192    1.8330319   439061 
   77000    1.2219309   -1.5640209   -1.5640209   0.26887129   0.63745371   -1.5640209    1.8328922   439061 
   78000    1.2222473   -1.5633371   -1.5633371   0.27002966   0.63456387   -1.5633371    1.8333667   439061 
   79000    1.2208559   -1.5590117   -1.5590117   0.27226801   0.63563547   -1.5590117    1.8312797   439061 
   80000    1.2218145   -1.5599699   -1.5599699   0.27274765   0.62805299   -1.5599699    1.8327176   439061 
   81000    1.2212777   -1.5564567   -1.5564567   0.27545566   0.62606103   -1.5564567    1.8319123   439061 
   82000    1.2198671   -1.5534788   -1.5534788   0.27631766   0.62607756   -1.5534788    1.8297964   439061 
   83000    1.2221256   -1.5540149   -1.5540149   0.27916938   0.62989036   -1.5540149    1.8331843   439061 
   84000    1.2218602   -1.5522334   -1.5522334   0.28055276    0.6310228   -1.5522334    1.8327861   439061 
   85000    1.2220627   -1.5520516   -1.5520516   0.28103826   0.63229242   -1.5520516    1.8330899   439061 
   86000     1.222248   -1.5535692   -1.5535692   0.27979865   0.63397681   -1.5535692    1.8333679   439061 
   87000    1.2224884   -1.5553082   -1.5553082   0.27842024   0.63129912   -1.5553082    1.8337284   439061 
   88000    1.2244359   -1.5585554   -1.5585554   0.27809424   0.63850645   -1.5585554    1.8366496   439061 
   89000    1.2239028    -1.560008    -1.560008   0.27584206   0.64126556    -1.560008      1.83585   439061 
   90000    1.2215996    -1.563223    -1.563223   0.26917219   0.64223584    -1.563223    1.8323952   439061 
   91000    1.2191997   -1.5660045   -1.5660045   0.26279088   0.63855248   -1.5660045    1.8287954   439061 
   92000    1.2171299    -1.567696    -1.567696   0.25799475   0.64289676    -1.567696    1.8256907   439061 
   93000    1.2164318    -1.569877    -1.569877   0.25476649   0.64448177    -1.569877    1.8246435   439061 
   94000    1.2139493   -1.5701002   -1.5701002   0.25081962   0.64063534   -1.5701002    1.8209199   439061 
   95000     1.213044   -1.5719867   -1.5719867   0.24757512   0.63328048   -1.5719867    1.8195618   439061 
   96000     1.211318   -1.5732254   -1.5732254   0.24374753   0.63353347   -1.5732254    1.8169729   439061 
   97000    1.2092948    -1.571964    -1.571964   0.24197412   0.63218561    -1.571964    1.8139381   439061 
   98000    1.2085163   -1.5720518   -1.5720518   0.24071857   0.62534372   -1.5720518    1.8127704   439061 
   99000    1.2054712   -1.5693467   -1.5693467   0.23885589   0.62917859   -1.5693467    1.8082026   439061 
  100000    1.2054208   -1.5696994   -1.5696994   0.23842768   0.62371479   -1.5696994    1.8081271   439061 
  101000    1.2052454   -1.5695936   -1.5695936    0.2382704   0.61901047   -1.5695936     1.807864   439061 
  102000    1.2044809   -1.5667487   -1.5667487   0.23996854   0.62197187   -1.5667487    1.8067172   439061 
  103000    1.2034211   -1.5664584   -1.5664584   0.23866905   0.61671167   -1.5664584    1.8051275   439061 
  104000    1.2023913   -1.5638941   -1.5638941   0.23968876   0.61952681   -1.5638941    1.8035829   439061 
  105000     1.204084   -1.5651316   -1.5651316   0.24099035   0.61160229   -1.5651316     1.806122   439061 
  106000    1.2022782   -1.5621927   -1.5621927   0.24122042   0.61526003   -1.5621927    1.8034131   439061 
  107000    1.2032243   -1.5636295   -1.5636295   0.24120289   0.61278453   -1.5636295    1.8048324   439061 
  108000    1.2024502   -1.5623743   -1.5623743   0.24129693   0.61065505   -1.5623743    1.8036712   439061 
  109000    1.2023607   -1.5615468   -1.5615468    0.2419902   0.61785903   -1.5615468     1.803537   439061 
  110000    1.2049887   -1.5644352   -1.5644352    0.2430438   0.61422854   -1.5644352     1.807479   439061 
  111000    1.2037708   -1.5639043   -1.5639043   0.24174768   0.61242648   -1.5639043     1.805652   439061 
  112000    1.2027795   -1.5638588   -1.5638588   0.24030637   0.61764468   -1.5638588    1.8041652   439061 
  113000    1.2026726   -1.5658821   -1.5658821   0.23812272   0.61947846   -1.5658821    1.8040048   439061 
  114000     1.201837   -1.5662139   -1.5662139   0.23653743   0.62032277   -1.5662139    1.8027514   439061 
  115000    1.2015356   -1.5700795   -1.5700795   0.23221976   0.61550236   -1.5700795    1.8022993   439061 
  116000    1.2001701   -1.5702645   -1.5702645   0.22998662   0.62165312   -1.5702645    1.8002511   439061 
  117000    1.1984614   -1.5706172   -1.5706172   0.22707082   0.61837577   -1.5706172     1.797688   439061 
  118000    1.1974786   -1.5724757   -1.5724757   0.22373815   0.61515059   -1.5724757    1.7962138   439061 
  119000    1.1953327   -1.5721392   -1.5721392   0.22085568    0.6185144   -1.5721392    1.7929949   439061 
  120000    1.1937402   -1.5732939   -1.5732939   0.21731226   0.61587195   -1.5732939    1.7906062   439061 
  121000    1.1939152    -1.574484    -1.574484   0.21638479   0.61460195    -1.574484    1.7908688   439061 
  122000    1.1938834   -1.5747793   -1.5747793   0.21604172   0.60882503   -1.5747793     1.790821   439061 
  123000    1.1914549   -1.5721872   -1.5721872   0.21499106    0.6126968   -1.5721872    1.7871783   439061 
  124000    1.1901716   -1.5706503   -1.5706503   0.21460298   0.61354915   -1.5706503    1.7852533   439061 
  125000    1.1912106   -1.5731828   -1.5731828   0.21362901   0.60494374   -1.5731828    1.7868118   439061 
  126000    1.1891022   -1.5711534   -1.5711534   0.21249591   0.60661023   -1.5711534    1.7836493   439061 
  127000    1.1886342   -1.5701515   -1.5701515   0.21279581    0.6044285   -1.5701515    1.7829473   439061 
  128000    1.1872466   -1.5692527   -1.5692527   0.21161316   0.60636606   -1.5692527    1.7808658   439061 
  129000    1.1883656   -1.5697851   -1.5697851   0.21275927   0.60220698   -1.5697851    1.7825443   439061 
  130000    1.1886515   -1.5697148   -1.5697148   0.21325839   0.60275538   -1.5697148    1.7829732   439061 
  131000    1.1894616   -1.5723429   -1.5723429   0.21184541   0.59576334   -1.5723429    1.7841883   439061 
  132000    1.1885961   -1.5714091   -1.5714091   0.21148105   0.60020511   -1.5714091    1.7828901   439061 
  133000    1.1875395   -1.5696108   -1.5696108   0.21169445   0.60344124   -1.5696108    1.7813052   439061 
  134000     1.187927   -1.5711015   -1.5711015    0.2107849    0.5966292   -1.5711015    1.7818864   439061 
  135000    1.1880053   -1.5715563   -1.5715563   0.21044766   0.59907495   -1.5715563    1.7820039   439061 
  136000    1.1863081   -1.5697828   -1.5697828   0.20967519   0.60154108   -1.5697828     1.779458   439061 
  137000     1.187131   -1.5717026   -1.5717026   0.20898992   0.60020652   -1.5717026    1.7806925   439061 
  138000     1.187504   -1.5731946   -1.5731946   0.20805738   0.60207785   -1.5731946     1.781252   439061 
  139000    1.1878814    -1.574309    -1.574309   0.20750907   0.60256604    -1.574309     1.781818   439061 
  140000    1.1859546   -1.5735086   -1.5735086   0.20541922   0.60184722   -1.5735086    1.7789279   439061 
  141000    1.1846136   -1.5730288   -1.5730288   0.20388754   0.60623556   -1.5730288    1.7769163   439061 
  142000    1.1838343   -1.5740515   -1.5740515   0.20169589   0.60276194   -1.5740515    1.7757474   439061 
  143000    1.1844815   -1.5779247   -1.5779247   0.19879349   0.59818372   -1.5779247    1.7767182   439061 
  144000    1.1824299   -1.5765585   -1.5765585   0.19708228   0.59925184   -1.5765585    1.7736408   439061 
  145000    1.1817004   -1.5775902   -1.5775902   0.19495637   0.59780277   -1.5775902    1.7725466   439061 
  146000    1.1804184   -1.5763957   -1.5763957   0.19422782   0.59642574   -1.5763957    1.7706235   439061 
  147000    1.1795514   -1.5761589   -1.5761589   0.19316415   0.59480488   -1.5761589    1.7693231   439061 
  148000    1.1787314   -1.5758703   -1.5758703   0.19222267   0.59400371   -1.5758703     1.768093   439061 
  149000    1.1789694   -1.5743474   -1.5743474   0.19410267   0.60080891   -1.5743474    1.7684501   439061 
  150000    1.1778436   -1.5734443   -1.5734443   0.19331718   0.59750311   -1.5734443    1.7667614   439061 
  151000    1.1769523   -1.5737603   -1.5737603   0.19166408   0.59305275   -1.5737603    1.7654244   439061 
  152000    1.1773912    -1.573917    -1.573917    0.1921657   0.59554976    -1.573917    1.7660827   439061 
  153000    1.1767185   -1.5742743   -1.5742743    0.1907995   0.58903205   -1.5742743    1.7650738   439061 
  154000    1.1770239   -1.5739256   -1.5739256   0.19160625   0.58842335   -1.5739256    1.7655318   439061 
  155000    1.1755229   -1.5724004   -1.5724004   0.19087996   0.58990672   -1.5724004    1.7632803   439061 
  156000    1.1762726   -1.5734135   -1.5734135   0.19099136   0.59113675   -1.5734135    1.7644049   439061 
  157000    1.1753398   -1.5720717   -1.5720717   0.19093408   0.59328486   -1.5720717    1.7630057   439061 
  158000    1.1767307   -1.5749351   -1.5749351   0.19015693   0.59080656   -1.5749351     1.765092   439061 
  159000    1.1754921    -1.573354    -1.573354   0.18988017   0.58677794    -1.573354    1.7632342   439061 
  160000    1.1753629   -1.5757145   -1.5757145   0.18732581   0.58842603   -1.5757145    1.7630403   439061 
  161000    1.1738032   -1.5738712   -1.5738712   0.18682951   0.59205091   -1.5738712    1.7607008   439061 
  162000    1.1739649   -1.5746083   -1.5746083   0.18633504   0.59241507   -1.5746083    1.7609433   439061 
  163000    1.1733901   -1.5747323   -1.5747323   0.18534876   0.58775184   -1.5747323    1.7600811   439061 
  164000    1.1728254   -1.5742302   -1.5742302   0.18500387   0.58984811   -1.5742302    1.7592341   439061 
  165000    1.1731955   -1.5758634   -1.5758634   0.18392588   0.59113828   -1.5758634    1.7597893   439061 
  166000    1.1720717   -1.5760467   -1.5760467   0.18205681   0.58896824   -1.5760467    1.7581035   439061 
  167000    1.1716345   -1.5770396   -1.5770396   0.18040813   0.58678987   -1.5770396    1.7574478   439061 
  168000    1.1706093    -1.577246    -1.577246   0.17866395   0.58496171    -1.577246    1.7559099   439061 
  169000    1.1706404   -1.5775155   -1.5775155    0.1784411   0.58806761   -1.5775155    1.7559566   439061 
  170000    1.1709308   -1.5784427   -1.5784427   0.17794958   0.58438803   -1.5784427    1.7563922   439061 
  171000    1.1685851    -1.575733    -1.575733   0.17714062    0.5915303    -1.575733    1.7528737   439061 
  172000    1.1682168   -1.5767828   -1.5767828   0.17553843   0.58502461   -1.5767828    1.7523212   439061 
  173000    1.1690974   -1.5788684   -1.5788684    0.1747737   0.58138565   -1.5788684    1.7536421   439061 
  174000    1.1673705   -1.5770411   -1.5770411   0.17401062   0.58090774   -1.5770411    1.7510517   439061 
  175000    1.1673993   -1.5778642   -1.5778642   0.17323073   0.58075723   -1.5778642    1.7510949   439061 
  176000     1.165825   -1.5768505   -1.5768505   0.17188307   0.58123409   -1.5768505    1.7487335   439061 
  177000    1.1657128   -1.5768392   -1.5768392   0.17172599   0.58094121   -1.5768392    1.7485652   439061 
  178000    1.1664069   -1.5781428   -1.5781428   0.17146364   0.57986878   -1.5781428    1.7496064   439061 
  179000    1.1654009   -1.5774158   -1.5774158   0.17068159   0.58150449   -1.5774158    1.7480974   439061 
  180000    1.1657916   -1.5776433   -1.5776433   0.17104009   0.58034928   -1.5776433    1.7486833   439061 
  181000    1.1661713   -1.5779392   -1.5779392   0.17131388   0.58153367   -1.5779392     1.749253   439061 
  182000    1.1663171   -1.5782672   -1.5782672   0.17120437    0.5818535   -1.5782672    1.7494716   439061 
  183000    1.1646786   -1.5765966   -1.5765966   0.17041728    0.5785459   -1.5765966    1.7470139   439061 
  184000    1.1637225   -1.5773045   -1.5773045   0.16827524   0.57667186   -1.5773045    1.7455797   439061 
  185000     1.164571   -1.5788151   -1.5788151   0.16803745   0.57195413   -1.5788151    1.7468525   439061 
  186000    1.1627204   -1.5771979   -1.5771979   0.16687876    0.5767322   -1.5771979    1.7440766   439061 
  187000    1.1630716   -1.5789802   -1.5789802   0.16562322   0.57658776   -1.5789802    1.7446034   439061 
  188000    1.1622862   -1.5797138   -1.5797138    0.1637116    0.5709178   -1.5797138    1.7434254   439061 
  189000    1.1611435   -1.5783166   -1.5783166   0.16339475   0.57928557   -1.5783166    1.7417113   439061 
  190000    1.1616862   -1.5796812   -1.5796812   0.16284422   0.57383411   -1.5796812    1.7425254   439061 
  191000    1.1601739   -1.5795323   -1.5795323   0.16072465   0.57603203   -1.5795323    1.7402569   439061 
  192000    1.1585203   -1.5796504   -1.5796504   0.15812612   0.57415633   -1.5796504    1.7377765   439061 
  193000    1.1597938   -1.5818544   -1.5818544   0.15783222    0.5714134   -1.5818544    1.7396867   439061 
  194000    1.1595506   -1.5826468   -1.5826468    0.1566752   0.57283082   -1.5826468     1.739322   439061 
  195000    1.1588857   -1.5818679   -1.5818679   0.15645667   0.57186315   -1.5818679    1.7383246   439061 
  196000    1.1580678    -1.581422    -1.581422   0.15567571   0.57592961    -1.581422    1.7370977   439061 
  197000    1.1574821   -1.5815969   -1.5815969   0.15462226   0.56858506   -1.5815969    1.7362192   439061 
  198000    1.1569995   -1.5810227   -1.5810227   0.15447253   0.57555701   -1.5810227    1.7354953   439061 
  199000    1.1573037   -1.5815907   -1.5815907   0.15436086   0.57559678   -1.5815907    1.7359516   439061 
  200000      1.15644   -1.5813339   -1.5813339   0.15332217   0.57425475   -1.5813339    1.7346561   439061 
  201000    1.1561557   -1.5808905   -1.5808905   0.15333902   0.57264031   -1.5808905    1.7342295   439061 
  202000    1.1554274   -1.5814438   -1.5814438   0.15169335   0.57158143   -1.5814438    1.7331371   439061 
  203000    1.1554297   -1.5811014   -1.5811014   0.15203924   0.56912698   -1.5811014    1.7331406   439061 
  204000    1.1550548   -1.5812796   -1.5812796   0.15129863   0.56531329   -1.5812796    1.7325782   439061 
  205000    1.1542718     -1.58071     -1.58071   0.15069367   0.56711852     -1.58071    1.7314037   439061 
  206000    1.1541561     -1.58101     -1.58101   0.15022016   0.56816362     -1.58101    1.7312302   439061 
  207000    1.1534622   -1.5808536   -1.5808536   0.14933573   0.56781394   -1.5808536    1.7301893   439061 
  208000    1.1524248   -1.5799072   -1.5799072   0.14872599   0.57059265   -1.5799072    1.7286332   439061 
  209000    1.1539314   -1.5824436   -1.5824436   0.14844954   0.56369564   -1.5824436    1.7308931   439061 
  210000    1.1529917   -1.5824423   -1.5824423   0.14704135   0.56403366   -1.5824423    1.7294837   439061 
  211000    1.1523289   -1.5827503   -1.5827503     0.145739   0.55881884   -1.5827503    1.7284893   439061 
  212000    1.1511277   -1.5813649   -1.5813649   0.14532268   0.56359572   -1.5813649    1.7266876   439061 
  213000    1.1517072   -1.5832216   -1.5832216   0.14433523   0.56063483   -1.5832216    1.7275568   439061 
  214000    1.1492098   -1.5815179   -1.5815179   0.14229298   0.56382582   -1.5815179    1.7238108   439061 
  215000    1.1484157   -1.5818412   -1.5818412   0.14077838   0.56489519   -1.5818412    1.7226196   439061 
  216000    1.1507009   -1.5841765   -1.5841765   0.14187096   0.56244014   -1.5841765    1.7260474   439061 
  217000    1.1493717   -1.5829247   -1.5829247     0.141129   0.56535415   -1.5829247    1.7240537   439061 
  218000    1.1496288   -1.5839132   -1.5839132   0.14052611   0.56461843   -1.5839132    1.7244393   439061 
  219000    1.1488529   -1.5839895   -1.5839895   0.13928595   0.55781371   -1.5839895    1.7232755   439061 
  220000    1.1487966   -1.5831501   -1.5831501   0.14004091   0.56296392   -1.5831501     1.723191   439061 
  221000    1.1478017   -1.5839015   -1.5839015   0.13779711    0.5645746   -1.5839015    1.7216986   439061 
  222000    1.1478992   -1.5839202   -1.5839202   0.13792467   0.56502536   -1.5839202    1.7218449   439061 
  223000    1.1475195   -1.5845337   -1.5845337   0.13674164   0.56244615   -1.5845337    1.7212753   439061 
  224000    1.1473108   -1.5847507   -1.5847507   0.13621152   0.56029568   -1.5847507    1.7209622   439061 
  225000    1.1451496    -1.582761    -1.582761   0.13495938   0.56656208    -1.582761    1.7177204   439061 
  226000    1.1449347   -1.5837083   -1.5837083   0.13368978   0.56240994   -1.5837083    1.7173981   439061 
  227000    1.1457635   -1.5840913   -1.5840913   0.13454994   0.56143755   -1.5840913    1.7186413   439061 
  228000    1.1448093   -1.5837874   -1.5837874   0.13342266   0.55895516   -1.5837874    1.7172101   439061 
  229000    1.1442899   -1.5852835   -1.5852835   0.13114746   0.55509885   -1.5852835     1.716431   439061 
  230000    1.1431412   -1.5837361   -1.5837361   0.13097187   0.55814302   -1.5837361     1.714708   439061 
  231000    1.1445508   -1.5851481   -1.5851481   0.13167415   0.55113209   -1.5851481    1.7168223   439061 
  232000    1.1434735   -1.5824314   -1.5824314   0.13277502   0.56171259   -1.5824314    1.7152064   439061 
  233000    1.1440401   -1.5833661   -1.5833661   0.13269013   0.55699045   -1.5833661    1.7160562   439061 
  234000    1.1429544   -1.5827538   -1.5827538   0.13167383   0.55538618   -1.5827538    1.7144277   439061 
  235000    1.1433802    -1.583277    -1.583277   0.13178932   0.55434433    -1.583277    1.7150663   439061 
  236000    1.1434811   -1.5837416   -1.5837416   0.13147616   0.55500206   -1.5837416    1.7152178   439061 
  237000    1.1421962   -1.5815818   -1.5815818   0.13170855   0.55897463   -1.5815818    1.7132904   439061 
  238000    1.1442538   -1.5840949   -1.5840949   0.13228195   0.55477747   -1.5840949    1.7163768   439061 
  239000    1.1411662   -1.5822646   -1.5822646   0.12948078   0.55845553   -1.5822646    1.7117454   439061 
  240000     1.141163    -1.584002    -1.584002   0.12773856   0.55181627    -1.584002    1.7117406   439061 
  241000     1.140646   -1.5844701   -1.5844701   0.12649501   0.55597794   -1.5844701    1.7109651   439061 
  242000    1.1398967   -1.5828217   -1.5828217   0.12701941   0.55650396   -1.5828217    1.7098411   439061 
  243000    1.1395176    -1.583983    -1.583983   0.12528947   0.55419262    -1.583983    1.7092725   439061 
  244000    1.1403243   -1.5847535   -1.5847535   0.12572909   0.55675878   -1.5847535    1.7104826   439061 
  245000    1.1403192   -1.5846001   -1.5846001   0.12587477   0.55200486   -1.5846001    1.7104749   439061 
  246000     1.139634   -1.5844496   -1.5844496    0.1249975   0.55546262   -1.5844496    1.7094471   439061 
  247000    1.1390985   -1.5842158   -1.5842158   0.12442816   0.55715312   -1.5842158    1.7086439   439061 
  248000    1.1381791   -1.5845187   -1.5845187   0.12274608   0.55380844   -1.5845187    1.7072648   439061 
  249000    1.1380843   -1.5853402   -1.5853402    0.1217823   0.54925939   -1.5853402    1.7071225   439061 
  250000    1.1371729   -1.5856658   -1.5856658    0.1200897   0.54679684   -1.5856658    1.7057555   439061 
  251000    1.1362617   -1.5845086   -1.5845086   0.11988011   0.54942103   -1.5845086    1.7043887   439061 
  252000    1.1366984   -1.5846055   -1.5846055   0.12043826   0.55111538   -1.5846055    1.7050437   439061 
  253000    1.1370395   -1.5848027   -1.5848027   0.12075274   0.55053425   -1.5848027    1.7055554   439061 
  254000    1.1375152   -1.5850816   -1.5850816   0.12118732   0.55015991   -1.5850816    1.7062689   439061 
  255000    1.1356795    -1.585293    -1.585293   0.11822241   0.54940268    -1.585293    1.7035154   439061 
  256000    1.1361831   -1.5857909   -1.5857909   0.11847977   0.54734905   -1.5857909    1.7042707   439061 
  257000    1.1357476    -1.585099    -1.585099   0.11851853   0.54914063    -1.585099    1.7036175   439061 
  258000     1.135247   -1.5844677   -1.5844677    0.1183989   0.54833676   -1.5844677    1.7028666   439061 
  259000    1.1347417   -1.5846433   -1.5846433   0.11746537   0.55076769   -1.5846433    1.7021087   439061 
  260000    1.1335848   -1.5832649   -1.5832649   0.11710853   0.54791091   -1.5832649    1.7003734   439061 
  261000    1.1331553   -1.5834802   -1.5834802   0.11624893   0.54866129   -1.5834802    1.6997292   439061 
  262000     1.134394   -1.5849346   -1.5849346   0.11665251   0.54611968   -1.5849346    1.7015871   439061 
  263000    1.1332051   -1.5842059   -1.5842059   0.11559777   0.54683268   -1.5842059    1.6998037   439061 
  264000    1.1322267   -1.5839154   -1.5839154   0.11442074   0.54952581   -1.5839154    1.6983362   439061 
  265000    1.1318366   -1.5844516   -1.5844516   0.11329949   0.54579868   -1.5844516     1.697751   439061 
  266000    1.1319843   -1.5855487   -1.5855487   0.11242383   0.54612663   -1.5855487    1.6979726   439061 
  267000    1.1328857   -1.5868012   -1.5868012   0.11252351   0.54405663   -1.5868012    1.6993247   439061 
  268000    1.1313989   -1.5859335   -1.5859335   0.11116102   0.54280994   -1.5859335    1.6970945   439061 
  269000    1.1317624   -1.5855267   -1.5855267     0.112113   0.54275134   -1.5855267    1.6976397   439061 
  270000    1.1322744   -1.5857436   -1.5857436   0.11266404   0.54534427   -1.5857436    1.6984077   439061 
  271000     1.130952   -1.5863543   -1.5863543   0.11006977   0.54400169   -1.5863543    1.6964241   439061 
  272000    1.1318374   -1.5864536   -1.5864536   0.11129863   0.54659496   -1.5864536    1.6977522   439061 
  273000     1.130897   -1.5851234   -1.5851234   0.11121828   0.54925949   -1.5851234    1.6963417   439061 
  274000    1.1299307   -1.5852123   -1.5852123   0.10967996   0.54406747   -1.5852123    1.6948922   439061 
  275000    1.1295178   -1.5853615   -1.5853615   0.10891126   0.54565378   -1.5853615    1.6942728   439061 
  276000    1.1309604   -1.5878113   -1.5878113   0.10862545   0.54283167   -1.5878113    1.6964367   439061 
  277000    1.1297917   -1.5862943   -1.5862943   0.10838945    0.5417871   -1.5862943    1.6946837   439061 
  278000    1.1288012   -1.5867093   -1.5867093   0.10648865   0.53723812   -1.5867093     1.693198   439061 
  279000    1.1266006   -1.5857793   -1.5857793   0.10411776   0.54520971   -1.5857793    1.6898971   439061 
  280000    1.1267089   -1.5865492   -1.5865492   0.10351025    0.5431533   -1.5865492    1.6900594   439061 
  281000    1.1265438   -1.5872682   -1.5872682   0.10254366   0.54064289   -1.5872682    1.6898119   439061 
  282000    1.1258309   -1.5862406   -1.5862406   0.10250199   0.53940289   -1.5862406    1.6887426   439061 
  283000    1.1262497   -1.5864679   -1.5864679   0.10290284   0.54142946   -1.5864679    1.6893708   439061 
  284000    1.1262163   -1.5859442   -1.5859442   0.10337649   0.53919182   -1.5859442    1.6893207   439061 
  285000    1.1266218   -1.5883158   -1.5883158   0.10161309   0.53569909   -1.5883158    1.6899288   439061 
  286000     1.124581   -1.5857377   -1.5857377    0.1011299   0.54221553   -1.5857377    1.6868676   439061 
  287000    1.1235909   -1.5847947   -1.5847947   0.10058779   0.54000462   -1.5847947    1.6853825   439061 
  288000    1.1254801    -1.587954    -1.587954   0.10026221   0.53914761    -1.587954    1.6882163   439061 
  289000    1.1244416   -1.5862607   -1.5862607   0.10039784   0.54128023   -1.5862607    1.6866585   439061 
  290000    1.1260958   -1.5885875   -1.5885875   0.10055242   0.53819126   -1.5885875    1.6891399   439061 
  291000    1.1250843   -1.5870386   -1.5870386   0.10058398   0.53495135   -1.5870386    1.6876226   439061 
  292000    1.1239087   -1.5873736   -1.5873736  0.098485571   0.53771597   -1.5873736    1.6858592   439061 
  293000    1.1236478   -1.5867828   -1.5867828  0.098684975   0.53465344   -1.5867828    1.6854678   439061 
  294000    1.1237598   -1.5868706   -1.5868706  0.098765281   0.53811716   -1.5868706    1.6856359   439061 
  295000    1.1236183   -1.5872352   -1.5872352  0.098188321   0.53581016   -1.5872352    1.6854235   439061 
  296000     1.124288   -1.5882054   -1.5882054    0.0982228   0.53683481   -1.5882054    1.6864282   439061 
  297000    1.1225422   -1.5871998   -1.5871998   0.09660972   0.53269171   -1.5871998    1.6838095   439061 
  298000    1.1229147   -1.5883633   -1.5883633  0.096004923    0.5347008   -1.5883633    1.6843682   439061 
  299000    1.1229089     -1.58825     -1.58825   0.09610953   0.53651602     -1.58825    1.6843596   439061 
  300000     1.121693   -1.5882094   -1.5882094  0.094326212   0.53224286   -1.5882094    1.6825356   439061 
  301000    1.1214088   -1.5899166   -1.5899166  0.092192802   0.53293518   -1.5899166    1.6821094   439061 
  302000    1.1216345   -1.5879564   -1.5879564    0.0944914    0.5355641   -1.5879564    1.6824478   439061 
  303000    1.1214315   -1.5890562   -1.5890562  0.093087178   0.53143984   -1.5890562    1.6821434   439061 
  304000     1.120064   -1.5882384   -1.5882384  0.091853749   0.53261703   -1.5882384    1.6800921   439061 
  305000    1.1206747     -1.58855     -1.58855  0.092458333   0.53257373     -1.58855    1.6810083   439061 
  306000    1.1197702   -1.5875055   -1.5875055  0.092145953   0.52952122   -1.5875055    1.6796515   439061 
  307000    1.1210939   -1.5891108   -1.5891108   0.09252617   0.52769728   -1.5891108     1.681637   439061 
  308000    1.1202926   -1.5886763   -1.5886763  0.091758843   0.53204354   -1.5886763    1.6804351   439061 
  309000    1.1191316     -1.58833     -1.58833  0.090363602   0.53021396     -1.58833    1.6786936   439061 
  310000    1.1181878   -1.5871782   -1.5871782  0.090099621   0.53199784   -1.5871782    1.6772778   439061 
  311000    1.1176289   -1.5877672   -1.5877672  0.088672221   0.53050593   -1.5877672    1.6764395   439061 
  312000    1.1183036   -1.5877739   -1.5877739  0.089677727   0.52997052   -1.5877739    1.6774516   439061 
  313000    1.1174561   -1.5866659   -1.5866659   0.08951439   0.53506905   -1.5866659    1.6761803   439061 
  314000    1.1183517   -1.5882604   -1.5882604  0.089263263    0.5293835   -1.5882604    1.6775237   439061 
  315000    1.1174856   -1.5871468   -1.5871468  0.089077804   0.53195307   -1.5871468    1.6762246   439061 
  316000    1.1165835   -1.5863882   -1.5863882   0.08848318   0.53442651   -1.5863882    1.6748714   439061 
  317000     1.117062   -1.5883006   -1.5883006  0.087288597   0.53023641   -1.5883006    1.6755892   439061 
  318000    1.1172825   -1.5885826   -1.5885826  0.087337367   0.52756286   -1.5885826      1.67592   439061 
  319000    1.1166252   -1.5877036   -1.5877036  0.087230484   0.52872624   -1.5877036     1.674934   439061 
  320000    1.1156187    -1.587473    -1.587473  0.085951262   0.52890933    -1.587473    1.6734243   439061 
  321000    1.1157088   -1.5883322   -1.5883322  0.085227275    0.5262017   -1.5883322    1.6735594   439061 
  322000    1.1159852    -1.588052    -1.588052  0.085921956   0.52519217    -1.588052    1.6739739   439061 
  323000      1.11622   -1.5892198   -1.5892198  0.085106403   0.52149019   -1.5892198    1.6743262   439061 
  324000    1.1133004    -1.586089    -1.586089  0.083857725   0.53272015    -1.586089    1.6699468   439061 
  325000    1.1144572    -1.587427    -1.587427  0.084254931   0.52933012    -1.587427    1.6716819   439061 
  326000    1.1142445   -1.5879526   -1.5879526  0.083410401   0.52374943   -1.5879526     1.671363   439061 
  327000    1.1138892   -1.5882455   -1.5882455  0.082584501    0.5254285   -1.5882455      1.67083   439061 
  328000    1.1134665    -1.588418    -1.588418  0.081777984   0.52396878    -1.588418     1.670196   439061 
  329000    1.1127663   -1.5870908   -1.5870908  0.082054851   0.52537939   -1.5870908    1.6691457   439061 
  330000    1.1129581   -1.5874948   -1.5874948  0.081938504   0.52806341   -1.5874948    1.6694333   439061 
  331000    1.1127047   -1.5880333   -1.5880333  0.081019981   0.52708617   -1.5880333    1.6690532   439061 
  332000    1.1126519   -1.5878033   -1.5878033  0.081170816   0.52924072   -1.5878033    1.6689741   439061 
  333000    1.1131434   -1.5890463   -1.5890463  0.080664955   0.52486547   -1.5890463    1.6697113   439061 
  334000    1.1105936   -1.5849942   -1.5849942  0.080892315   0.52867672   -1.5849942    1.6658865   439061 
  335000    1.1114204   -1.5878481   -1.5878481  0.079278618   0.52749427   -1.5878481    1.6671267   439061 
  336000    1.1117274   -1.5888999   -1.5888999  0.078687423   0.52270629   -1.5888999    1.6675873   439061 
  337000    1.1114177   -1.5890145   -1.5890145  0.078108247   0.51840558   -1.5890145    1.6671228   439061 
  338000    1.1113218   -1.5896774   -1.5896774  0.077301452    0.5185961   -1.5896774    1.6669788   439061 
  339000    1.1112448   -1.5897323   -1.5897323  0.077131067   0.52310804   -1.5897323    1.6668634   439061 
  340000    1.1099689   -1.5890737   -1.5890737  0.075875838   0.52172565   -1.5890737    1.6649495   439061 
  341000    1.1099036   -1.5900459   -1.5900459   0.07480568   0.51894613   -1.5900459    1.6648516   439061 
  342000    1.1093408   -1.5888624   -1.5888624  0.075145042   0.52523552   -1.5888624    1.6640075   439061 
  343000    1.1102782   -1.5902411   -1.5902411  0.075172399    0.5144071   -1.5902411    1.6654135   439061 
  344000      1.10919   -1.5890519   -1.5890519  0.074729418   0.52396631   -1.5890519    1.6637813   439061 
  345000    1.1081619   -1.5896022   -1.5896022   0.07263688   0.51696156   -1.5896022    1.6622391   439061 
  346000    1.1094974   -1.5908313   -1.5908313  0.073410981   0.52124984   -1.5908313    1.6642422   439061 
  347000    1.1083967   -1.5891744   -1.5891744  0.073416799     0.522563   -1.5891744    1.6625912   439061 
  348000     1.107616   -1.5883207   -1.5883207  0.073099471   0.52516411   -1.5883207    1.6614202   439061 
  349000    1.1075261   -1.5884242   -1.5884242   0.07286123   0.52027771   -1.5884242    1.6612854   439061 
  350000    1.1091127   -1.5908662   -1.5908662  0.072799154   0.51545093   -1.5908662    1.6636653   439061 
  351000    1.1079159   -1.5895434   -1.5895434  0.072326616   0.51949594   -1.5895434      1.66187   439061 
  352000    1.1072491   -1.5892426   -1.5892426  0.071627294   0.51939441   -1.5892426    1.6608699   439061 
  353000    1.1069664   -1.5881576   -1.5881576  0.072288283   0.52431359   -1.5881576    1.6604459   439061 
  354000    1.1070958   -1.5892073   -1.5892073  0.071432576   0.51693518   -1.5892073    1.6606399   439061 
  355000    1.1065607   -1.5896147   -1.5896147  0.070222521   0.51880604   -1.5896147    1.6598372   439061 
  356000    1.1053148    -1.589152    -1.589152   0.06881639   0.51598606    -1.589152    1.6579684   439061 
  357000    1.1057126   -1.5904787   -1.5904787   0.06808653   0.52032334   -1.5904787    1.6585652   439061 
  358000    1.1055598   -1.5898603   -1.5898603   0.06847564    0.5178232   -1.5898603    1.6583359   439061 
  359000    1.1063607   -1.5914394   -1.5914394  0.068097964   0.51478109   -1.5914394    1.6595373   439061 
  360000    1.1064518   -1.5912635   -1.5912635  0.068410347   0.51690365   -1.5912635    1.6596739   439061 
  361000    1.1036292   -1.5877746   -1.5877746  0.067665357   0.52113132   -1.5877746      1.65544   439061 
  362000    1.1051839   -1.5903462   -1.5903462  0.067425807   0.51386442   -1.5903462     1.657772   439061 
  363000     1.103811   -1.5893998   -1.5893998  0.066312953   0.51771038   -1.5893998    1.6557128   439061 
  364000    1.1036056   -1.5888272   -1.5888272  0.066577502   0.51471192   -1.5888272    1.6554047   439061 
  365000    1.1048855   -1.5900423   -1.5900423   0.06728215   0.51598501   -1.5900423    1.6573244   439061 
  366000    1.1071621   -1.5916406   -1.5916406  0.069098774   0.51558827   -1.5916406    1.6607393   439061 
  367000    1.1045798   -1.5896601   -1.5896601  0.067205804   0.51372952   -1.5896601    1.6568659   439061 
  368000     1.102996   -1.5891541   -1.5891541  0.065336233    0.5137735   -1.5891541    1.6544903   439061 
  369000    1.1030685   -1.5896469   -1.5896469  0.064952033    0.5101271   -1.5896469    1.6545989   439061 
  370000    1.1031867   -1.5884753   -1.5884753   0.06630098   0.51960263   -1.5884753    1.6547763   439061 
  371000    1.1026909   -1.5888413   -1.5888413  0.065191297   0.51670341   -1.5888413    1.6540326   439061 
  372000      1.10256   -1.5895523   -1.5895523  0.064283872   0.51021478   -1.5895523    1.6538362   439061 
  373000    1.1013366   -1.5876152   -1.5876152  0.064385862    0.5144473   -1.5876152    1.6520011   439061 
  374000    1.1015445   -1.5878916   -1.5878916  0.064421391   0.51547865   -1.5878916     1.652313   439061 
  375000    1.1021766   -1.5903196   -1.5903196  0.062941581   0.51241553   -1.5903196    1.6532611   439061 
  376000    1.1008895   -1.5886153   -1.5886153   0.06271517   0.51306115   -1.5886153    1.6513305   439061 
  377000    1.1008118   -1.5891291   -1.5891291  0.062084862   0.51288147   -1.5891291     1.651214   439061 
  378000    1.1009195    -1.589218    -1.589218   0.06215748   0.51252516    -1.589218    1.6513755   439061 
  379000      1.10063   -1.5896447   -1.5896447  0.061296516   0.51213504   -1.5896447    1.6509412   439061 
  380000    1.1014592   -1.5899181   -1.5899181  0.062266931   0.51062831   -1.5899181     1.652185   439061 
  381000    1.1019544    -1.590513    -1.590513  0.062414897   0.51046406    -1.590513    1.6529279   439061 
  382000    1.0999884   -1.5883987   -1.5883987  0.061580142   0.51432346   -1.5883987    1.6499788   439061 
  383000    1.1004342    -1.589736    -1.589736  0.060911545   0.50974471    -1.589736    1.6506476   439061 
  384000    1.0993584   -1.5894628   -1.5894628  0.059571145   0.51196807   -1.5894628    1.6490339   439061 
  385000    1.0977755   -1.5890842   -1.5890842  0.057575381   0.51290916   -1.5890842    1.6466595   439061 
  386000    1.0994561   -1.5915994   -1.5915994  0.057581026   0.50628863   -1.5915994    1.6491804   439061 
  387000    1.0992102   -1.5905627   -1.5905627  0.058248915   0.51268697   -1.5905627    1.6488116   439061 
  388000    1.0982324    -1.590504    -1.590504  0.056840916   0.51275819    -1.590504    1.6473449   439061 
  389000    1.0980934   -1.5916041   -1.5916041  0.055532281   0.50481479   -1.5916041    1.6471364   439061 
  390000    1.0980355   -1.5929072   -1.5929072  0.054142348   0.50420301   -1.5929072    1.6470496   439061 
  391000     1.097234      -1.5916      -1.5916  0.054247137   0.50890985      -1.5916    1.6458472   439061 
  392000    1.0963658   -1.5899307   -1.5899307  0.054614264   0.50636075   -1.5899307    1.6445449   439061 
  393000    1.0970811   -1.5911366   -1.5911366  0.054481258   0.50696805   -1.5911366    1.6456179   439061 
  394000    1.0968547   -1.5916083   -1.5916083  0.053670028     0.504867   -1.5916083    1.6452784   439061 
  395000      1.09585   -1.5906586   -1.5906586  0.053112696    0.5069573   -1.5906586    1.6437713   439061 
  396000    1.0960642   -1.5900968   -1.5900968  0.053995808   0.50490592   -1.5900968    1.6440926   439061 
  397000    1.0964432   -1.5920226   -1.5920226  0.052638455   0.50710339   -1.5920226     1.644661   439061 
  398000    1.0972241   -1.5908283   -1.5908283  0.055004016   0.50718848   -1.5908283    1.6458323   439061 
  399000    1.0954688   -1.5910403   -1.5910403  0.052159204   0.50320634   -1.5910403    1.6431995   439061 
  400000    1.0946907   -1.5905091   -1.5905091   0.05152314   0.50729465   -1.5905091    1.6420323   439061 
  401000    1.0945234   -1.5897868   -1.5897868  0.051994598   0.50693451   -1.5897868    1.6417814   439061 
  402000    1.0950416   -1.5910036   -1.5910036  0.051555008   0.50456579   -1.5910036    1.6425586   439061 
  403000    1.0941847   -1.5905211   -1.5905211  0.050752263   0.50881803   -1.5905211    1.6412734   439061 
  404000    1.0927982   -1.5896831   -1.5896831  0.049510513   0.50475484   -1.5896831    1.6391936   439061 
  405000    1.0941794   -1.5915272   -1.5915272  0.049738214   0.50261412   -1.5915272    1.6412654   439061 
  406000     1.094173   -1.5916246   -1.5916246  0.049631219    0.5045699   -1.5916246    1.6412558   439061 
  407000    1.0937414   -1.5912831   -1.5912831  0.049325273    0.5009156   -1.5912831    1.6406084   439061 
  408000    1.0939808   -1.5908232   -1.5908232  0.050144291   0.50616942   -1.5908232    1.6409675   439061 
  409000    1.0933088    -1.590197    -1.590197  0.049762476   0.50390718    -1.590197    1.6399594   439061 
  410000    1.0935057   -1.5914073   -1.5914073  0.048847488   0.50260686   -1.5914073    1.6402548   439061 
  411000    1.0935402   -1.5917616   -1.5917616  0.048544971   0.50146162   -1.5917616    1.6403066   439061 
  412000    1.0925266   -1.5908617   -1.5908617  0.047924478   0.49808659   -1.5908617    1.6387861   439061 
  413000    1.0926388   -1.5907856   -1.5907856  0.048168955   0.50167511   -1.5907856    1.6389545   439061 
  414000    1.0919165   -1.5899086   -1.5899086  0.047962397    0.5024483   -1.5899086     1.637871   439061 
  415000    1.0916299   -1.5911421   -1.5911421  0.046299029   0.50188845   -1.5911421    1.6374412   439061 
  416000    1.0908774   -1.5905433   -1.5905433  0.045769174   0.50475115   -1.5905433    1.6363124   439061 
  417000    1.0919299   -1.5920499   -1.5920499  0.045841215   0.49868482   -1.5920499    1.6378911   439061 
  418000    1.0914409   -1.5914406   -1.5914406  0.045717014   0.49926695   -1.5914406    1.6371576   439061 
  419000    1.0906493   -1.5911837   -1.5911837  0.044786515   0.50155616   -1.5911837    1.6359702   439061 
  420000     1.091171   -1.5913275   -1.5913275   0.04542524   0.50587245   -1.5913275    1.6367527   439061 
  421000    1.0911953   -1.5919995   -1.5919995  0.044789686   0.49594615   -1.5919995    1.6367892   439061 
  422000     1.090919   -1.5919269   -1.5919269  0.044447951   0.50031698   -1.5919269    1.6363748   439061 
  423000    1.0888031   -1.5890778   -1.5890778  0.044123198   0.50340533   -1.5890778     1.633201   439061 
  424000     1.090399   -1.5911892   -1.5911892  0.044405624   0.50248448   -1.5911892    1.6355948   439061 
  425000    1.0898785   -1.5906831   -1.5906831  0.044130886   0.50417736   -1.5906831     1.634814   439061 
  426000    1.0903361   -1.5911235   -1.5911235  0.044376903   0.49629294   -1.5911235    1.6355004   439061 
  427000    1.0903003   -1.5918663   -1.5918663  0.043580408   0.50083272   -1.5918663    1.6354467   439061 
  428000    1.0895836   -1.5897836   -1.5897836  0.044588057   0.50299548   -1.5897836    1.6343717   439061 
  429000    1.0889853   -1.5911838   -1.5911838  0.042290372   0.49667758   -1.5911838    1.6334742   439061 
  430000     1.088948   -1.5915204   -1.5915204  0.041897905   0.49876907   -1.5915204    1.6334183   439061 
  431000    1.0883443   -1.5910736   -1.5910736  0.041439177   0.49415626   -1.5910736    1.6325127   439061 
  432000    1.0891951   -1.5934131   -1.5934131  0.040375849   0.49560262   -1.5934131    1.6337889   439061 
  433000    1.0870105   -1.5920483   -1.5920483  0.038463661    0.4964505   -1.5920483     1.630512   439061 
  434000    1.0870104   -1.5913514   -1.5913514  0.039160564   0.49814324   -1.5913514    1.6305119   439061 
  435000    1.0866953    -1.590378    -1.590378  0.039661278   0.49884951    -1.590378    1.6300393   439061 
  436000    1.0864404   -1.5900702   -1.5900702  0.039586631   0.49854123   -1.5900702    1.6296568   439061 
  437000    1.0844882   -1.5889474   -1.5889474   0.03778111   0.49687042   -1.5889474    1.6267285   439061 
  438000    1.0867494   -1.5929053   -1.5929053  0.037215128   0.49337033   -1.5929053    1.6301204   439061 
  439000    1.0853104   -1.5911063   -1.5911063  0.036855622   0.49696942   -1.5911063     1.627962   439061 
  440000    1.0847957   -1.5904268   -1.5904268  0.036763031   0.49656873   -1.5904268    1.6271898   439061 
  441000    1.0848281   -1.5895143   -1.5895143  0.037724103   0.49908046   -1.5895143    1.6272384   439061 
  442000    1.0853635   -1.5905949   -1.5905949  0.037446639   0.49876916   -1.5905949    1.6280415   439061 
  443000    1.0864779   -1.5915279   -1.5915279  0.038185282   0.49436337   -1.5915279    1.6297132   439061 
  444000    1.0859442   -1.5911351   -1.5911351  0.037777543   0.49940389   -1.5911351    1.6289126   439061 
  445000     1.084979   -1.5916403   -1.5916403   0.03582458   0.49328689   -1.5916403    1.6274648   439061 
  446000    1.0839194   -1.5914177   -1.5914177  0.034457701   0.49948936   -1.5914177    1.6258754   439061 
  447000    1.0856995   -1.5928839   -1.5928839  0.035661599   0.49392949   -1.5928839    1.6285455   439061 
  448000    1.0848073   -1.5918752   -1.5918752   0.03533207   0.49491932   -1.5918752    1.6272073   439061 
  449000    1.0837915   -1.5914615   -1.5914615  0.034222074   0.49898587   -1.5914615    1.6256836   439061 
  450000    1.0851569   -1.5935503   -1.5935503  0.034181337   0.49580972   -1.5935503    1.6277317   439061 
  451000     1.084212   -1.5927943   -1.5927943  0.033520055   0.48981087   -1.5927943    1.6263143   439061 
  452000    1.0834772   -1.5920102   -1.5920102  0.033201844   0.49477564   -1.5920102    1.6252121   439061 
  453000    1.0815889    -1.589875    -1.589875  0.032504595   0.49580231    -1.589875    1.6223796   439061 
  454000     1.083759   -1.5934065   -1.5934065  0.032228378   0.49024205   -1.5934065    1.6256349   439061 
  455000    1.0842072   -1.5932382   -1.5932382  0.033068899   0.48764595   -1.5932382    1.6263071   439061 
  456000    1.0826685   -1.5910579   -1.5910579  0.032941232   0.49337273   -1.5910579    1.6239991   439061 
  457000    1.0828334   -1.5908638   -1.5908638  0.033382697    0.4938144   -1.5908638    1.6242465   439061 
  458000    1.0834887   -1.5916448   -1.5916448  0.033584597   0.49506178   -1.5916448    1.6252294   439061 
  459000    1.0812608   -1.5900356   -1.5900356  0.031851854    0.4946174   -1.5900356    1.6218874   439061 
  460000    1.0822358   -1.5914927   -1.5914927  0.031857388   0.49216083   -1.5914927    1.6233501   439061 
  461000    1.0828759   -1.5927189   -1.5927189  0.031591287   0.48986901   -1.5927189    1.6243102   439061 
  462000    1.0819388   -1.5930564   -1.5930564  0.029848028   0.48976852   -1.5930564    1.6229045   439061 
  463000    1.0810313   -1.5913807   -1.5913807  0.030162527   0.49574819   -1.5913807    1.6215432   439061 
  464000    1.0801916   -1.5903421   -1.5903421  0.029941585     0.493175   -1.5903421    1.6202837   439061 
  465000    1.0804435   -1.5920917   -1.5920917  0.028569786   0.49026749   -1.5920917    1.6206615   439061 
  466000    1.0810201   -1.5921534   -1.5921534  0.029373052   0.48897967   -1.5921534    1.6215265   439061 
  467000    1.0804256   -1.5921649   -1.5921649  0.028469738   0.48969417   -1.5921649    1.6206347   439061 
  468000    1.0798538   -1.5912588   -1.5912588  0.028518264   0.49118418   -1.5912588    1.6197771   439061 
  469000    1.0800665   -1.5919814   -1.5919814  0.028114659   0.49098242   -1.5919814    1.6200961   439061 
  470000    1.0808476   -1.5935186   -1.5935186  0.027749077   0.48688322   -1.5935186    1.6212677   439061 
  471000    1.0796817   -1.5931959   -1.5931959  0.026322896   0.49174379   -1.5931959    1.6195188   439061 
  472000    1.0789576   -1.5906687   -1.5906687  0.027764034   0.49348406   -1.5906687    1.6184327   439061 
  473000    1.0782972   -1.5916371   -1.5916371  0.025804914   0.48986102   -1.5916371    1.6174421   439061 
  474000    1.0804135   -1.5943138   -1.5943138  0.026302705   0.48600686   -1.5943138    1.6206165   439061 
  475000     1.078499   -1.5913139   -1.5913139  0.026430985   0.48893358   -1.5913139    1.6177449   439061 
  476000    1.0795345   -1.5942667   -1.5942667  0.025031341   0.48931977   -1.5942667    1.6192981   439061 
  477000    1.0793086   -1.5927331   -1.5927331  0.026226157   0.48727432   -1.5927331    1.6189592   439061 
  478000     1.078634   -1.5923364   -1.5923364  0.025610976   0.48807927   -1.5923364    1.6179473   439061 
  479000    1.0791707   -1.5933951   -1.5933951  0.025357228   0.48656089   -1.5933951    1.6187524   439061 
  480000    1.0788181   -1.5931783   -1.5931783   0.02504516   0.48869705   -1.5931783    1.6182235   439061 
  481000    1.0777169   -1.5921112   -1.5921112  0.024460486   0.48539476   -1.5921112    1.6165717   439061 
  482000    1.0769176   -1.5924144   -1.5924144  0.022958383   0.48467017   -1.5924144    1.6153728   439061 
  483000    1.0765669    -1.592005    -1.592005  0.022841689   0.48559927    -1.592005    1.6148467   439061 
  484000    1.0766249    -1.592964    -1.592964  0.021969721    0.4848401    -1.592964    1.6149337   439061 
  485000    1.0760782    -1.592302    -1.592302  0.021811673   0.48743969    -1.592302    1.6141137   439061 
  486000    1.0777497   -1.5943164   -1.5943164  0.022304426   0.48673464   -1.5943164    1.6166208   439061 
  487000    1.0773328   -1.5933824   -1.5933824   0.02261309   0.48540703   -1.5933824    1.6159955   439061 
  488000    1.0776447   -1.5938914   -1.5938914  0.022571934   0.48424127   -1.5938914    1.6164634   439061 
  489000    1.0771183   -1.5923426   -1.5923426  0.023331192   0.48320546   -1.5923426    1.6156738   439061 
  490000    1.0761776   -1.5909401   -1.5909401  0.023322593   0.48367669   -1.5909401    1.6142627   439061 
  491000     1.075618   -1.5902827   -1.5902827  0.023140599   0.48608758   -1.5902827    1.6134233   439061 
  492000    1.0761049   -1.5916608   -1.5916608  0.022492889   0.48935103   -1.5916608    1.6141537   439061 
  493000    1.0767596   -1.5925069   -1.5925069  0.022628792   0.48783847   -1.5925069    1.6151357   439061 
  494000    1.0764075   -1.5923898   -1.5923898  0.022217749   0.48440439   -1.5923898    1.6146076   439061 
  495000    1.0760203   -1.5920217   -1.5920217  0.022005103   0.48321979   -1.5920217    1.6140268   439061 
  496000    1.0765354    -1.594302    -1.594302  0.020497498   0.48142244    -1.594302    1.6147995   439061 
  497000    1.0759384   -1.5913922   -1.5913922  0.022511753   0.48703929   -1.5913922    1.6139039   439061 
  498000    1.0745637   -1.5902428   -1.5902428  0.021598998   0.49233582   -1.5902428    1.6118418   439061 
  499000    1.0753113   -1.5931071   -1.5931071   0.01985618    0.4836781   -1.5931071    1.6129633   439061 
  500000    1.0748781   -1.5940702   -1.5940702  0.018243363   0.48640426   -1.5940702    1.6123135   439061 
  501000    1.0737335   -1.5923741   -1.5923741  0.018222598    0.4852183   -1.5923741    1.6105967   439061 
  502000    1.0746475   -1.5933836   -1.5933836  0.018583875   0.48409207   -1.5933836    1.6119675   439061 
  503000    1.0747929   -1.5938227   -1.5938227  0.018363001   0.48293966   -1.5938227    1.6121857   439061 
  504000    1.0727759   -1.5919333   -1.5919333  0.017226821   0.48687655   -1.5919333    1.6091602   439061 
  505000    1.0728284   -1.5935637   -1.5935637  0.015675172   0.48244363   -1.5935637    1.6092389   439061 
  506000    1.0712879   -1.5927022   -1.5927022  0.014225998   0.48371815   -1.5927022    1.6069282   439061 
  507000    1.0714578   -1.5930799   -1.5930799  0.014103151   0.48200906   -1.5930799    1.6071831   439061 
  508000    1.0708842    -1.593446    -1.593446  0.012876718   0.47933153    -1.593446    1.6063227   439061 
  509000    1.0722866   -1.5944252   -1.5944252  0.014001047   0.47888992   -1.5944252    1.6084262   439061 
  510000    1.0718548   -1.5939585   -1.5939585  0.013820017   0.48092808   -1.5939585    1.6077785   439061 
  511000    1.0711137   -1.5928873   -1.5928873  0.013779567   0.48490108   -1.5928873    1.6066668   439061 
  512000    1.0716476   -1.5935164   -1.5935164  0.013951258   0.48025206   -1.5935164    1.6074677   439061 
  513000    1.0709792   -1.5922462   -1.5922462  0.014218955   0.48554174   -1.5922462    1.6064652   439061 
  514000    1.0722617   -1.5943662   -1.5943662  0.014022575   0.47907281   -1.5943662    1.6083888   439061 
  515000    1.0717624   -1.5936026   -1.5936026   0.01403738    0.4807933   -1.5936026      1.60764   439061 
  516000    1.0721299    -1.595038    -1.595038  0.013153101   0.47800072    -1.595038    1.6081911   439061 
  517000    1.0714196   -1.5935696   -1.5935696  0.013556039   0.48346133   -1.5935696    1.6071257   439061 
  518000    1.0715573   -1.5938592   -1.5938592  0.013473059   0.47895927   -1.5938592    1.6073323   439061 
  519000    1.0702692   -1.5920567   -1.5920567  0.013343385   0.48265591   -1.5920567    1.6054001   439061 
  520000    1.0709126   -1.5935372   -1.5935372  0.012828021   0.48351989   -1.5935372    1.6063653   439061 
  521000    1.0695889   -1.5917915   -1.5917915  0.012588145   0.48313685   -1.5917915    1.6043797   439061 
  522000    1.0693805   -1.5929024   -1.5929024  0.011164705   0.47959673   -1.5929024    1.6040671   439061 
  523000    1.0706435   -1.5949981   -1.5949981  0.010963519   0.46953001   -1.5949981    1.6059616   439061 
  524000    1.0683595   -1.5933959   -1.5933959 0.0091397244     0.479175   -1.5933959    1.6025357   439061 
  525000    1.0689847   -1.5940077   -1.5940077 0.0094657364   0.47727042   -1.5940077    1.6034734   439061 
  526000    1.0691757   -1.5945281   -1.5945281 0.0092318063    0.4742565   -1.5945281    1.6037599   439061 
  527000    1.0669726   -1.5921773   -1.5921773   0.00827793   0.48303928   -1.5921773    1.6004552   439061 
  528000    1.0680745   -1.5936316   -1.5936316 0.0084766019   0.47447555   -1.5936316    1.6021082   439061 
  529000    1.0681233   -1.5938494   -1.5938494 0.0083318496   0.47565531   -1.5938494    1.6021813   439061 
  530000    1.0681849   -1.5950846   -1.5950846 0.0071891128   0.47639183   -1.5950846    1.6022737   439061 
  531000    1.0675158   -1.5943687   -1.5943687 0.0069014143   0.47176013   -1.5943687    1.6012701   439061 
  532000    1.0665998   -1.5925481   -1.5925481 0.0073479177   0.47933934   -1.5925481     1.599896   439061 
  533000    1.0680184   -1.5936096   -1.5936096 0.0084143296   0.47839352   -1.5936096    1.6020239   439061 
  534000    1.0693945   -1.5953757   -1.5953757 0.0087122818   0.47634148   -1.5953757     1.604088   439061 
  535000    1.0670553   -1.5936641   -1.5936641 0.0069151652    0.4781322   -1.5936641    1.6005793   439061 
  536000     1.067996   -1.5952529   -1.5952529 0.0067373878   0.47598846   -1.5952529    1.6019903   439061 
  537000    1.0669387   -1.5941592   -1.5941592 0.0062451604   0.47617077   -1.5941592    1.6004044   439061 
  538000    1.0667783    -1.594372    -1.594372 0.0057918917   0.47997805    -1.594372    1.6001639   439061 
  539000    1.0656785   -1.5937829   -1.5937829 0.0047312898   0.47852764   -1.5937829    1.5985142   439061 
  540000    1.0655613   -1.5944912   -1.5944912 0.0038471487   0.47626081   -1.5944912    1.5983383   439061 
  541000    1.0664682   -1.5949268   -1.5949268 0.0047717687   0.47900815   -1.5949268    1.5996986   439061 
  542000    1.0663144    -1.594954    -1.594954  0.004514035   0.47720111    -1.594954     1.599468   439061 
  543000    1.0641552   -1.5922457   -1.5922457  0.003983464    0.4788392   -1.5922457    1.5962291   439061 
  544000    1.0669842   -1.5962749   -1.5962749 0.0041977335   0.47431459   -1.5962749    1.6004727   439061 
  545000    1.0652073   -1.5959032   -1.5959032 0.0019041701    0.4710629   -1.5959032    1.5978074   439061 
  546000    1.0645462   -1.5949723   -1.5949723 0.0018432964    0.4712222   -1.5949723    1.5968156   439061 
  547000    1.0648122   -1.5948509   -1.5948509 0.0023638188   0.47162178   -1.5948509    1.5972147   439061 
  548000    1.0656478   -1.5949147   -1.5949147 0.0035532627   0.47057128   -1.5949147     1.598468   439061 
  549000    1.0659187   -1.5949645   -1.5949645 0.0039099018   0.47240646   -1.5949645    1.5988744   439061 
  550000    1.0643584   -1.5935119   -1.5935119 0.0030220407   0.47652916   -1.5935119    1.5965339   439061 
  551000    1.0649329   -1.5930795   -1.5930795 0.0043162361   0.47570298   -1.5930795    1.5973957   439061 
  552000    1.0634908   -1.5927599   -1.5927599 0.0024726624   0.47662069   -1.5927599    1.5952325   439061 
  553000    1.0632968   -1.5939356   -1.5939356 0.0010059995   0.47355325   -1.5939356    1.5949416   439061 
  554000    1.0650648   -1.5951672   -1.5951672 0.0024263635   0.47087012   -1.5951672    1.5975935   439061 
  555000    1.0632392   -1.5929325   -1.5929325 0.0019226608   0.47433245   -1.5929325    1.5948552   439061 
  556000    1.0635099   -1.5948168   -1.5948168 0.00044434012    0.4701726   -1.5948168    1.5952612   439061 
  557000    1.0636309   -1.5947149   -1.5947149 0.00072780988   0.47323719   -1.5947149    1.5954427   439061 
  558000    1.0628091   -1.5932093   -1.5932093  0.001000839    0.4720706   -1.5932093    1.5942101   439061 
  559000    1.0631011   -1.5936904   -1.5936904 0.00095766787   0.47352926   -1.5936904     1.594648   439061 
  560000    1.0633671   -1.5955814   -1.5955814 -0.00053442506   0.47303387   -1.5955814     1.595047   439061 
  561000    1.0625437   -1.5943012   -1.5943012 -0.00048934587   0.47202704   -1.5943012    1.5938119   439061 
  562000    1.0626147   -1.5939665   -1.5939665 -4.8061191e-05     0.470261   -1.5939665    1.5939184   439061 
  563000    1.0621064   -1.5936684   -1.5936684 -0.00051252492   0.47279025   -1.5936684    1.5931559   439061 
  564000    1.0617542   -1.5939422   -1.5939422 -0.0013144991   0.47176848   -1.5939422    1.5926277   439061 
  565000    1.0616796    -1.594263    -1.594263 -0.0017471672   0.47432943    -1.594263    1.5925158   439061 
  566000     1.062577   -1.5969553   -1.5969553 -0.0030935386    0.4670057   -1.5969553    1.5938618   439061 
  567000    1.0609326   -1.5940056   -1.5940056 -0.0026102922   0.47191157   -1.5940056    1.5913953   439061 
  568000    1.0601859   -1.5933484   -1.5933484 -0.0030730978   0.47176583   -1.5933484    1.5902753   439061 
  569000    1.0600311    -1.593955    -1.593955 -0.0039119681    0.4723197    -1.593955     1.590043   439061 
  570000    1.0598916   -1.5943383   -1.5943383 -0.0045045701   0.47251184   -1.5943383    1.5898337   439061 
  571000    1.0609255    -1.595979    -1.595979 -0.0045944075   0.46674209    -1.595979    1.5913846   439061 
  572000    1.0602907   -1.5957565   -1.5957565 -0.0053240195   0.46924351   -1.5957565    1.5904325   439061 
  573000     1.060171   -1.5970918   -1.5970918 -0.0068388956   0.46639794   -1.5970918    1.5902529   439061 
  574000    1.0590849   -1.5951872   -1.5951872 -0.0065635349   0.47047887   -1.5951872    1.5886237   439061 
  575000    1.0600154   -1.5961282   -1.5961282 -0.0061087176   0.46494066   -1.5961282    1.5900195   439061 
  576000    1.0592814   -1.5951352   -1.5951352 -0.0062166901   0.46827757   -1.5951352    1.5889185   439061 
  577000    1.0605408   -1.5954799   -1.5954799 -0.0046723668   0.47058756   -1.5954799    1.5908076   439061 
  578000    1.0603604   -1.5948052   -1.5948052 -0.004268245   0.46813651   -1.5948052     1.590537   439061 
  579000    1.0596766   -1.5954711   -1.5954711 -0.0059598387   0.46645424   -1.5954711    1.5895113   439061 
  580000    1.0595449    -1.594496    -1.594496 -0.0051822819   0.46591581    -1.594496    1.5893137   439061 
  581000    1.0592535    -1.594516    -1.594516 -0.0056393621   0.47073798    -1.594516    1.5888767   439061 
  582000    1.0584029   -1.5952988   -1.5952988 -0.0076980078   0.46744931   -1.5952988    1.5876008   439061 
  583000    1.0584391   -1.5959879   -1.5959879 -0.0083328355   0.46707627   -1.5959879    1.5876551   439061 
  584000    1.0575366   -1.5952247   -1.5952247 -0.0089234833   0.46762525   -1.5952247    1.5863012   439061 
  585000    1.0578292   -1.5957843   -1.5957843 -0.0090441663   0.46381727   -1.5957843    1.5867402   439061 
  586000     1.057212   -1.5951339   -1.5951339 -0.0093195469   0.46221524   -1.5951339    1.5858143   439061 
  587000    1.0579264   -1.5957203   -1.5957203 -0.0088342862   0.46601313   -1.5957203     1.586886   439061 
  588000    1.0576695   -1.5955303   -1.5955303 -0.0090296573   0.46898709   -1.5955303    1.5865007   439061 
  589000    1.0583461   -1.5958641   -1.5958641 -0.0083485994   0.46664344   -1.5958641    1.5875155   439061 
  590000     1.058058   -1.5963572   -1.5963572 -0.0092738547   0.46368634   -1.5963572    1.5870834   439061 
  591000    1.0583549   -1.5971711   -1.5971711 -0.009642341   0.46296516   -1.5971711    1.5875288   439061 
  592000    1.0578786   -1.5959716   -1.5959716 -0.0091573989   0.46651136   -1.5959716    1.5868142   439061 
  593000    1.0570972   -1.5948844   -1.5948844 -0.0092422453   0.47187343   -1.5948844    1.5856421   439061 
  594000    1.0574842   -1.5961356   -1.5961356 -0.0099128357   0.46178207   -1.5961356    1.5862227   439061 
  595000    1.0567856   -1.5950579   -1.5950579 -0.0098831099   0.47033416   -1.5950579    1.5851748   439061 
  596000    1.0557984   -1.5938328   -1.5938328 -0.010138788   0.46602374   -1.5938328     1.583694   439061 
  597000    1.0554837   -1.5946617   -1.5946617 -0.011439872   0.46450291   -1.5946617    1.5832219   439061 
  598000    1.0558476    -1.595481    -1.595481 -0.011713297   0.46613506    -1.595481    1.5837677   439061 
  599000    1.0564274   -1.5956193   -1.5956193 -0.010981807   0.46690894   -1.5956193    1.5846375   439061 
  600000    1.0550812   -1.5951553   -1.5951553 -0.012537116   0.46742919   -1.5951553    1.5826182   439061 
  601000     1.054814   -1.5950256   -1.5950256  -0.01280819   0.46607734   -1.5950256    1.5822174   439061 
  602000    1.0560772    -1.597851    -1.597851 -0.013738762   0.46217527    -1.597851    1.5841122   439061 
  603000    1.0548086    -1.593513    -1.593513 -0.011303791   0.46873456    -1.593513    1.5822092   439061 
  604000    1.0559438   -1.5937459   -1.5937459 -0.0098337806   0.46553586   -1.5937459    1.5839121   439061 
  605000    1.0567023   -1.5955559   -1.5955559  -0.01050608   0.46531514   -1.5955559    1.5850499   439061 
  606000      1.05551   -1.5940333   -1.5940333 -0.010771957   0.46576657   -1.5940333    1.5832613   439061 
  607000    1.0573279   -1.5963388   -1.5963388  -0.01035055   0.45970109   -1.5963388    1.5859882   439061 
  608000    1.0557271   -1.5938905   -1.5938905 -0.010303506   0.46448567   -1.5938905     1.583587   439061 
  609000    1.0559984   -1.5957861   -1.5957861 -0.011792096   0.46153905   -1.5957861     1.583994   439061 
  610000    1.0543032   -1.5933001   -1.5933001 -0.011848887    0.4677417   -1.5933001    1.5814512   439061 
  611000    1.0552612   -1.5953402   -1.5953402 -0.012451982   0.46502229   -1.5953402    1.5828882   439061 
  612000    1.0545074   -1.5946906   -1.5946906 -0.012933121   0.46315384   -1.5946906    1.5817575   439061 
  613000    1.0550662   -1.5952108   -1.5952108 -0.012615072   0.46620802   -1.5952108    1.5825957   439061 
  614000    1.0534074   -1.5948397   -1.5948397 -0.014732164    0.4647416   -1.5948397    1.5801075   439061 
  615000    1.0530217   -1.5943779   -1.5943779 -0.014848929   0.46014348   -1.5943779    1.5795289   439061 
  616000    1.0539941   -1.5955609   -1.5955609  -0.01457326   0.45897915   -1.5955609    1.5809876   439061 
  617000    1.0532744   -1.5954101   -1.5954101 -0.015502164   0.46346216   -1.5954101     1.579908   439061 
  618000    1.0533013   -1.5963179   -1.5963179 -0.016369514   0.45630459   -1.5963179    1.5799483   439061 
  619000    1.0525813    -1.596115    -1.596115 -0.017246612   0.45834767    -1.596115    1.5788684   439061 
  620000    1.0519349   -1.5942209   -1.5942209  -0.01632215   0.46350229   -1.5942209    1.5778987   439061 
  621000    1.0519629   -1.5952711   -1.5952711 -0.017330306   0.46397245   -1.5952711    1.5779408   439061 
  622000    1.0525924   -1.5955787   -1.5955787 -0.016693699   0.46077709   -1.5955787     1.578885   439061 
  623000    1.0528743   -1.5965038   -1.5965038 -0.017195906   0.45925149   -1.5965038    1.5793079   439061 
  624000     1.051803   -1.5968506   -1.5968506 -0.019149646   0.45602482   -1.5968506     1.577701   439061 
  625000    1.0523366   -1.5976168   -1.5976168  -0.01911549    0.4589065   -1.5976168    1.5785013   439061 
  626000    1.0518878   -1.5961623   -1.5961623 -0.018334268   0.46177459   -1.5961623     1.577828   439061 
  627000     1.051552   -1.5963001   -1.5963001 -0.018975699    0.4594945   -1.5963001    1.5773244   439061 
  628000    1.0502841   -1.5945482   -1.5945482 -0.019125619   0.46255664   -1.5945482    1.5754226   439061 
  629000     1.051973    -1.597466    -1.597466 -0.019510095   0.46090811    -1.597466    1.5779559   439061 
  630000    1.0516691   -1.5971327   -1.5971327 -0.019632641    0.4573451   -1.5971327    1.5775001   439061 
  631000    1.0515284   -1.5968437   -1.5968437 -0.019554703   0.45731532   -1.5968437     1.577289   439061 
  632000    1.0491543   -1.5947107   -1.5947107 -0.020982882   0.46202172   -1.5947107    1.5737279   439061 
  633000    1.0500571   -1.5955286   -1.5955286 -0.020446444   0.45907811   -1.5955286    1.5750821   439061 
  634000     1.050017   -1.5960722   -1.5960722 -0.021050335    0.4611692   -1.5960722    1.5750219   439061 
  635000    1.0497746   -1.5961888   -1.5961888 -0.021530497   0.45862175   -1.5961888    1.5746583   439061 
  636000    1.0501264   -1.5963915   -1.5963915 -0.021205494   0.45560169   -1.5963915     1.575186   439061 
  637000    1.0500365    -1.595132    -1.595132  -0.02008085    0.4555943    -1.595132    1.5750512   439061 
  638000    1.0510883   -1.5955932   -1.5955932 -0.018964378   0.45774066   -1.5955932    1.5766288   439061 
  639000    1.0507884   -1.5955176   -1.5955176 -0.019338589    0.4587954   -1.5955176     1.576179   439061 
  640000    1.0516206    -1.597336    -1.597336 -0.019908683   0.45656873    -1.597336    1.5774273   439061 
  641000    1.0510411   -1.5955887   -1.5955887  -0.01903054   0.46042068   -1.5955887    1.5765581   439061 
  642000    1.0504438   -1.5956946   -1.5956946 -0.020032474   0.45628049   -1.5956946    1.5756621   439061 
  643000    1.0504987   -1.5966428   -1.5966428 -0.020898404   0.45991394   -1.5966428    1.5757444   439061 
  644000    1.0503656   -1.5955472   -1.5955472 -0.020002449   0.45687624   -1.5955472    1.5755447   439061 
  645000    1.0510464   -1.5964722   -1.5964722 -0.019906258   0.45870078   -1.5964722    1.5765659   439061 
  646000    1.0491862   -1.5934963   -1.5934963 -0.019720514   0.45844707   -1.5934963    1.5737758   439061 
  647000     1.049154   -1.5937698   -1.5937698 -0.020042415   0.46005404   -1.5937698    1.5737274   439061 
  648000    1.0492004   -1.5946839   -1.5946839 -0.020886899   0.45393482   -1.5946839     1.573797   439061 
  649000    1.0501805   -1.5948441   -1.5948441 -0.019576967   0.45600796   -1.5948441    1.5752671   439061 
  650000     1.050009   -1.5944225   -1.5944225 -0.019412611   0.45621502   -1.5944225    1.5750099   439061 
  651000    1.0492335   -1.5948245   -1.5948245 -0.020977866    0.4570975   -1.5948245    1.5738466   439061 
  652000    1.0512769   -1.5969521   -1.5969521 -0.020040317   0.45557902   -1.5969521    1.5769118   439061 
  653000    1.0489976   -1.5949808   -1.5949808 -0.021487995    0.4586098   -1.5949808    1.5734928   439061 
  654000    1.0491064   -1.5956032   -1.5956032 -0.021947164   0.45615925   -1.5956032    1.5736561   439061 
  655000    1.0485312   -1.5961779   -1.5961779 -0.023384751   0.45467617   -1.5961779    1.5727932   439061 
  656000    1.0475034   -1.5941128   -1.5941128  -0.02286129   0.45695956   -1.5941128    1.5712515   439061 
  657000    1.0487484   -1.5951141   -1.5951141 -0.021995014   0.45659142   -1.5951141    1.5731191   439061 
  658000    1.0484857   -1.5951984   -1.5951984 -0.022473357    0.4577288   -1.5951984     1.572725   439061 
  659000    1.0494257   -1.5965527   -1.5965527 -0.022417727   0.45606338   -1.5965527     1.574135   439061 
  660000    1.0485358   -1.5948688   -1.5948688 -0.022068633   0.45514162   -1.5948688    1.5728002   439061 
  661000    1.0482361   -1.5947858   -1.5947858 -0.022435277   0.45710001   -1.5947858    1.5723505   439061 
  662000    1.0488209   -1.5964628   -1.5964628 -0.023235102   0.45447254   -1.5964628    1.5732277   439061 
  663000    1.0478308   -1.5956454   -1.5956454 -0.023902825     0.454154   -1.5956454    1.5717426   439061 
  664000    1.0471264   -1.5952636   -1.5952636 -0.024577593   0.45238781   -1.5952636     1.570686   439061 
  665000    1.0473792   -1.5951403   -1.5951403 -0.024075072   0.45318313   -1.5951403    1.5710652   439061 
  666000    1.0472266   -1.5954429   -1.5954429 -0.024606544   0.44989429   -1.5954429    1.5708363   439061 
  667000    1.0469065    -1.594007    -1.594007 -0.023650807   0.45660077    -1.594007    1.5703562   439061 
  668000    1.0471525   -1.5947516   -1.5947516  -0.02402643   0.45449491   -1.5947516    1.5707251   439061 
  669000    1.0481157   -1.5963813   -1.5963813 -0.024211331   0.45216366   -1.5963813    1.5721699   439061 
  670000    1.0466552   -1.5951315   -1.5951315 -0.025152209    0.4540326   -1.5951315    1.5699792   439061 
  671000    1.0463762   -1.5951775   -1.5951775 -0.025616838   0.45340078   -1.5951775    1.5695607   439061 
  672000     1.046189   -1.5952932   -1.5952932 -0.026013322   0.45557585   -1.5952932    1.5692799   439061 
  673000     1.046173   -1.5954825   -1.5954825 -0.026226531   0.45196324   -1.5954825     1.569256   439061 
  674000    1.0455761   -1.5954576   -1.5954576 -0.027097114   0.44920194   -1.5954576    1.5683605   439061 
  675000    1.0470506   -1.5966976   -1.5966976 -0.026125194   0.45330736   -1.5966976    1.5705724   439061 
  676000    1.0471161   -1.5959196   -1.5959196 -0.025249019    0.4529795   -1.5959196    1.5706706   439061 
  677000    1.0464603   -1.5956119   -1.5956119 -0.025925049   0.44979493   -1.5956119    1.5696868   439061 
  678000    1.0448749   -1.5939271   -1.5939271 -0.026618437   0.45332352   -1.5939271    1.5673087   439061 
  679000    1.0462522   -1.5959641   -1.5959641 -0.026589412   0.45034124   -1.5959641    1.5693747   439061 
  680000    1.0447606   -1.5937377   -1.5937377 -0.026600353    0.4538601   -1.5937377    1.5671374   439061 
  681000    1.0454471   -1.5950822   -1.5950822  -0.02691512   0.45166311   -1.5950822    1.5681671   439061 
  682000    1.0453835   -1.5951907   -1.5951907 -0.027119015   0.45259766   -1.5951907    1.5680717   439061 
  683000    1.0437976   -1.5942256   -1.5942256 -0.028532749   0.45719245   -1.5942256    1.5656929   439061 
  684000    1.0449688   -1.5951107   -1.5951107 -0.027661123   0.45349298   -1.5951107    1.5674496   439061 
  685000     1.045083   -1.5963033   -1.5963033 -0.028682453   0.45077079   -1.5963033    1.5676209   439061 
  686000    1.0437495   -1.5947216   -1.5947216 -0.029101015   0.45277193   -1.5947216    1.5656206   439061 
  687000    1.0438094   -1.5955034   -1.5955034 -0.029792891   0.45217758   -1.5955034    1.5657105   439061 
  688000    1.0452144   -1.5967199   -1.5967199 -0.028901954   0.45453556   -1.5967199     1.567818   439061 
  689000    1.0435486   -1.5939009   -1.5939009 -0.028581587   0.45762409   -1.5939009    1.5653194   439061 
  690000    1.0444413   -1.5953231   -1.5953231 -0.028664668   0.45077752   -1.5953231    1.5666584   439061 
  691000    1.0438784   -1.5950686   -1.5950686 -0.029254549   0.45097822   -1.5950686     1.565814   439061 
  692000    1.0443148    -1.595751    -1.595751 -0.029282389   0.45133688    -1.595751    1.5664686   439061 
  693000    1.0439017     -1.59517     -1.59517 -0.029321096   0.44919267     -1.59517    1.5658489   439061 
  694000     1.044008   -1.5964957   -1.5964957 -0.030487269   0.45055646   -1.5964957    1.5660084   439061 
  695000    1.0434433   -1.5966197   -1.5966197 -0.031458395   0.44985667   -1.5966197    1.5651613   439061 
  696000    1.0441486   -1.5971657   -1.5971657 -0.030946274   0.44672942   -1.5971657    1.5662194   439061 
  697000    1.0424468   -1.5952539   -1.5952539 -0.031587316   0.45023077   -1.5952539    1.5636666   439061 
  698000     1.042977   -1.5963204   -1.5963204 -0.031858439   0.45157022   -1.5963204    1.5644619   439061 
  699000    1.0419109   -1.5957906   -1.5957906 -0.032927829    0.4494572   -1.5957906    1.5628628   439061 
  700000    1.0425124   -1.5961979   -1.5961979 -0.032432845   0.44845541   -1.5961979    1.5637651   439061 
  701000    1.0426569   -1.5960464   -1.5960464 -0.032064616   0.45049369   -1.5960464    1.5639818   439061 
  702000    1.0421323   -1.5955511   -1.5955511 -0.032356248   0.44965446   -1.5955511    1.5631949   439061 
  703000    1.0418139   -1.5970995   -1.5970995 -0.034382208   0.44751279   -1.5970995    1.5627173   439061 
[...]
 4832000   0.93975103   -1.6102098   -1.6102098  -0.20058651    0.3434018   -1.6102098    1.4096233   439061 
 4833000   0.94033599   -1.6098441   -1.6098441  -0.19934338   0.33736058   -1.6098441    1.4105008   439061 
 4834000   0.94121564   -1.6104141   -1.6104141  -0.19859385   0.34391743   -1.6104141    1.4118202   439061 
 4835000   0.94101956    -1.611453    -1.611453  -0.19992682   0.33772975    -1.611453    1.4115261   439061 
 4836000   0.94009783   -1.6114247   -1.6114247  -0.20128113   0.34042219   -1.6114247    1.4101435   439061 
 4837000    0.9391117   -1.6104345   -1.6104345  -0.20177016   0.33919565   -1.6104345    1.4086643   439061 
 4838000   0.93870632   -1.6100273   -1.6100273  -0.20197103    0.3425485   -1.6100273    1.4080563   439061 
 4839000   0.94064061   -1.6126672   -1.6126672  -0.20170953   0.33934972   -1.6126672    1.4109577   439061 
 4840000   0.93996297   -1.6110783   -1.6110783  -0.20113701   0.33802691   -1.6110783    1.4099412   439061 
 4841000   0.93993565   -1.6107511   -1.6107511  -0.20085081   0.34235709   -1.6107511    1.4099003   439061 
 4842000   0.93994436    -1.611148    -1.611148  -0.20123469   0.34247117    -1.611148    1.4099133   439061 
 4843000   0.94114152   -1.6132757   -1.6132757   -0.2015666   0.33941781   -1.6132757    1.4117091   439061 
 4844000   0.94009859   -1.6120727   -1.6120727  -0.20192803   0.34266736   -1.6120727    1.4101447   439061 
 4845000   0.93923876   -1.6099977   -1.6099977  -0.20114276   0.34359246   -1.6099977    1.4088549   439061 
 4846000   0.94054075   -1.6108493   -1.6108493  -0.20004139   0.34330523   -1.6108493    1.4108079   439061 
 4847000   0.94038049   -1.6112342   -1.6112342  -0.20066671    0.3385609   -1.6112342    1.4105675   439061 
 4848000   0.94010281   -1.6111708   -1.6111708  -0.20101979   0.34202594   -1.6111708     1.410151   439061 
 4849000   0.94098345   -1.6122133   -1.6122133  -0.20074131     0.340618   -1.6122133     1.411472   439061 
 4850000   0.93994285   -1.6104707   -1.6104707   -0.2005596   0.34121036   -1.6104707    1.4099111   439061 
 4851000   0.94057561   -1.6103711   -1.6103711  -0.19951087   0.34041273   -1.6103711    1.4108602   439061 
 4852000   0.94113455   -1.6116777   -1.6116777  -0.19997905   0.34181275   -1.6116777    1.4116986   439061 
 4853000   0.94049215    -1.611086    -1.611086  -0.20035096   0.34181425    -1.611086     1.410735   439061 
 4854000   0.94098551    -1.611386    -1.611386  -0.19991099   0.34125513    -1.611386     1.411475   439061 
 4855000   0.94136251   -1.6116771   -1.6116771   -0.1996366   0.33768655   -1.6116771    1.4120405   439061 
 4856000   0.94135561   -1.6111659   -1.6111659  -0.19913574   0.33974542   -1.6111659    1.4120302   439061 
 4857000   0.94009155   -1.6098143   -1.6098143   -0.1996802    0.3453003   -1.6098143    1.4101341   439061 
 4858000   0.94067116     -1.61199     -1.61199  -0.20098644   0.33663105     -1.61199    1.4110035   439061 
 4859000    0.9390668   -1.6102132   -1.6102132  -0.20161622   0.33820134   -1.6102132     1.408597   439061 
 4860000   0.94080511   -1.6131541   -1.6131541  -0.20194969   0.33449563   -1.6131541    1.4112044   439061 
 4861000   0.93950874   -1.6121801   -1.6121801  -0.20292023   0.33777049   -1.6121801    1.4092599   439061 
 4862000   0.94022487   -1.6128265   -1.6128265  -0.20249239   0.33869186   -1.6128265    1.4103341   439061 
 4863000   0.94088571   -1.6134712   -1.6134712  -0.20214584   0.33768642   -1.6134712    1.4113253   439061 
 4864000   0.93848796   -1.6106809   -1.6106809  -0.20295221   0.33834836   -1.6106809    1.4077287   439061 
 4865000   0.94056391   -1.6127195   -1.6127195  -0.20187682   0.33760172   -1.6127195    1.4108427   439061 
 4866000    0.9394841   -1.6114661   -1.6114661  -0.20224317    0.3414273   -1.6114661    1.4092229   439061 
 4867000   0.94056791   -1.6141259   -1.6141259   -0.2032772   0.33449659   -1.6141259    1.4108487   439061 
 4868000   0.94111688   -1.6138985   -1.6138985  -0.20222636     0.334365   -1.6138985    1.4116721   439061 
 4869000    0.9400166   -1.6126913   -1.6126913  -0.20266959    0.3379445   -1.6126913    1.4100217   439061 
 4870000   0.93931843   -1.6120127   -1.6120127  -0.20303828   0.34141897   -1.6120127    1.4089744   439061 
 4871000   0.94050116   -1.6127648   -1.6127648  -0.20201628   0.34011406   -1.6127648    1.4107485   439061 
 4872000   0.93968439   -1.6121119   -1.6121119  -0.20258849   0.33954421   -1.6121119    1.4095234   439061 
 4873000   0.94016035   -1.6130128   -1.6130128  -0.20277544   0.33854482   -1.6130128    1.4102373   439061 
 4874000   0.93932114   -1.6119021   -1.6119021  -0.20292357   0.33824947   -1.6119021    1.4089785   439061 
 4875000   0.94097251   -1.6128924   -1.6128924  -0.20143685   0.33622044   -1.6128924    1.4114555   439061 
 4876000   0.93953935   -1.6110462   -1.6110462  -0.20174039   0.34175142   -1.6110462    1.4093058   439061 
 4877000   0.94027218   -1.6128481   -1.6128481  -0.20244301   0.34097572   -1.6128481    1.4104051   439061 
 4878000   0.94116521   -1.6138483   -1.6138483  -0.20210368   0.34117928   -1.6138483    1.4117446   439061 
 4879000   0.93960198   -1.6115604   -1.6115604  -0.20216059   0.34008514   -1.6115604    1.4093998   439061 
 4880000   0.93994134   -1.6124506   -1.6124506  -0.20254176   0.33589729   -1.6124506    1.4099088   439061 
 4881000   0.93962885   -1.6125734   -1.6125734  -0.20313336   0.34167774   -1.6125734    1.4094401   439061 
 4882000   0.94032426   -1.6138357   -1.6138357  -0.20335257   0.33884447   -1.6138357    1.4104832   439061 
 4883000   0.93983797   -1.6118464   -1.6118464  -0.20209261   0.34404521   -1.6118464    1.4097537   439061 
 4884000   0.93988446   -1.6108391   -1.6108391  -0.20101567   0.34152724   -1.6108391    1.4098235   439061 
 4885000   0.94013657   -1.6118536   -1.6118536    -0.201652   0.33755298   -1.6118536    1.4102016   439061 
 4886000   0.94015997   -1.6118773   -1.6118773  -0.20164051   0.34129287   -1.6118773    1.4102367   439061 
 4887000   0.94096336   -1.6131424   -1.6131424  -0.20170062    0.3409615   -1.6131424    1.4114418   439061 
 4888000   0.93950759   -1.6113245   -1.6113245  -0.20206632   0.33421813   -1.6113245    1.4092582   439061 
 4889000   0.94043796   -1.6115904   -1.6115904  -0.20093669    0.3407734   -1.6115904    1.4106537   439061 
 4890000   0.94157837   -1.6127404   -1.6127404  -0.20037608   0.33691812   -1.6127404    1.4123643   439061 
 4891000   0.94017389   -1.6101017   -1.6101017  -0.19984411   0.34266901   -1.6101017    1.4102576   439061 
 4892000    0.9401318   -1.6103636   -1.6103636  -0.20016911   0.34018678   -1.6103636    1.4101945   439061 
 4893000   0.93986185   -1.6098454   -1.6098454  -0.20005587   0.33933228   -1.6098454    1.4097896   439061 
 4894000   0.94162349   -1.6117279   -1.6117279  -0.19929587   0.33767152   -1.6117279     1.412432   439061 
 4895000   0.94063696   -1.6100193   -1.6100193  -0.19906707   0.34240894   -1.6100193    1.4109522   439061 
 4896000   0.94026118   -1.6108702   -1.6108702  -0.20048165   0.33960184   -1.6108702    1.4103886   439061 
 4897000   0.94060296   -1.6108632   -1.6108632  -0.19996194   0.33902144   -1.6108632    1.4109012   439061 
 4898000   0.94014781   -1.6094716   -1.6094716  -0.19925307   0.33979309   -1.6094716    1.4102185   439061 
 4899000   0.94212905   -1.6117453   -1.6117453  -0.19855498   0.34319386   -1.6117453    1.4131903   439061 
 4900000   0.94138391   -1.6106386   -1.6106386  -0.19856593   0.34449602   -1.6106386    1.4120726   439061 
 4901000   0.94139444   -1.6104516   -1.6104516  -0.19836313   0.34104631   -1.6104516    1.4120884   439061 
 4902000   0.94228808   -1.6127783   -1.6127783  -0.19934936   0.33828449   -1.6127783    1.4134289   439061 
 4903000   0.94006179   -1.6111673   -1.6111673  -0.20107787   0.34571332   -1.6111673    1.4100895   439061 
 4904000   0.93996619   -1.6099027   -1.6099027  -0.19995667   0.33938337   -1.6099027    1.4099461   439061 
 4905000   0.94124353   -1.6106969   -1.6106969  -0.19883487   0.34000972   -1.6106969    1.4118621   439061 
 4906000   0.94147946   -1.6120252   -1.6120252  -0.19980928   0.33889683   -1.6120252     1.412216   439061 
 4907000   0.93970054   -1.6097506   -1.6097506  -0.20020304   0.34194392   -1.6097506    1.4095476   439061 
 4908000    0.9408861   -1.6120607   -1.6120607  -0.20073473   0.33834141   -1.6120607    1.4113259   439061 
 4909000    0.9415259   -1.6127368   -1.6127368  -0.20045114   0.33885074   -1.6127368    1.4122856   439061 
 4910000   0.94000579   -1.6107412   -1.6107412  -0.20073574   0.33775516   -1.6107412    1.4100055   439061 
 4911000   0.94149085   -1.6126182   -1.6126182  -0.20038516   0.33612708   -1.6126182    1.4122331   439061 
 4912000   0.94092364   -1.6110785   -1.6110785  -0.19969628    0.3388915   -1.6110785    1.4113823   439061 
 4913000   0.94050028   -1.6112682   -1.6112682  -0.20052095   0.33862474   -1.6112682    1.4107472   439061 
 4914000   0.94002589   -1.6106453   -1.6106453  -0.20060966   0.34075794   -1.6106453    1.4100356   439061 
 4915000   0.94162406   -1.6130311   -1.6130311  -0.20059822   0.33215049   -1.6130311    1.4124329   439061 
 4916000   0.94095696   -1.6114146   -1.6114146  -0.19998235   0.33868227   -1.6114146    1.4114322   439061 
 4917000   0.94072294   -1.6110278   -1.6110278  -0.19994662   0.33903862   -1.6110278    1.4110812   439061 
 4918000   0.94035557   -1.6115096   -1.6115096  -0.20097944   0.34194716   -1.6115096    1.4105301   439061 
 4919000   0.94013503    -1.610031    -1.610031  -0.19983168   0.34158936    -1.610031    1.4101993   439061 
 4920000   0.94133453   -1.6115957   -1.6115957  -0.19959708   0.34134076   -1.6115957    1.4119986   439061 
 4921000   0.94043488   -1.6107141   -1.6107141  -0.20006495   0.33988388   -1.6107141    1.4106491   439061 
 4922000   0.94019003   -1.6102847   -1.6102847  -0.20000286   0.34028928   -1.6102847    1.4102818   439061 
 4923000   0.94112039   -1.6111981   -1.6111981  -0.19952077   0.34060391   -1.6111981    1.4116774   439061 
 4924000   0.93970259   -1.6107208   -1.6107208  -0.20117014   0.33740077   -1.6107208    1.4095507   439061 
 4925000   0.94052455    -1.610172    -1.610172  -0.19938836   0.33741688    -1.610172    1.4107836   439061 
 4926000   0.94086181   -1.6115032   -1.6115032  -0.20021366   0.33621716   -1.6115032    1.4112895   439061 
 4927000    0.9404812   -1.6116876   -1.6116876  -0.20096904   0.34095283   -1.6116876    1.4107186   439061 
 4928000   0.93993042   -1.6113077   -1.6113077  -0.20141528   0.33815701   -1.6113077    1.4098924   439061 
 4929000   0.94018318   -1.6112937   -1.6112937  -0.20102214   0.33755371   -1.6112937    1.4102716   439061 
 4930000   0.94053902   -1.6112037   -1.6112037  -0.20039834   0.33896733   -1.6112037    1.4108053   439061 
 4931000   0.94022472   -1.6119212   -1.6119212  -0.20158731    0.3361768   -1.6119212    1.4103339   439061 
 4932000   0.94008352    -1.611792    -1.611792  -0.20166991   0.33895731    -1.611792    1.4101221   439061 
 4933000   0.94101956   -1.6129427   -1.6129427  -0.20141662    0.3366445   -1.6129427    1.4115261   439061 
 4934000   0.94015023   -1.6113459   -1.6113459  -0.20112373   0.33904159   -1.6113459    1.4102221   439061 
 4935000   0.94012594   -1.6116922   -1.6116922  -0.20150646   0.33839138   -1.6116922    1.4101857   439061 
 4936000   0.93915073   -1.6106529   -1.6106529  -0.20193001    0.3369677   -1.6106529    1.4087229   439061 
 4937000   0.94068522   -1.6115183   -1.6115183  -0.20049371   0.34040941   -1.6115183    1.4110246   439061 
 4938000   0.94095668   -1.6116247   -1.6116247  -0.20019287   0.34304807   -1.6116247    1.4114318   439061 
 4939000   0.93983199   -1.6115782   -1.6115782  -0.20183342   0.33629256   -1.6115782    1.4097448   439061 
 4940000    0.9404188   -1.6125835   -1.6125835  -0.20195856   0.34249527   -1.6125835     1.410625   439061 
 4941000   0.93980928   -1.6111998   -1.6111998  -0.20148908   0.33754466   -1.6111998    1.4097107   439061 
 4942000    0.9407046   -1.6117171   -1.6117171  -0.20066344   0.33904245   -1.6117171    1.4110537   439061 
 4943000   0.94026254   -1.6112401   -1.6112401  -0.20084953   0.34018306   -1.6112401    1.4103906   439061 
 4944000   0.93933559   -1.6101442   -1.6101442  -0.20114407   0.34133936   -1.6101442    1.4090002   439061 
 4945000   0.94141391   -1.6123943   -1.6123943  -0.20027669   0.34100965   -1.6123943    1.4121177   439061 
 4946000   0.94047177   -1.6110007   -1.6110007  -0.20029628   0.33958931   -1.6110007    1.4107044   439061 
 4947000   0.94053937   -1.6120541   -1.6120541  -0.20124824   0.34109636   -1.6120541    1.4108058   439061 
 4948000   0.94137207   -1.6124543   -1.6124543   -0.2003994   0.33371722   -1.6124543    1.4120549   439061 
 4949000     0.940756   -1.6107996   -1.6107996  -0.19966877   0.34099334   -1.6107996    1.4111308   439061 
 4950000   0.94002708   -1.6107818   -1.6107818  -0.20074438   0.33796032   -1.6107818    1.4100374   439061 
 4951000   0.94060662    -1.611325    -1.611325  -0.20041823   0.34134393    -1.611325    1.4109067   439061 
 4952000   0.93988057    -1.610252    -1.610252  -0.20043434   0.33986568    -1.610252    1.4098176   439061 
 4953000   0.94041475   -1.6123502   -1.6123502  -0.20173128   0.33608193   -1.6123502    1.4106189   439061 
 4954000   0.94005433   -1.6106387   -1.6106387  -0.20056037   0.33540907   -1.6106387    1.4100783   439061 
 4955000   0.93999471   -1.6102834   -1.6102834  -0.20029454   0.34205977   -1.6102834    1.4099889   439061 
 4956000   0.94039636   -1.6115299   -1.6115299  -0.20093861   0.33887706   -1.6115299    1.4105913   439061 
 4957000   0.94145454   -1.6126587   -1.6126587   -0.2004801   0.33881312   -1.6126587    1.4121786   439061 
 4958000   0.94093947   -1.6114537   -1.6114537  -0.20004771   0.34112453   -1.6114537     1.411406   439061 
 4959000   0.94033184   -1.6113038   -1.6113038  -0.20080922   0.34016261   -1.6113038    1.4104945   439061 
 4960000   0.94053353   -1.6114069   -1.6114069  -0.20060985   0.34119727   -1.6114069    1.4107971   439061 
 4961000    0.9406174   -1.6106132   -1.6106132  -0.19969036   0.34069634   -1.6106132    1.4109229   439061 
 4962000   0.94150673   -1.6113042   -1.6113042   -0.1990473   0.34137866   -1.6113042    1.4122569   439061 
 4963000   0.94111347   -1.6104119   -1.6104119  -0.19874493   0.34326183   -1.6104119     1.411667   439061 
 4964000   0.94090204   -1.6099908   -1.6099908  -0.19864092   0.34117481   -1.6099908    1.4113498   439061 
 4965000   0.94138137   -1.6122399   -1.6122399   -0.2001711   0.34053792   -1.6122399    1.4120688   439061 
 4966000   0.94186475    -1.612779    -1.612779  -0.19998505   0.34185199    -1.612779    1.4127939   439061 
 4967000   0.94071392   -1.6117065   -1.6117065  -0.20063888   0.34009074   -1.6117065    1.4110677   439061 
 4968000   0.93937573    -1.610518    -1.610518   -0.2014576   0.33782181    -1.610518    1.4090604   439061 
 4969000   0.94067994   -1.6124767   -1.6124767  -0.20145996   0.33915641   -1.6124767    1.4110167   439061 
 4970000   0.94037812   -1.6122889   -1.6122889  -0.20172488   0.33649856   -1.6122889     1.410564   439061 
 4971000   0.94029464   -1.6114682   -1.6114682  -0.20102948   0.33585471   -1.6114682    1.4104388   439061 
 4972000   0.93955352   -1.6104638   -1.6104638  -0.20113673   0.33915731   -1.6104638    1.4093271   439061 
 4973000    0.9399505   -1.6115137   -1.6115137   -0.2015911   0.33901737   -1.6115137    1.4099225   439061 
 4974000   0.93855322   -1.6110368   -1.6110368  -0.20321017    0.3382255   -1.6110368    1.4078266   439061 
 4975000   0.93931691   -1.6122443   -1.6122443   -0.2032721   0.33993742   -1.6122443    1.4089722   439061 
 4976000   0.94000903   -1.6125645   -1.6125645   -0.2025542   0.34034576   -1.6125645    1.4100103   439061 
 4977000    0.9395699   -1.6120282   -1.6120282  -0.20267656   0.33787486   -1.6120282    1.4093516   439061 
 4978000   0.94057982   -1.6127445   -1.6127445    -0.201878   0.33672023   -1.6127445    1.4108665   439061 
 4979000   0.93945455   -1.6119741   -1.6119741  -0.20279549   0.33363886   -1.6119741    1.4091786   439061 
 4980000   0.94009056   -1.6127924   -1.6127924  -0.20265981   0.34007199   -1.6127924    1.4101326   439061 
 4981000   0.93960867   -1.6110652   -1.6110652  -0.20165539   0.34085123   -1.6110652    1.4094098   439061 
 4982000   0.94127314   -1.6125753   -1.6125753  -0.20066885   0.33889945   -1.6125753    1.4119065   439061 
 4983000   0.94062859   -1.6110472   -1.6110472  -0.20010749   0.33812304   -1.6110472    1.4109397   439061 
 4984000   0.94056474   -1.6112056   -1.6112056  -0.20036173   0.33819141   -1.6112056    1.4108439   439061 
 4985000   0.94165636   -1.6114178   -1.6114178  -0.19893643   0.33907909   -1.6114178    1.4124813   439061 
 4986000   0.94101012   -1.6107178   -1.6107178  -0.19920585   0.34338697   -1.6107178     1.411512   439061 
 4987000   0.93901018    -1.608561    -1.608561  -0.20004898   0.34189986    -1.608561    1.4085121   439061 
 4988000   0.93995488   -1.6113498   -1.6113498  -0.20142065   0.33919003   -1.6113498    1.4099291   439061 
 4989000   0.93880479   -1.6103366   -1.6103366  -0.20213263   0.33889461   -1.6103366     1.408204   439061 
 4990000   0.94084232   -1.6132643   -1.6132643  -0.20200399   0.34078811   -1.6132643    1.4112603   439061 
 4991000   0.93943209   -1.6116971   -1.6116971  -0.20255214   0.33681413   -1.6116971    1.4091449   439061 
 4992000    0.9387225   -1.6096157   -1.6096157  -0.20153514   0.34326589   -1.6096157    1.4080805   439061 
 4993000   0.93994244    -1.610533    -1.610533   -0.2006225   0.33561653    -1.610533    1.4099105   439061 
 4994000   0.94046639   -1.6125467   -1.6125467  -0.20185032   0.33688858   -1.6125467    1.4106964   439061 
 4995000    0.9396408    -1.611316    -1.611316  -0.20185801   0.33602646    -1.611316     1.409458   439061 
 4996000   0.93982723   -1.6110963   -1.6110963  -0.20135867   0.33858153   -1.6110963    1.4097376   439061 
 4997000   0.93982083   -1.6118534   -1.6118534  -0.20212536   0.33833676   -1.6118534     1.409728   439061 
 4998000   0.93970743   -1.6115483   -1.6115483   -0.2019904   0.34057534   -1.6115483    1.4095579   439061 
 4999000   0.94074834   -1.6131319   -1.6131319  -0.20201261   0.33975605   -1.6131319    1.4111193   439061 
 5000000   0.93967082   -1.6111229   -1.6111229  -0.20161983   0.34362636   -1.6111229     1.409503   439061 
Loop time of 5142.47 on 192 procs for 5000000 steps with 439061 atoms

Performance: 420031.250 tau/day, 972.295 timesteps/s
89.0% CPU use with 192 MPI tasks x 1 OpenMP threads

MPI task timing breakdown:
Section |  min time  |  avg time  |  max time  |%varavg|  %CPU | %total
-----------------------------------------------------------------------
Pair    | 1664       | 1997.7     | 2299.4     | 382.9 |  91.6 | 38.85
Bond    | 3.1594     | 3.3253     | 3.4349     |   2.9 | 100.0 |  0.06
Neigh   | 956.54     | 1046.3     | 1094.4     |  87.3 |  97.1 | 20.35
Comm    | 774.98     | 1436.9     | 1805.7     | 667.5 |  85.0 | 27.94
Output  | 278.95     | 279.35     | 279.36     |   0.2 |  68.1 |  5.43
Modify  | 133.67     | 207.79     | 671.32     |1101.7 |  87.6 |  4.04
Other   |            | 171.1      |            |       |       |  3.33

Nlocal:        2286.78 ave        2381 max        2167 min
Histogram: 1 6 6 17 33 51 39 26 11 2
Nghost:        2388.15 ave        2640 max        1895 min
Histogram: 7 17 20 4 0 1 7 50 64 22
Neighs:        28321.7 ave       32413 max       23528 min
Histogram: 5 16 13 15 30 31 32 22 17 11

Total # of neighbors = 5437763
Ave neighs/atom = 12.384983
Ave special neighs/atom = 0.0000000
Neighbor list builds = 500000
Dangerous builds = 495000
System init for write_data ...
Total wall time: 1:25:47
