LAMMPS (29 Oct 2020)
  using 1 OpenMP thread(s) per MPI task
Created orthogonal box = (0.0000000 0.0000000 0.0000000) to (80.000000 80.000000 80.000000)
  2 by 4 by 4 MPI processor grid
Lattice spacing in x,y,z = 1.0000000 1.0000000 1.0000000
Created 512000 atoms
  create_atoms CPU = 0.028 seconds
512000 atoms in group solvent
Reading data file ...
  orthogonal box = (0.0000000 0.0000000 0.0000000) to (80.000000 80.000000 160.00000)
  2 by 2 by 8 MPI processor grid
Finding 1-2 1-3 1-4 neighbors ...
  special bond factors lj:    0.0      0.0      0.0     
  special bond factors coul:  0.0      0.0      0.0     
     0 = max # of 1-2 neighbors
     0 = max # of 1-3 neighbors
     0 = max # of 1-4 neighbors
     1 = max # of special neighbors
  special bonds CPU = 0.323 seconds
  read_data CPU = 0.349 seconds
Balancing ...
Neighbor list info ...
  update every 1 steps, delay 10 steps, check yes
  max neighbors/atom: 2000, page size: 100000
  master list distance cutoff = 2.9
  ghost atom cutoff = 2.9
  binsize = 1.45, bins = 56 56 111
  1 neighbor lists, perpetual/occasional/extra = 1 0 0
  (1) pair lj/cut/opt, perpetual
      attributes: half, newton on
      pair build: half/bin/newton
      stencil: half/bin/3d/newton
      bin: standard
 rebalancing time: 0.037 seconds
  iteration count = 5
  initial/final maximal load/proc = 32000.000 19200.000
  initial/final imbalance factor  = 2.0000000 1.2000000
  x cuts: 0.0000000 0.5 1.0000000
  y cuts: 0.0000000 0.5 1.0000000
  z cuts: 0.0000000 0.0625 0.12890625 0.1875 0.2578125 0.30859375 0.38671875 0.4375 1.0000000
WARNING: Ignoring 'compress yes' for molecular system (src/delete_atoms.cpp:125)
Deleted 19200 atoms, new total = 492800
WARNING: Ignoring 'compress yes' for molecular system (src/delete_atoms.cpp:125)
Deleted 0 atoms, new total = 492800
dynamic group thermo defined
New timer settings: style=full  mode=nosync  timeout=off
Setting up Verlet run ...
  Unit style    : lj
  Current step  : 0
  Time step     : 0.0025
Per MPI rank memory allocation (min/avg/max) = 21.45 | 22.19 | 22.73 Mbytes
Step Temp E_pair E_vdwl TotEng Press PotEng KinEng Volume 
       0   0.49998514   -3.2974116   -3.2974116   -2.5474355    8.3319627   -3.2974116   0.74997619      1024000 
    1000     1.426429   -4.8122109   -4.8122109   -2.6725717    3.6893119   -4.8122109    2.1396392      1024000 
    2000    1.3660418   -4.8616864   -4.8616864   -2.8126279     2.470702   -4.8616864    2.0490585      1024000 
    3000    1.2649529   -4.8393179   -4.8393179   -2.9418924    1.6242996   -4.8393179    1.8974255      1024000 
    4000    1.2133527    -4.849873    -4.849873   -3.0298477   0.71869182    -4.849873    1.8200253      1024000 
    5000    1.1424444   -4.7873458   -4.7873458   -3.0736826  0.082995707   -4.7873458    1.7136631      1024000 
    6000    1.0637586   -4.6842034   -4.6842034   -3.0885687   -0.2545874   -4.6842034    1.5956347      1024000 
    7000    1.0041977   -4.5955984   -4.5955984   -3.0893049  -0.35196169   -4.5955984    1.5062935      1024000 
    8000   0.99079691   -4.5755303   -4.5755303   -3.0893379   -0.2420153   -4.5755303    1.4861924      1024000 
    9000    1.0035825    -4.598585    -4.598585   -3.0932144 -0.094892774    -4.598585    1.5053706      1024000 
   10000    1.0103597   -4.6191841   -4.6191841   -3.1036476  -0.02611954   -4.6191841    1.5155365      1024000 
   11000    1.0100714   -4.6300741   -4.6300741   -3.1149701 0.0075948564   -4.6300741     1.515104      1024000 
   12000    1.0088677   -4.6389202   -4.6389202   -3.1256216  0.035972011   -4.6389202    1.5132985      1024000 
   13000    1.0115464    -4.650945    -4.650945   -3.1336285  0.066378449    -4.650945    1.5173165      1024000 
   14000    1.0120948   -4.6598478   -4.6598478   -3.1417087   0.09107295   -4.6598478    1.5181391      1024000 
   15000    1.0098864   -4.6625494   -4.6625494   -3.1477229   0.08846441   -4.6625494    1.5148265      1024000 
   16000    1.0059481   -4.6626206   -4.6626206   -3.1537016  0.080179585   -4.6626206    1.5089191      1024000 
   17000    1.0032377   -4.6635409   -4.6635409   -3.1586875  0.086976664   -4.6635409    1.5048535      1024000 
   18000     1.003882   -4.6688809   -4.6688809   -3.1630609  0.093215002   -4.6688809      1.50582      1024000 
   19000    1.0053907   -4.6753963   -4.6753963   -3.1673132   0.10340455   -4.6753963    1.5080831      1024000 
   20000    1.0047333   -4.6780113   -4.6780113   -3.1709145   0.11821497   -4.6780113    1.5070969      1024000 
   21000    1.0047049   -4.6812251   -4.6812251   -3.1741708    0.1106372   -4.6812251    1.5070543      1024000 
   22000    1.0029416   -4.6818467   -4.6818467   -3.1774374   0.11424068   -4.6818467    1.5044093      1024000 
   23000     1.001429   -4.6829013   -4.6829013   -3.1807608   0.12837382   -4.6829013    1.5021404      1024000 
   24000    1.0072367   -4.6952619   -4.6952619     -3.18441   0.26474101   -4.6952619     1.510852      1024000 
   25000    1.0213214   -4.7188929   -4.7188929   -3.1869139   0.71935412   -4.7188929     1.531979      1024000 
   26000     1.036153   -4.7429532   -4.7429532   -3.1887267   0.99445771   -4.7429532    1.5542264      1024000 
   27000    1.0438225   -4.7560079   -4.7560079   -3.1902773    1.4095747   -4.7560079    1.5657306      1024000 
   28000     1.046929   -4.7632645   -4.7632645   -3.1928742    1.6826669   -4.7632645    1.5703902      1024000 
   29000    1.0258708   -4.7332486   -4.7332486   -3.1944456    1.3168227   -4.7332486     1.538803      1024000 
   30000    1.0032049   -4.7010065   -4.7010065   -3.1962023   0.96426954   -4.7010065    1.5048043      1024000 
   31000   0.98947875   -4.6810606   -4.6810606   -3.1968454   0.61950035   -4.6810606    1.4842151      1024000 
   32000   0.96359832   -4.6435345   -4.6435345     -3.19814   0.40195192   -4.6435345    1.4453945      1024000 
   33000   0.93000743   -4.5944336   -4.5944336   -3.1994253   0.23296589   -4.5944336    1.3950083      1024000 
   34000   0.89377314   -4.5411998   -4.5411998   -3.2005428  0.063781019   -4.5411998     1.340657      1024000 
   35000    0.8610788   -4.4933646   -4.4933646   -3.2017491 -0.046598337   -4.4933646    1.2916156      1024000 
   36000   0.83889968   -4.4613251   -4.4613251   -3.2029782 -0.092745313   -4.4613251     1.258347      1024000 
   37000   0.82873645   -4.4474691   -4.4474691    -3.204367 -0.096100307   -4.4474691    1.2431021      1024000 
   38000   0.82689492    -4.445966    -4.445966   -3.2056261 -0.090810642    -4.445966    1.2403399      1024000 
   39000   0.83224126   -4.4550151   -4.4550151   -3.2066557 -0.067851735   -4.4550151    1.2483594      1024000 
   40000   0.84218225   -4.4705399   -4.4705399   -3.2072691 -0.025589846   -4.4705399    1.2632708      1024000 
   41000   0.85444353   -4.4898328   -4.4898328   -3.2081701  0.021345549   -4.4898328    1.2816627      1024000 
   42000   0.86552784   -4.5073951   -4.5073951    -3.209106  0.064515352   -4.5073951    1.2982891      1024000 
   43000   0.87304602   -4.5193377   -4.5193377   -3.2097713   0.10584511   -4.5193377    1.3095664      1024000 
   44000   0.87781627     -4.52735     -4.52735   -3.2106282   0.12653031     -4.52735    1.3167217      1024000 
   45000   0.87870491    -4.529938    -4.529938   -3.2118833   0.12448153    -4.529938    1.3180547      1024000 
   46000   0.87471366   -4.5248509   -4.5248509    -3.212783    0.1087927   -4.5248509    1.3120678      1024000 
   47000   0.86623513   -4.5134227   -4.5134227   -3.2140726  0.084299109   -4.5134227    1.2993501      1024000 
   48000   0.86240052   -4.5087322   -4.5087322   -3.2151341  0.055769917   -4.5087322    1.2935981      1024000 
   49000    0.8578714    -4.503296    -4.503296   -3.2164915  0.044609376    -4.503296    1.2868045      1024000 
   50000   0.85661427   -4.5027457   -4.5027457   -3.2178269  0.040041479   -4.5027457    1.2849188      1024000 
   51000   0.85422299   -4.5002186   -4.5002186   -3.2188867  0.040203255   -4.5002186    1.2813319      1024000 
   52000   0.85426899   -4.5014158   -4.5014158   -3.2200149   0.04792183   -4.5014158    1.2814009      1024000 
   53000   0.85646438   -4.5062505   -4.5062505   -3.2215565  0.041510349   -4.5062505     1.284694      1024000 
   54000   0.85693289   -4.5086072   -4.5086072   -3.2232105  0.056471899   -4.5086072    1.2853967      1024000 
   55000   0.86011893   -4.5155347   -4.5155347    -3.225359  0.060870522   -4.5155347    1.2901758      1024000 
   56000    0.8631125    -4.522069    -4.522069   -3.2274028  0.077833753    -4.522069    1.2946661      1024000 
   57000   0.86483302    -4.526818    -4.526818   -3.2295711  0.089014262    -4.526818    1.2972469      1024000 
   58000   0.86541737   -4.5299972   -4.5299972   -3.2318738  0.098675447   -4.5299972    1.2981234      1024000 
   59000   0.86712695   -4.5351879   -4.5351879   -3.2345001   0.10093528   -4.5351879    1.3006878      1024000 
   60000   0.86775889   -4.5386686   -4.5386686    -3.237033   0.11132786   -4.5386686    1.3016357      1024000 
   61000   0.86822028    -4.542365    -4.542365   -3.2400372   0.11711578    -4.542365    1.3023278      1024000 
   62000   0.87027961    -4.548582    -4.548582   -3.2431653   0.12832941    -4.548582    1.3054168      1024000 
   63000   0.87259413   -4.5559383   -4.5559383   -3.2470498   0.14262507   -4.5559383    1.3088885      1024000 
   64000   0.87639414   -4.5664916   -4.5664916    -3.251903   0.18368919   -4.5664916    1.3145885      1024000 
   65000   0.88727437   -4.5881722   -4.5881722   -3.2572634   0.24791835   -4.5881722    1.3309089      1024000 
   66000   0.89569863    -4.608215    -4.608215   -3.2646698   0.33732812    -4.608215    1.3435452      1024000 
   67000   0.90363046   -4.6292024   -4.6292024   -3.2737595   0.39254722   -4.6292024    1.3554429      1024000 
   68000   0.90221627   -4.6389879   -4.6389879   -3.2856662   0.42422605   -4.6389879    1.3533217      1024000 
   69000   0.89808734   -4.6440794   -4.6440794   -3.2969511     0.422073   -4.6440794    1.3471283      1024000 
   70000   0.88870489   -4.6397021   -4.6397021   -3.3066474   0.41442277   -4.6397021    1.3330546      1024000 
   71000   0.87679964   -4.6403243   -4.6403243   -3.3251275   0.47975552   -4.6403243    1.3151968      1024000 
   72000   0.86365746   -4.6479661   -4.6479661   -3.3524825   0.53786115   -4.6479661    1.2954836      1024000 
   73000   0.85522187   -4.6628968   -4.6628968   -3.3800666   0.55205518   -4.6628968    1.2828302      1024000 
   74000   0.85191674   -4.6797115   -4.6797115    -3.401839   0.54700967   -4.6797115    1.2778725      1024000 
   75000   0.85036011   -4.6958361   -4.6958361   -3.4202985   0.53414251   -4.6958361    1.2755376      1024000 
   76000   0.85346168   -4.7151014   -4.7151014   -3.4349115    0.5272479   -4.7151014    1.2801899      1024000 
   77000   0.85836575   -4.7321381   -4.7321381   -3.4445921   0.53512234   -4.7321381     1.287546      1024000 
   78000   0.85319711   -4.7310006   -4.7310006   -3.4512076   0.49635938   -4.7310006    1.2797931      1024000 
   79000   0.83492656   -4.7074141   -4.7074141   -3.4550268   0.37204881   -4.7074141    1.2523873      1024000 
   80000    0.8137131   -4.6791129   -4.6791129   -3.4585457   0.25555774   -4.6791129    1.2205672      1024000 
   81000   0.79396139   -4.6515533   -4.6515533   -3.4606136   0.15561839   -4.6515533    1.1909397      1024000 
   82000   0.77518029   -4.6253276   -4.6253276   -3.4625595  0.084288996   -4.6253276    1.1627681      1024000 
   83000   0.75737863   -4.6022597   -4.6022597    -3.466194  0.030555755   -4.6022597    1.1360656      1024000 
   84000   0.74169753   -4.5822753   -4.5822753   -3.4697312 -0.032687778   -4.5822753     1.112544      1024000 
   85000   0.72975848    -4.566312    -4.566312   -3.4716765 -0.095891708    -4.566312    1.0946355      1024000 
   86000   0.71803967   -4.5483026   -4.5483026   -3.4712452  -0.15479127   -4.5483026    1.0770573      1024000 
   87000   0.70947359   -4.5325019   -4.5325019   -3.4682937  -0.20411119   -4.5325019    1.0642082      1024000 
   88000   0.70304254   -4.5177676   -4.5177676   -3.4632059  -0.23178264   -4.5177676    1.0545617      1024000 
   89000   0.69819221   -4.5043401   -4.5043401   -3.4570539  -0.24981872   -4.5043401    1.0472862      1024000 
   90000    0.6982231   -4.4976611   -4.4976611   -3.4503286   -0.2589944   -4.4976611    1.0473325      1024000 
   91000   0.69883706   -4.4926796   -4.4926796   -3.4444261  -0.24265339   -4.4926796    1.0482535      1024000 
   92000   0.70317781   -4.4938794   -4.4938794   -3.4391148  -0.22619866   -4.4938794    1.0547646      1024000 
   93000    0.7101355   -4.4998197   -4.4998197   -3.4346186  -0.18810822   -4.4998197    1.0652011      1024000 
   94000    0.7183334   -4.5097589   -4.5097589    -3.432261   -0.1523726   -4.5097589    1.0774979      1024000 
   95000   0.72757263   -4.5238059   -4.5238059   -3.4324492  -0.10634151   -4.5238059    1.0913567      1024000 
   96000   0.73472884   -4.5360578   -4.5360578   -3.4339668 -0.054662909   -4.5360578     1.102091      1024000 
   97000   0.74138977   -4.5508434   -4.5508434    -3.438761 -0.017767415   -4.5508434    1.1120824      1024000 
   98000   0.74538515   -4.5630045   -4.5630045   -3.4449291  0.014655746   -4.5630045    1.1180755      1024000 
   99000   0.74656534   -4.5700725   -4.5700725   -3.4502267  0.023327409   -4.5700725    1.1198457      1024000 
  100000   0.74569532   -4.5741985   -4.5741985   -3.4556578  0.015581359   -4.5741985    1.1185407      1024000 
  101000   0.74183766   -4.5726385   -4.5726385   -3.4598843 -0.0039406976   -4.5726385    1.1127542      1024000 
  102000    0.7386045   -4.5704375   -4.5704375    -3.462533  -0.02472469   -4.5704375    1.1079045      1024000 
  103000   0.73541328   -4.5671778   -4.5671778   -3.4640602 -0.040930058   -4.5671778    1.1031177      1024000 
  104000   0.73278277   -4.5645802   -4.5645802   -3.4654082 -0.050292598   -4.5645802    1.0991719      1024000 
  105000   0.73283564   -4.5653785   -4.5653785   -3.4661273 -0.052113905   -4.5653785    1.0992512      1024000 
  106000   0.73371223   -4.5670024   -4.5670024   -3.4664363 -0.048646737   -4.5670024    1.1005661      1024000 
  107000    0.7358099   -4.5711382   -4.5711382   -3.4674256 -0.038226933   -4.5711382    1.1037126      1024000 
  108000   0.73846512   -4.5759815   -4.5759815    -3.468286  -0.02606006   -4.5759815    1.1076954      1024000 
  109000   0.74091504    -4.580403    -4.580403   -3.4690327 -0.013714975    -4.580403    1.1113703      1024000 
  110000   0.74106621   -4.5828793   -4.5828793   -3.4712822 -0.009948465   -4.5828793    1.1115971      1024000 
  111000    0.7408033   -4.5837581   -4.5837581   -3.4725555 -0.0052402563   -4.5837581    1.1112027      1024000 
  112000   0.73951414   -4.5841463   -4.5841463   -3.4748774 -0.0085374939   -4.5841463     1.109269      1024000 
  113000   0.73804338   -4.5844967   -4.5844967   -3.4774339 -0.0089135688   -4.5844967    1.1070628      1024000 
  114000   0.73657919   -4.5845928   -4.5845928   -3.4797263  -0.01305407   -4.5845928    1.1048665      1024000 
  115000   0.73832879   -4.5884022   -4.5884022   -3.4809112 -0.020796322   -4.5884022    1.1074909      1024000 
  116000   0.73597336   -4.5859182   -4.5859182   -3.4819604 -0.014954928   -4.5859182    1.1039578      1024000 
  117000   0.73810529   -4.5899923   -4.5899923   -3.4828366 -0.019444132   -4.5899923    1.1071557      1024000 
  118000    0.7386788   -4.5912132   -4.5912132   -3.4831972 -0.013572255   -4.5912132    1.1080159      1024000 
  119000   0.74012301   -4.5941665   -4.5941665   -3.4839842 -0.014671832   -4.5941665    1.1101823      1024000 
  120000   0.73804739   -4.5915421   -4.5915421   -3.4844732 -0.011431995   -4.5915421    1.1070688      1024000 
  121000   0.73949557   -4.5945883   -4.5945883   -3.4853472 -0.011190717   -4.5945883    1.1092411      1024000 
  122000   0.74043413   -4.5957632   -4.5957632   -3.4851142 -0.0078606559   -4.5957632    1.1106489      1024000 
  123000   0.73983278   -4.5963151   -4.5963151   -3.4865681 -0.0049631027   -4.5963151    1.1097469      1024000 
  124000   0.74020923   -4.5965405   -4.5965405   -3.4862289 -0.0054814894   -4.5965405    1.1103116      1024000 
  125000   0.73880594   -4.5950498   -4.5950498   -3.4868432 -0.010556249   -4.5950498    1.1082067      1024000 
  126000   0.73891732   -4.5958786   -4.5958786   -3.4875049 -0.0097870923   -4.5958786    1.1083737      1024000 
  127000   0.73845812   -4.5960252   -4.5960252   -3.4883403 0.0015932028   -4.5960252    1.1076849      1024000 
  128000   0.73909907   -4.5971949   -4.5971949   -3.4885486 -0.009058733   -4.5971949    1.1086464      1024000 
  129000    0.7390693   -4.5979933   -4.5979933   -3.4893916 -0.0067337715   -4.5979933    1.1086017      1024000 
  130000   0.73960959   -4.5997858   -4.5997858   -3.4903737 -0.0012828945   -4.5997858    1.1094121      1024000 
  131000   0.74089647   -4.6026019   -4.6026019   -3.4912594 -0.006215873   -4.6026019    1.1113425      1024000 
  132000   0.74148678   -4.6044559   -4.6044559    -3.492228 -0.0021793299   -4.6044559    1.1122279      1024000 
  133000   0.74047735   -4.6034912   -4.6034912   -3.4927774 0.0048663806   -4.6034912    1.1107138      1024000 
  134000   0.74155763   -4.6049475   -4.6049475   -3.4926133 -1.7540162e-06   -4.6049475    1.1123342      1024000 
  135000    0.7413498   -4.6050138   -4.6050138   -3.4929913 0.0038077793   -4.6050138    1.1120224      1024000 
  136000   0.74210408   -4.6072036   -4.6072036   -3.4940498 0.00076699064   -4.6072036    1.1131539      1024000 
  137000   0.74134861    -4.606488    -4.606488   -3.4944673 0.0019065982    -4.606488    1.1120207      1024000 
  138000    0.7418843   -4.6079105   -4.6079105   -3.4950863 -0.0026924513   -4.6079105    1.1128242      1024000 
  139000   0.74194009   -4.6088053   -4.6088053   -3.4958974 0.0019721253   -4.6088053    1.1129079      1024000 
  140000   0.74175715   -4.6091207   -4.6091207   -3.4964872 0.0016863913   -4.6091207    1.1126335      1024000 
  141000   0.74212207   -4.6121951   -4.6121951   -3.4990142 0.0025946743   -4.6121951    1.1131809      1024000 
  142000    0.7428497   -4.6135242   -4.6135242   -3.4992519 0.0084682067   -4.6135242    1.1142723      1024000 
  143000   0.74368882   -4.6146251   -4.6146251   -3.4990941  0.010902119   -4.6146251     1.115531      1024000 
  144000   0.74461407   -4.6170381   -4.6170381   -3.5001193  0.010663953   -4.6170381    1.1169188      1024000 
  145000   0.74536596    -4.618817    -4.618817   -3.5007703   0.01562018    -4.618817    1.1180467      1024000 
  146000   0.74681926    -4.621425    -4.621425   -3.5011984  0.021142314    -4.621425    1.1202266      1024000 
  147000   0.74717212   -4.6232833   -4.6232833   -3.5025274  0.025743177   -4.6232833    1.1207559      1024000 
  148000   0.74888386   -4.6261855   -4.6261855    -3.502862  0.028509097   -4.6261855    1.1233235      1024000 
  149000   0.74904027   -4.6271426   -4.6271426   -3.5035844  0.038258993   -4.6271426    1.1235581      1024000 
  150000   0.74982386   -4.6286923   -4.6286923   -3.5039588   0.04361754   -4.6286923    1.1247335      1024000 
  151000   0.74996905   -4.6304633   -4.6304633   -3.5055121   0.04179697   -4.6304633    1.1249513      1024000 
  152000   0.74985441   -4.6313598   -4.6313598   -3.5065805  0.042479322   -4.6313598    1.1247793      1024000 
  153000   0.75007188   -4.6323163   -4.6323163   -3.5072108  0.039914886   -4.6323163    1.1251055      1024000 
  154000   0.74911615   -4.6310368   -4.6310368   -3.5073649  0.045327884   -4.6310368    1.1236719      1024000 
  155000   0.74999636   -4.6327589   -4.6327589   -3.5077667  0.044348053   -4.6327589    1.1249923      1024000 
  156000   0.75070044   -4.6339357   -4.6339357   -3.5078873  0.047918015   -4.6339357    1.1260484      1024000 
  157000   0.75155059   -4.6368609   -4.6368609   -3.5095373  0.047399171   -4.6368609    1.1273236      1024000 
  158000   0.75111997   -4.6366259   -4.6366259   -3.5099482  0.050420238   -4.6366259    1.1266777      1024000 
  159000   0.75117613   -4.6377081   -4.6377081   -3.5109462  0.054792889   -4.6377081    1.1267619      1024000 
  160000   0.75214079   -4.6405951   -4.6405951   -3.5123862  0.054439256   -4.6405951    1.1282089      1024000 
  161000    0.7532658   -4.6421812   -4.6421812   -3.5122848   0.05674849   -4.6421812    1.1298964      1024000 
  162000     0.753715   -4.6440338   -4.6440338   -3.5134636  0.054685832   -4.6440338    1.1305702      1024000 
  163000   0.75171737   -4.6417177   -4.6417177   -3.5141439  0.062591961   -4.6417177    1.1275738      1024000 
  164000   0.75231874   -4.6440161   -4.6440161   -3.5155403  0.057525071   -4.6440161    1.1284758      1024000 
  165000   0.75075321   -4.6421853   -4.6421853   -3.5160578  0.058037011   -4.6421853    1.1261275      1024000 
  166000   0.75022196   -4.6420574   -4.6420574   -3.5167267   0.05265899   -4.6420574    1.1253307      1024000 
  167000   0.74916651   -4.6409832   -4.6409832   -3.5172357  0.040410365   -4.6409832    1.1237475      1024000 
  168000   0.74736447   -4.6392586   -4.6392586   -3.5182142  0.035538877   -4.6392586    1.1210444      1024000 
  169000    0.7454443   -4.6365508   -4.6365508   -3.5183866  0.029391236   -4.6365508    1.1181642      1024000 
  170000   0.74543554   -4.6358651   -4.6358651   -3.5177141   0.02407562   -4.6358651     1.118151      1024000 
  171000   0.74338813   -4.6324783   -4.6324783   -3.5173983  0.020040077   -4.6324783    1.1150799      1024000 
  172000   0.74219444   -4.6305966   -4.6305966   -3.5173072  0.012193592   -4.6305966    1.1132894      1024000 
  173000   0.74164158   -4.6291595   -4.6291595   -3.5166994 0.0057208844   -4.6291595    1.1124601      1024000 
  174000   0.74215103   -4.6286523   -4.6286523    -3.515428 -0.0043863734   -4.6286523    1.1132243      1024000 
  175000   0.73984298   -4.6245076   -4.6245076   -3.5147454 -0.0060882754   -4.6245076    1.1097622      1024000 
  176000   0.73998412   -4.6234635   -4.6234635   -3.5134896 -0.0081373053   -4.6234635    1.1099739      1024000 
  177000   0.73825607   -4.6197987   -4.6197987   -3.5124168 -0.011303486   -4.6197987    1.1073819      1024000 
  178000   0.73760785   -4.6180805   -4.6180805    -3.511671 -0.016334065   -4.6180805    1.1064095      1024000 
  179000    0.7376405   -4.6159791   -4.6159791   -3.5095206 -0.012918538   -4.6159791    1.1064585      1024000 
  180000   0.73759178   -4.6153366   -4.6153366   -3.5089511  -0.01926477   -4.6153366    1.1063854      1024000 
  181000   0.73815089   -4.6155003   -4.6155003   -3.5082762 -0.023392731   -4.6155003    1.1072241      1024000 
  182000   0.73868675   -4.6150396   -4.6150396   -3.5070118 -0.018539204   -4.6150396    1.1080279      1024000 
  183000   0.73908987   -4.6153737   -4.6153737   -3.5067412 -0.018916941   -4.6153737    1.1086326      1024000 
  184000   0.73887027   -4.6143233   -4.6143233   -3.5060202 -0.0088494169   -4.6143233    1.1083032      1024000 
  185000   0.73984867   -4.6151061   -4.6151061   -3.5053354 -0.010635025   -4.6151061    1.1097708      1024000 
  186000   0.74107942   -4.6169011   -4.6169011   -3.5052842 -0.0029814501   -4.6169011    1.1116169      1024000 
  187000   0.74157626   -4.6173578   -4.6173578   -3.5049957 -0.00081420419   -4.6173578    1.1123621      1024000 
  188000   0.74303682   -4.6185274   -4.6185274   -3.5039744 0.0048341018   -4.6185274     1.114553      1024000 
  189000    0.7434463   -4.6192641   -4.6192641   -3.5040969 0.0066697024   -4.6192641    1.1151672      1024000 
  190000   0.74441767   -4.6208901   -4.6208901   -3.5042658  0.015532603   -4.6208901    1.1166242      1024000 
  191000    0.7452585   -4.6222646   -4.6222646   -3.5043791   0.01668822   -4.6222646    1.1178855      1024000 
  192000    0.7464408   -4.6240129   -4.6240129    -3.504354  0.020526012   -4.6240129    1.1196589      1024000 
  193000   0.74611271   -4.6239456   -4.6239456   -3.5047788  0.028840581   -4.6239456    1.1191668      1024000 
  194000   0.74773334   -4.6261612   -4.6261612   -3.5045634  0.023327183   -4.6261612    1.1215977      1024000 
  195000   0.74883496    -4.627818    -4.627818   -3.5045678  0.028953524    -4.627818    1.1232502      1024000 
  196000   0.74872921    -4.627754    -4.627754   -3.5046625  0.035261404    -4.627754    1.1230915      1024000 
  197000   0.74835087   -4.6277959   -4.6277959   -3.5052719  0.036149801   -4.6277959     1.122524      1024000 
  198000   0.74932878   -4.6305976   -4.6305976   -3.5066068  0.035859145   -4.6305976    1.1239909      1024000 
  199000   0.74838987   -4.6290135   -4.6290135    -3.506431  0.040929197   -4.6290135    1.1225825      1024000 
  200000   0.74895043   -4.6308446   -4.6308446   -3.5074212  0.036959155   -4.6308446    1.1234234      1024000 
  201000   0.74744358   -4.6287501   -4.6287501    -3.507587  0.034454012   -4.6287501    1.1211631      1024000 
  202000   0.74863419    -4.630158    -4.630158    -3.507209  0.023970118    -4.630158     1.122949      1024000 
  203000   0.74747382   -4.6276263   -4.6276263   -3.5064178  0.028665136   -4.6276263    1.1212084      1024000 
  204000   0.74602048   -4.6252519   -4.6252519   -3.5062234  0.027481024   -4.6252519    1.1190285      1024000 
  205000   0.74680249   -4.6259785   -4.6259785    -3.505777  0.022660491   -4.6259785    1.1202015      1024000 
  206000   0.74547111   -4.6241674   -4.6241674    -3.505963  0.020815453   -4.6241674    1.1182044      1024000 
  207000   0.74581098   -4.6247115   -4.6247115   -3.5059973  0.013839017   -4.6247115    1.1187142      1024000 
  208000   0.74432158    -4.622669    -4.622669   -3.5061889  0.010618801    -4.622669    1.1164801      1024000 
  209000   0.74447348   -4.6227086   -4.6227086   -3.5060006 0.0097523757   -4.6227086     1.116708      1024000 
  210000   0.74496477    -4.621562    -4.621562   -3.5041171 0.0061181156    -4.621562    1.1174449      1024000 
  211000   0.74470701   -4.6198949   -4.6198949   -3.5028366 0.0050296263   -4.6198949    1.1170583      1024000 
  212000   0.74293604   -4.6167086   -4.6167086   -3.5023068 0.0069065574   -4.6167086    1.1144018      1024000 
  213000   0.74251058   -4.6149394   -4.6149394   -3.5011757 0.0085712687   -4.6149394    1.1137636      1024000 
  214000   0.74459078   -4.6170573   -4.6170573   -3.5001734 -0.0028072397   -4.6170573    1.1168839      1024000 
  215000   0.74253005   -4.6139692   -4.6139692   -3.5001764 0.00051231013   -4.6139692    1.1137928      1024000 
  216000   0.74367692   -4.6145613   -4.6145613   -3.4990482 -0.0023488305   -4.6145613    1.1155131      1024000 
  217000    0.7433134    -4.613577    -4.613577   -3.4986091 -0.0028040077    -4.613577    1.1149678      1024000 
  218000   0.74432969   -4.6136161   -4.6136161   -3.4971239 -0.002552824   -4.6136161    1.1164923      1024000 
  219000   0.74421731   -4.6132276   -4.6132276   -3.4969039 0.0012883411   -4.6132276    1.1163237      1024000 
  220000   0.74517781   -4.6132005   -4.6132005   -3.4954361 0.00033842755   -4.6132005    1.1177645      1024000 
  221000   0.74393042    -4.610809    -4.610809   -3.4949156 0.0073667614    -4.610809    1.1158934      1024000 
  222000   0.74479412   -4.6117564   -4.6117564   -3.4945674  0.006186562   -4.6117564    1.1171889      1024000 
  223000   0.74357937    -4.609649    -4.609649   -3.4942823 0.0081519715    -4.609649    1.1153668      1024000 
  224000   0.74540116   -4.6118119   -4.6118119   -3.4937124 0.0083476427   -4.6118119    1.1180995      1024000 
  225000   0.74675822   -4.6135965   -4.6135965   -3.4934614 0.0074528749   -4.6135965    1.1201351      1024000 
  226000   0.74656983   -4.6127924   -4.6127924     -3.49294  0.016195506   -4.6127924    1.1198525      1024000 
  227000   0.74635143   -4.6121703   -4.6121703   -3.4926454    0.0139698   -4.6121703    1.1195249      1024000 
  228000   0.74829097   -4.6145344   -4.6145344   -3.4921002  0.014916954   -4.6145344    1.1224342      1024000 
  229000   0.74883715   -4.6144545   -4.6144545   -3.4912011  0.015998484   -4.6144545    1.1232534      1024000 
  230000   0.74867457   -4.6136034   -4.6136034   -3.4905939  0.023460963   -4.6136034    1.1230096      1024000 
  231000   0.74915131   -4.6143108   -4.6143108   -3.4905861  0.022676088   -4.6143108    1.1237247      1024000 
  232000   0.74995229   -4.6148241   -4.6148241   -3.4898979  0.023542857   -4.6148241    1.1249261      1024000 
  233000   0.74991006   -4.6148829   -4.6148829   -3.4900201  0.020137187   -4.6148829    1.1248628      1024000 
  234000   0.74814595   -4.6125074   -4.6125074   -3.4902907  0.022728072   -4.6125074    1.1222167      1024000 
  235000   0.74853051   -4.6123696   -4.6123696   -3.4895761  0.025034232   -4.6123696    1.1227935      1024000 
  236000   0.74814329    -4.611727    -4.611727   -3.4895144  0.025024277    -4.611727    1.1222127      1024000 
  237000   0.74874992   -4.6117396   -4.6117396    -3.488617  0.022812519   -4.6117396    1.1231226      1024000 
  238000   0.74892892   -4.6112199   -4.6112199   -3.4878288  0.020447223   -4.6112199    1.1233911      1024000 
  239000   0.75012873    -4.612683    -4.612683   -3.4874922  0.018846094    -4.612683    1.1251908      1024000 
  240000    0.7489482    -4.610782    -4.610782    -3.487362  0.016959867    -4.610782      1.12342      1024000 
  241000   0.74928017   -4.6104742   -4.6104742   -3.4865562  0.016028179   -4.6104742     1.123918      1024000 
  242000   0.74910621   -4.6090932   -4.6090932   -3.4854362  0.017935835   -4.6090932     1.123657      1024000 
  243000   0.74876242   -4.6085269   -4.6085269   -3.4853855  0.010358238   -4.6085269    1.1231413      1024000 
  244000   0.74848528   -4.6078536   -4.6078536    -3.485128  0.012045829   -4.6078536    1.1227256      1024000 
  245000    0.7489495   -4.6069248   -4.6069248   -3.4835028 0.0087317931   -4.6069248     1.123422      1024000 
  246000   0.74834924    -4.604933    -4.604933   -3.4824114  0.016978876    -4.604933    1.1225216      1024000 
  247000   0.74745429   -4.6034635   -4.6034635   -3.4822844  0.010792135   -4.6034635    1.1211792      1024000 
  248000    0.7483972   -4.6044917   -4.6044917   -3.4818982 0.0040751572   -4.6044917    1.1225935      1024000 
  249000   0.74821541    -4.602869    -4.602869   -3.4805482 0.0047906346    -4.602869    1.1223208      1024000 
  250000   0.74720142   -4.6008394   -4.6008394   -3.4800396 0.0087685132   -4.6008394    1.1207999      1024000 
  251000   0.74740487   -4.6003043   -4.6003043   -3.4791993 0.0091429946   -4.6003043     1.121105      1024000 
  252000   0.74845848   -4.6008264   -4.6008264   -3.4781409 0.0058839311   -4.6008264    1.1226854      1024000 
  253000   0.74847504   -4.5994937   -4.5994937   -3.4767835 0.0088784681   -4.5994937    1.1227103      1024000 
  254000   0.74833719    -4.598955    -4.598955   -3.4764515 0.0076202236    -4.598955    1.1225035      1024000 
  255000   0.74823857   -4.5976431   -4.5976431   -3.4752875  0.010902602   -4.5976431    1.1223556      1024000 
  256000   0.74905887   -4.5986471   -4.5986471    -3.475061 0.0074206606   -4.5986471     1.123586      1024000 
  257000   0.74848201   -4.5971806   -4.5971806   -3.4744599  0.011601529   -4.5971806    1.1227207      1024000 
  258000   0.74989558   -4.5979518   -4.5979518   -3.4731107 0.0077784895   -4.5979518    1.1248411      1024000 
  259000   0.75022583    -4.597788    -4.597788   -3.4724516 0.0093273676    -4.597788    1.1253365      1024000 
  260000   0.75118912   -4.5973005   -4.5973005   -3.4705191  0.011803565   -4.5973005    1.1267814      1024000 
  261000   0.75080608   -4.5968043   -4.5968043   -3.4705974  0.011674888   -4.5968043    1.1262068      1024000 
  262000   0.75181262   -4.5970757   -4.5970757   -3.4693591   0.01128485   -4.5970757    1.1277166      1024000 
  263000   0.75136003   -4.5953541   -4.5953541   -3.4683163  0.015199497   -4.5953541    1.1270378      1024000 
  264000    0.7507916   -4.5954951   -4.5954951     -3.46931  0.016200452   -4.5954951    1.1261851      1024000 
  265000   0.75180708   -4.5958855   -4.5958855   -3.4681772  0.015963912   -4.5958855    1.1277083      1024000 
  266000   0.75220636   -4.5951253   -4.5951253   -3.4668181  0.017428435   -4.5951253    1.1283073      1024000 
  267000    0.7532489    -4.595402    -4.595402   -3.4655309  0.016846062    -4.595402    1.1298711      1024000 
  268000   0.75299445   -4.5945786   -4.5945786   -3.4650893  0.015807577   -4.5945786    1.1294894      1024000 
  269000   0.75168008   -4.5910639   -4.5910639   -3.4635461  0.021606328   -4.5910639    1.1275178      1024000 
  270000   0.75273389   -4.5915106   -4.5915106   -3.4624121  0.023172116   -4.5915106    1.1290985      1024000 
  271000   0.75420604   -4.5927554   -4.5927554   -3.4614487  0.020408022   -4.5927554    1.1313068      1024000 
  272000   0.75344935   -4.5910063   -4.5910063   -3.4608346  0.017916783   -4.5910063    1.1301717      1024000 
  273000   0.75274991   -4.5898571   -4.5898571   -3.4607345  0.016943321   -4.5898571    1.1291226      1024000 
  274000     0.754099   -4.5905455   -4.5905455   -3.4593993  0.015519362   -4.5905455    1.1311462      1024000 
  275000   0.75268425   -4.5879218   -4.5879218   -3.4588977  0.017685608   -4.5879218    1.1290241      1024000 
  276000   0.75282693   -4.5873044   -4.5873044   -3.4580663  0.020865799   -4.5873044    1.1292381      1024000 
  277000   0.75371126   -4.5870929   -4.5870929   -3.4565283  0.017530333   -4.5870929    1.1305646      1024000 
  278000   0.75323236    -4.585455    -4.585455   -3.4556088  0.015127971    -4.585455    1.1298463      1024000 
  279000   0.75249244   -4.5836979   -4.5836979   -3.4549615  0.017796583   -4.5836979    1.1287364      1024000 
  280000   0.75360173   -4.5836148   -4.5836148   -3.4532145  0.014432225   -4.5836148    1.1304003      1024000 
  281000   0.75456848   -4.5840581   -4.5840581   -3.4522077  0.010222439   -4.5840581    1.1318504      1024000 
  282000   0.75380182   -4.5819047   -4.5819047   -3.4512042  0.015058794   -4.5819047    1.1307004      1024000 
  283000   0.75502807   -4.5835196   -4.5835196   -3.4509798 0.0086346303   -4.5835196    1.1325398      1024000 
  284000   0.75232718   -4.5796326   -4.5796326   -3.4511441  0.014410818   -4.5796326    1.1284885      1024000 
  285000   0.75329949   -4.5790596   -4.5790596   -3.4491126 0.0064364104   -4.5790596    1.1299469      1024000 
  286000   0.75401161   -4.5793942   -4.5793942   -3.4483791  0.008213658   -4.5793942    1.1310151      1024000 
  287000   0.75426719    -4.578313    -4.578313   -3.4469145  0.008107417    -4.578313    1.1313985      1024000 
  288000   0.75466829   -4.5782431   -4.5782431   -3.4462429 0.0047601181   -4.5782431    1.1320001      1024000 
  289000   0.75256572   -4.5751311   -4.5751311   -3.4462848 0.0099571989   -4.5751311    1.1288463      1024000 
  290000   0.75254985   -4.5736915   -4.5736915   -3.4448691 0.0078709351   -4.5736915    1.1288225      1024000 
  291000   0.75341225   -4.5740167   -4.5740167   -3.4439006  0.011664848   -4.5740167    1.1301161      1024000 
  292000    0.7546539   -4.5760987   -4.5760987   -3.4441202 0.00068021967   -4.5760987    1.1319785      1024000 
  293000   0.75387906   -4.5738125   -4.5738125   -3.4429963  0.014668024   -4.5738125    1.1308163      1024000 
  294000    0.7553313   -4.5741341   -4.5741341   -3.4411395  0.013621018   -4.5741341    1.1329946      1024000 
  295000    0.7561807   -4.5749625   -4.5749625   -3.4406937   0.01025092   -4.5749625    1.1342687      1024000 
  296000   0.75525644   -4.5727377   -4.5727377   -3.4398553  0.013898743   -4.5727377    1.1328824      1024000 
  297000   0.75660518   -4.5737134   -4.5737134   -3.4388079  0.010670067   -4.5737134    1.1349055      1024000 
  298000   0.75784084    -4.574491    -4.574491   -3.4377321  0.010618411    -4.574491     1.136759      1024000 
  299000   0.75689703   -4.5715774   -4.5715774   -3.4362342  0.018939783   -4.5715774    1.1353432      1024000 
  300000    0.7571813   -4.5716492   -4.5716492   -3.4358795   0.01870696   -4.5716492    1.1357696      1024000 
  301000   0.75729501   -4.5705679   -4.5705679   -3.4346277  0.019245935   -4.5705679    1.1359402      1024000 
  302000   0.75770137   -4.5702308   -4.5702308    -3.433681  0.019360147   -4.5702308    1.1365497      1024000 
  303000   0.75761829   -4.5685434   -4.5685434   -3.4321183  0.025119845   -4.5685434    1.1364251      1024000 
  304000   0.75793893   -4.5686793   -4.5686793   -3.4317733  0.020794194   -4.5686793    1.1369061      1024000 
  305000   0.75917579   -4.5691864   -4.5691864    -3.430425  0.018374027   -4.5691864    1.1387614      1024000 
  306000   0.75916799   -4.5679127   -4.5679127    -3.429163  0.017214311   -4.5679127    1.1387497      1024000 
  307000   0.75967536   -4.5681555   -4.5681555   -3.4286448  0.017531251   -4.5681555    1.1395107      1024000 
  308000   0.75950925   -4.5672791   -4.5672791   -3.4280175  0.018679639   -4.5672791    1.1392616      1024000 
  309000   0.76006928   -4.5673346   -4.5673346    -3.427233  0.015997111   -4.5673346    1.1401016      1024000 
  310000   0.75929088   -4.5657483   -4.5657483   -3.4268143  0.013770904   -4.5657483     1.138934      1024000 
  311000    0.7590645   -4.5647357   -4.5647357   -3.4261412  0.015934655   -4.5647357    1.1385944      1024000 
  312000   0.75861427      -4.5625      -4.5625   -3.4245809  0.016727651      -4.5625    1.1379191      1024000 
  313000   0.75855195    -4.561894    -4.561894   -3.4240683  0.014476378    -4.561894    1.1378256      1024000 
  314000    0.7582925   -4.5604354   -4.5604354    -3.422999  0.013903003   -4.5604354    1.1374364      1024000 
  315000   0.75957354   -4.5605156   -4.5605156   -3.4211576   0.01058712   -4.5605156     1.139358      1024000 
  316000    0.7592287   -4.5595097   -4.5595097    -3.420669  0.006053281   -4.5595097    1.1388407      1024000 
  317000   0.75911283   -4.5581086   -4.5581086   -3.4194416  0.017134758   -4.5581086    1.1386669      1024000 
  318000    0.7595924   -4.5573499   -4.5573499   -3.4179636  0.010640112   -4.5573499    1.1393863      1024000 
  319000   0.75889414   -4.5556348   -4.5556348   -3.4172959  0.011171678   -4.5556348    1.1383389      1024000 
  320000   0.75951724   -4.5554138   -4.5554138   -3.4161402  0.013370607   -4.5554138    1.1392735      1024000 
  321000   0.75996815   -4.5543289   -4.5543289    -3.414379 0.0087275264   -4.5543289    1.1399499      1024000 
  322000   0.75980719   -4.5525889   -4.5525889   -3.4128804  0.014453454   -4.5525889    1.1397085      1024000 
  323000   0.76139641   -4.5532347   -4.5532347   -3.4111424  0.010779084   -4.5532347    1.1420923      1024000 
  324000   0.76020829   -4.5503212   -4.5503212   -3.4100111  0.015807662   -4.5503212    1.1403101      1024000 
  325000   0.76117327    -4.550987    -4.550987   -3.4092294 0.0083940645    -4.550987    1.1417576      1024000 
  326000   0.76046507   -4.5494293   -4.5494293    -3.408734 0.0083366877   -4.5494293    1.1406953      1024000 
  327000   0.76180973   -4.5496956   -4.5496956   -3.4069833 0.0090177622   -4.5496956    1.1427123      1024000 
  328000   0.76119501   -4.5484865   -4.5484865   -3.4066963  0.012538569   -4.5484865    1.1417902      1024000 
  329000   0.76211284   -4.5475459   -4.5475459    -3.404379  0.014678844   -4.5475459    1.1431669      1024000 
  330000   0.76174367   -4.5464862   -4.5464862    -3.403873  0.018019592   -4.5464862    1.1426132      1024000 
  331000   0.76161968   -4.5453124   -4.5453124   -3.4028852  0.018580818   -4.5453124    1.1424272      1024000 
  332000   0.76303316   -4.5462561   -4.5462561   -3.4017087  0.012253826   -4.5462561    1.1445474      1024000 
  333000   0.76328094   -4.5454121   -4.5454121    -3.400493  0.016150212   -4.5454121    1.1449191      1024000 
  334000   0.76384752   -4.5451488   -4.5451488   -3.3993798  0.011176464   -4.5451488     1.145769      1024000 
  335000   0.76381137   -4.5441504   -4.5441504   -3.3984357  0.012168989   -4.5441504    1.1457147      1024000 
  336000   0.76376915    -4.542175    -4.542175   -3.3965236  0.018772174    -4.542175    1.1456514      1024000 
  337000   0.76339857   -4.5411576   -4.5411576   -3.3960621  0.017471296   -4.5411576    1.1450955      1024000 
  338000   0.76394436   -4.5404741   -4.5404741   -3.3945599  0.020601321   -4.5404741    1.1459142      1024000 
  339000   0.76404932   -4.5395508   -4.5395508   -3.3934792  0.017083545   -4.5395508    1.1460717      1024000 
  340000   0.76386332   -4.5390009   -4.5390009   -3.3932083  0.017108674   -4.5390009    1.1457926      1024000 
  341000   0.76440882   -4.5383526   -4.5383526   -3.3917417  0.017484591   -4.5383526    1.1466109      1024000 
  342000    0.7652328   -4.5379569   -4.5379569     -3.39011  0.016490718   -4.5379569    1.1478469      1024000 
  343000   0.76531131   -4.5361368   -4.5361368   -3.3881721  0.021030378   -4.5361368    1.1479646      1024000 
  344000   0.76631437   -4.5366499   -4.5366499   -3.3871807  0.017445796   -4.5366499    1.1494692      1024000 
  345000   0.76594813   -4.5350807   -4.5350807   -3.3861608  0.018288936   -4.5350807    1.1489199      1024000 
  346000   0.76547156   -4.5339658   -4.5339658   -3.3857608  0.012229591   -4.5339658     1.148205      1024000 
  347000   0.76619531   -4.5339077   -4.5339077    -3.384617  0.013568294   -4.5339077    1.1492906      1024000 
  348000   0.76700843    -4.534286    -4.534286   -3.3837756  0.014984222    -4.534286    1.1505103      1024000 
  349000    0.7666489    -4.532251    -4.532251   -3.3822799  0.016234567    -4.532251     1.149971      1024000 
  350000   0.76719868   -4.5312587   -4.5312587    -3.380463  0.012371146   -4.5312587    1.1507957      1024000 
  351000   0.76770143    -4.529835    -4.529835   -3.3782852  0.017473387    -4.529835    1.1515498      1024000 
  352000   0.76756596   -4.5287884   -4.5287884   -3.3774418   0.01655479   -4.5287884    1.1513466      1024000 
  353000   0.76774644   -4.5276214   -4.5276214   -3.3760041  0.013859161   -4.5276214    1.1516173      1024000 
  354000   0.76810475   -4.5264294   -4.5264294   -3.3742746  0.013044549   -4.5264294    1.1521548      1024000 
  355000   0.76931358   -4.5257817   -4.5257817   -3.3718137  0.013725432   -4.5257817     1.153968      1024000 
  356000   0.76871059   -4.5232935   -4.5232935   -3.3702299  0.019384651   -4.5232935    1.1530635      1024000 
  357000   0.76907346   -4.5231565   -4.5231565   -3.3695487  0.019786516   -4.5231565    1.1536078      1024000 
  358000   0.76919401   -4.5218394   -4.5218394   -3.3680507  0.019652161   -4.5218394    1.1537887      1024000 
  359000   0.76973704   -4.5220802   -4.5220802    -3.367477   0.01728605   -4.5220802    1.1546032      1024000 
  360000   0.76760285   -4.5176561   -4.5176561   -3.3662541  0.019133417   -4.5176561    1.1514019      1024000 
  361000   0.76899146   -4.5179167   -4.5179167   -3.3644318  0.013648944   -4.5179167    1.1534849      1024000 
  362000   0.76867556   -4.5168818   -4.5168818   -3.3638708  0.011777388   -4.5168818     1.153011      1024000 
  363000   0.76934878   -4.5153975   -4.5153975   -3.3613767 0.0086309119   -4.5153975    1.1540208      1024000 
  364000   0.76887018   -4.5138902   -4.5138902   -3.3605872  0.010064173   -4.5138902    1.1533029      1024000 
  365000   0.76964857   -4.5134498   -4.5134498   -3.3589793 0.0066994706   -4.5134498    1.1544705      1024000 
  366000   0.76945906   -4.5116786   -4.5116786   -3.3574923 0.0075469363   -4.5116786    1.1541862      1024000 
  367000   0.76967968   -4.5108393   -4.5108393   -3.3563221  0.011187086   -4.5108393    1.1545172      1024000 
  368000   0.77126429   -4.5120879   -4.5120879   -3.3551938  0.010153087   -4.5120879    1.1568941      1024000 
  369000   0.76972568   -4.5092663   -4.5092663   -3.3546801  0.010616039   -4.5092663    1.1545862      1024000 
  370000   0.77063839   -4.5081134   -4.5081134   -3.3521582 0.0077913219   -4.5081134    1.1559552      1024000 
  371000    0.7708857   -4.5077308   -4.5077308   -3.3514046 0.0068306773   -4.5077308    1.1563262      1024000 
  372000   0.77082991    -4.505984    -4.505984   -3.3497414  0.013378128    -4.505984    1.1562425      1024000 
  373000   0.77113592   -4.5054092   -4.5054092   -3.3487077 0.0094211443   -4.5054092    1.1567015      1024000 
  374000   0.77170171   -4.5044196   -4.5044196   -3.3468694 0.0084616756   -4.5044196    1.1575502      1024000 
  375000   0.77138419   -4.5029884   -4.5029884   -3.3459145 0.0093452443   -4.5029884    1.1570739      1024000 
  376000   0.77214562   -4.5024846   -4.5024846   -3.3442685 0.0093397021   -4.5024846    1.1582161      1024000 
  377000   0.77306393   -4.5033076   -4.5033076   -3.3437141 0.0094033676   -4.5033076    1.1595935      1024000 
  378000   0.77143089   -4.5001533   -4.5001533   -3.3430093   0.01427645   -4.5001533     1.157144      1024000 
  379000   0.77277295   -4.5003581   -4.5003581    -3.341201   0.01448072   -4.5003581    1.1591571      1024000 
  380000   0.77362854   -4.5008311   -4.5008311   -3.3403906 0.0081522243   -4.5008311    1.1604405      1024000 
  381000   0.77329794   -4.4989263   -4.4989263   -3.3389818 0.0068354858   -4.4989263    1.1599446      1024000 
  382000   0.77291036   -4.4972576   -4.4972576   -3.3378944  0.011765335   -4.4972576    1.1593632      1024000 
  383000   0.77341865   -4.4963591   -4.4963591   -3.3362335  0.019275156   -4.4963591    1.1601256      1024000 
  384000   0.77469015   -4.4970106   -4.4970106   -3.3349777   0.01612679   -4.4970106    1.1620329      1024000 
  385000   0.77458063   -4.4959142   -4.4959142   -3.3340456  0.019174399   -4.4959142    1.1618686      1024000 
  386000   0.77496063   -4.4957056   -4.4957056   -3.3332671  0.011284774   -4.4957056    1.1624386      1024000 
  387000   0.77436291   -4.4932059   -4.4932059   -3.3316639  0.017333797   -4.4932059     1.161542      1024000 
  388000   0.77535974    -4.493329    -4.493329   -3.3302917  0.012761706    -4.493329    1.1630373      1024000 
  389000    0.7760948   -4.4927789   -4.4927789    -3.328639  0.013791079   -4.4927789    1.1641398      1024000 
  390000   0.77613161   -4.4906239   -4.4906239   -3.3264288  0.017349974   -4.4906239    1.1641951      1024000 
  391000   0.77669376   -4.4894327   -4.4894327   -3.3243944  0.019662306   -4.4894327    1.1650383      1024000 
  392000   0.77763824    -4.490955    -4.490955      -3.3245  0.013043518    -4.490955     1.166455      1024000 
  393000   0.77730392   -4.4896818   -4.4896818   -3.3237283  0.018141914   -4.4896818    1.1659535      1024000 
  394000   0.77788741   -4.4888626   -4.4888626   -3.3220339  0.019558329   -4.4888626    1.1668287      1024000 
  395000   0.77904373   -4.4882558   -4.4882558   -3.3196926  0.021991535   -4.4882558    1.1685632      1024000 
  396000   0.77872277   -4.4877931   -4.4877931   -3.3197113  0.021675364   -4.4877931    1.1680818      1024000 
  397000    0.7782493   -4.4856395   -4.4856395   -3.3182679  0.023936779   -4.4856395    1.1673716      1024000 
  398000   0.77934567   -4.4861448   -4.4861448   -3.3171286   0.01626293   -4.4861448    1.1690161      1024000 
  399000    0.7784493   -4.4839255   -4.4839255   -3.3162539  0.019835915   -4.4839255    1.1676716      1024000 
  400000   0.77903725   -4.4827282   -4.4827282   -3.3141747  0.019832775   -4.4827282    1.1685535      1024000 
  401000   0.77890294   -4.4809385   -4.4809385   -3.3125865  0.014412009   -4.4809385     1.168352      1024000 
  402000   0.77786339   -4.4786088   -4.4786088   -3.3118161  0.016757951   -4.4786088    1.1667927      1024000 
  403000   0.77765616   -4.4769388   -4.4769388    -3.310457   0.01498168   -4.4769388    1.1664819      1024000 
  404000    0.7786942   -4.4770925   -4.4770925   -3.3090536  0.011947022   -4.4770925    1.1680389      1024000 
  405000   0.77898116   -4.4759452   -4.4759452   -3.3074758  0.012280075   -4.4759452    1.1684694      1024000 
  406000   0.77915415   -4.4740385   -4.4740385   -3.3053096   0.01785302   -4.4740385    1.1687288      1024000 
  407000   0.78017732   -4.4745076   -4.4745076    -3.304244  0.012518254   -4.4745076    1.1702636      1024000 
  408000   0.78065067   -4.4731995   -4.4731995   -3.3022258  0.012590074   -4.4731995    1.1709736      1024000 
  409000   0.78030557   -4.4711039   -4.4711039   -3.3006479  0.015659421   -4.4711039     1.170456      1024000 
  410000    0.7809276   -4.4706263   -4.4706263   -3.2992373  0.013307222   -4.4706263     1.171389      1024000 
  411000   0.78050402   -4.4687281   -4.4687281   -3.2979745  0.014901525   -4.4687281    1.1707537      1024000 
  412000   0.78157995   -4.4682917   -4.4682917   -3.2959242  0.007080398   -4.4682917    1.1723675      1024000 
  413000   0.78151007   -4.4668559   -4.4668559   -3.2945931 0.0082353876   -4.4668559    1.1722627      1024000 
  414000   0.78006472   -4.4639645   -4.4639645   -3.2938698  0.009104125   -4.4639645    1.1700947      1024000 
  415000    0.7801118   -4.4616065   -4.4616065   -3.2914412  0.015475864   -4.4616065    1.1701653      1024000 
  416000   0.78087834   -4.4615647   -4.4615647   -3.2902496  0.011734297   -4.4615647    1.1713151      1024000 
  417000   0.78213864   -4.4608356   -4.4608356     -3.28763 0.0073119579   -4.4608356    1.1732056      1024000 
  418000   0.78195066   -4.4594406   -4.4594406    -3.286517 0.0057705888   -4.4594406    1.1729236      1024000 
  419000   0.78209736   -4.4576284   -4.4576284   -3.2844848  0.012107099   -4.4576284    1.1731437      1024000 
  420000   0.78208753   -4.4559378   -4.4559378   -3.2828088    0.0119426   -4.4559378    1.1731289      1024000 
  421000    0.7829464      -4.4566      -4.4566   -3.2821828  0.011183209      -4.4566    1.1744172      1024000 
  422000     0.783776   -4.4561664   -4.4561664   -3.2805048 0.0091050597   -4.4561664    1.1756616      1024000 
  423000   0.78366844     -4.45326     -4.45326   -3.2777597  0.016755411     -4.45326    1.1755003      1024000 
  424000   0.78362658   -4.4515767   -4.4515767   -3.2761392  0.015271604   -4.4515767    1.1754375      1024000 
  425000    0.7849366   -4.4522827   -4.4522827   -3.2748801  0.014089343   -4.4522827    1.1774025      1024000 
  426000   0.78496156   -4.4507468   -4.4507468   -3.2733068  0.010173702   -4.4507468      1.17744      1024000 
  427000   0.78525173   -4.4496903   -4.4496903   -3.2718151  0.012835422   -4.4496903    1.1778752      1024000 
  428000   0.78557035   -4.4484565   -4.4484565   -3.2701033  0.013531665   -4.4484565    1.1783531      1024000 
  429000   0.78563553   -4.4467704   -4.4467704   -3.2683195  0.015898143   -4.4467704    1.1784509      1024000 
  430000   0.78519955    -4.445083    -4.445083   -3.2672861  0.014061458    -4.445083    1.1777969      1024000 
  431000   0.78535174   -4.4440444   -4.4440444   -3.2660192  0.013676055   -4.4440444    1.1780252      1024000 
  432000   0.78692406   -4.4448111   -4.4448111   -3.2644274  0.011766088   -4.4448111    1.1803837      1024000 
  433000   0.78707075   -4.4435026   -4.4435026   -3.2628989  0.013290096   -4.4435026    1.1806037      1024000 
  434000   0.78757345   -4.4439329   -4.4439329   -3.2625751  0.011566428   -4.4439329    1.1813578      1024000 
  435000   0.78751022   -4.4425046   -4.4425046   -3.2612416  0.016013879   -4.4425046    1.1812629      1024000 
  436000   0.78756995   -4.4405641   -4.4405641   -3.2592116   0.01818155   -4.4405641    1.1813525      1024000 
  437000   0.78824577     -4.43952     -4.43952   -3.2571537  0.013230602     -4.43952    1.1823663      1024000 
  438000   0.78815347   -4.4386787   -4.4386787   -3.2564509  0.014370505   -4.4386787    1.1822278      1024000 
  439000   0.78900707   -4.4374278   -4.4374278   -3.2539196  0.016403342   -4.4374278    1.1835082      1024000 
  440000   0.78809131   -4.4353691   -4.4353691   -3.2532346  0.019265682   -4.4353691    1.1821346      1024000 
  441000   0.78903069   -4.4345776   -4.4345776    -3.251034  0.017545385   -4.4345776    1.1835436      1024000 
  442000    0.7902627    -4.435392    -4.435392   -3.2500003  0.010193034    -4.435392    1.1853916      1024000 
  443000   0.78816576   -4.4309903   -4.4309903    -3.248744  0.014528298   -4.4309903    1.1822462      1024000 
  444000   0.78831733   -4.4301046   -4.4301046   -3.2476311  0.012233076   -4.4301046    1.1824736      1024000 
  445000    0.7893079   -4.4296914   -4.4296914    -3.245732  0.010651626   -4.4296914    1.1839594      1024000 
  446000   0.79150423   -4.4314548   -4.4314548   -3.2442009 0.0099333505   -4.4314548    1.1872539      1024000 
  447000   0.78920741    -4.426629    -4.426629   -3.2428203   0.02109482    -4.426629    1.1838087      1024000 
  448000   0.79053927   -4.4265802   -4.4265802   -3.2407737  0.013818491   -4.4265802    1.1858065      1024000 
  449000   0.79075944    -4.425629    -4.425629   -3.2394923  0.014381401    -4.425629    1.1861368      1024000 
  450000   0.79110995   -4.4243325   -4.4243325     -3.23767  0.012382366   -4.4243325    1.1866625      1024000 
  451000   0.79107975   -4.4227999   -4.4227999   -3.2361827   0.01972751   -4.4227999    1.1866172      1024000 
  452000   0.79093111   -4.4205061   -4.4205061   -3.2341118  0.018542808   -4.4205061    1.1863943      1024000 
  453000   0.79111276   -4.4201052   -4.4201052   -3.2334384  0.017752958   -4.4201052    1.1866667      1024000 
  454000    0.7916169   -4.4184363   -4.4184363   -3.2310134  0.016225832   -4.4184363    1.1874229      1024000 
  455000   0.79252148   -4.4180811   -4.4180811   -3.2293013  0.012198665   -4.4180811    1.1887798      1024000 
  456000   0.79272706   -4.4176183   -4.4176183   -3.2285301  0.012112846   -4.4176183    1.1890882      1024000 
  457000   0.79287318   -4.4151867   -4.4151867   -3.2258793  0.015622753   -4.4151867    1.1893074      1024000 
  458000   0.79400812   -4.4147804   -4.4147804   -3.2237707  0.016171095   -4.4147804    1.1910098      1024000 
  459000   0.79356544    -4.413299    -4.413299   -3.2229533  0.014233508    -4.413299    1.1903457      1024000 
  460000   0.79349307    -4.412062    -4.412062   -3.2218248  0.010400844    -4.412062    1.1902372      1024000 
  461000   0.79320653   -4.4106106   -4.4106106   -3.2208032  0.011193006   -4.4106106    1.1898074      1024000 
  462000   0.79349343   -4.4091021   -4.4091021   -3.2188644  0.013379599   -4.4091021    1.1902377      1024000 
  463000   0.79304631    -4.408071    -4.408071   -3.2185039  0.010395346    -4.408071    1.1895671      1024000 
  464000   0.79383285   -4.4077831   -4.4077831   -3.2170362  0.010371818   -4.4077831    1.1907469      1024000 
  465000   0.79465056   -4.4065775   -4.4065775   -3.2146041 0.0078716693   -4.4065775    1.1919734      1024000 
  466000   0.79444303   -4.4049884   -4.4049884   -3.2133263 0.0080769242   -4.4049884    1.1916621      1024000 
  467000   0.79452767   -4.4030621   -4.4030621    -3.211273  0.010276064   -4.4030621    1.1917891      1024000 
  468000   0.79506784   -4.4026857   -4.4026857   -3.2100863  0.010945196   -4.4026857    1.1925993      1024000 
  469000    0.7951073   -4.4007381   -4.4007381   -3.2080796  0.014513206   -4.4007381    1.1926585      1024000 
  470000   0.79475615   -4.3980768   -4.3980768    -3.205945  0.019054016   -4.3980768    1.1921318      1024000 
  471000    0.7956335   -4.3981681   -4.3981681   -3.2047203  0.011788488   -4.3981681    1.1934478      1024000 
  472000   0.79676975   -4.3977729   -4.3977729   -3.2026207  0.013820532   -4.3977729    1.1951522      1024000 
  473000   0.79751658   -4.3963899   -4.3963899   -3.2001175  0.012037429   -4.3963899    1.1962724      1024000 
  474000   0.79770028   -4.3949409   -4.3949409   -3.1983929   0.01868068   -4.3949409     1.196548      1024000 
  475000   0.79734704    -4.393524    -4.393524   -3.1975059   0.01455935    -4.393524    1.1960181      1024000 
  476000    0.7982168   -4.3938249   -4.3938249   -3.1965021  0.012152756   -4.3938249    1.1973228      1024000 
  477000   0.79751968   -4.3910922   -4.3910922   -3.1948151   0.01050485   -4.3910922    1.1962771      1024000 
  478000   0.79701145   -4.3889826   -4.3889826   -3.1934678 0.0076028894   -4.3889826    1.1955147      1024000 
  479000   0.79737206     -4.38782     -4.38782   -3.1917643   0.01316388     -4.38782    1.1960557      1024000 
  480000   0.79778801   -4.3872812   -4.3872812   -3.1906017  0.017346571   -4.3872812    1.1966796      1024000 
  481000   0.79798334   -4.3863601   -4.3863601   -3.1893875  0.010801843   -4.3863601    1.1969726      1024000 
  482000   0.79855807   -4.3852579   -4.3852579   -3.1874232   0.01531107   -4.3852579    1.1978347      1024000 
  483000   0.79894189   -4.3848199   -4.3848199   -3.1864095  0.011274718   -4.3848199    1.1984104      1024000 
  484000   0.79982145   -4.3839456   -4.3839456   -3.1842159  0.014569757   -4.3839456    1.1997297      1024000 
  485000   0.80045827   -4.3829578   -4.3829578   -3.1822729  0.012760806   -4.3829578     1.200685      1024000 
  486000   0.80030654   -4.3815379   -4.3815379   -3.1810805  0.015466776   -4.3815379    1.2004574      1024000 
  487000   0.80133886   -4.3815081   -4.3815081   -3.1795022  0.010307771   -4.3815081    1.2020058      1024000 
  488000   0.80078176    -4.379248    -4.379248   -3.1780778  0.012479159    -4.379248    1.2011702      1024000 
  489000   0.80156143   -4.3785094   -4.3785094   -3.1761696  0.012740495   -4.3785094    1.2023397      1024000 
  490000   0.80071669   -4.3759181   -4.3759181   -3.1748455  0.015581971   -4.3759181    1.2010726      1024000 
  491000    0.8012906   -4.3758283   -4.3758283   -3.1738949  0.012476544   -4.3758283    1.2019335      1024000 
  492000   0.80111892   -4.3750237   -4.3750237   -3.1733478  0.011356899   -4.3750237    1.2016759      1024000 
  493000   0.80198918   -4.3725186   -4.3725186   -3.1695372  0.017815292   -4.3725186    1.2029813      1024000 
  494000   0.80313937   -4.3725706   -4.3725706    -3.167864  0.013778732   -4.3725706    1.2047066      1024000 
  495000   0.80273422   -4.3703361   -4.3703361   -3.1662372  0.015623487   -4.3703361    1.2040989      1024000 
  496000   0.80253999   -4.3687193   -4.3687193   -3.1649118  0.021953911   -4.3687193    1.2038075      1024000 
  497000    0.8032749   -4.3682472   -4.3682472   -3.1633373  0.018375883   -4.3682472    1.2049099      1024000 
  498000   0.80495543   -4.3688179   -4.3688179   -3.1613872  0.013269311   -4.3688179    1.2074307      1024000 
  499000   0.80438143   -4.3660949   -4.3660949   -3.1595252  0.016738836   -4.3660949    1.2065697      1024000 
  500000   0.80432804   -4.3652502   -4.3652502   -3.1587606  0.017475184   -4.3652502    1.2064896      1024000 
  501000    0.8054246   -4.3652741   -4.3652741   -3.1571396  0.011400253   -4.3652741    1.2081344      1024000 
  502000   0.80558709    -4.363283    -4.363283   -3.1549048   0.01519103    -4.363283    1.2083782      1024000 
  503000   0.80639555   -4.3632838   -4.3632838   -3.1536929  0.016230369   -4.3632838    1.2095909      1024000 
  504000   0.80510738   -4.3601512   -4.3601512   -3.1524926  0.018102391   -4.3601512    1.2076586      1024000 
  505000   0.80646378   -4.3603268   -4.3603268   -3.1506335  0.017255896   -4.3603268    1.2096932      1024000 
  506000   0.80625263   -4.3588967   -4.3588967   -3.1495202  0.019621143   -4.3588967    1.2093765      1024000 
  507000   0.80595265   -4.3568795   -4.3568795    -3.147953  0.014782476   -4.3568795    1.2089265      1024000 
  508000   0.80560949   -4.3540411   -4.3540411   -3.1456293  0.015503627   -4.3540411    1.2084118      1024000 
  509000    0.8064288   -4.3531481   -4.3531481   -3.1435073  0.010103274   -4.3531481    1.2096407      1024000 
  510000   0.80663128   -4.3513985   -4.3513985    -3.141454  0.014142841   -4.3513985    1.2099445      1024000 
  511000   0.80539371   -4.3482542   -4.3482542   -3.1401661  0.016300279   -4.3482542    1.2080881      1024000 
  512000   0.80744098   -4.3500363   -4.3500363   -3.1388773 0.0069491761   -4.3500363     1.211159      1024000 
  513000   0.80681248   -4.3473089   -4.3473089   -3.1370926  0.011980155   -4.3473089    1.2102163      1024000 
  514000   0.80816776   -4.3472963   -4.3472963   -3.1350471 0.0089322375   -4.3472963    1.2122492      1024000 
  515000   0.80658358   -4.3441058   -4.3441058   -3.1342329  0.019767501   -4.3441058    1.2098729      1024000 
  516000   0.80864449   -4.3441991   -4.3441991   -3.1312348  0.012074973   -4.3441991    1.2129643      1024000 
  517000   0.80909704   -4.3429466   -4.3429466   -3.1293035  0.015617293   -4.3429466    1.2136431      1024000 
  518000   0.80981054   -4.3421113   -4.3421113   -3.1273979  0.020674842   -4.3421113    1.2147134      1024000 
  519000   0.81032735   -4.3413495   -4.3413495   -3.1258609  0.024124024   -4.3413495    1.2154886      1024000 
  520000   0.80957502   -4.3387484   -4.3387484   -3.1243883  0.022089409   -4.3387484    1.2143601      1024000 
  521000   0.81099027   -4.3375736   -4.3375736   -3.1210907  0.014822211   -4.3375736    1.2164829      1024000 
  522000   0.80950977   -4.3350852   -4.3350852    -3.120823  0.015509478   -4.3350852    1.2142622      1024000 
  523000   0.80911339   -4.3334179   -4.3334179   -3.1197503   0.01576703   -4.3334179    1.2136676      1024000 
  524000    0.8092742   -4.3313298   -4.3313298    -3.117421   0.01133139   -4.3313298    1.2139088      1024000 
  525000    0.8106281   -4.3322051   -4.3322051   -3.1162654 0.0065367835   -4.3322051    1.2159397      1024000 
  526000   0.81085248   -4.3311324   -4.3311324   -3.1148562 0.0042709829   -4.3311324    1.2162763      1024000 
  527000   0.81023485   -4.3278346   -4.3278346   -3.1124848  0.010385744   -4.3278346    1.2153498      1024000 
  528000   0.81099937   -4.3263882   -4.3263882   -3.1098917 0.0045542906   -4.3263882    1.2164966      1024000 
  529000   0.81143801   -4.3251152   -4.3251152   -3.1079607 0.0082721647   -4.3251152    1.2171545      1024000 
  530000    0.8122046   -4.3234581   -4.3234581   -3.1051537  0.011207749   -4.3234581    1.2183044      1024000 
  531000   0.81400008   -4.3241113   -4.3241113   -3.1031136  0.011082681   -4.3241113    1.2209976      1024000 
  532000   0.81320357   -4.3216781   -4.3216781   -3.1018753  0.010802977   -4.3216781    1.2198029      1024000 
  533000   0.81360223   -4.3202265   -4.3202265   -3.0998256  0.019787799   -4.3202265    1.2204009      1024000 
  534000    0.8141459   -4.3190988   -4.3190988   -3.0978824  0.019842293   -4.3190988    1.2212164      1024000 
  535000   0.81468628   -4.3195345   -4.3195345   -3.0975076  0.016763491   -4.3195345    1.2220269      1024000 
  536000   0.81392594   -4.3162457   -4.3162457   -3.0953593  0.018162268   -4.3162457    1.2208864      1024000 
  537000    0.8147983    -4.315633    -4.315633    -3.093438  0.016050346    -4.315633     1.222195      1024000 
  538000   0.81494357   -4.3145087   -4.3145087   -3.0920958 0.0089234487   -4.3145087    1.2224129      1024000 
  539000   0.81433063   -4.3112884   -4.3112884   -3.0897949   0.01063242   -4.3112884    1.2214935      1024000 
  540000   0.81334412   -4.3084044   -4.3084044   -3.0883907  0.010271045   -4.3084044    1.2200137      1024000 
  541000   0.81366656   -4.3072515   -4.3072515   -3.0867542  0.010744938   -4.3072515    1.2204974      1024000 
  542000   0.81585024   -4.3077678   -4.3077678    -3.083995 0.0032245235   -4.3077678    1.2237729      1024000 
  543000   0.81597582   -4.3061734   -4.3061734   -3.0822121 0.0072700299   -4.3061734    1.2239613      1024000 
  544000   0.81537538   -4.3047506   -4.3047506     -3.08169  0.012823402   -4.3047506    1.2230606      1024000 
  545000   0.81524562    -4.303116    -4.303116   -3.0802501  0.016239561    -4.303116     1.222866      1024000 
  546000   0.81527436   -4.3012956   -4.3012956   -3.0783866   0.01613376   -4.3012956    1.2229091      1024000 
  547000   0.81820407   -4.3022008   -4.3022008   -3.0748971  0.017048555   -4.3022008    1.2273036      1024000 
  548000   0.81785949    -4.300051    -4.300051   -3.0732643  0.020077574    -4.300051    1.2267867      1024000 
  549000   0.81889471   -4.2996077   -4.2996077   -3.0712682  0.019738746   -4.2996077    1.2283396      1024000 
  550000    0.8184735   -4.2964345   -4.2964345   -3.0687268  0.021894526   -4.2964345    1.2277078      1024000 
  551000   0.81878464   -4.2951406   -4.2951406   -3.0669661    0.0168996   -4.2951406    1.2281745      1024000 
  552000   0.81972047   -4.2950444   -4.2950444   -3.0654662 0.0081797569   -4.2950444    1.2295782      1024000 
  553000   0.81980751   -4.2936701   -4.2936701   -3.0639613  0.012453344   -4.2936701    1.2297088      1024000 
  554000   0.81872927     -4.29035     -4.29035   -3.0622586  0.016379696     -4.29035    1.2280914      1024000 
  555000   0.82115443   -4.2918366   -4.2918366   -3.0601074  0.014512976   -4.2918366    1.2317291      1024000 
  556000    0.8194721   -4.2873382   -4.2873382   -3.0581325  0.016842416   -4.2873382    1.2292057      1024000 
  557000   0.82020835    -4.286507    -4.286507    -3.056197  0.014604354    -4.286507      1.23031      1024000 
  558000   0.82001156   -4.2843385   -4.2843385   -3.0543237  0.012982352   -4.2843385    1.2300148      1024000 
  559000     0.821309   -4.2854635   -4.2854635   -3.0535025 0.0083567142   -4.2854635     1.231961      1024000 
  560000   0.82067291    -4.282992    -4.282992   -3.0519851  0.012749632    -4.282992    1.2310069      1024000 
  561000   0.82127653   -4.2819162   -4.2819162   -3.0500039  0.018665571   -4.2819162    1.2319123      1024000 
  562000   0.82169219   -4.2803604   -4.2803604   -3.0478246  0.020396588   -4.2803604    1.2325358      1024000 
  563000   0.82203555   -4.2791258   -4.2791258    -3.046075  0.016485519   -4.2791258    1.2330508      1024000 
  564000   0.82215405   -4.2773087   -4.2773087   -3.0440801  0.013169869   -4.2773087    1.2332286      1024000 
  565000   0.82140445   -4.2759633   -4.2759633   -3.0438591   0.01622156   -4.2759633    1.2321042      1024000 
  566000   0.82149079   -4.2746243   -4.2746243   -3.0423906  0.012620331   -4.2746243    1.2322337      1024000 
  567000   0.82129507    -4.271985    -4.271985   -3.0400449  0.013906097    -4.271985    1.2319401      1024000 
  568000   0.82162308   -4.2705989   -4.2705989   -3.0381667  0.011057472   -4.2705989    1.2324321      1024000 
  569000   0.82186243   -4.2672896   -4.2672896   -3.0344984  0.015188614   -4.2672896    1.2327911      1024000 
  570000   0.82187659   -4.2660408   -4.2660408   -3.0332284  0.012348097   -4.2660408    1.2328124      1024000 
  571000   0.82145698   -4.2642642   -4.2642642   -3.0320813 0.0098380683   -4.2642642     1.232183      1024000 
  572000   0.82188086   -4.2632115   -4.2632115   -3.0303927 0.0093242883   -4.2632115    1.2328188      1024000 
  573000   0.82153777   -4.2614004   -4.2614004   -3.0290962  0.011430403   -4.2614004    1.2323042      1024000 
  574000   0.82185725   -4.2604934   -4.2604934     -3.02771  0.012080951   -4.2604934    1.2327834      1024000 
  575000   0.82379366   -4.2608705   -4.2608705   -3.0251825 0.0077153685   -4.2608705     1.235688      1024000 
  576000   0.82378099   -4.2591114   -4.2591114   -3.0234424  0.011180857   -4.2591114     1.235669      1024000 
  577000   0.82342406   -4.2570254   -4.2570254   -3.0218918  0.015490603   -4.2570254    1.2351336      1024000 
  578000   0.82468753   -4.2572303   -4.2572303   -3.0202015  0.011933656   -4.2572303    1.2370288      1024000 
  579000   0.82633549   -4.2574942   -4.2574942   -3.0179935  0.012207661   -4.2574942    1.2395007      1024000 
  580000   0.82487799   -4.2538103   -4.2538103   -3.0164958  0.017055455   -4.2538103    1.2373145      1024000 
  581000   0.82631556   -4.2547475   -4.2547475   -3.0152767   0.01625623   -4.2547475    1.2394708      1024000 
  582000    0.8252444   -4.2510248   -4.2510248   -3.0131607  0.018429212   -4.2510248    1.2378641      1024000 
  583000   0.82615615   -4.2507571   -4.2507571   -3.0115254  0.016258255   -4.2507571    1.2392317      1024000 
  584000   0.82593151   -4.2489227   -4.2489227    -3.010028  0.013626688   -4.2489227    1.2388948      1024000 
  585000   0.82542476   -4.2470185   -4.2470185   -3.0088839  0.010993167   -4.2470185    1.2381346      1024000 
  586000   0.82751344    -4.247423    -4.247423   -3.0061553  0.010861733    -4.247423    1.2412676      1024000 
  587000   0.82748369   -4.2460229   -4.2460229   -3.0047999 0.0086673401   -4.2460229     1.241223      1024000 
  588000   0.82700627   -4.2433802   -4.2433802   -3.0028733  0.013232632   -4.2433802    1.2405069      1024000 
  589000   0.82814165    -4.243823    -4.243823   -3.0016131 0.0096004023    -4.243823      1.24221      1024000 
  590000   0.82840673   -4.2420756   -4.2420756    -2.999468  0.011592274   -4.2420756    1.2426076      1024000 
  591000   0.82907352   -4.2406469   -4.2406469   -2.9970391  0.012422384   -4.2406469    1.2436078      1024000 
  592000   0.82969714   -4.2389662   -4.2389662    -2.994423  0.015737094   -4.2389662    1.2445432      1024000 
  593000   0.82946282   -4.2371775   -4.2371775   -2.9929858  0.022922697   -4.2371775    1.2441917      1024000 
  594000   0.83054886   -4.2367588   -4.2367588   -2.9909381  0.021347661   -4.2367588    1.2458208      1024000 
  595000   0.83130961   -4.2364521   -4.2364521   -2.9894902  0.021166093   -4.2364521    1.2469619      1024000 
  596000   0.83245767   -4.2360813   -4.2360813   -2.9873973   0.01876535   -4.2360813     1.248684      1024000 
  597000   0.83218198   -4.2330406   -4.2330406   -2.9847701  0.018528729   -4.2330406    1.2482704      1024000 
  598000   0.83264696   -4.2319055   -4.2319055   -2.9829376  0.023921201   -4.2319055    1.2489679      1024000 
  599000   0.83330729   -4.2321119   -4.2321119   -2.9821535    0.0182208   -4.2321119    1.2499584      1024000 
  600000   0.83316801   -4.2300521   -4.2300521   -2.9803027  0.016932248   -4.2300521    1.2497495      1024000 
  601000   0.83307666   -4.2272748   -4.2272748   -2.9776624  0.020137042   -4.2272748    1.2496125      1024000 
  602000   0.83230792   -4.2245933   -4.2245933   -2.9761339  0.017471294   -4.2245933    1.2484593      1024000 
  603000   0.83196451   -4.2236271   -4.2236271   -2.9756829  0.014466203   -4.2236271    1.2479442      1024000 
  604000   0.83175604      -4.2214      -4.2214   -2.9737684  0.013259179      -4.2214    1.2476315      1024000 
  605000   0.83333255   -4.2208548   -4.2208548   -2.9708585   0.01271732   -4.2208548    1.2499963      1024000 
  606000   0.83238383   -4.2183817   -4.2183817   -2.9698085  0.011185788   -4.2183817    1.2485732      1024000 
  607000   0.83264864   -4.2163647   -4.2163647   -2.9673943  0.010950533   -4.2163647    1.2489704      1024000 
  608000   0.83368234   -4.2163458   -4.2163458   -2.9658248  0.011373462   -4.2163458     1.250521      1024000 
  609000   0.83350968   -4.2147971   -4.2147971   -2.9645352  0.016881464   -4.2147971     1.250262      1024000 
  610000    0.8338079    -4.213341    -4.213341   -2.9626317   0.01527695    -4.213341    1.2507093      1024000 
  611000   0.83443877   -4.2119081   -4.2119081   -2.9602525  0.016203398   -4.2119081    1.2516556      1024000 
  612000   0.83463723   -4.2093172   -4.2093172   -2.9573639  0.018397122   -4.2093172    1.2519533      1024000 
  613000   0.83566423   -4.2088517   -4.2088517   -2.9553579  0.016321915   -4.2088517    1.2534938      1024000 
  614000   0.83561951   -4.2062538   -4.2062538   -2.9528271   0.01690963   -4.2062538    1.2534267      1024000 
  615000   0.83394273   -4.2029527   -4.2029527   -2.9520411  0.021082464   -4.2029527    1.2509116      1024000 
  616000   0.83558011   -4.2047658   -4.2047658   -2.9513981  0.016070631   -4.2047658    1.2533676      1024000 
  617000   0.83635375   -4.2030405   -4.2030405   -2.9485124  0.017091149   -4.2030405    1.2545281      1024000 
  618000   0.83577128   -4.1996274   -4.1996274    -2.945973  0.015486227   -4.1996274    1.2536544      1024000 
  619000   0.83600668     -4.19785     -4.19785   -2.9438425   0.01383426     -4.19785    1.2540075      1024000 
  620000   0.83564008   -4.1952398   -4.1952398   -2.9417822  0.016728502   -4.1952398    1.2534576      1024000 
  621000   0.83559933   -4.1942684   -4.1942684   -2.9408719  0.015812568   -4.1942684    1.2533965      1024000 
  622000   0.83663972   -4.1931373   -4.1931373   -2.9381803  0.018994434   -4.1931373     1.254957      1024000 
  623000   0.83699529   -4.1921469   -4.1921469   -2.9366565  0.012488158   -4.1921469    1.2554904      1024000 
  624000   0.83808037    -4.191423    -4.191423    -2.934305  0.012146713    -4.191423     1.257118      1024000 
  625000   0.83700002   -4.1880036   -4.1880036   -2.9325061   0.01796157   -4.1880036    1.2554975      1024000 
  626000   0.83675879   -4.1867236   -4.1867236   -2.9315879  0.010003239   -4.1867236    1.2551356      1024000 
  627000   0.83728751   -4.1857219   -4.1857219   -2.9297932 0.0077165267   -4.1857219    1.2559287      1024000 
  628000   0.83708594    -4.183198    -4.183198   -2.9275716  0.017917106    -4.183198    1.2556264      1024000 
  629000   0.83816952   -4.1826871   -4.1826871   -2.9254353  0.015546514   -4.1826871    1.2572517      1024000 
  630000   0.83852351   -4.1812494   -4.1812494   -2.9234667  0.017717276   -4.1812494    1.2577827      1024000 
  631000   0.83822531    -4.177883    -4.177883   -2.9205476  0.019674152    -4.177883    1.2573354      1024000 
  632000   0.83940938   -4.1775709   -4.1775709   -2.9184594   0.01603745   -4.1775709    1.2591115      1024000 
  633000   0.84084178    -4.177808    -4.177808   -2.9165479  0.015147187    -4.177808    1.2612601      1024000 
  634000   0.84072278   -4.1754051   -4.1754051   -2.9143235   0.01896827   -4.1754051    1.2610816      1024000 
  635000   0.84084937    -4.173612    -4.173612   -2.9123405  0.018520868    -4.173612    1.2612715      1024000 
  636000   0.84072725    -4.172236    -4.172236   -2.9111477  0.015006325    -4.172236    1.2610883      1024000 
  637000   0.83976275   -4.1695722   -4.1695722   -2.9099307  0.017831048   -4.1695722    1.2596416      1024000 
  638000   0.84076865   -4.1688353   -4.1688353   -2.9076849  0.019069295   -4.1688353    1.2611504      1024000 
  639000   0.84122557   -4.1667107   -4.1667107    -2.904875  0.020762877   -4.1667107    1.2618358      1024000 
  640000   0.84154331   -4.1660861   -4.1660861   -2.9037737  0.017603016   -4.1660861    1.2623124      1024000 
  641000   0.84220572   -4.1654166   -4.1654166   -2.9021106  0.014062226   -4.1654166     1.263306      1024000 
  642000   0.84221621   -4.1640809   -4.1640809   -2.9007591  0.010979665   -4.1640809    1.2633218      1024000 
  643000   0.84099615    -4.160444    -4.160444   -2.8989523  0.016673108    -4.160444    1.2614917      1024000 
  644000   0.84163649   -4.1599739   -4.1599739   -2.8975218  0.014822479   -4.1599739    1.2624522      1024000 
  645000   0.84175796   -4.1579643   -4.1579643     -2.89533  0.014197583   -4.1579643    1.2626344      1024000 
  646000   0.84183592   -4.1565852   -4.1565852   -2.8938339  0.012997262   -4.1565852    1.2627513      1024000 
  647000   0.84248075   -4.1549603   -4.1549603   -2.8912418  0.016212518   -4.1549603    1.2637186      1024000 
  648000   0.84276833   -4.1532172   -4.1532172   -2.8890673  0.020458905   -4.1532172    1.2641499      1024000 
  649000   0.84391808   -4.1532841   -4.1532841   -2.8874096  0.015833833   -4.1532841    1.2658746      1024000 
  650000   0.84382064   -4.1509843   -4.1509843   -2.8852559  0.017127262   -4.1509843    1.2657284      1024000 
  651000    0.8440512   -4.1500451   -4.1500451   -2.8839709  0.016254075   -4.1500451    1.2660742      1024000 
  652000   0.84485777   -4.1490398   -4.1490398   -2.8817558  0.014217311   -4.1490398    1.2672841      1024000 
  653000   0.84451856   -4.1464887   -4.1464887   -2.8797134  0.017502387   -4.1464887    1.2667753      1024000 
  654000   0.84382331   -4.1441827   -4.1441827   -2.8784503  0.018279881   -4.1441827    1.2657324      1024000 
  655000   0.84532459   -4.1438615   -4.1438615   -2.8758772  0.017704845   -4.1438615    1.2679843      1024000 
  656000   0.84620678    -4.143277    -4.143277   -2.8739694  0.015340602    -4.143277    1.2693076      1024000 
  657000   0.84533597   -4.1394361   -4.1394361   -2.8714347  0.021087433   -4.1394361    1.2680014      1024000 
  658000   0.84583762   -4.1386512   -4.1386512   -2.8698973  0.015839758   -4.1386512    1.2687539      1024000 
  659000   0.84651227   -4.1372675   -4.1372675   -2.8675017  0.014319518   -4.1372675    1.2697658      1024000 
  660000   0.84576746   -4.1348014   -4.1348014   -2.8661528  0.019823229   -4.1348014    1.2686486      1024000 
  661000   0.84574817   -4.1324171   -4.1324171   -2.8637974  0.022808466   -4.1324171    1.2686197      1024000 
  662000   0.84654414   -4.1312877   -4.1312877    -2.861474  0.022332428   -4.1312877    1.2698136      1024000 
  663000   0.84690007   -4.1307158   -4.1307158   -2.8603683  0.015465795   -4.1307158    1.2703475      1024000 
  664000   0.84695434    -4.128787    -4.128787    -2.858358  0.022983471    -4.128787    1.2704289      1024000 
  665000   0.84685641    -4.128334    -4.128334    -2.858052  0.015196591    -4.128334     1.270282      1024000 
  666000   0.84683577   -4.1260023   -4.1260023   -2.8557512  0.020001239   -4.1260023    1.2702511      1024000 
  667000   0.84787666   -4.1259656   -4.1259656   -2.8541532   0.01650407   -4.1259656    1.2718124      1024000 
  668000   0.84896285   -4.1251081   -4.1251081   -2.8516664  0.014218735   -4.1251081    1.2734417      1024000 
  669000    0.8477902   -4.1217513   -4.1217513   -2.8500686   0.02052653   -4.1217513    1.2716827      1024000 
  670000   0.84820262   -4.1196703   -4.1196703   -2.8473689  0.024099889   -4.1196703    1.2723013      1024000 
  671000   0.84816455   -4.1187703   -4.1187703   -2.8465261  0.019614863   -4.1187703    1.2722442      1024000 
  672000   0.84958263   -4.1187628   -4.1187628   -2.8443914  0.021342973   -4.1187628    1.2743714      1024000 
  673000   0.85079842   -4.1184399   -4.1184399   -2.8422449  0.021801308   -4.1184399     1.276195      1024000 
  674000   0.84876013   -4.1139485   -4.1139485   -2.8408109  0.030456566   -4.1139485    1.2731376      1024000 
  675000   0.84992141   -4.1128998   -4.1128998   -2.8380203  0.023421573   -4.1128998    1.2748795      1024000 
  676000   0.85006184   -4.1110542   -4.1110542    -2.835964  0.023973337   -4.1110542    1.2750902      1024000 
  677000   0.85039078   -4.1096382   -4.1096382   -2.8340546  0.022124375   -4.1096382    1.2755836      1024000 
  678000    0.8504739    -4.108688    -4.108688   -2.8329797  0.019071799    -4.108688    1.2757083      1024000 
  679000   0.85017542    -4.106302    -4.106302   -2.8310415  0.017174548    -4.106302    1.2752605      1024000 
  680000   0.84970476   -4.1043426   -4.1043426   -2.8297881  0.014708975   -4.1043426    1.2745546      1024000 
  681000   0.84976814   -4.1020265   -4.1020265   -2.8273769   0.02036155   -4.1020265    1.2746496      1024000 
[...]
  837000   0.96324922    -4.023735    -4.023735   -2.5788641   0.37758154    -4.023735    1.4448709      1024000 
  838000   0.96603877   -4.0270239   -4.0270239   -2.5779687   0.38143533   -4.0270239    1.4490552      1024000 
  839000    0.9654222   -4.0252822   -4.0252822   -2.5771518    0.3653445   -4.0252822    1.4481304      1024000 
  840000   0.96034195   -4.0171707   -4.0171707   -2.5766607   0.34511435   -4.0171707      1.44051      1024000 
  841000   0.95241592   -4.0042267   -4.0042267   -2.5756058   0.31617865   -4.0042267     1.428621      1024000 
  842000   0.94659741   -3.9944591   -3.9944591   -2.5745659   0.27346801   -3.9944591    1.4198932      1024000 
  843000   0.93764869   -3.9801939   -3.9801939   -2.5737237   0.23709969   -3.9801939    1.4064702      1024000 
  844000   0.92709237   -3.9636463   -3.9636463   -2.5730106   0.20049829   -3.9636463    1.3906357      1024000 
  845000   0.91935497   -3.9515839   -3.9515839   -2.5725542   0.16068953   -3.9515839    1.3790297      1024000 
  846000   0.91152165   -3.9387786   -3.9387786   -2.5714989   0.12565139   -3.9387786    1.3672797      1024000 
  847000    0.9057285    -3.929651    -3.929651    -2.571061  0.086101929    -3.929651      1.35859      1024000 
  848000     0.898939   -3.9187189   -3.9187189   -2.5703131  0.069913367   -3.9187189    1.3484058      1024000 
  849000   0.89517085    -3.912021    -3.912021   -2.5692674  0.046038106    -3.912021    1.3427536      1024000 
  850000   0.88990464   -3.9036794   -3.9036794   -2.5688252   0.03820328   -3.9036794    1.3348543      1024000 
  851000   0.88858489   -3.9019047   -3.9019047     -2.56903  0.026188422   -3.9019047    1.3328746      1024000 
  852000    0.8867911   -3.8992129   -3.8992129   -2.5690289  0.022496359   -3.8992129     1.330184      1024000 
  853000   0.88707896   -3.9000233   -3.9000233   -2.5694076   0.02128061   -3.9000233    1.3306157      1024000 
  854000   0.88829103   -3.9017604   -3.9017604   -2.5693265  0.030149356   -3.9017604    1.3324338      1024000 
  855000   0.88916753   -3.9034864   -3.9034864   -2.5697378  0.041127783   -3.9034864    1.3337486      1024000 
  856000   0.89142286   -3.9069711   -3.9069711   -2.5698396   0.04334583   -3.9069711    1.3371316      1024000 
  857000   0.89304998   -3.9098572   -3.9098572   -2.5702849  0.055834476   -3.9098572    1.3395723      1024000 
  858000   0.89469736   -3.9131356   -3.9131356   -2.5710922  0.059763665   -3.9131356    1.3420433      1024000 
  859000    0.8984948   -3.9193038   -3.9193038   -2.5715643  0.058104557   -3.9193038    1.3477395      1024000 
  860000   0.89790434   -3.9188328   -3.9188328    -2.571979  0.074377777   -3.9188328    1.3468538      1024000 
  861000   0.90062561   -3.9231338   -3.9231338   -2.5721981  0.079593151   -3.9231338    1.3509357      1024000 
  862000   0.90127056   -3.9248569   -3.9248569   -2.5729538   0.08487846   -3.9248569    1.3519031      1024000 
  863000   0.90158045   -3.9259628   -3.9259628   -2.5735948  0.081432891   -3.9259628    1.3523679      1024000 
  864000   0.90130218   -3.9260482   -3.9260482   -2.5740976  0.080642482   -3.9260482    1.3519505      1024000 
  865000   0.89971532    -3.923699    -3.923699   -2.5741287  0.075572992    -3.923699    1.3495702      1024000 
  866000   0.89890319   -3.9231107   -3.9231107   -2.5747587  0.072211958   -3.9231107     1.348352      1024000 
  867000   0.89693521   -3.9201125   -3.9201125   -2.5747124  0.071069692   -3.9201125    1.3454001      1024000 
  868000   0.89410672   -3.9161335   -3.9161335   -2.5749761  0.067604761   -3.9161335    1.3411574      1024000 
  869000   0.89484285    -3.917395    -3.917395   -2.5751335  0.055207685    -3.917395    1.3422616      1024000 
  870000   0.89156576   -3.9129675   -3.9129675   -2.5756216  0.049245832   -3.9129675    1.3373459      1024000 
  871000   0.88856187   -3.9090734   -3.9090734   -2.5762334  0.046647266   -3.9090734    1.3328401      1024000 
  872000   0.88808929   -3.9084948   -3.9084948   -2.5763636   0.03983562   -3.9084948    1.3321312      1024000 
  873000   0.88801571   -3.9078925   -3.9078925   -2.5758716  0.039287723   -3.9078925    1.3320209      1024000 
  874000   0.88706536   -3.9065426   -3.9065426   -2.5759472   0.03428818   -3.9065426    1.3305953      1024000 
  875000   0.88587125   -3.9052478   -3.9052478   -2.5764436   0.03845633   -3.9052478    1.3288042      1024000 
  876000   0.88807908   -3.9089977   -3.9089977   -2.5768818  0.037712533   -3.9089977    1.3321159      1024000 
  877000   0.88873838   -3.9099341   -3.9099341   -2.5768292  0.039347659   -3.9099341    1.3331049      1024000 
  878000   0.88978131   -3.9116255   -3.9116255   -2.5769563  0.043018059   -3.9116255    1.3346693      1024000 
  879000   0.89124748   -3.9144055   -3.9144055    -2.577537  0.051354086   -3.9144055    1.3368685      1024000 
  880000   0.89234446   -3.9166292   -3.9166292   -2.5781153  0.054122957   -3.9166292     1.338514      1024000 
  881000   0.89318584   -3.9174111   -3.9174111    -2.577635  0.065813047   -3.9174111     1.339776      1024000 
  882000   0.89372627   -3.9185427   -3.9185427   -2.5779561  0.072791967   -3.9185427    1.3405867      1024000 
  883000    0.8949061   -3.9199217   -3.9199217   -2.5775653  0.072814445   -3.9199217    1.3423564      1024000 
  884000   0.89645979   -3.9225105   -3.9225105   -2.5778236  0.076704251   -3.9225105     1.344687      1024000 
  885000   0.89730055   -3.9239408   -3.9239408   -2.5779927  0.073504086   -3.9239408    1.3459481      1024000 
  886000    0.8970123   -3.9233369   -3.9233369   -2.5778212  0.070783064   -3.9233369    1.3455157      1024000 
  887000   0.89787841   -3.9244642   -3.9244642   -2.5776493  0.073876577   -3.9244642    1.3468149      1024000 
  888000   0.89704626   -3.9230931   -3.9230931   -2.5775264  0.066333792   -3.9230931    1.3455667      1024000 
  889000   0.89425621   -3.9189172   -3.9189172   -2.5775356  0.067467838   -3.9189172    1.3413816      1024000 
  890000   0.89256861   -3.9166455   -3.9166455   -2.5777953  0.066083382   -3.9166455    1.3388502      1024000 
  891000   0.89093432   -3.9143176   -3.9143176   -2.5779188  0.056982197   -3.9143176    1.3363988      1024000 
  892000   0.89017103   -3.9124806   -3.9124806   -2.5772268  0.055917993   -3.9124806    1.3352538      1024000 
  893000    0.8890903   -3.9109145   -3.9109145   -2.5772818  0.045414382   -3.9109145    1.3336327      1024000 
  894000   0.88811727   -3.9095128   -3.9095128   -2.5773396  0.046437558   -3.9095128    1.3321732      1024000 
  895000   0.88856723   -3.9102552   -3.9102552   -2.5774071  0.038366674   -3.9102552    1.3328481      1024000 
  896000   0.88742383   -3.9084639   -3.9084639   -2.5773308  0.034545617   -3.9084639     1.331133      1024000 
  897000   0.88743671    -3.908559    -3.908559   -2.5774066  0.040830645    -3.908559    1.3311524      1024000 
  898000   0.88718224   -3.9077096   -3.9077096   -2.5769389  0.043968781   -3.9077096    1.3307707      1024000 
  899000   0.88629755   -3.9067692   -3.9067692   -2.5773256  0.044890139   -3.9067692    1.3294436      1024000 
  900000   0.88893781   -3.9106114   -3.9106114   -2.5772074  0.044586426   -3.9106114     1.333404      1024000 
  901000   0.88968338   -3.9116568   -3.9116568   -2.5771344  0.049770294   -3.9116568    1.3345224      1024000 
  902000    0.8900118   -3.9123924   -3.9123924   -2.5773774  0.053332624   -3.9123924     1.335015      1024000 
  903000    0.8905362   -3.9133927   -3.9133927   -2.5775911   0.06023839   -3.9133927    1.3358016      1024000 
  904000    0.8915527   -3.9144336   -3.9144336   -2.5771072   0.06595094   -3.9144336    1.3373263      1024000 
  905000   0.89194516   -3.9151039   -3.9151039   -2.5771889     0.063542   -3.9151039     1.337915      1024000 
  906000   0.89298935   -3.9165764   -3.9165764   -2.5770951  0.066685301   -3.9165764    1.3394813      1024000 
  907000   0.89329091   -3.9170565   -3.9170565   -2.5771229  0.066861148   -3.9170565    1.3399337      1024000 
  908000   0.89370621   -3.9179779   -3.9179779   -2.5774214  0.065074459   -3.9179779    1.3405566      1024000 
  909000   0.89390163   -3.9170167   -3.9170167    -2.576167  0.065725213   -3.9170167    1.3408497      1024000 
  910000   0.89405558   -3.9171129   -3.9171129   -2.5760322  0.065321838   -3.9171129    1.3410806      1024000 
  911000    0.8943649   -3.9173255   -3.9173255   -2.5757809  0.065183305   -3.9173255    1.3415446      1024000 
  912000   0.89384078    -3.915892    -3.915892   -2.5751335  0.060475298    -3.915892    1.3407584      1024000 
  913000   0.89267449   -3.9135335   -3.9135335   -2.5745245  0.057984887   -3.9135335     1.339009      1024000 
  914000   0.89177024   -3.9119427   -3.9119427   -2.5742901  0.053459633   -3.9119427    1.3376527      1024000 
  915000   0.89123031   -3.9112463   -3.9112463   -2.5744035  0.045733325   -3.9112463    1.3368427      1024000 
  916000   0.89023523   -3.9099112   -3.9099112   -2.5745611  0.045769985   -3.9099112    1.3353501      1024000 
  917000   0.88928114   -3.9081936   -3.9081936   -2.5742746  0.046192269   -3.9081936     1.333919      1024000 
  918000    0.8881463   -3.9061881   -3.9061881   -2.5739714  0.049430906   -3.9061881    1.3322167      1024000 
  919000   0.88952891   -3.9081889   -3.9081889   -2.5738983  0.042042984   -3.9081889    1.3342907      1024000 
  920000   0.88899629   -3.9071433   -3.9071433   -2.5736516   0.04139536   -3.9071433    1.3334917      1024000 
  921000   0.88886976   -3.9069295   -3.9069295   -2.5736276  0.047969588   -3.9069295    1.3333019      1024000 
  922000   0.88803388   -3.9053595   -3.9053595   -2.5733114  0.049373762   -3.9053595    1.3320481      1024000 
  923000   0.88922715   -3.9067523   -3.9067523   -2.5729143  0.046022719   -3.9067523     1.333838      1024000 
  924000    0.8899699   -3.9077152   -3.9077152    -2.572763  0.049117025   -3.9077152    1.3349521      1024000 
  925000   0.89057784   -3.9084524   -3.9084524   -2.5725884   0.05608111   -3.9084524    1.3358641      1024000 
  926000    0.8916848   -3.9096973   -3.9096973   -2.5721728  0.054472976   -3.9096973    1.3375245      1024000 
  927000   0.89352539    -3.911523    -3.911523   -2.5712376  0.060364028    -3.911523    1.3402854      1024000 
  928000   0.89403871   -3.9115972   -3.9115972   -2.5705419   0.06154978   -3.9115972    1.3410553      1024000 
  929000   0.89385149   -3.9109996   -3.9109996   -2.5702251  0.061177551   -3.9109996    1.3407745      1024000 
  930000   0.89315371   -3.9096342   -3.9096342   -2.5699063  0.063273917   -3.9096342    1.3397278      1024000 
  931000   0.89539733   -3.9122801   -3.9122801   -2.5691868  0.062737603   -3.9122801    1.3430933      1024000 
  932000   0.89504115   -3.9118677   -3.9118677   -2.5693087  0.060276984   -3.9118677     1.342559      1024000 
  933000   0.89558079   -3.9120453   -3.9120453   -2.5686769  0.057689482   -3.9120453    1.3433685      1024000 
  934000   0.89290063   -3.9079403   -3.9079403   -2.5685921  0.059129448   -3.9079403    1.3393482      1024000 
  935000   0.89400442   -3.9093912   -3.9093912   -2.5683873  0.052700643   -3.9093912    1.3410039      1024000 
  936000   0.89210238   -3.9056983   -3.9056983   -2.5675475  0.054484069   -3.9056983    1.3381509      1024000 
  937000   0.89226002     -3.90574     -3.90574   -2.5673527  0.054530401     -3.90574    1.3383873      1024000 
  938000   0.89243318   -3.9054928   -3.9054928   -2.5668457  0.047682326   -3.9054928     1.338647      1024000 
  939000   0.89289532   -3.9055082   -3.9055082   -2.5661679  0.043863633   -3.9055082    1.3393403      1024000 
  940000   0.89063399   -3.9015743   -3.9015743    -2.565626  0.052685695   -3.9015743    1.3359483      1024000 
  941000   0.89002686   -3.9004588   -3.9004588   -2.5654212   0.04540312   -3.9004588    1.3350376      1024000 
  942000   0.89009948   -3.9007465   -3.9007465      -2.5656  0.044364186   -3.9007465    1.3351465      1024000 
  943000   0.88969075   -3.9001057   -3.9001057   -2.5655723   0.05104285   -3.9001057    1.3345334      1024000 
  944000   0.89230255   -3.9033514   -3.9033514   -2.5649003  0.048174502   -3.9033514    1.3384511      1024000 
  945000   0.89078333   -3.9007742   -3.9007742   -2.5646019  0.052921397   -3.9007742    1.3361723      1024000 
  946000   0.89244975   -3.9032493   -3.9032493   -2.5645774  0.047111238   -3.9032493    1.3386719      1024000 
  947000    0.8931611   -3.9034008   -3.9034008   -2.5636619  0.050197561   -3.9034008    1.3397389      1024000 
  948000    0.8942958   -3.9043661   -3.9043661   -2.5629251  0.051404014   -3.9043661     1.341441      1024000 
  949000   0.89449965   -3.9044131   -3.9044131   -2.5626663  0.056812979   -3.9044131    1.3417468      1024000 
  950000   0.89485548   -3.9044339   -3.9044339   -2.5621535  0.058207763   -3.9044339    1.3422805      1024000 
  951000   0.89515208   -3.9047094   -3.9047094    -2.561984  0.058354983   -3.9047094    1.3427254      1024000 
  952000    0.8949944   -3.9041392   -3.9041392   -2.5616503  0.061522658   -3.9041392    1.3424889      1024000 
  953000   0.89464317   -3.9030621   -3.9030621      -2.5611  0.061527024   -3.9030621     1.341962      1024000 
  954000   0.89540627   -3.9038719   -3.9038719   -2.5607652  0.055130376   -3.9038719    1.3431067      1024000 
  955000   0.89583754   -3.9038084   -3.9038084   -2.5600548  0.056832525   -3.9038084    1.3437536      1024000 
  956000   0.89560426   -3.9028368   -3.9028368   -2.5594331  0.055348872   -3.9028368    1.3434037      1024000 
  957000   0.89425698   -3.9004793   -3.9004793   -2.5590966  0.054233125   -3.9004793    1.3413827      1024000 
  958000   0.89336173   -3.8990803   -3.8990803   -2.5590405   0.05411102   -3.8990803    1.3400399      1024000 
  959000    0.8939903   -3.8990251   -3.8990251   -2.5580423  0.051887949   -3.8990251    1.3409827      1024000 
  960000   0.89556732   -3.9008442   -3.9008442   -2.5574959  0.050939549   -3.9008442    1.3433483      1024000 
  961000   0.89497336   -3.8996632   -3.8996632   -2.5572059  0.050031411   -3.8996632    1.3424573      1024000 
  962000   0.89405048   -3.8976196   -3.8976196   -2.5565466  0.051280377   -3.8976196     1.341073      1024000 
  963000   0.89468431   -3.8978893   -3.8978893   -2.5558655  0.049755268   -3.8978893    1.3420237      1024000 
  964000   0.89438281   -3.8967291   -3.8967291   -2.5551576  0.052129728   -3.8967291    1.3415715      1024000 
  965000   0.89454057   -3.8969113   -3.8969113   -2.5551032  0.049725448   -3.8969113    1.3418081      1024000 
  966000   0.89458539   -3.8962856   -3.8962856   -2.5544103  0.055320996   -3.8962856    1.3418754      1024000 
  967000   0.89447844   -3.8960603   -3.8960603   -2.5543454  0.055149013   -3.8960603    1.3417149      1024000 
  968000    0.8956549   -3.8973295   -3.8973295   -2.5538499  0.048339776   -3.8973295    1.3434796      1024000 
  969000   0.89602727   -3.8975585   -3.8975585   -2.5535203  0.050990167   -3.8975585    1.3440382      1024000 
  970000   0.89694586    -3.898457    -3.898457    -2.553041  0.049531056    -3.898457    1.3454161      1024000 
  971000   0.89721138   -3.8986021   -3.8986021   -2.5527878  0.052079803   -3.8986021    1.3458143      1024000 
  972000    0.8968388   -3.8972449   -3.8972449   -2.5519894  0.059105085   -3.8972449    1.3452555      1024000 
  973000    0.8970371   -3.8972568   -3.8972568   -2.5517039  0.053769023   -3.8972568    1.3455529      1024000 
  974000   0.89749245   -3.8969446   -3.8969446   -2.5507087  0.050061616   -3.8969446    1.3462359      1024000 
  975000   0.89894561    -3.898776    -3.898776   -2.5503603  0.054063341    -3.898776    1.3484157      1024000 
  976000   0.89775199    -3.896544    -3.896544   -2.5499188  0.053206448    -3.896544    1.3466253      1024000 
  977000   0.89800909   -3.8969271   -3.8969271   -2.5499162  0.053662701   -3.8969271    1.3470109      1024000 
  978000   0.89786328   -3.8956654   -3.8956654   -2.5488732  0.056583328   -3.8956654    1.3467922      1024000 
  979000   0.89855515   -3.8965861   -3.8965861   -2.5487561   0.05247757   -3.8965861      1.34783      1024000 
  980000   0.89813617   -3.8957453   -3.8957453   -2.5485437  0.055601452   -3.8957453    1.3472015      1024000 
  981000   0.89714682   -3.8935649   -3.8935649   -2.5478474  0.055640443   -3.8935649    1.3457175      1024000 
  982000   0.89748568   -3.8932687   -3.8932687   -2.5470429  0.051783052   -3.8932687    1.3462258      1024000 
  983000   0.89750635   -3.8925546   -3.8925546   -2.5462978  0.052747692   -3.8925546    1.3462568      1024000 
  984000   0.89840915    -3.893489    -3.893489    -2.545878  0.052046698    -3.893489     1.347611      1024000 
  985000   0.89793783   -3.8924752   -3.8924752   -2.5455712  0.055037398   -3.8924752     1.346904      1024000 
  986000   0.89839646   -3.8921698   -3.8921698   -2.5445779  0.051125682   -3.8921698    1.3475919      1024000 
  987000   0.89810514   -3.8915082   -3.8915082   -2.5443532  0.052031688   -3.8915082     1.347155      1024000 
  988000   0.89871246   -3.8924022   -3.8924022   -2.5443363  0.057084779   -3.8924022     1.348066      1024000 
  989000   0.89957702   -3.8931267   -3.8931267   -2.5437639  0.055406814   -3.8931267    1.3493628      1024000 
  990000   0.90084218   -3.8946746   -3.8946746   -2.5434141  0.059736743   -3.8946746    1.3512605      1024000 
  991000   0.90056745   -3.8933394   -3.8933394    -2.542491    0.0635671   -3.8933394    1.3508484      1024000 
  992000   0.90290344   -3.8965339   -3.8965339   -2.5421814  0.066476899   -3.8965339    1.3543524      1024000 
  993000     0.905452   -3.8997435   -3.8997435   -2.5415682  0.069168977   -3.8997435    1.3581752      1024000 
  994000   0.90745689   -3.9024656   -3.9024656    -2.541283  0.075729972   -3.9024656    1.3611826      1024000 
  995000   0.90970414   -3.9058282   -3.9058282   -2.5412748  0.092278265   -3.9058282    1.3645534      1024000 
  996000   0.91363316   -3.9108785   -3.9108785   -2.5404315   0.10135657   -3.9108785     1.370447      1024000 
  997000   0.91788821   -3.9170479   -3.9170479   -2.5402184   0.12113496   -3.9170479    1.3768295      1024000 
  998000   0.92206601   -3.9230695   -3.9230695   -2.5399733   0.13899348   -3.9230695    1.3830962      1024000 
  999000   0.92727178   -3.9304373   -3.9304373   -2.5395324   0.16281536   -3.9304373    1.3909048      1024000 
 1000000   0.93265174   -3.9382868   -3.9382868    -2.539312   0.17891313   -3.9382868    1.3989748      1024000 
Loop time of 16083.9 on 32 procs for 1000000 steps with 492800 atoms

Performance: 13429.544 tau/day, 62.174 timesteps/s
99.1% CPU use with 32 MPI tasks x 1 OpenMP threads

MPI task timing breakdown:
Section |  min time  |  avg time  |  max time  |%varavg|  %CPU | %total
-----------------------------------------------------------------------
Pair    | 6059.8     | 8072.5     | 9770.8     |1213.7 |  99.3 | 50.19
Bond    | 0.38422    | 0.7931     | 1.238      |  30.6 | 100.0 |  0.00
Neigh   | 1262.9     | 1772.3     | 2222       | 657.9 |  99.8 | 11.02
Comm    | 3134.1     | 5127.7     | 7660.8     |1927.8 |  98.3 | 31.88
Output  | 37.789     | 38.021     | 38.085     |   0.8 |  98.0 |  0.24
Modify  | 204.44     | 426.19     | 1182.6     |1297.3 |  99.0 |  2.65
Other   |            | 646.5      |            |       |       |  4.02

Nlocal:        15400.0 ave       15752 max       13834 min
Histogram: 1 0 1 1 0 0 1 2 13 13
Nghost:        12109.4 ave       13830 max        8072 min
Histogram: 4 0 4 0 0 0 0 4 4 16
Neighs:       502889.0 ave      582961 max      247433 min
Histogram: 3 1 0 0 0 0 2 6 8 12

Total # of neighbors = 16092446
Ave neighs/atom = 32.655126
Ave special neighs/atom = 0.0000000
Neighbor list builds = 62035
Dangerous builds = 66
Total wall time: 4:28:05
