LAMMPS (24 Dec 2020)
OMP_NUM_THREADS environment is not set. Defaulting to 1 thread. (src/comm.cpp:94)
  using 1 OpenMP thread(s) per MPI task
#Read the equilibrated lj fluid and add nanocubes

units           lj
atom_style      full
#atom_modify     map array first cubes
dimension       3
boundary        p p f
pair_style      lj/cut/opt 2.5

variable        sigma           equal 1.0
variable        epsilon         equal 1.0
read_restart	restart.dat.10000000
Reading restart file ...
  restart file = 24 Dec 2020, LAMMPS = 24 Dec 2020
  restoring atom style full from restart
  orthogonal box = (0.0000000 0.0000000 0.0000000) to (120.00000 120.00000 240.00000)
  6 by 8 by 16 MPI processor grid
  restoring pair style lj/cut/opt from restart
  1714209 atoms
Finding 1-2 1-3 1-4 neighbors ...
  special bond factors lj:    0        0        0       
  special bond factors coul:  0        0        0       
     0 = max # of 1-2 neighbors
     0 = max # of 1-3 neighbors
     0 = max # of 1-4 neighbors
     1 = max # of special neighbors
  special bonds CPU = 9.551 seconds
  read_restart CPU = 11.141 seconds

group		solvent type 1
1154139 atoms in group solvent
group 		hull  type 2
218540 atoms in group hull
group 		dummy type 3
341530 atoms in group dummy

neighbor      0.4 bin
neigh_modify  exclude molecule/intra cubes

pair_modify   shift yes

pair_coeff    1 1 1.0 1.0 #solvent
pair_coeff    2 2 1.0 1.0 1.12 #np
pair_coeff    3 3 0.0 0.0 0.0 #dummy
pair_coeff    2 3 0.0 0.0 0.0 #np dummy
pair_coeff    1 2 ${sol} 1.0  #np solvent
pair_coeff    1 2 0.55 1.0  
pair_coeff    1 3 0.0 0.0 0.0 #dummy solvent


comm_modify   mode multi cutoff/multi 1 2.5 cutoff/multi 2 2.5 cutoff/multi 3 6.95

reset_timestep 	0

balance 	1.05 shift z 10 1.05
Balancing ...
Unused restart file global fix info:
  fix style: STORE, fix ID: msd_COMPUTE_STORE
Unused restart file peratom fix info:
  fix style: STORE, fix ID: bin1_COMPUTE_STORE
  fix style: STORE, fix ID: bin3_COMPUTE_STORE
Neighbor list info ...
  update every 1 steps, delay 10 steps, check yes
  max neighbors/atom: 2000, page size: 100000
  master list distance cutoff = 2.9
  ghost atom cutoff = 6.96
  binsize = 1.45, bins = 83 83 166
  1 neighbor lists, perpetual/occasional/extra = 1 0 0
  (1) pair lj/cut/opt, perpetual
      attributes: half, newton on
      pair build: half/bin/newton
      stencil: half/bin/3d/newton
      bin: standard
 rebalancing time: 0.045 seconds
  iteration count = 3
  initial/final maximal load/proc = 3395.0000 3232.0000
  initial/final imbalance factor  = 1.5210281 1.4480008
  x cuts: 0.0000000 0.16666667 0.33333333 0.50000000 0.66666667 0.83333333 1.0000000
  y cuts: 0.0000000 0.12500000 0.25000000 0.37500000 0.50000000 0.62500000 0.75000000 0.87500000 1.0000000
  z cuts: 0.0000000 0.054687500 0.10156250 0.14843750 0.19531250 0.23437500 0.29687500 0.35937500 0.39062500 0.45312500 0.50781250 0.52343750 0.58593750 0.64843750 0.71093750 0.77343750 1.0000000

####################### WALLS ###########################

variable       epsilonWall equal 2*${epsilon}
variable       epsilonWall equal 2*1
variable       repulsive   equal   0.7147*${sigma}
variable       repulsive   equal   0.7147*1
variable       full	   equal   3*${sigma}
variable       full	   equal   3*1
region         lowWall block EDGE EDGE EDGE EDGE EDGE 2

fix            topWall all wall/lj93 zhi EDGE 	       ${epsilonWall} ${sigma} ${repulsive} units box
fix            topWall all wall/lj93 zhi EDGE 	       2 ${sigma} ${repulsive} units box
fix            topWall all wall/lj93 zhi EDGE 	       2 1 ${repulsive} units box
fix            topWall all wall/lj93 zhi EDGE 	       2 1 0.7147 units box
fix            lowSol solvent wall/lj93 zlo EDGE                ${epsilonWall} ${sigma} ${full} units box
fix            lowSol solvent wall/lj93 zlo EDGE                2 ${sigma} ${full} units box
fix            lowSol solvent wall/lj93 zlo EDGE                2 1 ${full} units box
fix            lowSol solvent wall/lj93 zlo EDGE                2 1 3 units box
fix 	       lowCub cubes wall/lj93 zlo EDGE                ${epsilonWall} ${sigma} ${repulsive} units box
fix 	       lowCub cubes wall/lj93 zlo EDGE                2 ${sigma} ${repulsive} units box
fix 	       lowCub cubes wall/lj93 zlo EDGE                2 1 ${repulsive} units box
fix 	       lowCub cubes wall/lj93 zlo EDGE                2 1 0.7147 units box


###################### COMPUTES ##########################

compute        bin1 solvent chunk/atom bin/1d z lower 1.0 units box
compute        bin3 solvent chunk/atom bin/3d x lower 5.0 y lower 5.0 z lower 5.0 units box

compute 	pe solvent 	   pe/atom
compute 	pe2 all 	   pe/atom

######################  FIXES ############################


fix             peclet solvent ave/chunk 10 10 10000 bin1 density/number norm                  none ave one file density.profile

fix              temp solvent ave/chunk 10 10 10000 bin1 temp norm                  none ave one file temp.profile

fix 		 dens solvent ave/chunk 10 10 500000 bin3 density/number norm 		 none ave one file dens3.profile

fix		 temp2 solvent ave/chunk 10 10 500000 bin3 temp norm none ave one file temp3.profile

fix 		pe solvent ave/chunk 1 1 500000 bin3 c_pe norm none ave one file pe3.profile



################### INTEGRATION

fix             1 cubes rigid/nve/small molecule
  create bodies CPU = 0.054 seconds
  490 rigid bodies with 560070 atoms
  6.9554839 = max distance from body owner to body atom

fix             2 solvent nve



## Thermostat
region          regthermo block EDGE EDGE EDGE EDGE 0 15
group           thermo dynamic solvent region regthermo every 1000
dynamic group thermo defined
fix             3 thermo langevin ${temp} ${temp} 10 156453
fix             3 thermo langevin 1.0 ${temp} 10 156453
fix             3 thermo langevin 1.0 1.0 10 156453

## Evaporation
region		regevap block EDGE EDGE EDGE EDGE 140 EDGE
fix 		4 solvent evaporate ${evap} 1 regevap 156415
fix 		4 solvent evaporate 37 1 regevap 156415


#### Load balancing

fix             bal all balance 1000 1.05 shift z 10 1.05

############### Diagnostics and computes ###################

compute        	com cubes          rigid/local   1 mol x y z
compute        	quat cubes         rigid/local   1 mol quatw quati quatj quatk

compute 	cc2 cubes 	   chunk/atom 	 molecule
compute 	msd cubes 	   msd/chunk 	 cc2

fix 		msd all ave/time  1 1 10000 c_msd[*] file dump.msd ave one mode vector

dump            1 all custom 500000 dump.lammpstrj id mol type x y z vx vy vz c_pe2
dump		sol  solvent custom 500000 dump.soltrj id x y z vx vy vz c_pe
dump		cubetrj cubes custom 500000 cubes.lammpstrj id mol type x y z vx vy vz
dump            com cubes local 500000 dump.*.xyz c_com[*]
dump	        xyz hull xyz 500000 cubes.xyz
#dump            quat cubes      local 100000 dump.*.quat c_quat[*]
dump		order cubes 	local 100000 dump.*.order c_com[*] c_quat[*]
#dump		mol cubes molfile 10000 mol.xyz xyz


dump            2 all image 100000 image.*.png type type zoom 1.5 size 1280 720
dump_modify     2 pad 8
dump		image cubes image 100000 image_cubes.*.png type type zoom 1.5 size 1280 720
dump_modify	image pad 8
dump            3 all movie 5000 movie.avi type type zoom 1.5 size 1280 720
dump		4 cubes movie 5000 movie_cubes.avi type type size 1280 720


thermo          1000
thermo_style    custom step temp epair evdwl etotal press pe ke atoms

restart         1000000 restart.dat
timestep        0.005
timer           full
New timer settings: style=full  mode=nosync  timeout=off

run 		${steps}
run 		30000000
Per MPI rank memory allocation (min/avg/max) = 17.02 | 23.01 | 26.51 Mbytes
Step Temp E_pair E_vdwl TotEng Press PotEng KinEng Atoms 
       0    1.0136177   -2.0682942   -2.0682942   -1.0437563  0.089811991   -2.0682942    1.0245379  1714209 
    1000    1.0123837   -2.0669985   -2.0669985   -1.0436918  0.072253708   -2.0669985    1.0233067  1714182 
    2000    1.0130046   -2.0677054   -2.0677054    -1.043755  0.071371364   -2.0677054    1.0239504  1714155 
    3000    1.0120334   -2.0670204   -2.0670204   -1.0440355  0.075712456   -2.0670204    1.0229849  1714128 
    4000    1.0120747   -2.0669742   -2.0669742   -1.0439315  0.073909893   -2.0669742    1.0230427  1714101 
    5000    1.0122359   -2.0672843   -2.0672843   -1.0440626  0.076402558   -2.0672843    1.0232218  1714074 
    6000    1.0125394   -2.0674084   -2.0674084   -1.0438637  0.071264117   -2.0674084    1.0235447  1714047 
    7000    1.0120738   -2.0670238   -2.0670238   -1.0439336  0.071125685   -2.0670238    1.0230902  1714020 
    8000    1.0114039   -2.0663214   -2.0663214   -1.0438924  0.067241031   -2.0663214    1.0224291  1713993 
    9000    1.0105151   -2.0659407   -2.0659407    -1.044394  0.068626577   -2.0659407    1.0215467  1713966 
   10000    1.0112945   -2.0663669   -2.0663669   -1.0440162  0.071632424   -2.0663669    1.0223507  1713939 
   11000    1.0113739   -2.0664189   -2.0664189   -1.0439719  0.068385361   -2.0664189     1.022447  1713912 
   12000    1.0117713   -2.0665642   -2.0665642   -1.0436993  0.070096078   -2.0665642    1.0228649  1713885 
   13000    1.0120763   -2.0670914   -2.0670914    -1.043902  0.073980269   -2.0670914    1.0231894  1713858 
   14000    1.0106302     -2.06566     -2.06566   -1.0439165   0.06830489     -2.06566    1.0217435  1713831 
   15000    1.0110591   -2.0662934   -2.0662934   -1.0441002  0.069746286   -2.0662934    1.0221932  1713804 
   16000    1.0114853   -2.0664178   -2.0664178   -1.0437776  0.071871838   -2.0664178    1.0226402  1713777 
   17000    1.0111031   -2.0655812   -2.0655812   -1.0433113  0.072725352   -2.0655812    1.0222699  1713750 
   18000    1.0116387   -2.0657814   -2.0657814   -1.0429539  0.071105107   -2.0657814    1.0228275  1713723 
   19000    1.0109962   -2.0653383   -2.0653383   -1.0431443  0.068545018   -2.0653383    1.0221941  1713696 
   20000    1.0112123   -2.0653017   -2.0653017    -1.042873  0.072128712   -2.0653017    1.0224287  1713669 
   21000    1.0113417   -2.0655353   -2.0655353   -1.0429597  0.068504034   -2.0655353    1.0225756  1713642 
   22000    1.0114489   -2.0655078   -2.0655078   -1.0428077  0.070273596   -2.0655078    1.0227001  1713615 
   23000    1.0114666     -2.06561     -2.06561   -1.0428758  0.071150849     -2.06561    1.0227342  1713588 
   24000    1.0108417    -2.065012    -2.065012   -1.0428935  0.072507594    -2.065012    1.0221184  1713561 
   25000    1.0104089     -2.06449     -2.06449   -1.0427932  0.069024023     -2.06449    1.0216968  1713534 
   26000    1.0110049   -2.0648772   -2.0648772   -1.0425616  0.069917001   -2.0648772    1.0223156  1713507 
   27000     1.010885   -2.0650837   -2.0650837   -1.0428733  0.072668262   -2.0650837    1.0222104  1713480 
   28000    1.0112904   -2.0650835   -2.0650835   -1.0424469  0.070596956   -2.0650835    1.0226366  1713453 
   29000    1.0107758   -2.0651812   -2.0651812   -1.0430489  0.069648864   -2.0651812    1.0221322  1713426 
   30000     1.010447     -2.06446     -2.06446   -1.0426442  0.069197526     -2.06446    1.0218159  1713399 
   31000    1.0108116   -2.0649288   -2.0649288   -1.0427281  0.069439786   -2.0649288    1.0222007  1713372 
   32000    1.0113951   -2.0654842   -2.0654842   -1.0426773  0.069840879   -2.0654842    1.0228069  1713345 
   33000    1.0100757   -2.0643933   -2.0643933   -1.0429045  0.066021105   -2.0643933    1.0214887  1713318 
   34000    1.0102043   -2.0642531   -2.0642531   -1.0426182  0.068761208   -2.0642531    1.0216348  1713291 
   35000    1.0102936   -2.0644162   -2.0644162   -1.0426749  0.071268088   -2.0644162    1.0217413  1713264 
   36000    1.0095528   -2.0633008   -2.0633008   -1.0422926  0.076226344   -2.0633008    1.0210082  1713237 
   37000    1.0092971   -2.0635956   -2.0635956   -1.0428293  0.068919413   -2.0635956    1.0207662  1713209 
   38000     1.010156   -2.0641423   -2.0641423   -1.0424913  0.072225574   -2.0641423     1.021651  1713182 
   39000    1.0099075    -2.064235    -2.064235   -1.0428192  0.070501448    -2.064235    1.0214157  1713155 
   40000     1.010046   -2.0639841   -2.0639841   -1.0424122  0.067364641   -2.0639841    1.0215719  1713128 
   41000    1.0098039   -2.0636621   -2.0636621   -1.0423189  0.070011998   -2.0636621    1.0213432  1713101 
   42000    1.0103262   -2.0642218   -2.0642218   -1.0423342  0.069582126   -2.0642218    1.0218876  1713074 
   43000    1.0103358   -2.0637994   -2.0637994   -1.0418861  0.073187788   -2.0637994    1.0219133  1713047 
   44000    1.0108046   -2.0641379   -2.0641379   -1.0417342  0.074105927   -2.0641379    1.0224037  1713020 
   45000    1.0100288   -2.0635979   -2.0635979   -1.0419629  0.069652831   -2.0635979     1.021635  1712993 
   46000    1.0100356   -2.0632243   -2.0632243   -1.0415663  0.070910584   -2.0632243     1.021658  1712966 
   47000    1.0100571   -2.0631516   -2.0631516   -1.0414557  0.071209677   -2.0631516    1.0216959  1712939 
   48000     1.010143   -2.0633675   -2.0633675   -1.0415686  0.068160406   -2.0633675    1.0217988  1712912 
   49000    1.0101749   -2.0631563   -2.0631563    -1.041309  0.070909724   -2.0631563    1.0218473  1712885 
   50000    1.0103553    -2.062871    -2.062871   -1.0408251  0.068941955    -2.062871    1.0220458  1712858 
   51000    1.0099603   -2.0622563   -2.0622563    -1.040594  0.072101637   -2.0622563    1.0216623  1712831 
   52000    1.0103816   -2.0627913   -2.0627913   -1.0406866  0.071808571   -2.0627913    1.0221047  1712804 
   53000    1.0104777   -2.0625325   -2.0625325   -1.0403145  0.070657518   -2.0625325     1.022218  1712777 
   54000    1.0106991   -2.0626539   -2.0626539   -1.0401959  0.070665398   -2.0626539     1.022458  1712750 
   55000    1.0103986    -2.062459    -2.062459   -1.0402888  0.072625893    -2.062459    1.0221702  1712723 
   56000    1.0117332   -2.0639932   -2.0639932   -1.0404568  0.069777493   -2.0639932    1.0235365  1712696 
   57000    1.0108063   -2.0628232   -2.0628232   -1.0402084  0.074177561   -2.0628232    1.0226149  1712669 
   58000    1.0107555   -2.0634737   -2.0634737   -1.0408941   0.06903002   -2.0634737    1.0225796  1712642 
   59000    1.0113823    -2.063569    -2.063569    -1.040339  0.070027223    -2.063569    1.0232299  1712615 
   60000    1.0113182   -2.0636872   -2.0636872    -1.040506  0.071837653   -2.0636872    1.0231812  1712588 
   61000    1.0114939   -2.0637774   -2.0637774   -1.0404023  0.074084136   -2.0637774    1.0233751  1712561 
   62000     1.011244   -2.0638249   -2.0638249   -1.0406866  0.070973395   -2.0638249    1.0231384  1712534 
   63000    1.0106723   -2.0631967   -2.0631967   -1.0406206   0.07237771   -2.0631967    1.0225761  1712507 
   64000    1.0107642     -2.06384     -2.06384   -1.0411548  0.068963735     -2.06384    1.0226852  1712480 
   65000    1.0102922   -2.0638924   -2.0638924   -1.0416687  0.071159567   -2.0638924    1.0222237  1712453 
   66000     1.010396   -2.0638538   -2.0638538    -1.041509  0.069757697   -2.0638538    1.0223448  1712426 
   67000    1.0096984   -2.0634363   -2.0634363   -1.0417812   0.07021446   -2.0634363    1.0216551  1712399 
   68000    1.0111095   -2.0642503   -2.0642503   -1.0411512  0.073930916   -2.0642503    1.0230991  1712372 
   69000    1.0102864   -2.0639959   -2.0639959   -1.0417135  0.068722499   -2.0639959    1.0222824  1712345 
   70000    1.0098534   -2.0634419   -2.0634419   -1.0415817  0.068347194   -2.0634419    1.0218602  1712318 
   71000     1.010815   -2.0643492   -2.0643492   -1.0414998  0.074336099   -2.0643492    1.0228495  1712291 
   72000     1.010257   -2.0636504   -2.0636504   -1.0413495  0.074721009   -2.0636504    1.0223009  1712264 
   73000    1.0094237   -2.0628543   -2.0628543   -1.0413806  0.072838802   -2.0628543    1.0214738  1712237 
   74000     1.010352   -2.0636552   -2.0636552   -1.0412252  0.072358001   -2.0636552    1.0224299  1712209 
   75000    1.0099988   -2.0634484   -2.0634484   -1.0413598  0.069685038   -2.0634484    1.0220886  1712182 
   76000    1.0101109   -2.0630124   -2.0630124   -1.0407942  0.071425892   -2.0630124    1.0222182  1712155 
   77000    1.0098734   -2.0627196   -2.0627196   -1.0407256  0.070868376   -2.0627196     1.021994  1712128 
   78000    1.0091796   -2.0625681   -2.0625681   -1.0412603  0.066521871   -2.0625681    1.0213079  1712101 
   79000    1.0095959     -2.06253     -2.06253   -1.0407847  0.070972411     -2.06253    1.0217453  1712074 
   80000    1.0086974   -2.0616157   -2.0616157   -1.0407637  0.072131566   -2.0616157    1.0208521  1712047 
   81000    1.0094699   -2.0625594   -2.0625594   -1.0409094  0.071614296   -2.0625594    1.0216501  1712020 
   82000    1.0093872   -2.0620312   -2.0620312   -1.0404487  0.073327969   -2.0620312    1.0215825  1711993 
   83000    1.0096283   -2.0617271   -2.0617271   -1.0398845  0.071482454   -2.0617271    1.0218426  1711966 
   84000    1.0104042   -2.0620926   -2.0620926   -1.0394486  0.075641088   -2.0620926     1.022644  1711939 
   85000    1.0110466   -2.0629901   -2.0629901   -1.0396798  0.072022437   -2.0629901    1.0233103  1711912 
   86000    1.0102536   -2.0624063   -2.0624063   -1.0398825  0.067628511   -2.0624063    1.0225238  1711885 
   87000    1.0107796   -2.0629411   -2.0629411   -1.0398687  0.068899108   -2.0629411    1.0230723  1711858 
   88000    1.0095611   -2.0616789   -2.0616789   -1.0398238   0.07223051   -2.0616789    1.0218551  1711831 
   89000    1.0091292   -2.0617328   -2.0617328   -1.0402987  0.075757422   -2.0617328    1.0214341  1711804 
   90000    1.0101646   -2.0623506   -2.0623506   -1.0398524  0.071629376   -2.0623506    1.0224982  1711777 
   91000    1.0102947   -2.0627324   -2.0627324   -1.0400864  0.069904182   -2.0627324    1.0226461  1711750 
   92000     1.009948   -2.0626529   -2.0626529   -1.0403416   0.07229347   -2.0626529    1.0223113  1711723 
   93000    1.0099709   -2.0629827   -2.0629827   -1.0406322  0.073164089   -2.0629827    1.0223506  1711696 
   94000    1.0097321   -2.0627857   -2.0627857   -1.0406607  0.075415661   -2.0627857    1.0221249  1711669 
   95000    1.0095451   -2.0623409   -2.0623409   -1.0403891  0.070536949   -2.0623409    1.0219518  1711642 
   96000    1.0099546   -2.0628788   -2.0628788   -1.0404964  0.068193428   -2.0628788    1.0223824  1711615 
   97000    1.0095941   -2.0625415   -2.0625415   -1.0405079  0.072876497   -2.0625415    1.0220336  1711588 
   98000    1.0091166   -2.0618254   -2.0618254    -1.040259  0.072062905   -2.0618254    1.0215664  1711561 
   99000    1.0094245   -2.0619897   -2.0619897   -1.0400955  0.073676663   -2.0619897    1.0218941  1711534 
  100000    1.0088148   -2.0611644   -2.0611644   -1.0398714  0.070996279   -2.0611644    1.0212931  1711507 
  101000    1.0095511   -2.0615255   -2.0615255   -1.0394709  0.072258811   -2.0615255    1.0220545  1711480 
  102000    1.0087475   -2.0609826   -2.0609826   -1.0397255  0.070656466   -2.0609826    1.0212572  1711453 
  103000    1.0083162   -2.0607817   -2.0607817   -1.0399451  0.073792096   -2.0607817    1.0208366  1711426 
  104000    1.0080637   -2.0609232   -2.0609232   -1.0403261  0.068885812   -2.0609232    1.0205971  1711399 
  105000    1.0084496   -2.0616981   -2.0616981   -1.0406943  0.069172658   -2.0616981    1.0210038  1711372 
  106000    1.0092644   -2.0620095   -2.0620095   -1.0401646  0.069828633   -2.0620095     1.021845  1711345 
  107000    1.0097405   -2.0620857   -2.0620857   -1.0397427  0.069459717   -2.0620857    1.0223431  1711318 
  108000    1.0090147   -2.0610991   -2.0610991   -1.0394748   0.07029819   -2.0610991    1.0216243  1711291 
  109000    1.0082725   -2.0603481   -2.0603481   -1.0394591  0.070903514   -2.0603481     1.020889  1711264 
  110000     1.007722   -2.0602176   -2.0602176   -1.0398698  0.068302931   -2.0602176    1.0203477  1711237 
  111000    1.0096871   -2.0616014   -2.0616014   -1.0392474  0.068921341   -2.0616014    1.0223541  1711209 
  112000    1.0093625   -2.0610674   -2.0610674   -1.0390258  0.069881518   -2.0610674    1.0220416  1711182 
  113000    1.0090636   -2.0607024   -2.0607024   -1.0389473  0.071652724   -2.0607024    1.0217551  1711155 
  114000    1.0104136   -2.0619901   -2.0619901   -1.0388519   0.06906407   -2.0619901    1.0231382  1711128 
  115000      1.00944   -2.0609325   -2.0609325    -1.038764  0.073520559   -2.0609325    1.0221685  1711101 
  116000    1.0095375   -2.0609507   -2.0609507   -1.0386674  0.068482847   -2.0609507    1.0222834  1711074 
  117000     1.009413   -2.0607491   -2.0607491   -1.0385757  0.072364432   -2.0607491    1.0221734  1711047 
  118000    1.0091022   -2.0605632   -2.0605632   -1.0386885  0.070330968   -2.0605632    1.0218748  1711020 
  119000     1.008834   -2.0608023   -2.0608023    -1.039183  0.069970808   -2.0608023    1.0216193  1710993 
  120000    1.0090272   -2.0607349   -2.0607349   -1.0389038  0.066372416   -2.0607349    1.0218311  1710966 
  121000    1.0087349   -2.0603735   -2.0603735   -1.0388223  0.070076062   -2.0603735    1.0215512  1710939 
  122000    1.0091694   -2.0606698   -2.0606698   -1.0386625  0.071042503   -2.0606698    1.0220073  1710912 
  123000    1.0084136   -2.0600093   -2.0600093   -1.0387512  0.073905263   -2.0600093     1.021258  1710885 
  124000    1.0094829   -2.0613321   -2.0613321    -1.038975  0.072557166   -2.0613321    1.0223571  1710858 
  125000    1.0094874   -2.0611606   -2.0611606   -1.0387828  0.069844715   -2.0611606    1.0223778  1710831 
  126000    1.0087105   -2.0603607   -2.0603607   -1.0387536  0.072137126   -2.0603607    1.0216071  1710804 
  127000    1.0091892   -2.0609428   -2.0609428   -1.0388347  0.069879018   -2.0609428    1.0221081  1710777 
  128000    1.0091689   -2.0604964   -2.0604964   -1.0383928  0.074242425   -2.0604964    1.0221036  1710750 
  129000    1.0089064   -2.0602585   -2.0602585   -1.0384046  0.070619347   -2.0602585    1.0218539  1710723 
  130000    1.0090557   -2.0606117   -2.0606117   -1.0385906  0.070761221   -2.0606117    1.0220212  1710696 
  131000    1.0082639   -2.0602142   -2.0602142   -1.0389789  0.068842439   -2.0602142    1.0212354  1710669 
  132000    1.0082691   -2.0598547   -2.0598547   -1.0385979  0.072467605   -2.0598547    1.0212567  1710642 
  133000    1.0090976   -2.0604231   -2.0604231   -1.0383111  0.070965529   -2.0604231     1.022112  1710615 
  134000    1.0089631   -2.0601573   -2.0601573   -1.0381653  0.070204773   -2.0601573     1.021992  1710588 
  135000    1.0085953    -2.059694    -2.059694   -1.0380584    0.0737226    -2.059694    1.0216355  1710561 
  136000    1.0096833   -2.0605795   -2.0605795   -1.0378258  0.070269113   -2.0605795    1.0227538  1710534 
  137000     1.008876   -2.0599378   -2.0599378   -1.0379857  0.070465228   -2.0599378    1.0219521  1710507 
  138000    1.0085011   -2.0597222   -2.0597222   -1.0381338  0.069389079   -2.0597222    1.0215884  1710480 
  139000    1.0080272   -2.0592305   -2.0592305   -1.0381059  0.070379951   -2.0592305    1.0211246  1710453 
  140000     1.007933   -2.0588278   -2.0588278   -1.0377826  0.073125965   -2.0588278    1.0210453  1710426 
  141000    1.0084833   -2.0594833   -2.0594833   -1.0378645  0.073218384   -2.0594833    1.0216188  1710399 
  142000    1.0092674   -2.0598479   -2.0598479   -1.0374186  0.067078164   -2.0598479    1.0224293  1710372 
  143000    1.0077886   -2.0588107   -2.0588107   -1.0378634  0.068204956   -2.0588107    1.0209473  1710345 
  144000    1.0084919   -2.0592002   -2.0592002   -1.0375242  0.072480491   -2.0592002    1.0216759  1710318 
  145000    1.0085477   -2.0591147   -2.0591147   -1.0373661  0.074762558   -2.0591147    1.0217486  1710291 
  146000    1.0090229   -2.0598595   -2.0598595   -1.0376133  0.071180036   -2.0598595    1.0222462  1710264 
  147000    1.0083227   -2.0587292   -2.0587292   -1.0371762  0.070943818   -2.0587292    1.0215529  1710237 
  148000    1.0086983   -2.0593107   -2.0593107   -1.0373605  0.071540092   -2.0593107    1.0219502  1710209 
  149000    1.0085019   -2.0590634   -2.0590634   -1.0372961  0.072838162   -2.0590634    1.0217673  1710182 
  150000    1.0087397   -2.0595335   -2.0595335   -1.0375092  0.067829908   -2.0595335    1.0220243  1710155 
  151000    1.0082962   -2.0592448   -2.0592448   -1.0376537  0.070790199   -2.0592448    1.0215912  1710128 
  152000    1.0083423   -2.0596763   -2.0596763   -1.0380223  0.070368542   -2.0596763     1.021654  1710101 
  153000    1.0078953   -2.0585969   -2.0585969   -1.0373797  0.069326474   -2.0585969    1.0212172  1710074 
  154000    1.0086404   -2.0598711   -2.0598711   -1.0378828  0.070745634   -2.0598711    1.0219883  1710047 
  155000    1.0081512    -2.058682    -2.058682   -1.0371733  0.068618576    -2.058682    1.0215088  1710020 
  156000    1.0080726   -2.0588179   -2.0588179   -1.0373727   0.07493169   -2.0588179    1.0214452  1709993 
  157000    1.0075554   -2.0586437   -2.0586437   -1.0377064  0.070389536   -2.0586437    1.0209373  1709966 
  158000    1.0088209   -2.0601491   -2.0601491   -1.0379133   0.06737351   -2.0601491    1.0222358  1709939 
  159000    1.0083027   -2.0594144   -2.0594144   -1.0376876  0.066281447   -2.0594144    1.0217268  1709912 
  160000     1.008017   -2.0586861   -2.0586861   -1.0372327  0.073920169   -2.0586861    1.0214534  1709885 
  161000     1.007907   -2.0586065   -2.0586065   -1.0372485  0.070521763   -2.0586065     1.021358  1709858 
  162000    1.0078875   -2.0585074   -2.0585074    -1.037153  0.070765853   -2.0585074    1.0213545  1709831 
  163000    1.0076153   -2.0584469   -2.0584469   -1.0373522  0.068067457   -2.0584469    1.0210947  1709804 
  164000    1.0090003   -2.0595013   -2.0595013   -1.0369869  0.068892817   -2.0595013    1.0225144  1709777 
  165000    1.0091022   -2.0594963   -2.0594963   -1.0368625  0.073792858   -2.0594963    1.0226338  1709750 
  166000    1.0087824   -2.0589334   -2.0589334   -1.0366075  0.072710159   -2.0589334    1.0223259  1709723 
  167000    1.0088166    -2.058496    -2.058496   -1.0361193  0.068236826    -2.058496    1.0223767  1709696 
  168000    1.0088261   -2.0592787   -2.0592787   -1.0368762  0.068209323   -2.0592787    1.0224025  1709669 
  169000     1.008794    -2.058673    -2.058673   -1.0362869  0.068900465    -2.058673    1.0223861  1709642 
  170000    1.0082796   -2.0579203   -2.0579203   -1.0360394  0.072647512   -2.0579203    1.0218809  1709615 
  171000    1.0092924   -2.0591064   -2.0591064    -1.036183  0.071532945   -2.0591064    1.0229235  1709588 
  172000    1.0084045   -2.0583886   -2.0583886   -1.0363488  0.072536248   -2.0583886    1.0220398  1709561 
  173000    1.0087628   -2.0588812   -2.0588812   -1.0364622  0.072878728   -2.0588812     1.022419  1709534 
  174000    1.0088893   -2.0590428   -2.0590428   -1.0364794  0.071578512   -2.0590428    1.0225634  1709507 
  175000    1.0092035   -2.0597088   -2.0597088   -1.0368107  0.069535748   -2.0597088     1.022898  1709480 
  176000    1.0093402   -2.0596305   -2.0596305   -1.0365777  0.069975086   -2.0596305    1.0230527  1709453 
  177000    1.0082557   -2.0588693   -2.0588693   -1.0368997  0.074477475   -2.0588693    1.0219696  1709426 
  178000    1.0086703    -2.059092    -2.059092   -1.0366859  0.069228687    -2.059092     1.022406  1709399 
  179000    1.0089104   -2.0596317   -2.0596317   -1.0369662  0.068260899   -2.0596317    1.0226655  1709372 
  180000    1.0093039   -2.0595934   -2.0595934   -1.0365129  0.072109596   -2.0595934    1.0230805  1709345 
  181000    1.0100895   -2.0599808   -2.0599808   -1.0360877   0.07113098   -2.0599808    1.0238931  1709318 
  182000    1.0088807   -2.0588064   -2.0588064   -1.0361225  0.074457622   -2.0588064    1.0226839  1709291 
  183000    1.0084441   -2.0586794   -2.0586794   -1.0364219  0.068693034   -2.0586794    1.0222575  1709264 
  184000    1.0088145   -2.0590936   -2.0590936   -1.0364445  0.072672665   -2.0590936    1.0226491  1709237 
  185000    1.0088429   -2.0590284   -2.0590284   -1.0363338  0.072508101   -2.0590284    1.0226946  1709209 
  186000    1.0092984   -2.0594499   -2.0594499   -1.0362773  0.070106967   -2.0594499    1.0231726  1709182 
  187000     1.007602   -2.0577999   -2.0577999    -1.036331  0.070751702   -2.0577999     1.021469  1709155 
  188000    1.0079718   -2.0583142   -2.0583142   -1.0364543  0.070947506   -2.0583142      1.02186  1709128 
  189000    1.0075212   -2.0576036   -2.0576036   -1.0361843  0.071159554   -2.0576036    1.0214193  1709101 
  190000    1.0082437   -2.0580609   -2.0580609   -1.0358929   0.07432945   -2.0580609     1.022168  1709074 
  191000    1.0077423   -2.0577547   -2.0577547    -1.036079  0.074396436   -2.0577547    1.0216757  1709047 
  192000    1.0081883   -2.0582336   -2.0582336   -1.0360896  0.070379964   -2.0582336     1.022144  1709020 
  193000    1.0079883   -2.0583962   -2.0583962   -1.0364388   0.06928698   -2.0583962    1.0219575  1708993 
  194000    1.0083306   -2.0584359   -2.0584359   -1.0361152  0.070537327   -2.0584359    1.0223207  1708966 
  195000    1.0082909   -2.0585895   -2.0585895   -1.0362929  0.069513019   -2.0585895    1.0222966  1708939 
  196000    1.0070625   -2.0573225   -2.0573225   -1.0362553  0.072420964   -2.0573225    1.0210672  1708912 
  197000    1.0077744   -2.0582458   -2.0582458   -1.0364406  0.071473753   -2.0582458    1.0218051  1708885 
  198000    1.0078969    -2.058557    -2.058557   -1.0366115  0.068840949    -2.058557    1.0219456  1708858 
  199000    1.0072603    -2.058272    -2.058272   -1.0369558  0.070181674    -2.058272    1.0213162  1708831 
  200000    1.0067843   -2.0577667   -2.0577667   -1.0369171   0.07415016   -2.0577667    1.0208497  1708804 
  201000    1.0066398    -2.057188    -2.057188   -1.0364687  0.070666999    -2.057188    1.0207193  1708777 
  202000    1.0071213   -2.0576511   -2.0576511   -1.0364275  0.069738365   -2.0576511    1.0212237  1708750 
  203000    1.0062562   -2.0572353   -2.0572353   -1.0368727  0.069611302   -2.0572353    1.0203626  1708723 
  204000    1.0068603   -2.0573293   -2.0573293   -1.0363381  0.073724876   -2.0573293    1.0209912  1708696 
  205000    1.0073511   -2.0573296   -2.0573296   -1.0358245  0.071756241   -2.0573296    1.0215051  1708669 
  206000    1.0070823    -2.057237    -2.057237   -1.0359884  0.076152464    -2.057237    1.0212486  1708642 
  207000     1.007321   -2.0576675   -2.0576675   -1.0361606  0.072659499   -2.0576675    1.0215068  1708615 
  208000    1.0068448   -2.0572062   -2.0572062   -1.0361661  0.069146182   -2.0572062    1.0210401  1708588 
  209000    1.0068892   -2.0569749   -2.0569749   -1.0358737  0.072450049   -2.0569749    1.0211012  1708561 
  210000    1.0076663   -2.0573941   -2.0573941   -1.0354886  0.074337004   -2.0573941    1.0219055  1708534 
  211000    1.0070499   -2.0566188   -2.0566188   -1.0353223  0.074582749   -2.0566188    1.0212965  1708507 
  212000    1.0083409   -2.0575478   -2.0575478   -1.0349259  0.069592146   -2.0575478    1.0226219  1708480 
  213000    1.0078129   -2.0575696   -2.0575696    -1.035467  0.070022276   -2.0575696    1.0221026  1708453 
  214000    1.0080798   -2.0577252   -2.0577252   -1.0353357  0.071661437   -2.0577252    1.0223895  1708426 
  215000    1.0079121   -2.0570891   -2.0570891   -1.0348535  0.072458179   -2.0570891    1.0222356  1708399 
  216000    1.0074793   -2.0573017   -2.0573017    -1.035489  0.070772826   -2.0573017    1.0218127  1708372 
  217000    1.0069091   -2.0565719   -2.0565719   -1.0353214  0.069792138   -2.0565719    1.0212505  1708345 
  218000    1.0071122   -2.0567527   -2.0567527     -1.03528  0.075083905   -2.0567527    1.0214726  1708318 
  219000    1.0081397   -2.0570373   -2.0570373   -1.0345063  0.072078367   -2.0570373     1.022531  1708291 
  220000    1.0077169    -2.057071    -2.057071   -1.0349527  0.072353539    -2.057071    1.0221183  1708264 
  221000    1.0083738   -2.0574967   -2.0574967    -1.034696   0.07431327   -2.0574967    1.0228007  1708237 
  222000    1.0075469   -2.0564895   -2.0564895   -1.0345106  0.073062371   -2.0564895    1.0219788  1708209 
  223000    1.0079009   -2.0569989   -2.0569989   -1.0346449  0.071518253   -2.0569989     1.022354  1708182 
  224000    1.0070017   -2.0561981   -2.0561981     -1.03474  0.073002506   -2.0561981    1.0214581  1708155 
  225000    1.0072401   -2.0561322   -2.0561322   -1.0344162  0.070508539   -2.0561322     1.021716  1708128 
  226000    1.0076356   -2.0564666   -2.0564666   -1.0343332  0.069981383   -2.0564666    1.0221334  1708101 
  227000    1.0055907   -2.0543235   -2.0543235   -1.0342484    0.0741105   -2.0543235    1.0200752  1708074 
  228000    1.0070584   -2.0556506   -2.0556506   -1.0340705  0.069574306   -2.0556506    1.0215801  1708047 
  229000    1.0078933   -2.0564593   -2.0564593    -1.034016  0.070068297   -2.0564593    1.0224433  1708020 
  230000    1.0074885   -2.0557941   -2.0557941   -1.0337453  0.071475295   -2.0557941    1.0220487  1707993 
  231000    1.0083793   -2.0567562   -2.0567562   -1.0337875  0.076351338   -2.0567562    1.0229687  1707966 
  232000    1.0067437   -2.0553133   -2.0553133   -1.0339878  0.072050277   -2.0553133    1.0213255  1707939 
  233000    1.0073011     -2.05574     -2.05574   -1.0338328  0.072914221     -2.05574    1.0219072  1707912 
  234000    1.0072804   -2.0553519   -2.0553519   -1.0334496  0.074689912   -2.0553519    1.0219023  1707885 
  235000    1.0080691   -2.0555955   -2.0555955   -1.0328769  0.069625153   -2.0555955    1.0227186  1707858 
  236000    1.0068572   -2.0551657   -2.0551657   -1.0336604  0.074713174   -2.0551657    1.0215053  1707831 
  237000    1.0063976   -2.0543676   -2.0543676   -1.0333125  0.071996496   -2.0543676    1.0210551  1707804 
  238000    1.0071524   -2.0556527   -2.0556527   -1.0338156  0.070884991   -2.0556527     1.021837  1707777 
  239000      1.00675   -2.0550681   -2.0550681   -1.0336232  0.070499392   -2.0550681    1.0214449  1707750 
  240000    1.0070791   -2.0552413   -2.0552413   -1.0334462  0.070851152   -2.0552413     1.021795  1707723 
  241000    1.0067847   -2.0550156   -2.0550156   -1.0335032  0.071794351   -2.0550156    1.0215124  1707696 
  242000    1.0065023   -2.0547462   -2.0547462   -1.0335041  0.072350656   -2.0547462    1.0212421  1707669 
  243000    1.0064272   -2.0548299   -2.0548299   -1.0336479  0.072477256   -2.0548299     1.021182  1707642 
  244000    1.0067194   -2.0546936   -2.0546936    -1.033199  0.069215308   -2.0546936    1.0214946  1707615 
  245000    1.0064959   -2.0552989   -2.0552989   -1.0340149  0.071799523   -2.0552989     1.021284  1707588 
  246000    1.0069282   -2.0554097   -2.0554097   -1.0336709  0.068005396   -2.0554097    1.0217388  1707561 
  247000    1.0073869   -2.0557258   -2.0557258   -1.0335054  0.069250333   -2.0557258    1.0222204  1707534 
  248000    1.0061017   -2.0546882   -2.0546882   -1.0337558  0.070913427   -2.0546882    1.0209324  1707507 
  249000       1.0068   -2.0552867   -2.0552867   -1.0336295   0.06855929   -2.0552867    1.0216572  1707480 
  250000    1.0066768   -2.0550126   -2.0550126   -1.0334643  0.068680011   -2.0550126    1.0215483  1707453 
  251000    1.0060286   -2.0539303   -2.0539303   -1.0330236  0.071262808   -2.0539303    1.0209067  1707426 
  252000    1.0066421    -2.055011    -2.055011   -1.0334656  0.069287882    -2.055011    1.0215454  1707399 
  253000    1.0072267   -2.0552051   -2.0552051   -1.0330503  0.068865865   -2.0552051    1.0221548  1707372 
  254000    1.0070554   -2.0549151   -2.0549151   -1.0329179  0.070533902   -2.0549151    1.0219972  1707345 
  255000     1.006252   -2.0544177   -2.0544177   -1.0332197  0.069176909   -2.0544177     1.021198  1707318 
  256000    1.0064553   -2.0541603   -2.0541603   -1.0327398  0.073557199   -2.0541603    1.0214205  1707291 
  257000     1.006443   -2.0541861   -2.0541861    -1.032762  0.071116355   -2.0541861    1.0214241  1707264 
  258000    1.0062955   -2.0538805   -2.0538805   -1.0325899  0.067512358   -2.0538805    1.0212906  1707237 
  259000    1.0060152   -2.0532804   -2.0532804   -1.0322575  0.071113891   -2.0532804    1.0210228  1707209 
  260000    1.0058967   -2.0529384   -2.0529384   -1.0320197  0.067962853   -2.0529384    1.0209187  1707182 
  261000    1.0063989   -2.0535077   -2.0535077   -1.0320631  0.073809937   -2.0535077    1.0214446  1707155 
  262000    1.0066217     -2.05361     -2.05361   -1.0319231  0.070712573     -2.05361    1.0216869  1707128 
  263000    1.0063873   -2.0534817   -2.0534817   -1.0320165  0.070577111   -2.0534817    1.0214651  1707101 
  264000    1.0074668   -2.0543981   -2.0543981   -1.0318212  0.069431066   -2.0543981     1.022577  1707074 
  265000    1.0074171   -2.0541315   -2.0541315   -1.0315888  0.076498906   -2.0541315    1.0225427  1707047 
  266000    1.0068779   -2.0536275   -2.0536275   -1.0316159  0.073201269   -2.0536275    1.0220116  1707020 
  267000    1.0070741   -2.0537991   -2.0537991   -1.0315722  0.068486713   -2.0537991    1.0222269  1706993 
  268000    1.0077777   -2.0544998   -2.0544998   -1.0315425  0.067111122   -2.0544998    1.0229573  1706966 
  269000    1.0060996   -2.0530673   -2.0530673   -1.0317972  0.073062301   -2.0530673      1.02127  1706939 
  270000    1.0071031   -2.0538264   -2.0538264   -1.0315215  0.069354308   -2.0538264    1.0223049  1706912 
  271000    1.0067653   -2.0539348   -2.0539348   -1.0319567  0.071307369   -2.0539348    1.0219781  1706885 
  272000    1.0065043   -2.0537448   -2.0537448   -1.0320155  0.071505673   -2.0537448    1.0217293  1706858 
  273000    1.0068116   -2.0538596   -2.0538596   -1.0318022  0.070851946   -2.0538596    1.0220575  1706831 
  274000    1.0069369   -2.0539435   -2.0539435   -1.0317427  0.072782689   -2.0539435    1.0222008  1706804 
  275000    1.0069392   -2.0541741   -2.0541741   -1.0319547  0.070295206   -2.0541741    1.0222193  1706777 
  276000    1.0069028   -2.0547592   -2.0547592   -1.0325606  0.072221306   -2.0547592    1.0221985  1706750 
  277000    1.0072796   -2.0556964   -2.0556964   -1.0330991  0.071433723   -2.0556964    1.0225973  1706723 
  278000    1.0070682   -2.0555734   -2.0555734   -1.0331746  0.071072563   -2.0555734    1.0223988  1706696 
  279000    1.0064881    -2.054966    -2.054966     -1.03314  0.072828267    -2.054966     1.021826  1706669 
  280000    1.0065239   -2.0546038   -2.0546038   -1.0327253  0.071933498   -2.0546038    1.0218785  1706642 
  281000    1.0056002   -2.0544168   -2.0544168     -1.03346  0.073913945   -2.0544168    1.0209569  1706615 
  282000    1.0058089   -2.0544937   -2.0544937   -1.0333088  0.071300437   -2.0544937    1.0211849  1706588 
  283000    1.0064401   -2.0548269   -2.0548269   -1.0329849  0.069300016   -2.0548269     1.021842  1706561 
  284000    1.0055062   -2.0538162   -2.0538162   -1.0329063  0.074264209   -2.0538162    1.0209099  1706534 
  285000     1.005524   -2.0534843   -2.0534843   -1.0325402  0.074388192   -2.0534843    1.0209441  1706507 
  286000    1.0057543   -2.0541144   -2.0541144   -1.0329203  0.071052811   -2.0541144    1.0211941  1706480 
  287000    1.0066445   -2.0550119   -2.0550119   -1.0328977   0.06995569   -2.0550119    1.0221142  1706453 
  288000    1.0056622   -2.0537608   -2.0537608   -1.0326279  0.072683513   -2.0537608    1.0211329  1706426 
  289000    1.0061795   -2.0542208   -2.0542208   -1.0325465  0.074245004   -2.0542208    1.0216743  1706399 
  290000     1.006133   -2.0541951   -2.0541951   -1.0325518  0.074407956   -2.0541951    1.0216433  1706372 
  291000    1.0063242   -2.0543594   -2.0543594   -1.0325057  0.074405674   -2.0543594    1.0218536  1706345 
  292000    1.0062655   -2.0540893   -2.0540893   -1.0322791  0.072019406   -2.0540893    1.0218102  1706318 
  293000    1.0065473   -2.0540541   -2.0540541   -1.0319417  0.069686611   -2.0540541    1.0221125  1706291 
  294000    1.0068799   -2.0543009   -2.0543009   -1.0318345   0.07114981   -2.0543009    1.0224664  1706264 
  295000    1.0071193    -2.054577    -2.054577   -1.0318513  0.070501407    -2.054577    1.0227257  1706237 
  296000     1.007446   -2.0545354   -2.0545354   -1.0314611  0.071134725   -2.0545354    1.0230743  1706209 
  297000     1.006814   -2.0539644   -2.0539644   -1.0315158  0.073319855   -2.0539644    1.0224486  1706182 
  298000    1.0066059   -2.0537309   -2.0537309   -1.0314774   0.07198224   -2.0537309    1.0222535  1706155 
  299000    1.0065393   -2.0540197   -2.0540197   -1.0318177  0.071407019   -2.0540197     1.022202  1706128 
  300000    1.0065961   -2.0538876   -2.0538876   -1.0316117  0.072713794   -2.0538876    1.0222759  1706101 
  301000    1.0063294   -2.0540151   -2.0540151   -1.0319939  0.073174021   -2.0540151    1.0220212  1706074 
  302000    1.0067438   -2.0541659   -2.0541659   -1.0317077  0.067531918   -2.0541659    1.0224582  1706047 
  303000        1.006   -2.0532799   -2.0532799   -1.0315609  0.072434972   -2.0532799     1.021719  1706020 
  304000    1.0065348   -2.0540256   -2.0540256   -1.0317473  0.074519108   -2.0540256    1.0222783  1705993 
  305000    1.0058251   -2.0531554   -2.0531554   -1.0315817  0.071844403   -2.0531554    1.0215737  1705966 
  306000    1.0059646   -2.0532788   -2.0532788   -1.0315473  0.072947532   -2.0532788    1.0217315  1705939 
  307000    1.0058242   -2.0534863   -2.0534863   -1.0318811  0.069755782   -2.0534863    1.0216051  1705912 
  308000    1.0066517   -2.0543074   -2.0543074   -1.0318456  0.070376228   -2.0543074    1.0224618  1705885 
  309000    1.0053359   -2.0532058   -2.0532058   -1.0320643  0.071762592   -2.0532058    1.0211415  1705858 
  310000    1.0063546   -2.0540109   -2.0540109   -1.0318185  0.070251685   -2.0540109    1.0221924  1705831 
  311000    1.0065234   -2.0544293   -2.0544293   -1.0320494  0.069751452   -2.0544293      1.02238  1705804 
  312000    1.0052252   -2.0525151   -2.0525151   -1.0314375  0.070351107   -2.0525151    1.0210776  1705777 
  313000    1.0056012   -2.0531894   -2.0531894   -1.0317138   0.07160378   -2.0531894    1.0214757  1705750 
  314000    1.0047725   -2.0527153   -2.0527153   -1.0320654  0.074261852   -2.0527153      1.02065  1705723 
  315000    1.0049051   -2.0522085   -2.0522085   -1.0314077  0.072463072   -2.0522085    1.0208009  1705696 
  316000    1.0059174   -2.0528628   -2.0528628   -1.0310174  0.069578702   -2.0528628    1.0218454  1705669 
  317000    1.0055027   -2.0527136   -2.0527136   -1.0312734   0.07191517   -2.0527136    1.0214402  1705642 
  318000    1.0057191   -2.0532142   -2.0532142    -1.031538  0.072359325   -2.0532142    1.0216763  1705615 
  319000      1.00453   -2.0522406   -2.0522406   -1.0317562  0.075873757   -2.0522406    1.0204844  1705588 
  320000    1.0048595   -2.0524482   -2.0524482   -1.0316128  0.067385028   -2.0524482    1.0208354  1705561 
  321000    1.0039747   -2.0513731   -2.0513731   -1.0314205  0.068824511   -2.0513731    1.0199526  1705534 
  322000    1.0062609   -2.0533668   -2.0533668   -1.0310754  0.067137539   -2.0533668    1.0222913  1705507 
  323000     1.005431   -2.0522504   -2.0522504    -1.030786  0.069163969   -2.0522504    1.0214644  1705480 
  324000    1.0061847    -2.052796    -2.052796   -1.0305496  0.070874115    -2.052796    1.0222464  1705453 
  325000    1.0065025    -2.052949    -2.052949   -1.0303636  0.070583692    -2.052949    1.0225854  1705426 
  326000    1.0057176    -2.052115    -2.052115   -1.0303109  0.074141448    -2.052115    1.0218041  1705399 
  327000    1.0062415   -2.0527941   -2.0527941   -1.0304415  0.071833303   -2.0527941    1.0223526  1705372 
  328000    1.0066785   -2.0535794   -2.0535794   -1.0307666  0.073556293   -2.0535794    1.0228128  1705345 
  329000    1.0071601   -2.0536031   -2.0536031   -1.0302848  0.072730546   -2.0536031    1.0233183  1705318 
  330000    1.0060137   -2.0524812   -2.0524812   -1.0303115  0.074168041   -2.0524812    1.0221697  1705291 
  331000    1.0052946   -2.0519234   -2.0519234   -1.0304682  0.073681538   -2.0519234    1.0214552  1705264 
  332000    1.0066314   -2.0529806   -2.0529806   -1.0301509  0.071902476   -2.0529806    1.0228297  1705237 
  333000    1.0055738   -2.0516021   -2.0516021   -1.0298302   0.07099924   -2.0516021    1.0217719  1705209 
  334000    1.0057287   -2.0518146   -2.0518146   -1.0298691  0.067923882   -2.0518146    1.0219454  1705182 
  335000    1.0053003   -2.0514078   -2.0514078   -1.0298816  0.069295873   -2.0514078    1.0215263  1705155 
  336000    1.0047664   -2.0509801   -2.0509801   -1.0299802   0.07041989   -2.0509801    1.0209999  1705128 
  337000    1.0048007   -2.0511107   -2.0511107   -1.0300597  0.069701206   -2.0511107     1.021051  1705101 
  338000    1.0060486   -2.0521003   -2.0521003   -1.0297651  0.074238989   -2.0521003    1.0223352  1705074 
  339000     1.004703    -2.050668    -2.050668   -1.0296839  0.070847769    -2.050668    1.0209841  1705047 
  340000     1.005947   -2.0516485   -2.0516485   -1.0293841  0.072076307   -2.0516485    1.0222644  1705020 
  341000    1.0053897   -2.0512959   -2.0512959   -1.0295817  0.070223772   -2.0512959    1.0217142  1704993 
  342000    1.0047769   -2.0510433   -2.0510433   -1.0299357  0.069361977   -2.0510433    1.0211076  1704966 
  343000    1.0046476   -2.0512664   -2.0512664    -1.030274  0.068719795   -2.0512664    1.0209924  1704939 
  344000    1.0040357   -2.0504044   -2.0504044   -1.0300177  0.072541617   -2.0504044    1.0203867  1704912 
  345000    1.0044818   -2.0512024   -2.0512024   -1.0303462  0.071179874   -2.0512024    1.0208563  1704885 
  346000    1.0043236   -2.0503598   -2.0503598   -1.0296481   0.06933262   -2.0503598    1.0207116  1704858 
  347000    1.0043664   -2.0509602   -2.0509602   -1.0301889  0.069782708   -2.0509602    1.0207713  1704831 
  348000    1.0054023   -2.0519901   -2.0519901   -1.0301498  0.069444431   -2.0519901    1.0218403  1704804 
  349000    1.0042462   -2.0509619   -2.0509619   -1.0302805  0.073054797   -2.0509619    1.0206814  1704777 
  350000     1.004958   -2.0516278   -2.0516278   -1.0302066  0.069755197   -2.0516278    1.0214211  1704750 
  351000    1.0044804   -2.0506674   -2.0506674   -1.0297156  0.074312614   -2.0506674    1.0209518  1704723 
  352000    1.0051038   -2.0514122   -2.0514122   -1.0298106  0.069523366   -2.0514122    1.0216016  1704696 
  353000    1.0047852   -2.0512326   -2.0512326   -1.0299386  0.073053191   -2.0512326     1.021294  1704669 
  354000    1.0052941   -2.0517951   -2.0517951   -1.0299677  0.071240003   -2.0517951    1.0218274  1704642 
  355000    1.0047007   -2.0508745   -2.0508745    -1.029634  0.071681178   -2.0508745    1.0212405  1704615 
  356000    1.0059444   -2.0517078   -2.0517078   -1.0291869  0.074507565   -2.0517078    1.0225209  1704588 
  357000     1.005041   -2.0510147   -2.0510147    -1.029396  0.074510314   -2.0510147    1.0216187  1704561 
  358000    1.0051493   -2.0514234   -2.0514234   -1.0296785  0.071697883   -2.0514234     1.021745  1704534 
  359000    1.0051504   -2.0518055   -2.0518055   -1.0300432  0.071340837   -2.0518055    1.0217623  1704507 
  360000    1.0050541   -2.0513516   -2.0513516    -1.029671  0.067148143   -2.0513516    1.0216806  1704480 
  361000    1.0055854   -2.0519974   -2.0519974   -1.0297605  0.074507214   -2.0519974    1.0222369  1704453 
  362000     1.005897   -2.0523382   -2.0523382   -1.0297683  0.071698306   -2.0523382    1.0225698  1704426 
  363000    1.0054049   -2.0517112   -2.0517112   -1.0296254  0.070833759   -2.0517112    1.0220858  1704399 
  364000    1.0058127   -2.0518665   -2.0518665     -1.02935   0.07420177   -2.0518665    1.0225165  1704372 
  365000    1.0050301    -2.051468    -2.051468   -1.0297309   0.07356807    -2.051468    1.0217371  1704345 
  366000    1.0050104   -2.0514373   -2.0514373   -1.0297041  0.071167531   -2.0514373    1.0217332  1704318 
  367000    1.0049044   -2.0508365   -2.0508365   -1.0291948  0.071321374   -2.0508365    1.0216417  1704291 
  368000    1.0057955   -2.0518279   -2.0518279   -1.0292641  0.074385258   -2.0518279    1.0225638  1704264 
  369000    1.0054315   -2.0510208   -2.0510208   -1.0288109  0.074733756   -2.0510208      1.02221  1704237 
  370000    1.0053974   -2.0514313   -2.0514313   -1.0292391  0.074714112   -2.0514313    1.0221921  1704209 
  371000    1.0050919   -2.0510293   -2.0510293   -1.0291316  0.071349752   -2.0510293    1.0218977  1704182 
  372000    1.0056976   -2.0519175   -2.0519175   -1.0293878  0.070582557   -2.0519175    1.0225297  1704155 
  373000    1.0047136   -2.0510405   -2.0510405   -1.0294951  0.071361192   -2.0510405    1.0215454  1704128 
  374000     1.004503   -2.0508114   -2.0508114   -1.0294639  0.072048986   -2.0508114    1.0213475  1704101 
  375000    1.0051741   -2.0511571   -2.0511571   -1.0291111  0.073951226   -2.0511571     1.022046  1704074 
  376000    1.0060378   -2.0514742   -2.0514742   -1.0285337  0.070432773   -2.0514742    1.0229405  1704047 
  377000    1.0058838   -2.0511973   -2.0511973   -1.0283973  0.065419565   -2.0511973       1.0228  1704020 
  378000    1.0042834   -2.0503258   -2.0503258   -1.0291368  0.072076107   -2.0503258     1.021189  1703993 
  379000    1.0046232   -2.0503789   -2.0503789   -1.0288283  0.073223541   -2.0503789    1.0215506  1703966 
  380000    1.0038527   -2.0499022   -2.0499022   -1.0291189  0.073115496   -2.0499022    1.0207833  1703939 
  381000    1.0039903   -2.0501211   -2.0501211   -1.0291817  0.071304794   -2.0501211    1.0209394  1703912 
  382000     1.003999    -2.050054    -2.050054   -1.0290896  0.070082031    -2.050054    1.0209644  1703885 
  383000    1.0036059   -2.0495997   -2.0495997   -1.0290188  0.073428771   -2.0495997    1.0205809  1703858 
  384000    1.0041594   -2.0501085   -2.0501085   -1.0289486  0.071113325   -2.0501085    1.0211599  1703831 
  385000     1.004021   -2.0496281   -2.0496281   -1.0285927  0.072296538   -2.0496281    1.0210354  1703804 
  386000    1.0040993   -2.0495987   -2.0495987   -1.0284675  0.070031707   -2.0495987    1.0211312  1703777 
  387000    1.0039817   -2.0497984   -2.0497984   -1.0287706  0.073305334   -2.0497984    1.0210277  1703750 
  388000    1.0041496   -2.0499831   -2.0499831   -1.0287685  0.072141109   -2.0499831    1.0212146  1703723 
  389000    1.0047852    -2.050002    -2.050002   -1.0281248  0.066822589    -2.050002    1.0218772  1703696 
  390000    1.0049333   -2.0496764   -2.0496764   -1.0276323  0.071823974   -2.0496764    1.0220441  1703669 
  391000    1.0051619   -2.0502257   -2.0502257   -1.0279329  0.069616895   -2.0502257    1.0222928  1703642 
  392000    1.0044612   -2.0493005   -2.0493005   -1.0277042  0.072190505   -2.0493005    1.0215964  1703615 
  393000    1.0034662   -2.0486661   -2.0486661   -1.0280655  0.074044111   -2.0486661    1.0206006  1703588 
  394000    1.0045905   -2.0500155   -2.0500155   -1.0282553  0.070543278   -2.0500155    1.0217602  1703561 
  395000    1.0043933   -2.0498707   -2.0498707   -1.0282949  0.070830692   -2.0498707    1.0215758  1703534 
  396000    1.0038774   -2.0492664   -2.0492664   -1.0281991   0.07087885   -2.0492664    1.0210673  1703507 
  397000    1.0031451   -2.0484416   -2.0484416    -1.028103  0.069430148   -2.0484416    1.0203386  1703480 
  398000    1.0031718   -2.0484481   -2.0484481   -1.0280662  0.072559224   -2.0484481    1.0203819  1703453 
  399000    1.0033607   -2.0485722   -2.0485722   -1.0279819  0.070561589   -2.0485722    1.0205903  1703426 
  400000    1.0043971   -2.0491168   -2.0491168   -1.0274561  0.072052264   -2.0491168    1.0216607  1703399 
  401000    1.0051227   -2.0497214   -2.0497214   -1.0273064  0.074329725   -2.0497214     1.022415  1703372 
  402000    1.0043657   -2.0490578   -2.0490578   -1.0273967  0.073205307   -2.0490578    1.0216611  1703345 
  403000    1.0047328   -2.0494936   -2.0494936   -1.0274429  0.074919239   -2.0494936    1.0220507  1703318 
  404000     1.004425   -2.0491993   -2.0491993   -1.0274455  0.070516357   -2.0491993    1.0217538  1703291 
  405000     1.004586   -2.0498924   -2.0498924   -1.0279586  0.073333166   -2.0498924    1.0219338  1703264 
  406000     1.003034   -2.0479379   -2.0479379   -1.0275668  0.071279893   -2.0479379    1.0203711  1703237 
  407000    1.0040976   -2.0487486   -2.0487486   -1.0272786  0.068311225   -2.0487486    1.0214699  1703209 
  408000    1.0036195   -2.0482636   -2.0482636   -1.0272637  0.072508721   -2.0482636    1.0209998  1703182 
  409000    1.0036125   -2.0481002   -2.0481002   -1.0270913  0.072101789   -2.0481002    1.0210088  1703155 
  410000    1.0043093   -2.0486139   -2.0486139     -1.02688  0.070135711   -2.0486139    1.0217339  1703128 
  411000    1.0026774    -2.047233    -2.047233   -1.0271432  0.071997749    -2.047233    1.0200898  1703101 
  412000    1.0034888   -2.0479461   -2.0479461   -1.0270146  0.071829554   -2.0479461    1.0209315  1703074 
  413000    1.0033374   -2.0480357   -2.0480357    -1.027242  0.070687133   -2.0480357    1.0207937  1703047 
  414000    1.0032913   -2.0479967   -2.0479967   -1.0272338  0.072785055   -2.0479967     1.020763  1703020 
  415000    1.0035839   -2.0484772   -2.0484772   -1.0274003  0.070838223   -2.0484772    1.0210768  1702993 
  416000    1.0043563   -2.0492159   -2.0492159    -1.027337   0.07057148   -2.0492159     1.021879  1702966 
  417000    1.0038107   -2.0480813   -2.0480813   -1.0267413  0.072758533   -2.0480813      1.02134  1702939 
  418000     1.003506   -2.0478681   -2.0478681   -1.0268219  0.071932275   -2.0478681    1.0210462  1702912 
  419000    1.0037301   -2.0479535   -2.0479535   -1.0266631  0.073348796   -2.0479535    1.0212904  1702885 
  420000    1.0039687   -2.0480772   -2.0480772   -1.0265278   0.07115441   -2.0480772    1.0215493  1702858 
  421000    1.0037007    -2.047813    -2.047813   -1.0265202   0.07075294    -2.047813    1.0212929  1702831 
  422000    1.0036538   -2.0478841   -2.0478841   -1.0266229  0.074247058   -2.0478841    1.0212613  1702804 
  423000    1.0040124   -2.0482646   -2.0482646   -1.0266222  0.072334488   -2.0482646    1.0216424  1702777 
  424000    1.0031148   -2.0476507   -2.0476507   -1.0269055  0.068527212   -2.0476507    1.0207453  1702750 
  425000    1.0034043   -2.0479703   -2.0479703   -1.0269144  0.073097107   -2.0479703     1.021056  1702723 
  426000    1.0038071   -2.0478126   -2.0478126   -1.0263305  0.076747989   -2.0478126    1.0214821  1702696 
  427000    1.0032035   -2.0469006   -2.0469006   -1.0260166  0.074741162   -2.0469006    1.0208841  1702669 
  428000    1.0034101   -2.0474458   -2.0474458   -1.0263353  0.070538901   -2.0474458    1.0211104  1702642 
  429000    1.0034153   -2.0476085   -2.0476085   -1.0264766   0.06956738   -2.0476085     1.021132  1702615 
  430000    1.0026069   -2.0471638   -2.0471638   -1.0268384   0.07388268   -2.0471638    1.0203255  1702588 
  431000    1.0046289   -2.0489005   -2.0489005   -1.0265011  0.069438484   -2.0489005    1.0223994  1702561 
  432000    1.0044611   -2.0479583   -2.0479583   -1.0257134  0.073221382   -2.0479583    1.0222449  1702534 
  433000    1.0041347   -2.0477491   -2.0477491   -1.0258202   0.07547965   -2.0477491    1.0219289  1702507 
  434000    1.0042198   -2.0479578   -2.0479578    -1.025926    0.0697227   -2.0479578    1.0220318  1702480 
  435000    1.0051977   -2.0486548   -2.0486548   -1.0256116  0.072119153   -2.0486548    1.0230432  1702453 
  436000    1.0041852   -2.0473657   -2.0473657   -1.0253369  0.072959604   -2.0473657    1.0220289  1702426 
  437000    1.0030904   -2.0467982   -2.0467982   -1.0258674  0.074688037   -2.0467982    1.0209308  1702399 
  438000    1.0038152   -2.0473797   -2.0473797   -1.0256949  0.073137803   -2.0473797    1.0216848  1702372 
  439000    1.0045901   -2.0481832   -2.0481832   -1.0256935  0.073847785   -2.0481832    1.0224897  1702345 
  440000    1.0045351   -2.0476541   -2.0476541   -1.0252042  0.070655421   -2.0476541    1.0224499  1702318 
  441000    1.0038769   -2.0478944   -2.0478944   -1.0260983  0.070380655   -2.0478944    1.0217961  1702291 
  442000    1.0038269   -2.0474251   -2.0474251   -1.0256636  0.072710105   -2.0474251    1.0217615  1702264 
  443000    1.0029109   -2.0463925   -2.0463925   -1.0255472  0.069765071   -2.0463925    1.0208453  1702237 
  444000    1.0029064   -2.0461737   -2.0461737   -1.0253162  0.073666893   -2.0461737    1.0208575  1702209 
  445000    1.0043448   -2.0473524   -2.0473524   -1.0250145  0.075966743   -2.0473524    1.0223379  1702182 
  446000    1.0034803   -2.0471444   -2.0471444   -1.0256704  0.072994342   -2.0471444    1.0214741  1702155 
  447000    1.0031746   -2.0471971   -2.0471971    -1.026018  0.073027174   -2.0471971    1.0211791  1702128 
  448000    1.0032546   -2.0469903   -2.0469903   -1.0257135  0.072546797   -2.0469903    1.0212768  1702101 
  449000    1.0033804   -2.0466065   -2.0466065   -1.0251855  0.068962165   -2.0466065     1.021421  1702074 
  450000    1.0036568   -2.0475496   -2.0475496    -1.025831  0.074516399   -2.0475496    1.0217186  1702047 
  451000    1.0018418    -2.046092    -2.046092   -1.0262048  0.072435941    -2.046092    1.0198871  1702020 
  452000    1.0024511   -2.0466339   -2.0466339   -1.0261103  0.068293774   -2.0466339    1.0205236  1701993 
  453000     1.001974   -2.0458141   -2.0458141     -1.02576  0.072911706   -2.0458141    1.0200541  1701966 
  454000    1.0021637   -2.0465704   -2.0465704   -1.0263071  0.070747565   -2.0465704    1.0202634  1701939 
  455000    1.0021127   -2.0463154   -2.0463154   -1.0260878  0.071708574   -2.0463154    1.0202276  1701912 
  456000    1.0021156   -2.0461054   -2.0461054   -1.0258586  0.070348924   -2.0461054    1.0202468  1701885 
  457000    1.0025343   -2.0466085   -2.0466085   -1.0259193  0.070302578   -2.0466085    1.0206892  1701858 
  458000    1.0030578   -2.0469707   -2.0469707   -1.0257323  0.071455932   -2.0469707    1.0212384  1701831 
  459000    1.0036474   -2.0476448   -2.0476448   -1.0257899   0.06487247   -2.0476448    1.0218549  1701804 
  460000    1.0022846   -2.0465476   -2.0465476    -1.026064  0.070862483   -2.0465476    1.0204836  1701777 
  461000    1.0034094   -2.0467145   -2.0467145   -1.0250695  0.070811714   -2.0467145     1.021645  1701750 
  462000    1.0035787   -2.0468083   -2.0468083   -1.0249748  0.071317164   -2.0468083    1.0218336  1701723 
  463000    1.0030263   -2.0462006   -2.0462006   -1.0249133  0.072527466   -2.0462006    1.0212873  1701696 
  464000    1.0038509   -2.0469293   -2.0469293   -1.0247861  0.071557974   -2.0469293    1.0221432  1701669 
  465000     1.002554   -2.0455307   -2.0455307   -1.0246919  0.071737405   -2.0455307    1.0208389  1701642 
  466000    1.0027085   -2.0458128   -2.0458128   -1.0248004  0.071471782   -2.0458128    1.0210124  1701615 
  467000     1.002601   -2.0458033   -2.0458033   -1.0248842  0.074515894   -2.0458033    1.0209191  1701588 
  468000    1.0024705   -2.0456064   -2.0456064   -1.0248039  0.074097237   -2.0456064    1.0208024  1701561 
  469000    1.0021376     -2.04502     -2.04502   -1.0245404  0.068074574     -2.04502    1.0204796  1701534 
  470000    1.0027537   -2.0451973   -2.0451973   -1.0240741  0.069191337   -2.0451973    1.0211232  1701507 
  471000    1.0019367   -2.0447453   -2.0447453   -1.0244378  0.076291769   -2.0447453    1.0203074  1701480 
  472000    1.0025534   -2.0455027   -2.0455027   -1.0245511  0.071692963   -2.0455027    1.0209516  1701453 
  473000    1.0034516   -2.0456644   -2.0456644   -1.0237819  0.070417916   -2.0456644    1.0218825  1701426 
  474000    1.0032587   -2.0454544   -2.0454544   -1.0237521  0.073269779   -2.0454544    1.0217023  1701399 
  475000     1.002231   -2.0447702   -2.0447702   -1.0240983   0.07233335   -2.0447702    1.0206719  1701372 
  476000    1.0028856   -2.0454695   -2.0454695   -1.0241147  0.075729182   -2.0454695    1.0213548  1701345 
  477000    1.0034117   -2.0458797   -2.0458797   -1.0239729  0.073888802   -2.0458797    1.0219068  1701318 
  478000    1.0027914   -2.0450178   -2.0450178   -1.0237265  0.072454186   -2.0450178    1.0212913  1701291 
  479000    1.0031266     -2.04571     -2.04571   -1.0240612  0.067062315     -2.04571    1.0216489  1701264 
  480000    1.0036681    -2.046449    -2.046449   -1.0242324  0.072912333    -2.046449    1.0222166  1701237 
  481000    1.0027621   -2.0455876   -2.0455876    -1.024277  0.067045542   -2.0455876    1.0213106  1701209 
  482000    1.0013404   -2.0439712   -2.0439712   -1.0240923  0.071589123   -2.0439712    1.0198788  1701182 
  483000    1.0020995   -2.0445395   -2.0445395   -1.0238713  0.072859799   -2.0445395    1.0206682  1701155 
  484000    1.0036125   -2.0458923   -2.0458923   -1.0236669  0.072250428   -2.0458923    1.0222254  1701128 
  485000    1.0028519   -2.0453693   -2.0453693   -1.0239024  0.072442439   -2.0453693    1.0214669  1701101 
  486000     1.003144   -2.0457809   -2.0457809   -1.0240002  0.071408148   -2.0457809    1.0217807  1701074 
  487000     1.002307   -2.0450685   -2.0450685   -1.0241242  0.072319082   -2.0450685    1.0209444  1701047 
  488000    1.0027078   -2.0453969   -2.0453969   -1.0240281  0.074371549   -2.0453969    1.0213688  1701020 
  489000     1.003214   -2.0459098   -2.0459098   -1.0240091  0.071273087   -2.0459098    1.0219007  1700993 
  490000    1.0031166    -2.045931    -2.045931   -1.0241134  0.072076844    -2.045931    1.0218177  1700966 
  491000    1.0027801    -2.045559    -2.045559   -1.0240679  0.072645375    -2.045559    1.0214911  1700939 
  492000    1.0017645   -2.0444065   -2.0444065   -1.0239338   0.07511339   -2.0444065    1.0204727  1700912 
  493000    1.0021954   -2.0445683   -2.0445683   -1.0236404  0.071123451   -2.0445683    1.0209279  1700885 
  494000    1.0018738   -2.0443205   -2.0443205    -1.023704  0.076030141   -2.0443205    1.0206165  1700858 
  495000    1.0019785   -2.0439465   -2.0439465   -1.0232071  0.070926865   -2.0439465    1.0207394  1700831 
  496000    1.0021411   -2.0445849   -2.0445849   -1.0236637  0.071945678   -2.0445849    1.0209212  1700804 
  497000    1.0017984    -2.043838    -2.043838   -1.0232497  0.072077901    -2.043838    1.0205882  1700777 
  498000    1.0021463   -2.0443331   -2.0443331   -1.0233742  0.070251656   -2.0443331    1.0209589  1700750 
  499000    1.0024739   -2.0446942   -2.0446942   -1.0233853  0.071986913   -2.0446942    1.0213089  1700723 
  500000    1.0016694   -2.0441492   -2.0441492   -1.0236437  0.071497468   -2.0441492    1.0205055  1700696 
  501000    1.0018282   -2.0439806   -2.0439806   -1.0232972  0.072282368   -2.0439806    1.0206834  1700669 
  502000    1.0011971   -2.0441073   -2.0441073   -1.0240506  0.069981311   -2.0441073    1.0200566  1700642 
  503000    1.0026343   -2.0453808   -2.0453808   -1.0238436  0.073968871   -2.0453808    1.0215372  1700615 
  504000    1.0028931   -2.0456503   -2.0456503   -1.0238332  0.070124778   -2.0456503    1.0218171  1700588 
  505000    1.0022747   -2.0449884   -2.0449884   -1.0237851  0.073414516   -2.0449884    1.0212032  1700561 
  506000    1.0019541   -2.0438956   -2.0438956   -1.0230029  0.073876397   -2.0438956    1.0208928  1700534 
  507000    1.0025286   -2.0447586   -2.0447586   -1.0232642  0.074408065   -2.0447586    1.0214944  1700507 
  508000    1.0028451   -2.0445326   -2.0445326   -1.0226995   0.07613607   -2.0445326     1.021833  1700480 
  509000    1.0034254   -2.0451004   -2.0451004   -1.0226598  0.073867041   -2.0451004    1.0224406  1700453 
  510000    1.0025668   -2.0446097   -2.0446097   -1.0230278  0.075881622   -2.0446097    1.0215819  1700426 
  511000    1.0022307   -2.0441583   -2.0441583   -1.0229027  0.071175646   -2.0441583    1.0212557  1700399 
  512000    1.0013708   -2.0431716   -2.0431716   -1.0227759  0.073198477   -2.0431716    1.0203957  1700372 
  513000    1.0021905   -2.0442904   -2.0442904   -1.0230432  0.074383813   -2.0442904    1.0212471  1700345 
  514000    1.0027055    -2.044351    -2.044351   -1.0225628  0.070398451    -2.044351    1.0217881  1700318 
  515000    1.0020946   -2.0437219   -2.0437219     -1.02254  0.076573115   -2.0437219    1.0211818  1700291 
  516000    1.0021007   -2.0436273   -2.0436273   -1.0224231  0.076254449   -2.0436273    1.0212043  1700264 
  517000    1.0026436   -2.0443218   -2.0443218   -1.0225481  0.075347379   -2.0443218    1.0217737  1700237 
  518000     1.002184   -2.0440626   -2.0440626   -1.0227404  0.076838522   -2.0440626    1.0213222  1700209 
  519000    1.0026045   -2.0443321   -2.0443321   -1.0225652  0.074031415   -2.0443321    1.0217669  1700182 
  520000    1.0024566   -2.0444702   -2.0444702   -1.0228378  0.072257558   -2.0444702    1.0216324  1700155 
  521000    1.0021579   -2.0439806   -2.0439806   -1.0226364  0.070653803   -2.0439806    1.0213442  1700128 
  522000    1.0024686   -2.0447938   -2.0447938   -1.0231166  0.073029683   -2.0447938    1.0216772  1700101 
  523000    1.0024373   -2.0440103   -2.0440103   -1.0223488   0.07124015   -2.0440103    1.0216615  1700074 
  524000     1.001194   -2.0427658   -2.0427658   -1.0223553  0.070838348   -2.0427658    1.0204105  1700047 
  525000    1.0015167   -2.0435559   -2.0435559   -1.0228003  0.071381194   -2.0435559    1.0207556  1700020 
  526000    1.0016831   -2.0435206   -2.0435206   -1.0225791  0.071024186   -2.0435206    1.0209414  1699993 
  527000     1.001437    -2.042902    -2.042902   -1.0221952  0.066064647    -2.042902    1.0207068  1699966 
  528000    1.0018275   -2.0432755   -2.0432755   -1.0221545  0.074165835   -2.0432755     1.021121  1699939 
  529000    1.0008876   -2.0427063   -2.0427063   -1.0225271  0.071290827   -2.0427063    1.0201792  1699912 
  530000    1.0002855   -2.0423209   -2.0423209   -1.0227391  0.068895282   -2.0423209    1.0195818  1699885 
  531000     1.000832   -2.0428755   -2.0428755   -1.0227205  0.065432364   -2.0428755     1.020155  1699858 
  532000    1.0015241   -2.0429713   -2.0429713   -1.0220946  0.074219982   -2.0429713    1.0208767  1699831 
  533000    1.0017901     -2.04277     -2.04277   -1.0216061  0.073677692     -2.04277     1.021164  1699804 
  534000     1.003258   -2.0438339   -2.0438339   -1.0211574  0.072566717   -2.0438339    1.0226765  1699777 
  535000     1.002465   -2.0431786   -2.0431786   -1.0212942  0.071474063   -2.0431786    1.0218845  1699750 
  536000    1.0017525   -2.0425869   -2.0425869   -1.0214126  0.070876031   -2.0425869    1.0211743  1699723 
  537000    1.0017726   -2.0423154   -2.0423154   -1.0211043  0.073675986   -2.0423154    1.0212111  1699696 
  538000    1.0021252   -2.0424986   -2.0424986   -1.0209118  0.071820297   -2.0424986    1.0215868  1699669 
  539000    1.0008485   -2.0411281   -2.0411281   -1.0208267  0.070898226   -2.0411281    1.0203014  1699642 
  540000    1.0015647   -2.0422044   -2.0422044   -1.0211566  0.069274609   -2.0422044    1.0210478  1699615 
  541000    1.0011742   -2.0418832   -2.0418832   -1.0212173  0.066496156   -2.0418832    1.0206659  1699588 
  542000    1.0011066   -2.0416077   -2.0416077   -1.0209945  0.071596513   -2.0416077    1.0206132  1699561 
  543000     1.002397   -2.0430601   -2.0430601   -1.0211152  0.072094796   -2.0430601    1.0219449  1699534 
  544000    1.0017084    -2.041841    -2.041841   -1.0205818   0.06998896    -2.041841    1.0212592  1699507 
  545000     1.001994    -2.042093    -2.042093   -1.0205264  0.072924107    -2.042093    1.0215665  1699480 
  546000    1.0010589    -2.041286    -2.041286   -1.0206566  0.070766694    -2.041286    1.0206294  1699453 
  547000    1.0012233   -2.0416848   -2.0416848   -1.0208715  0.074018316   -2.0416848    1.0208133  1699426 
  548000    1.0012233   -2.0412738   -2.0412738   -1.0204443  0.072252331   -2.0412738    1.0208295  1699399 
  549000     1.001052   -2.0417583   -2.0417583   -1.0210872   0.06961694   -2.0417583    1.0206711  1699372 
  550000    1.0019076   -2.0424384   -2.0424384   -1.0208789  0.073692101   -2.0424384    1.0215596  1699345 
  551000    1.0014139   -2.0420509   -2.0420509   -1.0209784  0.073806831   -2.0420509    1.0210725  1699318 
  552000    1.0010321   -2.0414247   -2.0414247   -1.0207253  0.072602684   -2.0414247    1.0206994  1699291 
  553000    1.0006646   -2.0411697   -2.0411697   -1.0208289  0.071313193   -2.0411697    1.0203409  1699264 
  554000    1.0008525    -2.041205    -2.041205   -1.0206563  0.074582981    -2.041205    1.0205487  1699237 
  555000    1.0003068    -2.040684    -2.040684   -1.0206749  0.071193913    -2.040684    1.0200091  1699209 
  556000   0.99956999   -2.0401608   -2.0401608   -1.0208868  0.075151676   -2.0401608    1.0192739  1699182 
  557000    1.0006534   -2.0417522   -2.0417522   -1.0213572  0.072929458   -2.0417522    1.0203949  1699155 
  558000    1.0002588   -2.0413384   -2.0413384   -1.0213296  0.072040163   -2.0413384    1.0200088  1699128 
  559000    1.0007385   -2.0416656   -2.0416656   -1.0211515  0.069633005   -2.0416656    1.0205141  1699101 
  560000    1.0009621   -2.0420496   -2.0420496   -1.0212912  0.072118235   -2.0420496    1.0207584  1699074 
  561000   0.99954033    -2.040485    -2.040485   -1.0211603  0.071369884    -2.040485    1.0193247  1699047 
  562000    1.0011428    -2.042028    -2.042028   -1.0210529  0.070691898    -2.042028    1.0209751  1699020 
  563000    1.0005783   -2.0419188   -2.0419188   -1.0215032  0.068781021   -2.0419188    1.0204156  1698993 
  564000    1.0006253   -2.0418231   -2.0418231   -1.0213433  0.071025183   -2.0418231    1.0204798  1698966 
  565000    1.0016338   -2.0428011   -2.0428011   -1.0212765  0.072716534   -2.0428011    1.0215246  1698939 
  566000    1.0005729   -2.0415396   -2.0415396   -1.0210809  0.073987064   -2.0415396    1.0204588  1698912 
  567000    1.0005885   -2.0414137   -2.0414137   -1.0209229  0.065840169   -2.0414137    1.0204909  1698885 
  568000    1.0010759   -2.0421129   -2.0421129   -1.0211087  0.067168644   -2.0421129    1.0210042  1698858 
  569000     1.000095   -2.0408742   -2.0408742   -1.0208542  0.072314216   -2.0408742      1.02002  1698831 
  570000    1.0005762     -2.04157     -2.04157    -1.021043   0.07279123     -2.04157     1.020527  1698804 
  571000   0.99989037    -2.040898    -2.040898   -1.0210543  0.073665542    -2.040898    1.0198437  1698777 
  572000     1.001649   -2.0423389   -2.0423389   -1.0206852  0.072887916   -2.0423389    1.0216536  1698750 
  573000     1.000942   -2.0412647   -2.0412647   -1.0203159  0.072118848   -2.0412647    1.0209488  1698723 
  574000   0.99973108   -2.0407052   -2.0407052   -1.0209753  0.074275655   -2.0407052    1.0197299  1698696 
  575000    1.0006889   -2.0415544   -2.0415544   -1.0208313  0.074578081   -2.0415544    1.0207231  1698669 
  576000    1.0004578   -2.0413586   -2.0413586    -1.020855  0.071293087   -2.0413586    1.0205036  1698642 
  577000    1.0005612   -2.0414218   -2.0414218   -1.0207965  0.075644285   -2.0414218    1.0206252  1698615 
  578000    1.0001805   -2.0417969   -2.0417969   -1.0215437  0.070953272   -2.0417969    1.0202532  1698588 
  579000    1.0017893   -2.0431151   -2.0431151   -1.0212046  0.073136565   -2.0431151    1.0219105  1698561 
  580000    1.0010063   -2.0419769   -2.0419769   -1.0208489   0.07437499   -2.0419769    1.0211279  1698534 
  581000    1.0011178   -2.0420679   -2.0420679     -1.02081  0.077121008   -2.0420679    1.0212579  1698507 
  582000    1.0007785   -2.0419393   -2.0419393   -1.0210112  0.075927637   -2.0419393    1.0209281  1698480 
  583000    1.0004559   -2.0418475   -2.0418475   -1.0212322  0.071377438   -2.0418475    1.0206152  1698453 
  584000    1.0014584   -2.0430654   -2.0430654   -1.0214112  0.073697039   -2.0430654    1.0216541  1698426 
  585000    1.0007822   -2.0419868   -2.0419868   -1.0210063   0.07374262   -2.0419868    1.0209805  1698399 
  586000    1.0000651   -2.0413113   -2.0413113   -1.0210462  0.075589791   -2.0413113    1.0202651  1698372 
  587000   0.99939498   -2.0402324   -2.0402324   -1.0206347  0.077607534   -2.0402324    1.0195977  1698345 
  588000    1.0004543   -2.0410655   -2.0410655   -1.0203708  0.073665722   -2.0410655    1.0206947  1698318 
  589000    1.0012613    -2.041648    -2.041648   -1.0201138  0.074917083    -2.041648    1.0215342  1698291 
  590000    1.0009095    -2.041139    -2.041139   -1.0199475   0.07512941    -2.041139    1.0211916  1698264 
  591000    1.0016331   -2.0421367   -2.0421367   -1.0201906  0.076048184   -2.0421367    1.0219461  1698237 
  592000    1.0012125   -2.0414569   -2.0414569   -1.0199231  0.074204152   -2.0414569    1.0215338  1698209 
  593000    1.0017945   -2.0419334   -2.0419334   -1.0197895  0.072586994   -2.0419334    1.0221439  1698182 
  594000    1.0013358   -2.0415619   -2.0415619   -1.0198698  0.074858145   -2.0415619     1.021692  1698155 
  595000    1.0008295   -2.0411478   -2.0411478   -1.0199561   0.07574393   -2.0411478    1.0211917  1698128 
  596000    1.0013416   -2.0415518   -2.0415518   -1.0198213  0.076619262   -2.0415518    1.0217305  1698101 
  597000    1.0009694    -2.041429    -2.041429   -1.0200621  0.076318666    -2.041429    1.0213669  1698074 
  598000    1.0012695   -2.0413699   -2.0413699   -1.0196805  0.075816681   -2.0413699    1.0216894  1698047 
  599000    1.0011292   -2.0413405   -2.0413405   -1.0197779   0.07161624   -2.0413405    1.0215625  1698020 
  600000    1.0015836   -2.0421238   -2.0421238   -1.0200814  0.073973861   -2.0421238    1.0220424  1697993 
  601000     1.000998   -2.0416093   -2.0416093   -1.0201482  0.071935497   -2.0416093    1.0214611  1697966 
  602000    1.0006491   -2.0411071   -2.0411071   -1.0199858  0.075591541   -2.0411071    1.0211213  1697939 
  603000    1.0011423   -2.0415214   -2.0415214   -1.0198805  0.072022032   -2.0415214    1.0216409  1697912 
  604000    1.0012715   -2.0412697   -2.0412697   -1.0194807  0.070891075   -2.0412697    1.0217889  1697885 
  605000    1.0003219   -2.0404244   -2.0404244   -1.0195884  0.074111861   -2.0404244    1.0208361  1697858 
  606000   0.99957674   -2.0399587   -2.0399587   -1.0198669  0.076066009   -2.0399587    1.0200919  1697831 
  607000    1.0002213    -2.040139    -2.040139   -1.0193731  0.070610455    -2.040139    1.0207659  1697804 
  608000    0.9996286   -2.0397031   -2.0397031   -1.0195258  0.073766293   -2.0397031    1.0201773  1697777 
  609000    1.0001406   -2.0403294   -2.0403294   -1.0196134  0.073991897   -2.0403294     1.020716  1697750 
  610000    1.0000304   -2.0400443   -2.0400443   -1.0194245  0.073461719   -2.0400443    1.0206197  1697723 
  611000    1.0006335    -2.040234    -2.040234   -1.0189824  0.069775665    -2.040234    1.0212516  1697696 
  612000    1.0006987   -2.0408215   -2.0408215   -1.0194871  0.071111932   -2.0408215    1.0213344  1697669 
  613000    1.0002447    -2.039903    -2.039903   -1.0190157  0.070787219    -2.039903    1.0208872  1697642 
  614000   0.99954066    -2.038476    -2.038476   -1.0182912  0.069911278    -2.038476    1.0201849  1697615 
  615000    1.0006562   -2.0393995   -2.0393995   -1.0180598  0.071010893   -2.0393995    1.0213396  1697588 
  616000   0.99968926   -2.0382992   -2.0382992   -1.0179302  0.073146995   -2.0382992     1.020369  1697561 
  617000    1.0003055   -2.0386437   -2.0386437   -1.0176295  0.073242335   -2.0386437    1.0210142  1697534 
  618000     1.000418   -2.0388929   -2.0388929   -1.0177476  0.072973044   -2.0388929    1.0211453  1697507 
  619000    1.0006967   -2.0395523   -2.0395523   -1.0181063   0.06998851   -2.0395523     1.021446  1697480 
  620000    1.0001559   -2.0386943   -2.0386943    -1.017784  0.074801083   -2.0386943    1.0209102  1697453 
  621000    1.0006409   -2.0390361   -2.0390361   -1.0176145  0.070131246   -2.0390361    1.0214215  1697426 
  622000   0.99982688   -2.0384618   -2.0384618    -1.017855  0.071072853   -2.0384618    1.0206068  1697399 
  623000   0.99896903   -2.0376217   -2.0376217   -1.0178743  0.069439401   -2.0376217    1.0197474  1697372 
  624000   0.99881296    -2.037514    -2.037514   -1.0179097  0.073782567    -2.037514    1.0196043  1697345 
  625000   0.99875243   -2.0375898   -2.0375898   -1.0180311  0.069877654   -2.0375898    1.0195587  1697318 
  626000   0.99831589   -2.0372034   -2.0372034   -1.0180741  0.071007745   -2.0372034    1.0191293  1697291 
  627000   0.99864893   -2.0373308   -2.0373308   -1.0178453  0.073413984   -2.0373308    1.0194855  1697264 
  628000     0.998638   -2.0368931   -2.0368931   -1.0174025  0.073052736   -2.0368931    1.0194906  1697237 
  629000   0.99943091   -2.0371737   -2.0371737   -1.0168568  0.071821857   -2.0371737    1.0203169  1697209 
  630000   0.99934996   -2.0375311   -2.0375311   -1.0172807  0.070784701   -2.0375311    1.0202504  1697182 
  631000   0.99862543   -2.0368476   -2.0368476   -1.0173206  0.071816425   -2.0368476     1.019527  1697155 
  632000   0.99938565   -2.0374992   -2.0374992   -1.0171799  0.072304262   -2.0374992    1.0203193  1697128 
  633000   0.99885519   -2.0370416   -2.0370416   -1.0172476  0.068854936   -2.0370416     1.019794  1697101 
  634000   0.99948905   -2.0375604   -2.0375604    -1.017103  0.072875346   -2.0375604    1.0204574  1697074 
  635000   0.99902676   -2.0367615   -2.0367615   -1.0167599  0.071289047   -2.0367615    1.0200016  1697047 
  636000    1.0002571   -2.0381229   -2.0381229   -1.0168488  0.073199563   -2.0381229    1.0212741  1697020 
  637000    1.0005729   -2.0386596   -2.0386596   -1.0170469  0.067486831   -2.0386596    1.0216127  1696993 
  638000    0.9983808   -2.0365467   -2.0365467   -1.0171559  0.069649606   -2.0365467    1.0193908  1696966 
  639000   0.99929745   -2.0372145   -2.0372145   -1.0168715  0.067323242   -2.0372145    1.0203429  1696939 
  640000    0.9982306   -2.0359607   -2.0359607   -1.0166908  0.070632366   -2.0359607    1.0192698  1696912 
  641000   0.99883765   -2.0370769   -2.0370769    -1.017171   0.07081236   -2.0370769    1.0199059  1696885 
  642000   0.99848794   -2.0364638   -2.0364638   -1.0168988  0.073968768   -2.0364638     1.019565  1696858 
  643000   0.99873065   -2.0362069   -2.0362069   -1.0163778   0.07419422   -2.0362069    1.0198291  1696831 
  644000   0.99963829   -2.0377758   -2.0377758   -1.0170037  0.069543893   -2.0377758    1.0207722  1696804 
  645000   0.99922306   -2.0373537   -2.0373537   -1.0169893  0.072360204   -2.0373537    1.0203644  1696777 
  646000   0.99965962   -2.0372432   -2.0372432   -1.0164168  0.071224297   -2.0372432    1.0208264  1696750 
  647000   0.99943537   -2.0371888   -2.0371888   -1.0165751  0.074238643   -2.0371888    1.0206137  1696723 
  648000   0.99918435   -2.0370743   -2.0370743   -1.0167007  0.074975023   -2.0370743    1.0203736  1696696 
  649000    1.0003464   -2.0378183   -2.0378183   -1.0162417  0.074993326   -2.0378183    1.0215765  1696669 
  650000    1.0005613   -2.0384012   -2.0384012    -1.016589  0.073452351   -2.0384012    1.0218122  1696642 
  651000   0.99890815   -2.0367441   -2.0367441   -1.0166039  0.072776716   -2.0367441    1.0201402  1696615 
  652000   0.99918521   -2.0374719   -2.0374719   -1.0170325  0.071052674   -2.0374719    1.0204394  1696588 
  653000   0.99920084   -2.0372949   -2.0372949   -1.0168233  0.071624905   -2.0372949    1.0204716  1696561 
  654000   0.99972086    -2.037553    -2.037553   -1.0165341  0.069722383    -2.037553    1.0210189  1696534 
  655000    0.9995892   -2.0374193   -2.0374193   -1.0165186  0.071688205   -2.0374193    1.0209007  1696507 
[...]
29832000   0.31718296  -0.68973148  -0.68973148 -0.084431332   0.05868128  -0.68973148   0.60530015   907939 
29833000   0.31706132  -0.68934095  -0.68934095 -0.084254936  0.060723234  -0.68934095   0.60508601   907912 
29834000   0.31743711  -0.68912604  -0.68912604 -0.083304845  0.060059058  -0.68912604    0.6058212   907885 
29835000    0.3173406  -0.68873017  -0.68873017  -0.08307514  0.059353539  -0.68873017   0.60565503   907858 
29836000   0.31698536  -0.68761456  -0.68761456 -0.082619537  0.059652416  -0.68761456   0.60499502   907831 
29837000   0.31714579  -0.68753592  -0.68753592 -0.082216686  0.062183053  -0.68753592   0.60531923   907804 
29838000   0.31728765  -0.68782875  -0.68782875 -0.082220747  0.060596457  -0.68782875     0.605608   907777 
29839000   0.31729994  -0.68690774  -0.68690774 -0.081258264  0.061238388  -0.68690774   0.60564948   907750 
29840000   0.31739164  -0.68737606  -0.68737606 -0.081533536  0.061539337  -0.68737606   0.60584252   907723 
29841000   0.31739855  -0.68715412  -0.68715412 -0.081280379  0.060637581  -0.68715412   0.60587374   907696 
29842000   0.31735179  -0.68663742  -0.68663742 -0.080834924  0.061132915  -0.68663742    0.6058025   907669 
29843000   0.31652647  -0.68603548  -0.68603548 -0.081790488  0.060911133  -0.68603548   0.60424499   907642 
29844000   0.31676163  -0.68502494  -0.68502494 -0.080313051  0.062602805  -0.68502494   0.60471189   907615 
29845000   0.31698228  -0.68684563  -0.68684563 -0.081694486  0.061454594  -0.68684563   0.60515114   907588 
29846000   0.31712582  -0.68612791  -0.68612791 -0.080684732  0.062230038  -0.68612791   0.60544318   907561 
29847000     0.317026  -0.68710004  -0.68710004  -0.08182942  0.060386393  -0.68710004   0.60527062   907534 
29848000   0.31719784  -0.68703898  -0.68703898 -0.081422264  0.060818908  -0.68703898   0.60561671   907507 
29849000   0.31706291  -0.68662206  -0.68662206 -0.081244966  0.060527608  -0.68662206   0.60537709   907480 
29850000   0.31717069  -0.68551836  -0.68551836 -0.079917465  0.060593284  -0.68551836    0.6056009   907453 
29851000   0.31705058  -0.68573631  -0.68573631 -0.080346738  0.061445582  -0.68573631   0.60538958   907426 
29852000   0.31729003   -0.6860541   -0.6860541 -0.080189274  0.061421862   -0.6860541   0.60586483   907399 
29853000   0.31674237  -0.68563542  -0.68563542 -0.080798354  0.060626255  -0.68563542   0.60483707   907372 
29854000   0.31670308  -0.68552375  -0.68552375 -0.080743717  0.059354545  -0.68552375   0.60478004   907345 
29855000    0.3171133  -0.68604212  -0.68604212 -0.080460713  0.061416455  -0.68604212   0.60558141   907318 
29856000   0.31715547  -0.68670119  -0.68670119 -0.081021219  0.061428323  -0.68670119   0.60567997   907291 
29857000   0.31745846  -0.68701735  -0.68701735 -0.080740707  0.062555458  -0.68701735   0.60627665   907264 
29858000   0.31698021   -0.6861689   -0.6861689 -0.080787598   0.06027242   -0.6861689    0.6053813   907237 
29859000   0.31680323   -0.6860251   -0.6860251 -0.080963118  0.060412172   -0.6860251   0.60506198   907209 
29860000   0.31637899  -0.68626721  -0.68626721 -0.081997505  0.062024976  -0.68626721    0.6042697   907182 
29861000   0.31677874  -0.68695085  -0.68695085 -0.081899638  0.061735911  -0.68695085   0.60505121   907155 
29862000   0.31613286  -0.68519523  -0.68519523  -0.08135967  0.061979183  -0.68519523   0.60383556   907128 
29863000   0.31648875  -0.68553236  -0.68553236 -0.080999052  0.060640108  -0.68553236   0.60453331   907101 
29864000   0.31642119  -0.68533259  -0.68533259 -0.080910328  0.061556808  -0.68533259   0.60442226   907074 
29865000   0.31681578  -0.68569671  -0.68569671 -0.080502691  0.060842492  -0.68569671   0.60519402   907047 
29866000   0.31697082    -0.686045    -0.686045 -0.080536803   0.06159106    -0.686045    0.6055082   907020 
29867000   0.31674142  -0.68534527  -0.68534527 -0.080257277  0.060813974  -0.68534527   0.60508799   906993 
29868000   0.31698866  -0.68497373  -0.68497373 -0.079395388  0.059776692  -0.68497373   0.60557834   906966 
29869000   0.31599898  -0.68343792  -0.68343792 -0.079732313  0.060509222  -0.68343792   0.60370561   906939 
29870000   0.31660996   -0.6837669   -0.6837669 -0.078876017  0.059830463   -0.6837669   0.60489088   906912 
29871000   0.31621883  -0.68220977  -0.68220977 -0.078048161  0.062064477  -0.68220977   0.60416161   906885 
29872000   0.31624469  -0.68365063  -0.68365063 -0.079421634  0.060508855  -0.68365063     0.604229   906858 
29873000   0.31634893  -0.68383064  -0.68383064  -0.07938447  0.060227381  -0.68383064   0.60444617   906831 
29874000   0.31649525  -0.68383889  -0.68383889 -0.079095161  0.062278589  -0.68383889   0.60474373   906804 
29875000   0.31613784  -0.68334218  -0.68334218 -0.079263375  0.061712848  -0.68334218   0.60407881   906777 
29876000   0.31603362  -0.68358543  -0.68358543  -0.07968779   0.06057679  -0.68358543   0.60389764   906750 
29877000   0.31618422  -0.68445045  -0.68445045 -0.080247043  0.059776282  -0.68445045   0.60420341   906723 
29878000   0.31649963  -0.68442204  -0.68442204 -0.079597905  0.063986403  -0.68442204   0.60482414   906696 
29879000   0.31648112   -0.6836529   -0.6836529 -0.078846125  0.061085184   -0.6836529   0.60480678   906669 
29880000   0.31623122  -0.68404199  -0.68404199 -0.079694779  0.059934379  -0.68404199   0.60434721   906642 
29881000   0.31594564  -0.68333565  -0.68333565  -0.07951623  0.061708064  -0.68333565   0.60381942   906615 
29882000   0.31604522  -0.68340821  -0.68340821 -0.079380496  0.060567954  -0.68340821   0.60402772   906588 
29883000   0.31607198  -0.68366562  -0.68366562 -0.079568769  0.060334467  -0.68366562   0.60409685   906561 
29884000   0.31610479   -0.6840731   -0.6840731 -0.079895541  0.059154444   -0.6840731   0.60417756   906534 
29885000   0.31599271  -0.68480424  -0.68480424 -0.080822918  0.059050985  -0.68480424   0.60398132   906507 
29886000   0.31606886  -0.68446863  -0.68446863 -0.080323757  0.062495941  -0.68446863   0.60414487   906480 
29887000    0.3160535    -0.685751    -0.685751 -0.081617504  0.061383692    -0.685751    0.6041335   906453 
29888000   0.31600946  -0.68548577  -0.68548577  -0.08141846  0.061255563  -0.68548577   0.60406731   906426 
29889000   0.31571648  -0.68465366  -0.68465366 -0.081128409  0.061069314  -0.68465366   0.60352525   906399 
29890000   0.31561334  -0.68395431  -0.68395431 -0.080608256  0.061609364  -0.68395431   0.60334605   906372 
29891000   0.31608714  -0.68468295  -0.68468295 -0.080413132  0.060472722  -0.68468295   0.60426981   906345 
29892000   0.31564359  -0.68475695  -0.68475695  -0.08131712  0.061863445  -0.68475695   0.60343983   906318 
29893000   0.31559782  -0.68572487  -0.68572487 -0.082354565  0.060200447  -0.68572487    0.6033703   906291 
29894000   0.31556707  -0.68568611  -0.68568611 -0.082356613  0.062962632  -0.68568611    0.6033295   906264 
29895000   0.31536358   -0.6856138   -0.6856138 -0.082655387  0.060691754   -0.6856138   0.60295841   906237 
29896000   0.31566052  -0.68662425  -0.68662425 -0.083079444  0.060567717  -0.68662425    0.6035448   906209 
29897000   0.31564411  -0.68584532  -0.68584532 -0.082313927  0.059894136  -0.68584532   0.60353139   906182 
29898000   0.31514251  -0.68553253  -0.68553253 -0.082942273  0.062871092  -0.68553253   0.60259026   906155 
29899000   0.31555906  -0.68563486  -0.68563486 -0.082230117  0.059441453  -0.68563486   0.60340474   906128 
29900000   0.31612999  -0.68583894  -0.68583894 -0.081324474  0.062258912  -0.68583894   0.60451447   906101 
29901000   0.31578971   -0.6853117   -0.6853117 -0.081429926  0.063233277   -0.6853117   0.60388177   906074 
29902000   0.31559461  -0.68479228  -0.68479228 -0.081265631  0.063313995  -0.68479228   0.60352665   906047 
29903000   0.31546403  -0.68360673  -0.68360673   -0.0803118  0.061265273  -0.68360673   0.60329493   906020 
29904000   0.31459142  -0.68224347  -0.68224347 -0.080599398  0.059981488  -0.68224347   0.60164407   905993 
29905000   0.31527322  -0.68262849  -0.68262849 -0.079662539  0.060657122  -0.68262849   0.60296595   905966 
29906000   0.31536576  -0.68360746  -0.68360746 -0.080446548  0.059434795  -0.68360746   0.60316092   905939 
29907000    0.3157022  -0.68421467  -0.68421467 -0.080392289  0.063152811  -0.68421467   0.60382238   905912 
29908000   0.31593216   -0.6839832   -0.6839832 -0.079702987   0.06232866   -0.6839832   0.60428022   905885 
29909000    0.3156441  -0.68428211  -0.68428211 -0.080534869  0.060590176  -0.68428211   0.60374724   905858 
29910000   0.31514902  -0.68232017  -0.68232017 -0.079501919  0.059807728  -0.68232017   0.60281825   905831 
29911000   0.31531203   -0.6817904   -0.6817904 -0.078642367  0.060187705   -0.6817904   0.60314803   905804 
29912000   0.31559142  -0.68273359  -0.68273359 -0.079033116    0.0594301  -0.68273359   0.60370047   905777 
29913000     0.315709  -0.68215058  -0.68215058 -0.078207194  0.062534541  -0.68215058   0.60394339   905750 
29914000   0.31506873  -0.68086296  -0.68086296 -0.078126421  0.060439086  -0.68086296   0.60273654   905723 
29915000   0.31564118  -0.68198987  -0.68198987 -0.078140222  0.061409259  -0.68198987   0.60384965   905696 
29916000   0.31527022  -0.68190121  -0.68190121 -0.078743252  0.061420123  -0.68190121   0.60315796   905669 
29917000   0.31594582  -0.68316455  -0.68316455 -0.078696056  0.059942507  -0.68316455    0.6044685   905642 
29918000    0.3156386  -0.68215951  -0.68215951 -0.078260777  0.059324271  -0.68215951   0.60389873   905615 
29919000    0.3148813  -0.68060471  -0.68060471 -0.078136927  0.060651194  -0.68060471   0.60246778   905588 
29920000    0.3150955  -0.68066018  -0.68066018 -0.077764598    0.0599678  -0.68066018   0.60289558   905561 
29921000   0.31537821   -0.6821377   -0.6821377 -0.078683192  0.060558608   -0.6821377   0.60345451   905534 
29922000   0.31532284  -0.68281327  -0.68281327 -0.079446717  0.060788436  -0.68281327   0.60336656   905507 
29923000   0.31544836  -0.68266498  -0.68266498  -0.07904026  0.061141009  -0.68266498   0.60362472   905480 
29924000   0.31481087  -0.68115227  -0.68115227 -0.078729442  0.059203173  -0.68115227   0.60242283   905453 
29925000   0.31495624  -0.68145093  -0.68145093 -0.078731953  0.061935534  -0.68145093   0.60271898   905426 
29926000    0.3150217  -0.68190994  -0.68190994 -0.079047724  0.059122885  -0.68190994   0.60286221   905399 
29927000   0.31510406  -0.68204615  -0.68204615 -0.079008329  0.059678799  -0.68204615   0.60303783   905372 
29928000   0.31485765  -0.68234471  -0.68234471 -0.079760501  0.058193313  -0.68234471   0.60258421   905345 
29929000   0.31478184  -0.68302376  -0.68302376 -0.080566666  0.058757674  -0.68302376   0.60245709   905318 
29930000    0.3150557  -0.68343359  -0.68343359 -0.080434368  0.061722522  -0.68343359   0.60299922   905291 
29931000   0.31437836  -0.68217722  -0.68217722 -0.080456454  0.059692342  -0.68217722   0.60172077   905264 
29932000    0.3154575  -0.68307706  -0.68307706 -0.079272806  0.061497787  -0.68307706   0.60380425   905237 
29933000   0.31495256  -0.68187963  -0.68187963 -0.079023216   0.06167733  -0.68187963   0.60285642   905209 
29934000   0.31515824  -0.68191355  -0.68191355 -0.078645437  0.062211108  -0.68191355   0.60326811   905182 
29935000   0.31456672  -0.68208178  -0.68208178 -0.079927986  0.059227887  -0.68208178   0.60215379   905155 
29936000    0.3149328  -0.68230313  -0.68230313 -0.079430598  0.060798944  -0.68230313   0.60287253   905128 
29937000   0.31436669  -0.68162839  -0.68162839 -0.079821604  0.060283344  -0.68162839   0.60180679   905101 
29938000   0.31455268  -0.68186296  -0.68186296 -0.079682158  0.060571335  -0.68186296    0.6021808   905074 
29939000   0.31432586  -0.68101874  -0.68101874 -0.079254206  0.061193202  -0.68101874   0.60176454   905047 
29940000   0.31425752  -0.68198843  -0.68198843 -0.080336776  0.058912719  -0.68198843   0.60165166   905020 
29941000   0.31433483  -0.68088171  -0.68088171 -0.079064085  0.058982957  -0.68088171   0.60181762   904993 
29942000   0.31374899  -0.67928804  -0.67928804 -0.078574141  0.058955245  -0.67928804    0.6007139   904966 
29943000   0.31449858  -0.68057094  -0.68057094 -0.078403891  0.059837066  -0.68057094   0.60216705   904939 
29944000   0.31428225  -0.67950877  -0.67950877 -0.077737974  0.060279824  -0.67950877    0.6017708   904912 
29945000   0.31458641  -0.67898172  -0.67898172 -0.076610545  0.060014947  -0.67898172   0.60237117   904885 
29946000    0.3141258  -0.67863251  -0.67863251 -0.077125363  0.059418921  -0.67863251   0.60150715   904858 
29947000   0.31436187  -0.67855397  -0.67855397 -0.076576825  0.060238372  -0.67855397   0.60197715   904831 
29948000   0.31437559  -0.67925685  -0.67925685 -0.077235459  0.059782451  -0.67925685   0.60202139   904804 
29949000   0.31398786  -0.67836664  -0.67836664 -0.077069812  0.060350113  -0.67836664   0.60129683   904777 
29950000   0.31433865  -0.67830337  -0.67830337 -0.076316804  0.060171773  -0.67830337   0.60198657   904750 
29951000   0.31391544  -0.67826886  -0.67826886 -0.077074832  0.059853272  -0.67826886   0.60119403   904723 
29952000    0.3139322  -0.67844334  -0.67844334 -0.077199272  0.058452064  -0.67844334   0.60124407   904696 
29953000   0.31388292  -0.67782706  -0.67782706 -0.076659427  0.060827604  -0.67782706   0.60116764   904669 
29954000   0.31441347  -0.67785412  -0.67785412  -0.07565237  0.060074148  -0.67785412   0.60220175   904642 
29955000   0.31397893  -0.67816209  -0.67816209  -0.07677468  0.061061157  -0.67816209   0.60138741   904615 
29956000   0.31347634  -0.67804631  -0.67804631 -0.077603637    0.0621983  -0.67804631   0.60044267   904588 
29957000   0.31374024  -0.67870182  -0.67870182 -0.077735724   0.05952271  -0.67870182   0.60096609   904561 
29958000   0.31400368  -0.67800621  -0.67800621 -0.076517537  0.061466773  -0.67800621   0.60148867   904534 
29959000   0.31389455  -0.67789189  -0.67789189 -0.076594311  0.060678676  -0.67789189   0.60129758   904507 
29960000   0.31414511  -0.67876495  -0.67876495 -0.076969433  0.059825301  -0.67876495   0.60179551   904480 
29961000   0.31327417  -0.67808732  -0.67808732 -0.077942313  0.060066896  -0.67808732   0.60014501   904453 
29962000   0.31299037  -0.67807078  -0.67807078 -0.078451561  0.060410824  -0.67807078   0.59961922   904426 
29963000    0.3136365  -0.67870971  -0.67870971 -0.077834708  0.058603913  -0.67870971     0.600875   904399 
29964000   0.31357294    -0.677847    -0.677847 -0.077075841  0.060584608    -0.677847   0.60077116   904372 
29965000   0.31387029  -0.67841045  -0.67841045 -0.077051634  0.061352216  -0.67841045   0.60135881   904345 
29966000   0.31380723  -0.67815006  -0.67815006 -0.076894116  0.058088476  -0.67815006   0.60125595   904318 
29967000   0.31407426  -0.67805867  -0.67805867 -0.076273124  0.059403638  -0.67805867   0.60178555   904291 
29968000   0.31361016  -0.67716561  -0.67716561 -0.076251379  0.062532223  -0.67716561   0.60091423   904264 
29969000   0.31328725  -0.67757709  -0.67757709 -0.077263656  0.059282538  -0.67757709   0.60031343   904237 
29970000   0.31424499  -0.67866183  -0.67866183 -0.076494552  0.060392981  -0.67866183   0.60216727   904209 
29971000   0.31413745  -0.67843036  -0.67843036 -0.076451191  0.058607157  -0.67843036   0.60197917   904182 
29972000   0.31347281   -0.6767661   -0.6767661 -0.076042633  0.060799623   -0.6767661   0.60072347   904155 
29973000   0.31391884   -0.6779746   -0.6779746  -0.07637841  0.060944599   -0.6779746   0.60159619   904128 
29974000   0.31322846  -0.67722052  -0.67722052 -0.076929457  0.062103749  -0.67722052   0.60029106   904101 
29975000   0.31351055  -0.67737475  -0.67737475 -0.076525137  0.060473685  -0.67737475   0.60084961   904074 
29976000    0.3132576  -0.67747357  -0.67747357 -0.077090797  0.059808816  -0.67747357   0.60038277   904047 
29977000   0.31358103  -0.67763177  -0.67763177  -0.07661118  0.058841578  -0.67763177   0.60102059   904020 
29978000   0.31341483  -0.67691572  -0.67691572 -0.076195735  0.059421834  -0.67691572   0.60071998   903993 
29979000   0.31331507  -0.67642744  -0.67642744 -0.075880712  0.059759296  -0.67642744   0.60054673   903966 
29980000    0.3129396  -0.67574745  -0.67574745 -0.075902492  0.059445583  -0.67574745   0.59984496   903939 
29981000   0.31380082  -0.67702667  -0.67702667  -0.07551295  0.059381022  -0.67702667   0.60151372   903912 
29982000   0.31324579  -0.67591733  -0.67591733   -0.0754496  0.060032333  -0.67591733   0.60046773   903885 
29983000   0.31344971  -0.67597876  -0.67597876 -0.075102188  0.059143955  -0.67597876   0.60087657   903858 
29984000   0.31361917  -0.67620426  -0.67620426 -0.074984868  0.060434086  -0.67620426   0.60121939   903831 
29985000   0.31406919  -0.67665096  -0.67665096 -0.074550869  0.058903058  -0.67665096   0.60210009   903804 
29986000   0.31361268  -0.67585775  -0.67585775 -0.074614887  0.059081735  -0.67585775   0.60124287   903777 
29987000   0.31348629  -0.67503745  -0.67503745 -0.074018937  0.059656538  -0.67503745   0.60101851   903750 
29988000   0.31312256  -0.67392016  -0.67392016 -0.073581058  0.060697416  -0.67392016    0.6003391   903723 
29989000     0.313166  -0.67259657  -0.67259657 -0.072156239  0.058896658  -0.67259657   0.60044033   903696 
29990000   0.31346348  -0.67285823  -0.67285823 -0.071829585  0.060409825  -0.67285823   0.60102864   903669 
29991000   0.31384874  -0.67356957  -0.67356957 -0.071784259  0.058680591  -0.67356957   0.60178531   903642 
29992000   0.31303491  -0.67174183  -0.67174183 -0.071499035  0.060073339  -0.67174183    0.6002428   903615 
29993000   0.31325797  -0.67181641  -0.67181641 -0.071127962  0.059183528  -0.67181641   0.60068845   903588 
29994000   0.31314759  -0.67148945  -0.67148945 -0.070994712  0.059547712  -0.67148945   0.60049474   903561 
29995000   0.31369745  -0.67267309  -0.67267309 -0.071105966  0.058886821  -0.67267309   0.60156713   903534 
29996000   0.31329397  -0.67149471  -0.67149471 -0.070683366  0.061327551  -0.67149471   0.60081134   903507 
29997000   0.31328755  -0.67124342  -0.67124342 -0.070426428  0.060171171  -0.67124342   0.60081699   903480 
29998000   0.31308583  -0.67061063  -0.67061063 -0.070162564  0.059493484  -0.67061063   0.60044807   903453 
29999000   0.31343835  -0.67074232  -0.67074232 -0.069600202  0.060569586  -0.67074232   0.60114212   903426 
30000000   0.31328751  -0.67020072  -0.67020072 -0.069329936  0.060160181  -0.67020072   0.60087079   903399 
Loop time of 57849.7 on 768 procs for 30000000 steps with 903399 atoms

Performance: 224028.896 tau/day, 518.585 timesteps/s
86.0% CPU use with 768 MPI tasks x 1 OpenMP threads

MPI task timing breakdown:
Section |  min time  |  avg time  |  max time  |%varavg|  %CPU | %total
-----------------------------------------------------------------------
Pair    | 2215.5     | 7549.5     | 15462      |4126.3 |  90.2 | 13.05
Bond    | 18.697     | 20.088     | 22.146     |  10.3 | 100.0 |  0.03
Neigh   | 3813.5     | 9659.4     | 14252      |1908.5 |  98.1 | 16.70
Comm    | 11261      | 20520      | 29708      |2644.7 |  83.7 | 35.47
Output  | 2984       | 2997.6     | 3020.2     |  18.9 |  75.9 |  5.18
Modify  | 12559      | 16179      | 22731      |1562.9 |  82.0 | 27.97
Other   |            | 923.5      |            |       |       |  1.60

Nlocal:        1176.30 ave        3078 max         234 min
Histogram: 41 77 154 291 129 56 14 2 2 2
Nghost:        4057.94 ave        9166 max         716 min
Histogram: 47 122 107 121 148 92 57 36 20 18
Neighs:        7167.83 ave       38107 max         783 min
Histogram: 503 129 23 9 6 2 3 13 56 24

Total # of neighbors = 5504894
Ave neighs/atom = 6.0935356
Ave special neighs/atom = 0.0000000
Neighbor list builds = 3262701
Dangerous builds = 2422701

Total wall time: 16:04:24
