LAMMPS (24 Dec 2020)
OMP_NUM_THREADS environment is not set. Defaulting to 1 thread. (src/comm.cpp:94)
  using 1 OpenMP thread(s) per MPI task
# Simple rigid body system
# needed variables:

#variable	startTemp equal 0.5
#variable 	temp 	  equal 0.8

units		lj
atom_style	full
dimension 	3
boundary	p p f
pair_style	lj/smooth/linear 1.5

variable 	sigma		equal 1.0
variable 	epsilon 	equal 1.0

region		box block 0 80 0 80 0 160
create_box 	3 box
Created orthogonal box = (0.0000000 0.0000000 0.0000000) to (80.000000 80.000000 160.00000)
  6 by 4 by 8 MPI processor grid

lattice 	sc 0.66
Lattice spacing in x,y,z = 1.1485556 1.1485556 1.1485556
region		fluid block EDGE EDGE EDGE EDGE 2 100 units box
create_atoms 	1 region fluid
Created 421400 atoms
  create_atoms CPU = 0.160 seconds

#lattice 	sc 0.045
#region		gas block EDGE EDGE EDGE EDGE 101 158 units box
#create_atoms    1 region gas

group		solvent type 1
421400 atoms in group solvent

mass		1 1.0
mass		2 1.0
mass		3 1.0



neighbor 	0.4 bin

pair_coeff	1 1 1.0 1.0
pair_coeff	2 2 0.0 0.0
pair_coeff	3 3 0.0 0.0
pair_coeff	2 3 0.0 0.0
pair_coeff	1 2*3 0.0 0.0

pair_modify 	shift yes

#delete_atoms	overlap 0.5 solvent solvent

velocity 	solvent create ${startTemp} 563435 loop geom
velocity 	solvent create .9 563435 loop geom

balance 	1.05 shift z 10 1.05
Balancing ...
Neighbor list info ...
  update every 1 steps, delay 10 steps, check yes
  max neighbors/atom: 2000, page size: 100000
  master list distance cutoff = 1.9
  ghost atom cutoff = 1.9
  binsize = 0.95, bins = 85 85 169
  1 neighbor lists, perpetual/occasional/extra = 1 0 0
  (1) pair lj/smooth/linear, perpetual
      attributes: half, newton on
      pair build: half/bin/newton
      stencil: half/bin/3d/newton
      bin: standard
 rebalancing time: 0.037 seconds
  iteration count = 5
  initial/final maximal load/proc = 3888.0000 2376.0000
  initial/final imbalance factor  = 1.7714665 1.0825629
  x cuts: 0.0000000 0.16666667 0.33333333 0.50000000 0.66666667 0.83333333 1.0000000
  y cuts: 0.0000000 0.25000000 0.50000000 0.75000000 1.0000000
  z cuts: 0.0000000 0.089843750 0.16796875 0.24218750 0.32031250 0.39843750 0.48046875 0.55859375 1.0000000


####################### WALLS ###########################


variable       epsilonWall equal 2*${epsilon}
variable       epsilonWall equal 2*1

variable       cutoffTop   equal   0.7147*${sigma}
variable       cutoffTop   equal   0.7147*1

variable       cutoffLow   equal   3*${sigma}
variable       cutoffLow   equal   3*1


fix            topWall all wall/lj93 zhi EDGE                ${epsilonWall} ${sigma} ${cutoffTop} units box
fix            topWall all wall/lj93 zhi EDGE                2 ${sigma} ${cutoffTop} units box
fix            topWall all wall/lj93 zhi EDGE                2 1 ${cutoffTop} units box
fix            topWall all wall/lj93 zhi EDGE                2 1 0.7147 units box

fix            lowWall all wall/lj93 zlo EDGE                ${epsilonWall} ${sigma} ${cutoffLow} units box
fix            lowWall all wall/lj93 zlo EDGE                2 ${sigma} ${cutoffLow} units box
fix            lowWall all wall/lj93 zlo EDGE                2 1 ${cutoffLow} units box
fix            lowWall all wall/lj93 zlo EDGE                2 1 3 units box


###################### COMPUTES ##########################

compute        bin1 solvent chunk/atom bin/1d z upper 1.0


######################	FIXES ############################


fix 		peclet solvent ave/chunk 10 10 1000 bin1 density/number norm 		 none ave one file density.profile

fix 		 temp solvent ave/chunk 10 10 1000 bin1 temp norm 		 none ave one file temp.profile

fix 		2 solvent nve


## Thermostat


region		regthermo block EDGE EDGE EDGE EDGE 0 20 units box

group 		thermo dynamic solvent region regthermo every 1000
dynamic group thermo defined

fix 		3 thermo langevin ${startTemp} ${temp} 10 156453
fix 		3 thermo langevin .9 ${temp} 10 156453
fix 		3 thermo langevin .9 .9 10 156453



#### Load balancing


fix 		bal all balance 1000 1.05 shift z 10 1.05


############### Diagnostics and computes ###################
#compute 	com cube	  rigid/local	1 mol x y z
#compute 	quat cube	  rigid/local	1 mol quatw quati quatj quatk

thermo 		1000
thermo_style 	custom step temp epair evdwl etotal press pe ke atoms

dump		1 all custom 100000 dump.lammpstrj id mol type x y z
dump 		2 all image 10000 image.*.png type type
dump 		3 all movie 1000 movie.avi type type

#dump 		com cube local 1000 dump.*.xyz c_com[*]
#dump		quat cube      local 1000 dump.*.quat c_quat[*]


restart 	1000000 restart.dat
timestep 	0.005
timer 		full
New timer settings: style=full  mode=nosync  timeout=off

run		4000000
Per MPI rank memory allocation (min/avg/max) = 9.959 | 9.999 | 10.10 Mbytes
Step Temp E_pair E_vdwl TotEng Press PotEng KinEng Atoms 
       0          0.9    2.2548251    2.2548251    3.6048219    5.7941607    2.2548251    1.3499968   421400 
    1000    1.9524449   0.18338883   0.18338883    3.1120492    3.1545619   0.18338883    2.9286603   421400 
    2000     1.981853 -0.045828386 -0.045828386    2.9269441    2.2624609 -0.045828386    2.9727725   421400 
    3000    1.9294445  -0.11027874  -0.11027874    2.7838812    1.8915884  -0.11027874    2.8941599   421400 
    4000    1.9187542  -0.16017715  -0.16017715    2.7179473    1.6178729  -0.16017715    2.8781245   421400 
    5000    1.9112241  -0.14744451  -0.14744451    2.7193848    1.5218287  -0.14744451    2.8668293   421400 
    6000    1.9046828  -0.10768636  -0.10768636    2.7493311     1.545045  -0.10768636    2.8570175   421400 
    7000    1.8910103 -0.053410893 -0.053410893    2.7830978    1.6578657 -0.053410893    2.8365086   421400 
    8000    1.8809329 -0.0091215764 -0.0091215764    2.8122711    1.7555731 -0.0091215764    2.8213927   421400 
    9000    1.8807259  0.015636396  0.015636396    2.8367186    1.8437628  0.015636396    2.8210822   421400 
   10000     1.890044  0.022478481  0.022478481    2.8575378    1.8712212  0.022478481    2.8350593   421400 
   11000    1.9101584  0.010861104  0.010861104    2.8760918    1.8399062  0.010861104    2.8652307   421400 
   12000    1.9254406 0.0023657258 0.0023657258    2.8905197    1.8429355 0.0023657258     2.888154   421400 
   13000    1.9391458 -0.0078360251 -0.0078360251    2.9008758    1.8242527 -0.0078360251    2.9087118   421400 
   14000    1.9310509 -0.028181654 -0.028181654    2.8683878     1.738117 -0.028181654    2.8965694   421400 
   15000    1.8651287 -0.037353626 -0.037353626    2.7603328    1.6828013 -0.037353626    2.7976864   421400 
   16000    1.7703659 -0.034815146 -0.034815146    2.6207274    1.7003045 -0.034815146    2.6555426   421400 
   17000     1.690145 -0.037555144 -0.037555144    2.4976564    1.7121307 -0.037555144    2.5352115   421400 
   18000    1.6398577 -0.044360155 -0.044360155    2.4154205     1.698745 -0.044360155    2.4597806   421400 
   19000    1.6139273 -0.053374369 -0.053374369    2.3675108    1.6643335 -0.053374369    2.4208852   421400 
   20000    1.6009283 -0.059258129 -0.059258129    2.3421287    1.6358722 -0.059258129    2.4013868   421400 
   21000    1.5962886 -0.063843609 -0.063843609    2.3305836    1.6124822 -0.063843609    2.3944272   421400 
   22000    1.5998628 -0.070690649 -0.070690649    2.3290978    1.5770979 -0.070690649    2.3997885   421400 
   23000    1.6076146 -0.077202533 -0.077202533    2.3342137    1.5327789 -0.077202533    2.4114162   421400 
   24000    1.6130296 -0.079188207 -0.079188207    2.3403504    1.4984719 -0.079188207    2.4195386   421400 
   25000    1.6161009 -0.074756044 -0.074756044    2.3493895    1.4899893 -0.074756044    2.4241455   421400 
   26000    1.6188274 -0.067906034 -0.067906034    2.3603292    1.4986702 -0.067906034    2.4282353   421400 
   27000    1.6236715 -0.063926309 -0.063926309    2.3715752    1.4994681 -0.063926309    2.4355015   421400 
   28000    1.6280772 -0.059866564 -0.059866564    2.3822434    1.5031502 -0.059866564      2.44211   421400 
   29000    1.6303727 -0.053570942 -0.053570942    2.3919823    1.5138388 -0.053570942    2.4455533   421400 
   30000    1.6380752 -0.053991067 -0.053991067    2.4031159    1.5182672 -0.053991067     2.457107   421400 
   31000     1.643396  -0.05083203  -0.05083203    2.4142561    1.5334288  -0.05083203    2.4650882   421400 
   32000    1.6532252 -0.052413006 -0.052413006    2.4274188    1.5430208 -0.052413006    2.4798319   421400 
   33000     1.649369 -0.053804222 -0.053804222    2.4202435     1.545672 -0.053804222    2.4740477   421400 
   34000    1.6309808 -0.058367155 -0.058367155    2.3880983    1.5412708 -0.058367155    2.4464655   421400 
   35000    1.6071213 -0.061075456 -0.061075456    2.3496008    1.5436968 -0.061075456    2.4106762   421400 
   36000    1.5887751 -0.064795146 -0.064795146    2.3183619    1.5378803 -0.064795146     2.383157   421400 
   37000    1.5751394 -0.066716968 -0.066716968    2.2959866    1.5347584 -0.066716968    2.3627036   421400 
   38000    1.5683545 -0.069716591 -0.069716591    2.2828095    1.5256456 -0.069716591    2.3525261   421400 
   39000    1.5638378 -0.070324175 -0.070324175    2.2754269    1.5209693 -0.070324175    2.3457511   421400 
   40000    1.5623874 -0.073506945 -0.073506945    2.2700686    1.5084055 -0.073506945    2.3435756   421400 
   41000    1.5606543 -0.071821373 -0.071821373    2.2691545    1.5030325 -0.071821373    2.3409759   421400 
   42000    1.5638524 -0.074699838 -0.074699838    2.2710732     1.485363 -0.074699838     2.345773   421400 
   43000    1.5643244 -0.073311308 -0.073311308    2.2731697    1.4797411 -0.073311308     2.346481   421400 
   44000    1.5671488 -0.073661511 -0.073661511    2.2770561        1.471 -0.073661511    2.3507176   421400 
   45000     1.569701 -0.073555644 -0.073555644    2.2809903    1.4630111 -0.073555644     2.354546   421400 
   46000    1.5724508 -0.072215362 -0.072215362    2.2864552     1.462491 -0.072215362    2.3586706   421400 
   47000    1.5736502  -0.06911355  -0.06911355    2.2913561    1.4661714  -0.06911355    2.3604697   421400 
   48000     1.577437 -0.068470921 -0.068470921    2.2976789    1.4692565 -0.068470921    2.3661499   421400 
   49000    1.5797219 -0.064931553 -0.064931553    2.3046457    1.4772285 -0.064931553    2.3695773   421400 
   50000    1.5836851 -0.065197475 -0.065197475    2.3103246    1.4810257 -0.065197475    2.3755221   421400 
   51000    1.5870303 -0.064988446 -0.064988446    2.3155513    1.4895706 -0.064988446    2.3805398   421400 
   52000     1.582921 -0.065270914 -0.065270914    2.3091049    1.4940215 -0.065270914    2.3743758   421400 
   53000    1.5740058 -0.066669403 -0.066669403    2.2943337    1.4963104 -0.066669403    2.3610031   421400 
   54000    1.5639191 -0.069681953 -0.069681953    2.2761912    1.4917206 -0.069681953    2.3458731   421400 
   55000    1.5542195 -0.069946675 -0.069946675     2.261377    1.4948498 -0.069946675    2.3313237   421400 
   56000    1.5471747 -0.071462476 -0.071462476    2.2492941    1.4918121 -0.071462476    2.3207566   421400 
   57000    1.5447722 -0.074465068 -0.074465068    2.2426877    1.4823725 -0.074465068    2.3171528   421400 
   58000    1.5395018 -0.072247676 -0.072247676    2.2369996    1.4865392 -0.072247676    2.3092473   421400 
   59000    1.5396187 -0.074626556 -0.074626556     2.234796    1.4762464 -0.074626556    2.3094225   421400 
   60000    1.5400183 -0.075670828 -0.075670828    2.2343511    1.4691497 -0.075670828    2.3100219   421400 
   61000    1.5410546 -0.077024846 -0.077024846    2.2345516    1.4617998 -0.077024846    2.3115765   421400 
   62000     1.541662 -0.077362481 -0.077362481    2.2351251    1.4549252 -0.077362481    2.3124876   421400 
   63000    1.5427802  -0.07631735  -0.07631735    2.2378475    1.4545396  -0.07631735    2.3141648   421400 
   64000     1.542955 -0.074559424 -0.074559424    2.2398676    1.4526387 -0.074559424     2.314427   421400 
   65000    1.5470261 -0.076118179 -0.076118179    2.2444154    1.4456729 -0.076118179    2.3205336   421400 
   66000    1.5452492 -0.072568336 -0.072568336    2.2452999    1.4527755 -0.072568336    2.3178682   421400 
   67000    1.5490899 -0.074348598 -0.074348598    2.2492808     1.449453 -0.074348598    2.3236293   421400 
   68000    1.5490261 -0.071132948 -0.071132948    2.2524007    1.4552808 -0.071132948    2.3235336   421400 
   69000    1.5512372 -0.071226617 -0.071226617    2.2556237    1.4599088 -0.071226617    2.3268503   421400 
   70000    1.5515499 -0.071718123 -0.071718123    2.2556011    1.4625212 -0.071718123    2.3273193   421400 
   71000    1.5470443 -0.069689081 -0.069689081    2.2508718    1.4695011 -0.069689081    2.3205609   421400 
   72000    1.5432343 -0.072513366 -0.072513366    2.2423326    1.4657307 -0.072513366     2.314846   421400 
   73000    1.5375509 -0.073981285 -0.073981285    2.2323396    1.4637957 -0.073981285    2.3063209   421400 
   74000    1.5320703 -0.073749501 -0.073749501    2.2243505    1.4637879 -0.073749501       2.2981   421400 
   75000    1.5300049 -0.076441641 -0.076441641    2.2185603    1.4587301 -0.076441641    2.2950019   421400 
   76000    1.5262018  -0.07610807  -0.07610807    2.2131892    1.4589021  -0.07610807    2.2892972   421400 
   77000    1.5248799 -0.077171685 -0.077171685    2.2101427    1.4545501 -0.077171685    2.2873144   421400 
   78000    1.5237176  -0.07663327  -0.07663327    2.2089377    1.4543823  -0.07663327     2.285571   421400 
   79000    1.5228778  -0.07713998  -0.07713998    2.2071713    1.4519969  -0.07713998    2.2843113   421400 
   80000    1.5236847 -0.078939437 -0.078939437    2.2065821    1.4440833 -0.078939437    2.2855216   421400 
   81000    1.5238643 -0.079247338 -0.079247338    2.2065437    1.4399494 -0.079247338    2.2857911   421400 
   82000    1.5248797 -0.079325642 -0.079325642    2.2079884    1.4353089 -0.079325642    2.2873141   421400 
   83000    1.5246051 -0.078083853 -0.078083853    2.2088184    1.4378541 -0.078083853    2.2869022   421400 
   84000    1.5254963 -0.077293591 -0.077293591    2.2109454    1.4366203 -0.077293591     2.288239   421400 
   85000    1.5255904 -0.076754064 -0.076754064     2.211626    1.4359698 -0.076754064    2.2883801   421400 
   86000    1.5268472 -0.077639997 -0.077639997    2.2126254    1.4346894 -0.077639997    2.2902654   421400 
   87000    1.5252022 -0.074922778 -0.074922778    2.2128751    1.4401665 -0.074922778    2.2877979   421400 
   88000    1.5248733 -0.075183429 -0.075183429    2.2121211    1.4410907 -0.075183429    2.2873045   421400 
   89000    1.5259635 -0.076613227 -0.076613227    2.2123267    1.4399467 -0.076613227    2.2889399   421400 
   90000    1.5229472 -0.074838621 -0.074838621    2.2095768    1.4477178 -0.074838621    2.2844154   421400 
   91000    1.5207482 -0.076468658 -0.076468658    2.2046482    1.4466309 -0.076468658    2.2811169   421400 
   92000    1.5176916 -0.076739347 -0.076739347    2.1997927    1.4468428 -0.076739347    2.2765321   421400 
   93000    1.5159832 -0.079253823 -0.079253823    2.1947156    1.4394281 -0.079253823    2.2739694   421400 
   94000    1.5115986 -0.078727425 -0.078727425     2.188665    1.4420721 -0.078727425    2.2673925   421400 
   95000    1.5107532 -0.080041771 -0.080041771    2.1860826    1.4375719 -0.080041771    2.2661244   421400 
   96000    1.5092353    -0.080411    -0.080411    2.1834365    1.4363087    -0.080411    2.2638475   421400 
   97000    1.5077171 -0.079975768 -0.079975768    2.1815945    1.4338697 -0.079975768    2.2615702   421400 
   98000     1.507714 -0.082269486 -0.082269486    2.1792962    1.4269643 -0.082269486    2.2615657   421400 
   99000    1.5053595 -0.079320611 -0.079320611    2.1787132    1.4324381 -0.079320611    2.2580339   421400 
  100000    1.5077336 -0.081293587 -0.081293587    2.1803015       1.4264 -0.081293587     2.261595   421400 
  101000    1.5076742 -0.080936405 -0.080936405    2.1805696    1.4259661 -0.080936405     2.261506   421400 
  102000    1.5073794 -0.080444802 -0.080444802     2.180619    1.4242225 -0.080444802    2.2610638   421400 
  103000    1.5081296 -0.080812252 -0.080812252    2.1813767    1.4214577 -0.080812252     2.262189   421400 
  104000    1.5077621 -0.079862626 -0.079862626    2.1817752    1.4233931 -0.079862626    2.2616378   421400 
  105000    1.5075334 -0.078828673 -0.078828673     2.182466    1.4239692 -0.078828673    2.2612947   421400 
  106000    1.5088478 -0.080016639 -0.080016639    2.1832496    1.4237301 -0.080016639    2.2632663   421400 
  107000    1.5078435 -0.079122434 -0.079122434    2.1826375     1.425971 -0.079122434    2.2617599   421400 
  108000    1.5061712 -0.078854356 -0.078854356    2.1803971     1.426835 -0.078854356    2.2592514   421400 
  109000    1.5054993  -0.08028794  -0.08028794    2.1779556    1.4256656  -0.08028794    2.2582436   421400 
  110000      1.50291 -0.079487552 -0.079487552     2.174872    1.4280718 -0.079487552    2.2543596   421400 
  111000    1.5027227 -0.083225338 -0.083225338    2.1708533    1.4176055 -0.083225338    2.2540787   421400 
  112000     1.498446 -0.079510298 -0.079510298    2.1681534    1.4271231 -0.079510298    2.2476637   421400 
  113000    1.4962253 -0.079931621 -0.079931621     2.164401    1.4272376 -0.079931621    2.2443326   421400 
  114000    1.4941308 -0.081367249 -0.081367249    2.1598236    1.4221696 -0.081367249    2.2411908   421400 
  115000    1.4929503 -0.081307785 -0.081307785    2.1581124    1.4234254 -0.081307785    2.2394202   421400 
  116000    1.4931126 -0.083063875 -0.083063875    2.1565998    1.4185586 -0.083063875    2.2396636   421400 
  117000    1.4916963  -0.08213929  -0.08213929    2.1553998    1.4172852  -0.08213929    2.2375391   421400 
  118000    1.4908136 -0.081595103 -0.081595103      2.15462    1.4176719 -0.081595103    2.2362151   421400 
  119000    1.4911006 -0.082472243 -0.082472243    2.1541733    1.4141197 -0.082472243    2.2366455   421400 
  120000    1.4904584 -0.081413952 -0.081413952    2.1542683    1.4140359 -0.081413952    2.2356822   421400 
  121000    1.4910004 -0.081914308 -0.081914308     2.154581    1.4132419 -0.081914308    2.2364953   421400 
  122000    1.4910733 -0.082584333 -0.082584333    2.1540203    1.4082286 -0.082584333    2.2366047   421400 
  123000    1.4913444 -0.083846365 -0.083846365    2.1531649    1.4062183 -0.083846365    2.2370112   421400 
  124000    1.4906863 -0.082036865 -0.082036865    2.1539873    1.4114716 -0.082036865    2.2360242   421400 
  125000    1.4914299   -0.0838442   -0.0838442    2.1532953    1.4049533   -0.0838442    2.2371395   421400 
  126000      1.49061 -0.083119325 -0.083119325    2.1527904      1.40835 -0.083119325    2.2359097   421400 
  127000     1.489293  -0.08313923  -0.08313923    2.1507949    1.4092259  -0.08313923    2.2339341   421400 
  128000    1.4874366 -0.082709852 -0.082709852    2.1484398     1.407688 -0.082709852    2.2311496   421400 
  129000    1.4870728  -0.08377787  -0.08377787    2.1468261    1.4073974  -0.08377787     2.230604   421400 
  130000    1.4848039 -0.083057619 -0.083057619     2.144143    1.4106819 -0.083057619    2.2272006   421400 
  131000    1.4834328 -0.084459189 -0.084459189    2.1406848    1.4072254 -0.084459189     2.225144   421400 
  132000    1.4816499 -0.084904086 -0.084904086    2.1375654    1.4062285 -0.084904086    2.2224695   421400 
  133000    1.4798053 -0.082971174 -0.082971174    2.1367315    1.4097503 -0.082971174    2.2197027   421400 
  134000    1.4778013 -0.082160559 -0.082160559    2.1345362    1.4103443 -0.082160559    2.2166967   421400 
  135000    1.4772176 -0.084160682 -0.084160682    2.1316605    1.4039036 -0.084160682    2.2158212   421400 
  136000    1.4769647 -0.084913608 -0.084913608    2.1305282    1.4024496 -0.084913608    2.2154418   421400 
  137000    1.4755377 -0.085116764 -0.085116764    2.1281846    1.4003523 -0.085116764    2.2133013   421400 
  138000    1.4745384 -0.083865265 -0.083865265    2.1279371    1.4034641 -0.083865265    2.2118024   421400 
  139000    1.4742869 -0.084346438 -0.084346438    2.1270787    1.3997403 -0.084346438    2.2114251   421400 
  140000    1.4743593 -0.085171851 -0.085171851    2.1263618    1.3991104 -0.085171851    2.2115337   421400 
  141000     1.475332 -0.086486165 -0.086486165    2.1265065    1.3934402 -0.086486165    2.2129927   421400 
  142000    1.4751958 -0.086434841 -0.086434841    2.1263535    1.3928362 -0.086434841    2.2127884   421400 
  143000     1.474702 -0.085731991 -0.085731991    2.1263158    1.3955329 -0.085731991    2.2120478   421400 
  144000    1.4728038 -0.083586606 -0.083586606    2.1256139    1.4004242 -0.083586606    2.2092005   421400 
  145000    1.4736055 -0.086813496 -0.086813496    2.1235896    1.3913084 -0.086813496    2.2104031   421400 
  146000     1.472151 -0.084938981 -0.084938981    2.1232822    1.3975286 -0.084938981    2.2082212   421400 
  147000    1.4705142 -0.084922592 -0.084922592    2.1208435    1.3954495 -0.084922592    2.2057661   421400 
  148000    1.4700436 -0.084621664 -0.084621664    2.1204385    1.3979559 -0.084621664    2.2050602   421400 
  149000    1.4677993 -0.085040408 -0.085040408    2.1166534    1.3971741 -0.085040408    2.2016938   421400 
  150000    1.4675032 -0.085771625 -0.085771625     2.115478    1.3948952 -0.085771625    2.2012496   421400 
  151000    1.4654261 -0.085527261 -0.085527261    2.1126066    1.3940153 -0.085527261    2.1981339   421400 
  152000    1.4651819 -0.086374895 -0.086374895    2.1113927    1.3923911 -0.086374895    2.1977676   421400 
  153000    1.4626635 -0.086036088 -0.086036088    2.1079539    1.3927614 -0.086036088      2.19399   421400 
  154000    1.4632615  -0.08744369  -0.08744369    2.1074433    1.3895197  -0.08744369     2.194887   421400 
  155000    1.4627974 -0.088977598 -0.088977598    2.1052133    1.3841523 -0.088977598    2.1941909   421400 
  156000    1.4614388 -0.088428885 -0.088428885    2.1037242    1.3842446 -0.088428885    2.1921531   421400 
  157000    1.4605972 -0.087536119 -0.087536119    2.1033545    1.3872816 -0.087536119    2.1908907   421400 
  158000     1.460043  -0.08766061  -0.08766061    2.1023988    1.3842356  -0.08766061    2.1900594   421400 
  159000    1.4589653 -0.086304643 -0.086304643    2.1021381    1.3872777 -0.086304643    2.1884428   421400 
  160000    1.4600194 -0.088073359 -0.088073359    2.1019506    1.3822859 -0.088073359     2.190024   421400 
  161000    1.4584375 -0.086787947 -0.086787947    2.1008631    1.3850885 -0.086787947     2.187651   421400 
  162000    1.4585651 -0.087600911 -0.087600911    2.1002416    1.3814889 -0.087600911    2.1878425   421400 
  163000      1.45772  -0.08753277  -0.08753277    2.0990421    1.3807008  -0.08753277    2.1865749   421400 
  164000     1.457153 -0.088591948 -0.088591948    2.0971324    1.3788795 -0.088591948    2.1857243   421400 
  165000    1.4574074 -0.089698784 -0.089698784    2.0964072    1.3766488 -0.089698784     2.186106   421400 
  166000    1.4564651 -0.088782906 -0.088782906    2.0959096    1.3785478 -0.088782906    2.1846925   421400 
  167000    1.4561087 -0.089483721 -0.089483721    2.0946741    1.3776974 -0.089483721    2.1841578   421400 
  168000    1.4545222 -0.088175836 -0.088175836    2.0936022    1.3804852 -0.088175836    2.1817781   421400 
  169000    1.4526249 -0.087222588 -0.087222588    2.0917095    1.3815593 -0.087222588    2.1789321   421400 
  170000    1.4511279 -0.086220467 -0.086220467    2.0904662    1.3852728 -0.086220467    2.1766866   421400 
  171000    1.4512746 -0.088560974 -0.088560974    2.0883457    1.3799441 -0.088560974    2.1769067   421400 
  172000    1.4504616 -0.089097658 -0.089097658    2.0865896    1.3782112 -0.089097658    2.1756873   421400 
  173000    1.4506575  -0.08983895  -0.08983895    2.0861422    1.3745891  -0.08983895    2.1759811   421400 
  174000    1.4496365 -0.089516592 -0.089516592     2.084933     1.374626 -0.089516592    2.1744496   421400 
  175000    1.4477452 -0.089794139 -0.089794139    2.0818185      1.37465 -0.089794139    2.1716126   421400 
  176000    1.4473301 -0.089446438 -0.089446438    2.0815435    1.3733805 -0.089446438      2.17099   421400 
  177000    1.4469777 -0.090273247 -0.090273247    2.0801882    1.3712092 -0.090273247    2.1704614   421400 
  178000    1.4464921 -0.089082317 -0.089082317    2.0806507    1.3739985 -0.089082317     2.169733   421400 
  179000    1.4469229 -0.089905884 -0.089905884    2.0804733    1.3701435 -0.089905884    2.1703792   421400 
  180000    1.4464266 -0.090133762 -0.090133762     2.079501     1.372928 -0.090133762    2.1696348   421400 
  181000    1.4443451 -0.089085853 -0.089085853    2.0774267    1.3704962 -0.089085853    2.1665125   421400 
  182000    1.4447609 -0.090044815 -0.090044815    2.0770914    1.3709811 -0.090044815    2.1671362   421400 
  183000    1.4435744 -0.091101073 -0.091101073    2.0742554    1.3674791 -0.091101073    2.1653564   421400 
  184000     1.442504   -0.0902418   -0.0902418    2.0735091    1.3677085   -0.0902418    2.1637509   421400 
  185000    1.4411213 -0.089864628 -0.089864628    2.0718123    1.3709173 -0.089864628    2.1616769   421400 
  186000    1.4415288 -0.091173257 -0.091173257    2.0711148    1.3653914 -0.091173257     2.162288   421400 
  187000    1.4399064 -0.088902805 -0.088902805    2.0709517    1.3705069 -0.088902805    2.1598545   421400 
  188000    1.4386408 -0.089468264 -0.089468264    2.0684879    1.3698779 -0.089468264    2.1579561   421400 
  189000    1.4378641 -0.089671262 -0.089671262    2.0671198    1.3678289 -0.089671262    2.1567911   421400 
  190000    1.4365215 -0.089748022 -0.089748022    2.0650291     1.367282 -0.089748022    2.1547771   421400 
  191000    1.4376271 -0.091820169 -0.091820169    2.0646154    1.3633976 -0.091820169    2.1564356   421400 
  192000    1.4356137 -0.091686564 -0.091686564    2.0617289    1.3619091 -0.091686564    2.1534154   421400 
  193000    1.4369369 -0.093782051 -0.093782051    2.0616182    1.3604648 -0.093782051    2.1554003   421400 
  194000    1.4334624 -0.090125969 -0.090125969    2.0600625    1.3651737 -0.090125969    2.1501884   421400 
  195000    1.4343629 -0.092169526 -0.092169526    2.0593697    1.3592951 -0.092169526    2.1515392   421400 
  196000    1.4320087 -0.089734024 -0.089734024    2.0582739    1.3663822 -0.089734024    2.1480079   421400 
  197000    1.4337321 -0.093088326 -0.093088326    2.0575047    1.3567804 -0.093088326     2.150593   421400 
  198000    1.4321049 -0.091211252 -0.091211252     2.056941    1.3633135 -0.091211252    2.1481523   421400 
  199000    1.4314685 -0.092704952 -0.092704952    2.0544928    1.3571603 -0.092704952    2.1471977   421400 
  200000    1.4315807 -0.092975153 -0.092975153    2.0543907     1.356487 -0.092975153    2.1473659   421400 
  201000    1.4302828 -0.091860761 -0.091860761    2.0535583    1.3583792 -0.091860761     2.145419   421400 
  202000    1.4294974 -0.091441018 -0.091441018       2.0528    1.3593344 -0.091441018     2.144241   421400 
  203000    1.4292565 -0.093112621 -0.093112621     2.050767    1.3561614 -0.093112621    2.1438797   421400 
  204000    1.4281372  -0.09280621  -0.09280621    2.0493945    1.3561737  -0.09280621    2.1422007   421400 
  205000    1.4283454 -0.093836154 -0.093836154    2.0486768    1.3532428 -0.093836154     2.142513   421400 
  206000    1.4260923 -0.091357928 -0.091357928    2.0477755     1.356058 -0.091357928    2.1391334   421400 
  207000    1.4268578 -0.092447213 -0.092447213    2.0478344    1.3571992 -0.092447213    2.1402816   421400 
  208000    1.4258019   -0.0934572   -0.0934572    2.0452405    1.3522305   -0.0934572    2.1386977   421400 
  209000    1.4244042 -0.091821745 -0.091821745    2.0447795    1.3557694 -0.091821745    2.1366012   421400 
  210000    1.4231729 -0.092582093 -0.092582093    2.0421722    1.3550277 -0.092582093    2.1347543   421400 
  211000    1.4235315 -0.093457133 -0.093457133     2.041835    1.3517783 -0.093457133    2.1352921   421400 
  212000    1.4229691 -0.092740108 -0.092740108    2.0417084    1.3533101 -0.092740108    2.1344485   421400 
  213000    1.4246159 -0.095907869 -0.095907869    2.0410109    1.3461202 -0.095907869    2.1369187   421400 
  214000    1.4221774 -0.093510142 -0.093510142    2.0397509    1.3498947 -0.093510142    2.1332611   421400 
  215000    1.4213409 -0.092733247 -0.092733247     2.039273     1.352174 -0.092733247    2.1320063   421400 
  216000    1.4199981  -0.09343339  -0.09343339    2.0365586    1.3498851  -0.09343339     2.129992   421400 
  217000    1.4210115 -0.094583832 -0.094583832    2.0369283    1.3465215 -0.094583832    2.1315121   421400 
  218000    1.4196224 -0.093343861 -0.093343861    2.0360846    1.3481318 -0.093343861    2.1294285   421400 
  219000     1.418706 -0.093846447 -0.093846447    2.0342075    1.3472249 -0.093846447    2.1280539   421400 
  220000    1.4190983 -0.095751474 -0.095751474    2.0328909    1.3411636 -0.095751474    2.1286424   421400 
  221000    1.4173347 -0.094020619 -0.094020619    2.0319764    1.3480318 -0.094020619     2.125997   421400 
  222000    1.4176252 -0.094553338 -0.094553338    2.0318795    1.3444218 -0.094553338    2.1264328   421400 
  223000    1.4163868 -0.094329371 -0.094329371    2.0302457     1.343472 -0.094329371    2.1245751   421400 
  224000     1.415515 -0.093976992 -0.093976992    2.0292905    1.3449845 -0.093976992    2.1232675   421400 
  225000    1.4155343 -0.094662594 -0.094662594    2.0286338    1.3440538 -0.094662594    2.1232964   421400 
  226000    1.4144482 -0.093897744 -0.093897744    2.0277695    1.3451612 -0.093897744    2.1216672   421400 
  227000    1.4148797 -0.095590604 -0.095590604    2.0267239    1.3401932 -0.095590604    2.1223145   421400 
  228000      1.41338 -0.094168083 -0.094168083    2.0258969    1.3443635 -0.094168083    2.1200649   421400 
  229000    1.4123266  -0.09484101  -0.09484101    2.0236438    1.3392056  -0.09484101    2.1184848   421400 
  230000    1.4111415 -0.095036613 -0.095036613    2.0216706    1.3391816 -0.095036613    2.1167072   421400 
  231000    1.4107079 -0.095524455 -0.095524455    2.0205324    1.3386666 -0.095524455    2.1160568   421400 
  232000    1.4096965 -0.094402104 -0.094402104    2.0201376    1.3412249 -0.094402104    2.1145397   421400 
  233000    1.4088259 -0.093961233 -0.093961233    2.0192726    1.3436816 -0.093961233    2.1132338   421400 
  234000    1.4086232 -0.093030559 -0.093030559    2.0198993    1.3444222 -0.093030559    2.1129298   421400 
  235000    1.4082161 -0.093684914 -0.093684914    2.0186342    1.3419857 -0.093684914    2.1123191   421400 
  236000    1.4097681 -0.097214313 -0.097214313    2.0174329    1.3334515 -0.097214313    2.1146472   421400 
  237000    1.4082234 -0.095793204 -0.095793204    2.0165369    1.3365257 -0.095793204    2.1123301   421400 
  238000    1.4085232 -0.096773019 -0.096773019    2.0160067    1.3345032 -0.096773019    2.1127798   421400 
  239000    1.4057086 -0.093921675 -0.093921675    2.0146362    1.3403791 -0.093921675    2.1085579   421400 
  240000    1.4060895 -0.095640409 -0.095640409    2.0134888    1.3368044 -0.095640409    2.1091292   421400 
  241000    1.4055155 -0.096499768 -0.096499768    2.0117684    1.3325176 -0.096499768    2.1082682   421400 
  242000    1.4048851 -0.096627812 -0.096627812    2.0106949    1.3333929 -0.096627812    2.1073227   421400 
  243000    1.4035597 -0.094775698 -0.094775698    2.0105589    1.3358651 -0.094775698    2.1053346   421400 
  244000    1.4036854 -0.095932349 -0.095932349    2.0095907    1.3347714 -0.095932349    2.1055231   421400 
  245000    1.4025707 -0.096623432 -0.096623432    2.0072276    1.3334989 -0.096623432     2.103851   421400 
  246000    1.4004899 -0.095315828 -0.095315828    2.0054141    1.3352749 -0.095315828    2.1007299   421400 
  247000    1.4006491 -0.095718067 -0.095718067    2.0052507    1.3336123 -0.095718067    2.1009687   421400 
  248000    1.3996736 -0.095459612 -0.095459612    2.0040458    1.3329014 -0.095459612    2.0995054   421400 
  249000     1.400591 -0.097653381 -0.097653381    2.0032282      1.33018 -0.097653381    2.1008816   421400 
  250000    1.3989602 -0.097058372 -0.097058372    2.0013769    1.3293365 -0.097058372    2.0984353   421400 
  251000    1.3980655 -0.096935096 -0.096935096    2.0001582    1.3284335 -0.096935096    2.0970933   421400 
  252000    1.3975359 -0.096655983 -0.096655983    1.9996429    1.3329663 -0.096655983    2.0962989   421400 
  253000    1.3951615   -0.0955647   -0.0955647    1.9971726    1.3313264   -0.0955647    2.0927373   421400 
  254000    1.3951204 -0.096766458 -0.096766458    1.9959092    1.3281343 -0.096766458    2.0926757   421400 
  255000    1.3945327 -0.096645986 -0.096645986    1.9951481    1.3277991 -0.096645986     2.091794   421400 
  256000    1.3947679 -0.097860921 -0.097860921     1.994286    1.3259398 -0.097860921    2.0921469   421400 
  257000    1.3939977 -0.097642888 -0.097642888    1.9933487    1.3249347 -0.097642888    2.0909916   421400 
  258000    1.3938219 -0.097983816 -0.097983816    1.9927441    1.3242861 -0.097983816    2.0907279   421400 
  259000    1.3934729 -0.098417286 -0.098417286    1.9917871    1.3224683 -0.098417286    2.0902044   421400 
  260000    1.3931478 -0.098984381 -0.098984381    1.9907324    1.3227372 -0.098984381    2.0897168   421400 
  261000    1.3917602  -0.09773527  -0.09773527       1.9899     1.323494  -0.09773527    2.0876353   421400 
  262000    1.3923347 -0.099396792 -0.099396792    1.9891004    1.3211471 -0.099396792    2.0884972   421400 
  263000    1.3913235 -0.098933366 -0.098933366    1.9880469    1.3226248 -0.098933366    2.0869802   421400 
  264000    1.3899602 -0.098956518 -0.098956518    1.9859788    1.3200118 -0.098956518    2.0849353   421400 
  265000    1.3898449  -0.09987823  -0.09987823    1.9848841    1.3180838  -0.09987823    2.0847624   421400 
  266000     1.389238 -0.099912924 -0.099912924    1.9839391    1.3183027 -0.099912924     2.083852   421400 
  267000    1.3884286 -0.098991747 -0.098991747    1.9836462    1.3191817 -0.098991747    2.0826379   421400 
  268000     1.387895  -0.10096589  -0.10096589    1.9808717    1.3157393  -0.10096589    2.0818376   421400 
  269000    1.3864816 -0.099522949 -0.099522949    1.9801946    1.3192752 -0.099522949    2.0797175   421400 
  270000    1.3860432 -0.099600789 -0.099600789     1.979459    1.3161103 -0.099600789    2.0790598   421400 
  271000    1.3882442  -0.10204265  -0.10204265    1.9803187    1.3110532  -0.10204265    2.0823614   421400 
  272000    1.3860976 -0.099368254 -0.099368254    1.9797732    1.3163044 -0.099368254    2.0791415   421400 
  273000    1.3849108 -0.099227854 -0.099227854    1.9781334    1.3172775 -0.099227854    2.0773613   421400 
  274000    1.3851957 -0.099231833 -0.099231833    1.9785568    1.3168282 -0.099231833    2.0777886   421400 
  275000    1.3844903  -0.10131847  -0.10131847     1.975412    1.3098649  -0.10131847    2.0767305   421400 
  276000    1.3827778 -0.099286126 -0.099286126    1.9748756    1.3156293 -0.099286126    2.0741617   421400 
  277000    1.3827405 -0.099931085 -0.099931085    1.9741748    1.3148022 -0.099931085    2.0741059   421400 
  278000    1.3821325 -0.099392554 -0.099392554    1.9738012    1.3144992 -0.099392554    2.0731938   421400 
  279000    1.3824259  -0.10092016  -0.10092016    1.9727138    1.3111554  -0.10092016     2.073634   421400 
  280000     1.380167 -0.098658949 -0.098658949    1.9715866    1.3163762 -0.098658949    2.0702456   421400 
  281000    1.3791388 -0.098413869 -0.098413869    1.9702894    1.3169308 -0.098413869    2.0687033   421400 
  282000    1.3796227  -0.10043915  -0.10043915      1.96899    1.3108819  -0.10043915    2.0694291   421400 
  283000    1.3784584 -0.099138055 -0.099138055    1.9685446    1.3125735 -0.099138055    2.0676827   421400 
  284000    1.3786947  -0.10073082  -0.10073082    1.9673063     1.309961  -0.10073082    2.0680371   421400 
  285000    1.3787589  -0.10030591  -0.10030591    1.9678275    1.3121388  -0.10030591    2.0681334   421400 
  286000    1.3771278 -0.099443226 -0.099443226    1.9662435    1.3141331 -0.099443226    2.0656867   421400 
  287000    1.3778887  -0.10152596  -0.10152596    1.9653022    1.3077573  -0.10152596    2.0668281   421400 
  288000    1.3780544  -0.10209757  -0.10209757    1.9649791     1.306232  -0.10209757    2.0670767   421400 
  289000    1.3767198  -0.10128092  -0.10128092    1.9637939    1.3061982  -0.10128092    2.0650748   421400 
  290000    1.3760443  -0.10013244  -0.10013244    1.9639291    1.3100449  -0.10013244    2.0640616   421400 
  291000    1.3756738  -0.10110573  -0.10110573       1.9624    1.3072637  -0.10110573    2.0635057   421400 
  292000    1.3760749  -0.10194559  -0.10194559    1.9621619    1.3047992  -0.10194559    2.0641075   421400 
  293000     1.375282  -0.10145927  -0.10145927    1.9614588    1.3060856  -0.10145927    2.0629181   421400 
  294000    1.3731459   -0.1004645   -0.1004645    1.9592494     1.308912   -0.1004645    2.0597139   421400 
  295000    1.3729384  -0.10165255  -0.10165255    1.9577501    1.3038356  -0.10165255    2.0594027   421400 
  296000      1.37266  -0.10165966  -0.10165966    1.9573255    1.3037385  -0.10165966    2.0589851   421400 
  297000    1.3721426   -0.1011012   -0.1011012    1.9571078     1.304375   -0.1011012     2.058209   421400 
  298000    1.3724066  -0.10131277  -0.10131277    1.9572922    1.3045154  -0.10131277     2.058605   421400 
  299000    1.3711391  -0.10188947  -0.10188947    1.9548143    1.3025992  -0.10188947    2.0567038   421400 
  300000    1.3709939    -0.101922    -0.101922    1.9545639    1.3007778    -0.101922    2.0564859   421400 
  301000    1.3710003  -0.10182036  -0.10182036    1.9546752     1.301231  -0.10182036    2.0564955   421400 
  302000    1.3710725  -0.10188222  -0.10188222    1.9547216    1.3028645  -0.10188222    2.0566038   421400 
  303000    1.3707063  -0.10259426  -0.10259426    1.9534602    1.2990833  -0.10259426    2.0560545   421400 
  304000    1.3697529  -0.10213695  -0.10213695    1.9524875    1.3018723  -0.10213695    2.0546245   421400 
  305000    1.3683651  -0.10082873  -0.10082873     1.951714    1.3039496  -0.10082873    2.0525427   421400 
  306000    1.3662128  -0.10138925  -0.10138925    1.9479251    1.3025048  -0.10138925    2.0493144   421400 
  307000     1.366473  -0.10121407  -0.10121407    1.9484906    1.3041786  -0.10121407    2.0497047   421400 
  308000    1.3672702  -0.10304083  -0.10304083    1.9478595    1.2977689  -0.10304083    2.0509004   421400 
  309000    1.3660084  -0.10310625  -0.10310625    1.9459016    1.2987887  -0.10310625    2.0490078   421400 
  310000     1.363826  -0.10193792  -0.10193792    1.9437962    1.2991698  -0.10193792    2.0457341   421400 
  311000    1.3637543  -0.10375468  -0.10375468     1.941872    1.2921915  -0.10375468    2.0456267   421400 
  312000    1.3628558  -0.10336136  -0.10336136    1.9409175    1.2942264  -0.10336136    2.0442788   421400 
  313000    1.3620926  -0.10312764  -0.10312764    1.9400063    1.2949205  -0.10312764     2.043134   421400 
  314000    1.3622773  -0.10281984  -0.10281984    1.9405913    1.2976964  -0.10281984    2.0434111   421400 
  315000    1.3608166  -0.10283643  -0.10283643    1.9383837    1.2950218  -0.10283643    2.0412201   421400 
  316000    1.3604684  -0.10327797  -0.10327797    1.9374199    1.2935831  -0.10327797    2.0406978   421400 
  317000    1.3591237  -0.10235728  -0.10235728    1.9363234    1.2963954  -0.10235728    2.0386807   421400 
  318000    1.3599303  -0.10452265  -0.10452265     1.935368    1.2906297  -0.10452265    2.0398906   421400 
  319000    1.3581954  -0.10295069  -0.10295069    1.9343376    1.2944535  -0.10295069    2.0372883   421400 
  320000    1.3581575  -0.10392765  -0.10392765    1.9333037    1.2908512  -0.10392765    2.0372314   421400 
  321000    1.3572756  -0.10356547  -0.10356547     1.932343    1.2911005  -0.10356547    2.0359085   421400 
  322000    1.3574464  -0.10440837  -0.10440837    1.9317565    1.2890174  -0.10440837    2.0361648   421400 
  323000     1.357406  -0.10433837  -0.10433837    1.9317659    1.2881421  -0.10433837    2.0361042   421400 
  324000    1.3567668  -0.10534884  -0.10534884    1.9297966    1.2864076  -0.10534884    2.0351454   421400 
  325000    1.3552657  -0.10416374  -0.10416374    1.9287299    1.2879686  -0.10416374    2.0328937   421400 
  326000     1.355495  -0.10558723  -0.10558723    1.9276504    1.2849239  -0.10558723    2.0332376   421400 
  327000    1.3533299  -0.10558595  -0.10558595    1.9244041    1.2828326  -0.10558595      2.02999   421400 
  328000    1.3525371   -0.1040452   -0.1040452    1.9247557    1.2881609   -0.1040452    2.0288009   421400 
  329000    1.3532871  -0.10514263  -0.10514263    1.9247832    1.2846054  -0.10514263    2.0299259   421400 
  330000    1.3523847  -0.10379637  -0.10379637    1.9247758    1.2876306  -0.10379637    2.0285722   421400 
  331000    1.3535539  -0.10529565  -0.10529565    1.9250303    1.2840015  -0.10529565     2.030326   421400 
  332000    1.3531295   -0.1050332   -0.1050332    1.9246562    1.2853971   -0.1050332    2.0296894   421400 
  333000      1.35261  -0.10503059  -0.10503059    1.9238796     1.285567  -0.10503059    2.0289102   421400 
  334000    1.3520338  -0.10465081  -0.10465081    1.9233951    1.2873113  -0.10465081    2.0280459   421400 
  335000    1.3507067  -0.10481046  -0.10481046    1.9212448    1.2850791  -0.10481046    2.0260552   421400 
  336000    1.3500124  -0.10488881  -0.10488881    1.9201251    1.2838727  -0.10488881    2.0250139   421400 
  337000    1.3490564  -0.10532542  -0.10532542    1.9182544    1.2827646  -0.10532542    2.0235798   421400 
  338000    1.3478061  -0.10345797  -0.10345797    1.9182464    1.2890479  -0.10345797    2.0217043   421400 
  339000    1.3491835  -0.10630978  -0.10630978    1.9174607    1.2800992  -0.10630978    2.0237705   421400 
  340000    1.3480215  -0.10565587  -0.10565587    1.9163716    1.2818122  -0.10565587    2.0220275   421400 
  341000    1.3489397  -0.10759514  -0.10759514    1.9158096    1.2770913  -0.10759514    2.0234048   421400 
  342000    1.3473344  -0.10612116  -0.10612116    1.9148757    1.2801909  -0.10612116    2.0209968   421400 
  343000    1.3473803  -0.10509397  -0.10509397    1.9159716    1.2821043  -0.10509397    2.0210656   421400 
  344000    1.3462506  -0.10538273  -0.10538273    1.9139884    1.2805914  -0.10538273    2.0193711   421400 
  345000    1.3463855  -0.10688948  -0.10688948    1.9126839    1.2795851  -0.10688948    2.0195734   421400 
  346000    1.3453915  -0.10573425  -0.10573425    1.9123482    1.2775794  -0.10573425    2.0180825   421400 
  347000    1.3453122  -0.10756562  -0.10756562    1.9103978    1.2751282  -0.10756562    2.0179635   421400 
  348000    1.3432502  -0.10504529  -0.10504529    1.9098252    1.2821184  -0.10504529    2.0148705   421400 
  349000    1.3434443  -0.10712906  -0.10712906    1.9080326    1.2741172  -0.10712906    2.0151616   421400 
  350000    1.3422191  -0.10665879  -0.10665879     1.906665    1.2752244  -0.10665879    2.0133238   421400 
  351000    1.3421726  -0.10689742  -0.10689742    1.9063567     1.275722  -0.10689742    2.0132541   421400 
  352000    1.3410889  -0.10567766  -0.10567766    1.9059509    1.2782342  -0.10567766    2.0116286   421400 
  353000    1.3409459  -0.10777392  -0.10777392    1.9036401    1.2722517  -0.10777392    2.0114141   421400 
  354000     1.341113  -0.10778577  -0.10778577     1.903879    1.2742464  -0.10778577    2.0116648   421400 
  355000     1.340525   -0.1068945   -0.1068945    1.9038882    1.2735386   -0.1068945    2.0107827   421400 
  356000    1.3391073   -0.1056806   -0.1056806    1.9029756     1.276421   -0.1056806    2.0086562   421400 
  357000    1.3396058  -0.10666048  -0.10666048    1.9027434    1.2721215  -0.10666048    2.0094039   421400 
  358000    1.3383096  -0.10713966  -0.10713966      1.90032    1.2729344  -0.10713966    2.0074597   421400 
  359000    1.3377152  -0.10729124  -0.10729124    1.8992768    1.2718664  -0.10729124     2.006568   421400 
  360000    1.3382464  -0.10814887  -0.10814887     1.899216    1.2681342  -0.10814887    2.0073648   421400 
  361000    1.3383623  -0.10838644  -0.10838644    1.8991523    1.2679223  -0.10838644    2.0075387   421400 
  362000    1.3370952   -0.1062724   -0.1062724    1.8993656    1.2742507   -0.1062724     2.005638   421400 
  363000    1.3376348   -0.1084003   -0.1084003    1.8980471    1.2686374   -0.1084003    2.0064474   421400 
  364000    1.3369537  -0.10748501  -0.10748501    1.8979408    1.2714823  -0.10748501    2.0054258   421400 
  365000    1.3364674  -0.10717388  -0.10717388    1.8975224    1.2733116  -0.10717388    2.0046963   421400 
  366000    1.3359516  -0.10778495  -0.10778495    1.8961376    1.2695765  -0.10778495    2.0039226   421400 
  367000    1.3364411  -0.10893143  -0.10893143    1.8957255    1.2659364  -0.10893143    2.0046569   421400 
  368000    1.3334706  -0.10618409  -0.10618409    1.8940171    1.2719987  -0.10618409    2.0002012   421400 
  369000    1.3340157  -0.10885875  -0.10885875    1.8921601    1.2664157  -0.10885875    2.0010189   421400 
  370000    1.3334533  -0.10779092  -0.10779092    1.8923843    1.2708595  -0.10779092    2.0001753   421400 
  371000    1.3328404  -0.10880167  -0.10880167    1.8904542    1.2663036  -0.10880167    1.9992559   421400 
  372000    1.3324368  -0.10871016  -0.10871016    1.8899403    1.2646049  -0.10871016    1.9986504   421400 
  373000    1.3294412  -0.10671483  -0.10671483    1.8874422    1.2709435  -0.10671483    1.9941571   421400 
  374000    1.3303363  -0.10854455  -0.10854455    1.8869552    1.2657841  -0.10854455    1.9954998   421400 
  375000    1.3299751  -0.10891944  -0.10891944    1.8860385    1.2647297  -0.10891944    1.9949579   421400 
  376000    1.3292295   -0.1082046   -0.1082046     1.885635    1.2660293   -0.1082046    1.9938396   421400 
  377000    1.3297304  -0.11002943  -0.11002943    1.8845614    1.2589334  -0.11002943    1.9945908   421400 
  378000    1.3282378  -0.10898956  -0.10898956    1.8833623    1.2634696  -0.10898956    1.9923519   421400 
  379000    1.3273604  -0.10854513  -0.10854513    1.8824907    1.2639954  -0.10854513    1.9910359   421400 
  380000    1.3259918  -0.10829429  -0.10829429    1.8806888    1.2626205  -0.10829429     1.988983   421400 
  381000     1.326601  -0.10884232  -0.10884232    1.8810545    1.2638632  -0.10884232    1.9898968   421400 
  382000    1.3264374  -0.10981985  -0.10981985    1.8798316    1.2596522  -0.10981985    1.9896514   421400 
  383000    1.3262786  -0.10821074  -0.10821074    1.8812024    1.2635948  -0.10821074    1.9894131   421400 
  384000    1.3259558  -0.10884507  -0.10884507     1.880084    1.2628516  -0.10884507    1.9889291   421400 
  385000    1.3254798  -0.10952394  -0.10952394     1.878691    1.2604908  -0.10952394    1.9882149   421400 
  386000    1.3244158  -0.10842822  -0.10842822    1.8781907    1.2613805  -0.10842822    1.9866189   421400 
  387000    1.3242581  -0.10935297  -0.10935297    1.8770294    1.2581758  -0.10935297    1.9863824   421400 
  388000    1.3247249  -0.10993719  -0.10993719    1.8771455    1.2590782  -0.10993719    1.9870827   421400 
  389000    1.3246585  -0.11035084  -0.11035084    1.8766322    1.2561391  -0.11035084     1.986983   421400 
  390000    1.3221941  -0.10746043  -0.10746043     1.875826    1.2626188  -0.10746043    1.9832865   421400 
  391000    1.3227669  -0.10910436  -0.10910436    1.8750413    1.2593741  -0.10910436    1.9841456   421400 
  392000    1.3217574  -0.10875472  -0.10875472    1.8738767    1.2608022  -0.10875472    1.9826314   421400 
  393000    1.3224582  -0.11084295  -0.11084295    1.8728397    1.2551902  -0.11084295    1.9836826   421400 
  394000    1.3209183  -0.10874543  -0.10874543    1.8726274    1.2593541  -0.10874543    1.9813728   421400 
  395000    1.3199338  -0.10881479  -0.10881479    1.8710811    1.2596942  -0.10881479    1.9798959   421400 
  396000    1.3194677  -0.10925338  -0.10925338    1.8699435    1.2579272  -0.10925338    1.9791969   421400 
  397000    1.3189354  -0.10971932  -0.10971932    1.8686791    1.2563968  -0.10971932    1.9783984   421400 
  398000    1.3202412  -0.11036981  -0.11036981    1.8699873    1.2561613  -0.11036981    1.9803571   421400 
  399000    1.3189842    -0.111487    -0.111487    1.8669845      1.25045    -0.111487    1.9784715   421400 
  400000    1.3175068  -0.11073759  -0.11073759    1.8655179    1.2540849  -0.11073759    1.9762555   421400 
  401000    1.3173435  -0.11119775  -0.11119775    1.8648129    1.2523496  -0.11119775    1.9760106   421400 
  402000    1.3160743   -0.1111741   -0.1111741    1.8629327     1.251024   -0.1111741    1.9741068   421400 
  403000    1.3152043  -0.11030299  -0.11030299    1.8624987    1.2522567  -0.11030299    1.9728017   421400 
  404000    1.3161146  -0.11159712  -0.11159712    1.8625701    1.2499232  -0.11159712    1.9741672   421400 
  405000    1.3162069  -0.11173561  -0.11173561      1.86257    1.2495998  -0.11173561    1.9743057   421400 
  406000    1.3145281  -0.11145619  -0.11145619    1.8603313    1.2504939  -0.11145619    1.9717875   421400 
  407000    1.3142912  -0.11114251  -0.11114251    1.8602896    1.2509966  -0.11114251    1.9714321   421400 
  408000    1.3131185  -0.10969765  -0.10969765    1.8599754    1.2523774  -0.10969765     1.969673   421400 
  409000    1.3137204  -0.11044579  -0.11044579    1.8601302    1.2515574  -0.11044579     1.970576   421400 
  410000    1.3136677  -0.11103281  -0.11103281     1.859464    1.2514739  -0.11103281    1.9704968   421400 
  411000    1.3139279   -0.1121065   -0.1121065    1.8587807    1.2464736   -0.1121065    1.9708872   421400 
  412000    1.3132426  -0.11185026  -0.11185026     1.858009    1.2483283  -0.11185026    1.9698592   421400 
  413000    1.3123264  -0.11174032  -0.11174032    1.8567446     1.250526  -0.11174032    1.9684849   421400 
  414000    1.3116601  -0.11235961  -0.11235961    1.8551259     1.244996  -0.11235961    1.9674855   421400 
  415000    1.3113858  -0.11252593  -0.11252593     1.854548    1.2450898  -0.11252593     1.967074   421400 
  416000    1.3105086  -0.11134332  -0.11134332    1.8544149    1.2481385  -0.11134332    1.9657582   421400 
  417000    1.3092956  -0.11034073  -0.11034073     1.853598    1.2496689  -0.11034073    1.9639387   421400 
  418000    1.3106277  -0.11179954  -0.11179954    1.8541374    1.2462134  -0.11179954    1.9659369   421400 
  419000     1.309379  -0.11120323  -0.11120323    1.8528606    1.2482886  -0.11120323    1.9640638   421400 
  420000     1.309262  -0.11205363  -0.11205363    1.8518347    1.2443368  -0.11205363    1.9638884   421400 
  421000    1.3085896  -0.11344148  -0.11344148    1.8494382    1.2429158  -0.11344148    1.9628797   421400 
  422000    1.3079555  -0.11323292  -0.11323292    1.8486956    1.2410388  -0.11323292    1.9619285   421400 
  423000    1.3069511   -0.1133178   -0.1133178    1.8471042    1.2404532   -0.1133178     1.960422   421400 
  424000    1.3056498   -0.1128635   -0.1128635    1.8456066    1.2425612   -0.1128635    1.9584701   421400 
  425000    1.3056941  -0.11402526  -0.11402526    1.8445112    1.2396827  -0.11402526    1.9585365   421400 
  426000     1.305478  -0.11304868  -0.11304868    1.8451636    1.2414135  -0.11304868    1.9582123   421400 
  427000    1.3047425  -0.11305866  -0.11305866    1.8440505    1.2431405  -0.11305866    1.9571092   421400 
  428000    1.3041379  -0.11317151  -0.11317151    1.8430307    1.2391454  -0.11317151    1.9562022   421400 
  429000    1.3039221  -0.11338773  -0.11338773    1.8424908    1.2392404  -0.11338773    1.9558785   421400 
  430000    1.3035898  -0.11311311  -0.11311311    1.8422669    1.2396295  -0.11311311    1.9553801   421400 
  431000    1.3032691  -0.11291311  -0.11291311    1.8419859     1.240422  -0.11291311     1.954899   421400 
  432000    1.3031245  -0.11322099  -0.11322099    1.8414611    1.2396117  -0.11322099    1.9546821   421400 
  433000    1.3025102  -0.11358644  -0.11358644    1.8401743    1.2384666  -0.11358644    1.9537607   421400 
  434000    1.3015522  -0.11288542  -0.11288542    1.8394382    1.2390654  -0.11288542    1.9523236   421400 
  435000    1.3014214  -0.11408546  -0.11408546     1.838042    1.2360289  -0.11408546    1.9521275   421400 
  436000    1.3009732  -0.11501865  -0.11501865    1.8364365    1.2328048  -0.11501865    1.9514551   421400 
  437000    1.3006036  -0.11435909  -0.11435909    1.8365417    1.2367453  -0.11435909    1.9509008   421400 
  438000    1.2991014  -0.11243637  -0.11243637    1.8362111    1.2394764  -0.11243637    1.9486475   421400 
  439000     1.299535  -0.11327922  -0.11327922    1.8360187    1.2369537  -0.11327922    1.9492979   421400 
  440000     1.299053  -0.11312404  -0.11312404    1.8354508    1.2367789  -0.11312404    1.9485748   421400 
  441000    1.2996612  -0.11516497  -0.11516497    1.8343222    1.2322508  -0.11516497    1.9494872   421400 
  442000     1.297356  -0.11234424  -0.11234424    1.8336851    1.2388175  -0.11234424    1.9460294   421400 
  443000    1.2972205  -0.11456436  -0.11456436    1.8312617    1.2316025  -0.11456436    1.9458261   421400 
  444000    1.2960499  -0.11362674  -0.11362674    1.8304435    1.2348663  -0.11362674    1.9440702   421400 
  445000    1.2952904  -0.11302639  -0.11302639    1.8299045    1.2361169  -0.11302639    1.9429309   421400 
  446000    1.2951674  -0.11430248  -0.11430248     1.828444    1.2307138  -0.11430248    1.9427465   421400 
  447000     1.295479  -0.11395797  -0.11395797    1.8292559     1.232232  -0.11395797    1.9432139   421400 
  448000    1.2958025  -0.11443043  -0.11443043    1.8292687    1.2341516  -0.11443043    1.9436991   421400 
  449000    1.2959992  -0.11525661  -0.11525661    1.8287376    1.2307373  -0.11525661    1.9439942   421400 
  450000    1.2946753  -0.11471106  -0.11471106    1.8272973    1.2309301  -0.11471106    1.9420083   421400 
  451000    1.2950382  -0.11561263  -0.11561263      1.82694    1.2295725  -0.11561263    1.9425527   421400 
  452000      1.29367  -0.11494375  -0.11494375    1.8255566     1.232251  -0.11494375    1.9405004   421400 
  453000    1.2923278  -0.11365271  -0.11365271    1.8248344    1.2342079  -0.11365271    1.9384871   421400 
  454000    1.2934915  -0.11678789  -0.11678789    1.8234448    1.2264929  -0.11678789    1.9402326   421400 
  455000    1.2917658  -0.11347616  -0.11347616    1.8241679     1.231759  -0.11347616    1.9376441   421400 
  456000    1.2924075  -0.11500895  -0.11500895    1.8235977    1.2286492  -0.11500895    1.9386067   421400 
  457000    1.2913463  -0.11516741  -0.11516741    1.8218474    1.2290793  -0.11516741    1.9370148   421400 
  458000    1.2907831  -0.11536529  -0.11536529    1.8208048    1.2288204  -0.11536529    1.9361701   421400 
  459000    1.2886213  -0.11275295  -0.11275295    1.8201744    1.2324171  -0.11275295    1.9329273   421400 
  460000    1.2913472  -0.11653709  -0.11653709    1.8204791    1.2248261  -0.11653709    1.9370162   421400 
  461000    1.2893675  -0.11523324  -0.11523324    1.8188134      1.22705  -0.11523324    1.9340466   421400 
  462000    1.2891844  -0.11569278  -0.11569278    1.8180792    1.2256915  -0.11569278     1.933772   421400 
  463000    1.2891298   -0.1163289   -0.1163289    1.8173613     1.226304   -0.1163289    1.9336902   421400 
  464000    1.2893371  -0.11700995  -0.11700995    1.8169912    1.2221082  -0.11700995    1.9340011   421400 
  465000    1.2892349    -0.116763    -0.116763    1.8170847    1.2229745    -0.116763    1.9338477   421400 
  466000     1.288035  -0.11596505  -0.11596505    1.8160828    1.2250901  -0.11596505    1.9320478   421400 
  467000    1.2884666  -0.11667619  -0.11667619    1.8160191    1.2227037  -0.11667619    1.9326953   421400 
  468000    1.2885126  -0.11780049  -0.11780049    1.8149638    1.2209944  -0.11780049    1.9327643   421400 
  469000    1.2862508  -0.11554538  -0.11554538    1.8138262    1.2260035  -0.11554538    1.9293716   421400 
  470000    1.2863956  -0.11649193  -0.11649193    1.8130969    1.2223476  -0.11649193    1.9295889   421400 
  471000    1.2852244  -0.11593986  -0.11593986    1.8118921    1.2235667  -0.11593986     1.927832   421400 
  472000    1.2844338  -0.11506604  -0.11506604    1.8115801    1.2268899  -0.11506604    1.9266461   421400 
  473000    1.2858592  -0.11758194  -0.11758194    1.8112023    1.2208374  -0.11758194    1.9287842   421400 
  474000    1.2847301  -0.11640707  -0.11640707    1.8106836    1.2217018  -0.11640707    1.9270907   421400 
  475000     1.284066  -0.11602254  -0.11602254    1.8100719    1.2226421  -0.11602254    1.9260945   421400 
  476000    1.2844522  -0.11783046  -0.11783046    1.8088432    1.2167518  -0.11783046    1.9266737   421400 
  477000     1.283868  -0.11615872  -0.11615872    1.8096386    1.2217853  -0.11615872    1.9257974   421400 
  478000    1.2835938  -0.11714679  -0.11714679    1.8082393    1.2207945  -0.11714679    1.9253861   421400 
  479000    1.2835861  -0.11668923  -0.11668923    1.8086853    1.2213347  -0.11668923    1.9253745   421400 
  480000     1.282269  -0.11564598  -0.11564598    1.8077529    1.2225747  -0.11564598    1.9233989   421400 
  481000    1.2818934  -0.11613977  -0.11613977    1.8066958    1.2210955  -0.11613977    1.9228355   421400 
  482000    1.2811282  -0.11641435  -0.11641435    1.8052733     1.219605  -0.11641435    1.9216877   421400 
  483000    1.2808304  -0.11686295  -0.11686295    1.8043782    1.2190794  -0.11686295    1.9212411   421400 
  484000    1.2798567  -0.11674871  -0.11674871    1.8030318    1.2192857  -0.11674871    1.9197805   421400 
  485000    1.2793344  -0.11527635  -0.11527635    1.8037207    1.2211141  -0.11527635    1.9189971   421400 
  486000     1.279911  -0.11692439  -0.11692439    1.8029376     1.217304  -0.11692439    1.9198619   421400 
  487000    1.2806944  -0.11786445  -0.11786445    1.8031727    1.2173246  -0.11786445    1.9210371   421400 
  488000    1.2797005  -0.11741598  -0.11741598    1.8021303    1.2176319  -0.11741598    1.9195463   421400 
  489000    1.2789395  -0.11640698  -0.11640698    1.8019978    1.2207594  -0.11640698    1.9184048   421400 
  490000    1.2803076  -0.11754105  -0.11754105    1.8029158    1.2164839  -0.11754105    1.9204568   421400 
  491000    1.2782129  -0.11701295  -0.11701295    1.8003019    1.2151205  -0.11701295    1.9173149   421400 
  492000    1.2789593  -0.11964754  -0.11964754    1.7987868    1.2102986  -0.11964754    1.9184344   421400 
  493000    1.2769454  -0.11817204  -0.11817204    1.7972416    1.2136319  -0.11817204    1.9154136   421400 
  494000    1.2771678  -0.11905215  -0.11905215     1.796695    1.2111417  -0.11905215    1.9157472   421400 
  495000     1.275431  -0.11854994  -0.11854994     1.794592    1.2127609  -0.11854994    1.9131419   421400 
  496000    1.2770582  -0.11965918  -0.11965918    1.7959236    1.2094818  -0.11965918    1.9155828   421400 
  497000    1.2751314  -0.11786778  -0.11786778    1.7948247    1.2121787  -0.11786778    1.9126925   421400 
  498000    1.2744042  -0.11722263  -0.11722263    1.7943791    1.2159489  -0.11722263    1.9116017   421400 
  499000     1.274292  -0.11725001  -0.11725001    1.7941835     1.214297  -0.11725001    1.9114335   421400 
  500000     1.275362  -0.11850649  -0.11850649    1.7945319    1.2113392  -0.11850649    1.9130384   421400 
  501000    1.2752122  -0.11829418  -0.11829418    1.7945196    1.2116539  -0.11829418    1.9128138   421400 
  502000      1.27342  -0.11752874  -0.11752874    1.7925967    1.2136279  -0.11752874    1.9101255   421400 
  503000    1.2734861  -0.11836439  -0.11836439    1.7918602    1.2108551  -0.11836439    1.9102246   421400 
  504000    1.2727319  -0.11790305  -0.11790305    1.7911902    1.2115335  -0.11790305    1.9090933   421400 
  505000    1.2724166   -0.1181792   -0.1181792    1.7904412    1.2125672   -0.1181792    1.9086204   421400 
  506000     1.272291  -0.11897953  -0.11897953    1.7894525    1.2102797  -0.11897953     1.908432   421400 
  507000    1.2715867  -0.11778863  -0.11778863    1.7895869    1.2115923  -0.11778863    1.9073755   421400 
  508000    1.2711915   -0.1179261   -0.1179261    1.7888566    1.2094329   -0.1179261    1.9067827   421400 
  509000    1.2719002  -0.11973486  -0.11973486    1.7881108    1.2069219  -0.11973486    1.9078457   421400 
  510000    1.2708045  -0.11913964  -0.11913964    1.7870626    1.2072549  -0.11913964    1.9062023   421400 
  511000    1.2706092  -0.11944164  -0.11944164    1.7864677    1.2059035  -0.11944164    1.9059093   421400 
  512000     1.271234  -0.12008043  -0.12008043    1.7867661    1.2068774  -0.12008043    1.9068465   421400 
  513000    1.2691999  -0.11835776  -0.11835776    1.7854376    1.2093364  -0.11835776    1.9037954   421400 
  514000    1.2686758  -0.11773138  -0.11773138    1.7852778    1.2108132  -0.11773138    1.9030092   421400 
  515000     1.269966  -0.11917211  -0.11917211    1.7857723    1.2068813  -0.11917211    1.9049444   421400 
  516000    1.2681459  -0.11795619  -0.11795619    1.7842581     1.210703  -0.11795619    1.9022143   421400 
  517000    1.2690988  -0.11936943  -0.11936943    1.7842742    1.2058118  -0.11936943    1.9036436   421400 
  518000    1.2693044  -0.11975445  -0.11975445    1.7841977     1.206042  -0.11975445    1.9039521   421400 
  519000     1.268522  -0.11982503  -0.11982503    1.7829535     1.203696  -0.11982503    1.9027785   421400 
  520000    1.2683763   -0.1182652   -0.1182652    1.7842947     1.209509   -0.1182652    1.9025599   421400 
  521000    1.2686088  -0.11990072  -0.11990072    1.7830079    1.2028915  -0.11990072    1.9029086   421400 
  522000    1.2676439   -0.1189593   -0.1189593    1.7825021    1.2078796   -0.1189593    1.9014614   421400 
  523000    1.2671861  -0.11821285  -0.11821285    1.7825618    1.2077228  -0.11821285    1.9007746   421400 
  524000    1.2682036  -0.12046555  -0.12046555    1.7818353    1.2028155  -0.12046555    1.9023008   421400 
  525000    1.2668543  -0.11959075  -0.11959075    1.7806862    1.2042402  -0.11959075    1.9002769   421400 
  526000     1.265361  -0.11792501  -0.11792501     1.780112    1.2074262  -0.11792501     1.898037   421400 
  527000    1.2662165  -0.12002568  -0.12002568    1.7792946    1.2016948  -0.12002568    1.8993202   421400 
  528000    1.2655308  -0.12077305  -0.12077305    1.7775186    1.2010388  -0.12077305    1.8982917   421400 
  529000    1.2631694  -0.11790426  -0.11790426    1.7768453    1.2070664  -0.11790426    1.8947495   421400 
  530000    1.2641533  -0.11979355  -0.11979355    1.7764318    1.2018229  -0.11979355    1.8962254   421400 
  531000    1.2646571  -0.12003899  -0.12003899    1.7769422    1.2019158  -0.12003899    1.8969812   421400 
  532000    1.2642527  -0.12065158  -0.12065158     1.775723    1.1995465  -0.12065158    1.8963746   421400 
  533000     1.263032  -0.11963375  -0.11963375    1.7749098    1.2032831  -0.11963375    1.8945435   421400 
  534000    1.2626471  -0.11990779  -0.11990779    1.7740584    1.2014157  -0.11990779    1.8939662   421400 
  535000    1.2628879  -0.12053589  -0.12053589    1.7737914    1.2004713  -0.12053589    1.8943273   421400 
  536000    1.2620537   -0.1204769   -0.1204769    1.7725991    1.1990998   -0.1204769     1.893076   421400 
  537000    1.2616845   -0.1200397   -0.1200397    1.7724825     1.200607   -0.1200397    1.8925222   421400 
  538000    1.2614051  -0.12038964  -0.12038964    1.7717135     1.197682  -0.12038964    1.8921031   421400 
  539000    1.2608583  -0.12046406  -0.12046406    1.7708189    1.1990245  -0.12046406    1.8912829   421400 
  540000    1.2602586  -0.12109719  -0.12109719    1.7692863     1.197018  -0.12109719    1.8903835   421400 
  541000    1.2587912  -0.11992188  -0.11992188    1.7682605    1.2001972  -0.11992188    1.8881824   421400 
  542000    1.2598204  -0.12156921  -0.12156921    1.7681569    1.1964153  -0.12156921    1.8897261   421400 
  543000    1.2581529   -0.1205383   -0.1205383    1.7666866    1.1992542   -0.1205383    1.8872249   421400 
  544000    1.2572489  -0.11969272  -0.11969272    1.7661761    1.1988396  -0.11969272    1.8858689   421400 
  545000    1.2590684  -0.12242066  -0.12242066    1.7661775    1.1906341  -0.12242066    1.8885981   421400 
  546000    1.2576634  -0.12175925  -0.12175925    1.7647313      1.19389  -0.12175925    1.8864906   421400 
  547000    1.2562211  -0.12021007  -0.12021007    1.7641171    1.1956752  -0.12021007    1.8843271   421400 
  548000    1.2566575  -0.12086672  -0.12086672     1.764115    1.1971477  -0.12086672    1.8849817   421400 
  549000    1.2563909  -0.12093439  -0.12093439    1.7636474    1.1953284  -0.12093439    1.8845818   421400 
  550000    1.2575735  -0.12176076  -0.12176076    1.7645951    1.1953664  -0.12176076    1.8863558   421400 
  551000    1.2556414  -0.12054471  -0.12054471    1.7629129    1.1963386  -0.12054471    1.8834576   421400 
  552000    1.2553779   -0.1211752   -0.1211752    1.7618871    1.1924983   -0.1211752    1.8830623   421400 
  553000    1.2557324  -0.12257475  -0.12257475    1.7610193    1.1916292  -0.12257475    1.8835941   421400 
  554000    1.2535886   -0.1209898   -0.1209898    1.7593887    1.1940286   -0.1209898    1.8803785   421400 
  555000    1.2537864  -0.12084801  -0.12084801    1.7598271    1.1958917  -0.12084801    1.8806751   421400 
  556000     1.254793  -0.12224574  -0.12224574    1.7599393    1.1909105  -0.12224574    1.8821851   421400 
  557000    1.2548618   -0.1230189   -0.1230189    1.7592694    1.1916922   -0.1230189    1.8822883   421400 
  558000    1.2530155   -0.1209102   -0.1209102    1.7586086    1.1953923   -0.1209102    1.8795188   421400 
  559000    1.2526494  -0.12212404  -0.12212404    1.7568456    1.1931631  -0.12212404    1.8789696   421400 
  560000    1.2531975  -0.12301052  -0.12301052    1.7567813    1.1902343  -0.12301052    1.8797918   421400 
  561000    1.2520325   -0.1226373   -0.1226373    1.7554069     1.190836   -0.1226373    1.8780442   421400 
  562000    1.2523021   -0.1222828   -0.1222828    1.7561659    1.1893529   -0.1222828    1.8784487   421400 
  563000    1.2516899  -0.12172244  -0.12172244     1.755808    1.1909952  -0.12172244    1.8775304   421400 
  564000    1.2508281  -0.12065855  -0.12065855    1.7555792    1.1934755  -0.12065855    1.8762378   421400 
  565000    1.2510525  -0.12176985  -0.12176985    1.7548044    1.1904914  -0.12176985    1.8765743   421400 
  566000    1.2505225  -0.12209641  -0.12209641    1.7536829    1.1893795  -0.12209641    1.8757793   421400 
  567000    1.2514559  -0.12420541  -0.12420541     1.752974    1.1845736  -0.12420541    1.8771794   421400 
  568000    1.2506224  -0.12353444  -0.12353444    1.7523947    1.1850888  -0.12353444    1.8759292   421400 
  569000    1.2504227  -0.12277988  -0.12277988    1.7528497    1.1874145  -0.12277988    1.8756296   421400 
  570000    1.2498073  -0.12082945  -0.12082945    1.7538771    1.1930124  -0.12082945    1.8747066   421400 
  571000     1.249732  -0.12265831  -0.12265831    1.7519352    1.1871403  -0.12265831    1.8745935   421400 
  572000    1.2498479  -0.12181877  -0.12181877    1.7529486    1.1891762  -0.12181877    1.8747674   421400 
  573000    1.2487868  -0.12188889  -0.12188889    1.7512869    1.1891872  -0.12188889    1.8731758   421400 
  574000    1.2498133  -0.12312329  -0.12312329    1.7515923    1.1865904  -0.12312329    1.8747155   421400 
  575000    1.2485397  -0.12207723  -0.12207723    1.7507278    1.1875306  -0.12207723    1.8728051   421400 
  576000      1.24757  -0.12176267  -0.12176267    1.7495879    1.1896223  -0.12176267    1.8713506   421400 
  577000    1.2480969  -0.12336928  -0.12336928    1.7487716    1.1823835  -0.12336928    1.8721408   421400 
  578000     1.247737  -0.12371369  -0.12371369    1.7478873    1.1849009  -0.12371369     1.871601   421400 
  579000    1.2470366  -0.12341381  -0.12341381    1.7471366    1.1836766  -0.12341381    1.8705504   421400 
  580000     1.246484  -0.12270584  -0.12270584    1.7470157    1.1861502  -0.12270584    1.8697215   421400 
  581000    1.2464246  -0.12289782  -0.12289782    1.7467347    1.1844381  -0.12289782    1.8696325   421400 
  582000    1.2455837  -0.12267855  -0.12267855    1.7456925    1.1863854  -0.12267855    1.8683711   421400 
  583000    1.2458718  -0.12310073  -0.12310073    1.7457025    1.1849636  -0.12310073    1.8688032   421400 
  584000     1.245444  -0.12370318  -0.12370318    1.7444583     1.182674  -0.12370318    1.8681615   421400 
  585000    1.2451664  -0.12462469  -0.12462469    1.7431204    1.1806582  -0.12462469    1.8677451   421400 
  586000    1.2444415  -0.12373921  -0.12373921    1.7429186    1.1808987  -0.12373921    1.8666578   421400 
  587000    1.2429138  -0.12287316  -0.12287316    1.7414931    1.1831993  -0.12287316    1.8643662   421400 
  588000    1.2434148  -0.12356204  -0.12356204    1.7415557    1.1823636  -0.12356204    1.8651178   421400 
  589000    1.2430307  -0.12407539  -0.12407539    1.7404662    1.1813394  -0.12407539    1.8645416   421400 
  590000    1.2421001  -0.12290346  -0.12290346    1.7402422    1.1836544  -0.12290346    1.8631457   421400 
  591000    1.2418093  -0.12307957  -0.12307957    1.7396299    1.1841775  -0.12307957    1.8627095   421400 
  592000    1.2421487  -0.12440966  -0.12440966    1.7388089     1.180158  -0.12440966    1.8632186   421400 
  593000    1.2422828  -0.12514078  -0.12514078     1.738279    1.1791326  -0.12514078    1.8634197   421400 
  594000    1.2399336  -0.12165631  -0.12165631    1.7382396    1.1870557  -0.12165631    1.8598959   421400 
  595000    1.2400108  -0.12273255  -0.12273255    1.7372792    1.1829828  -0.12273255    1.8600118   421400 
  596000    1.2400703  -0.12523025  -0.12523025    1.7348708    1.1788793  -0.12523025     1.860101   421400 
  597000    1.2381606  -0.12303641  -0.12303641    1.7342001    1.1799578  -0.12303641    1.8572365   421400 
  598000     1.238081  -0.12285512  -0.12285512     1.734262      1.18202  -0.12285512    1.8571171   421400 
  599000    1.2394832  -0.12430138  -0.12430138     1.734919    1.1786276  -0.12430138    1.8592204   421400 
  600000    1.2397527  -0.12502287  -0.12502287    1.7346017    1.1779904  -0.12502287    1.8596246   421400 
  601000    1.2384939  -0.12393721  -0.12393721    1.7337992    1.1797329  -0.12393721    1.8577364   421400 
  602000    1.2375392  -0.12362821  -0.12362821    1.7326762    1.1790641  -0.12362821    1.8563044   421400 
  603000    1.2382679  -0.12582893  -0.12582893    1.7315685    1.1746104  -0.12582893    1.8573974   421400 
  604000    1.2373094  -0.12457643  -0.12457643    1.7313833    1.1753269  -0.12457643    1.8559597   421400 
  605000    1.2377288  -0.12476787  -0.12476787    1.7318209    1.1780061  -0.12476787    1.8565887   421400 
  606000    1.2378644  -0.12512561  -0.12512561    1.7316665    1.1754332  -0.12512561    1.8567921   421400 
  607000    1.2366933  -0.12375804  -0.12375804    1.7312774    1.1789753  -0.12375804    1.8550355   421400 
  608000    1.2369781  -0.12543299  -0.12543299    1.7300298    1.1740233  -0.12543299    1.8554628   421400 
  609000     1.237216  -0.12617205  -0.12617205    1.7296476      1.17233  -0.12617205    1.8558196   421400 
  610000    1.2364985   -0.1247803   -0.1247803    1.7299631    1.1759093   -0.1247803    1.8547434   421400 
  611000    1.2346823  -0.12405694  -0.12405694    1.7279621    1.1764758  -0.12405694     1.852019   421400 
  612000    1.2348297  -0.12496248  -0.12496248    1.7272776    1.1751488  -0.12496248    1.8522401   421400 
  613000    1.2333795   -0.1234964   -0.1234964    1.7265685    1.1773601   -0.1234964    1.8500649   421400 
  614000    1.2344478  -0.12516587  -0.12516587    1.7265014    1.1750131  -0.12516587    1.8516672   421400 
  615000    1.2341183  -0.12481723  -0.12481723    1.7263559     1.174949  -0.12481723    1.8511731   421400 
  616000      1.23418   -0.1250869   -0.1250869    1.7261787    1.1735314   -0.1250869    1.8512656   421400 
  617000    1.2342003  -0.12425378  -0.12425378    1.7270423    1.1741901  -0.12425378     1.851296   421400 
  618000    1.2350242  -0.12602383  -0.12602383    1.7265081    1.1727846  -0.12602383     1.852532   421400 
  619000    1.2342852  -0.12471524  -0.12471524    1.7267081      1.17458  -0.12471524    1.8514233   421400 
  620000    1.2331988  -0.12540359  -0.12540359    1.7243902    1.1721932  -0.12540359    1.8497938   421400 
  621000    1.2327322  -0.12491712  -0.12491712    1.7241767    1.1736842  -0.12491712    1.8490938   421400 
  622000    1.2329682  -0.12492518  -0.12492518    1.7245227    1.1726812  -0.12492518    1.8494479   421400 
  623000    1.2334057  -0.12681728  -0.12681728    1.7232868     1.167459  -0.12681728    1.8501041   421400 
  624000    1.2318972  -0.12564348  -0.12564348     1.722198    1.1717924  -0.12564348    1.8478415   421400 
  625000    1.2317119  -0.12611904  -0.12611904    1.7214444    1.1700572  -0.12611904    1.8475635   421400 
  626000    1.2321044  -0.12654818  -0.12654818     1.721604    1.1678882  -0.12654818    1.8481522   421400 
  627000    1.2310737  -0.12497052  -0.12497052    1.7216357    1.1732158  -0.12497052    1.8466062   421400 
  628000    1.2325963  -0.12690505  -0.12690505     1.721985    1.1681317  -0.12690505      1.84889   421400 
  629000    1.2304963  -0.12399739  -0.12399739    1.7217427    1.1727862  -0.12399739    1.8457401   421400 
  630000    1.2286597  -0.12242502  -0.12242502    1.7205602    1.1776475  -0.12242502    1.8429852   421400 
  631000    1.2307915  -0.12554414  -0.12554414    1.7206388    1.1711342  -0.12554414    1.8461829   421400 
  632000    1.2301393  -0.12614621  -0.12614621    1.7190583    1.1685032  -0.12614621    1.8452045   421400 
  633000    1.2283986  -0.12486224  -0.12486224    1.7177313     1.171661  -0.12486224    1.8425935   421400 
  634000    1.2290914  -0.12548039  -0.12548039    1.7181523    1.1682804  -0.12548039    1.8436327   421400 
  635000    1.2287886  -0.12664503  -0.12664503    1.7165335    1.1658141  -0.12664503    1.8431786   421400 
  636000    1.2280558  -0.12562964  -0.12562964    1.7164496    1.1697493  -0.12562964    1.8420793   421400 
  637000     1.227743  -0.12584304  -0.12584304    1.7157671    1.1692881  -0.12584304    1.8416102   421400 
  638000    1.2273695  -0.12652042  -0.12652042    1.7145295    1.1685304  -0.12652042    1.8410499   421400 
  639000    1.2273883  -0.12720307  -0.12720307     1.713875    1.1669761  -0.12720307    1.8410781   421400 
  640000    1.2282875   -0.1280135   -0.1280135    1.7144135    1.1638995   -0.1280135     1.842427   421400 
  641000    1.2264814  -0.12632214  -0.12632214    1.7133957    1.1675377  -0.12632214    1.8397178   421400 
  642000    1.2259747  -0.12672513  -0.12672513    1.7122325     1.166516  -0.12672513    1.8389577   421400 
  643000    1.2257563  -0.12641558  -0.12641558    1.7122145    1.1659851  -0.12641558      1.83863   421400 
  644000    1.2260386  -0.12686673  -0.12686673    1.7121869    1.1652869  -0.12686673    1.8390536   421400 
  645000    1.2249874  -0.12627422  -0.12627422    1.7112025    1.1672854  -0.12627422    1.8374767   421400 
  646000    1.2237086  -0.12611844  -0.12611844      1.70944    1.1665801  -0.12611844    1.8355585   421400 
  647000    1.2231277  -0.12634568  -0.12634568    1.7083415     1.164943  -0.12634568    1.8346872   421400 
  648000    1.2240054  -0.12688275  -0.12688275     1.709121    1.1651004  -0.12688275    1.8360037   421400 
  649000    1.2221657  -0.12566526  -0.12566526    1.7075789    1.1663524  -0.12566526    1.8332442   421400 
  650000    1.2227067  -0.12759041  -0.12759041    1.7064652    1.1627444  -0.12759041    1.8340556   421400 
  651000    1.2230879  -0.12782004  -0.12782004    1.7068075    1.1616076  -0.12782004    1.8346275   421400 
  652000    1.2220279  -0.12700933  -0.12700933    1.7060281    1.1634652  -0.12700933    1.8330374   421400 
  653000    1.2211184  -0.12632998  -0.12632998    1.7053432    1.1635486  -0.12632998    1.8316732   421400 
  654000    1.2220152  -0.12824411  -0.12824411    1.7047744    1.1601779  -0.12824411    1.8330185   421400 
  655000     1.221393  -0.12782894  -0.12782894    1.7042562    1.1613988  -0.12782894    1.8320852   421400 
  656000      1.22095  -0.12787753  -0.12787753    1.7035431    1.1604962  -0.12787753    1.8314206   421400 
  657000    1.2210727  -0.12790422  -0.12790422    1.7037006    1.1608701  -0.12790422    1.8316048   421400 
  658000    1.2214681  -0.12875819  -0.12875819    1.7034396    1.1577311  -0.12875819    1.8321978   421400 
  659000     1.219316  -0.12570571  -0.12570571    1.7032639    1.1645738  -0.12570571    1.8289696   421400 
  660000    1.2206023  -0.12839344  -0.12839344    1.7025057    1.1583519  -0.12839344    1.8308991   421400 
  661000    1.2196986  -0.12683175  -0.12683175    1.7027118    1.1620678  -0.12683175    1.8295435   421400 
  662000    1.2193716  -0.12676839  -0.12676839    1.7022847    1.1623966  -0.12676839    1.8290531   421400 
  663000    1.2198022  -0.12866991  -0.12866991    1.7010291    1.1582395  -0.12866991     1.829699   421400 
  664000     1.219345  -0.12767008  -0.12767008    1.7013431    1.1602995  -0.12767008    1.8290132   421400 
  665000    1.2197253  -0.12983103  -0.12983103    1.6997526    1.1557828  -0.12983103    1.8295836   421400 
  666000    1.2188578  -0.12925777  -0.12925777    1.6990246    1.1559045  -0.12925777    1.8282823   421400 
  667000    1.2176397  -0.12606501  -0.12606501    1.7003902    1.1628257  -0.12606501    1.8264552   421400 
  668000    1.2172781  -0.12698963  -0.12698963    1.6989231    1.1624657  -0.12698963    1.8259128   421400 
  669000    1.2176556  -0.12862071  -0.12862071    1.6978583    1.1566252  -0.12862071     1.826479   421400 
  670000    1.2179728  -0.12909081  -0.12909081    1.6978641    1.1569083  -0.12909081    1.8269549   421400 
  671000    1.2161416  -0.12792219  -0.12792219    1.6962859    1.1572359  -0.12792219    1.8242081   421400 
  672000    1.2164399  -0.12965182  -0.12965182    1.6950038    1.1531441  -0.12965182    1.8246556   421400 
  673000    1.2149347  -0.12815214  -0.12815214    1.6942456    1.1563145  -0.12815214    1.8223978   421400 
  674000    1.2159769  -0.12941057  -0.12941057    1.6945504    1.1557331  -0.12941057     1.823961   421400 
  675000    1.2146832  -0.12761739  -0.12761739    1.6944031    1.1569485  -0.12761739    1.8220205   421400 
  676000    1.2149037  -0.12836456  -0.12836456    1.6939866    1.1557387  -0.12836456    1.8223512   421400 
  677000    1.2156965  -0.12809189  -0.12809189    1.6954485     1.158814  -0.12809189    1.8235404   421400 
  678000    1.2155626  -0.12872833  -0.12872833    1.6946112    1.1563571  -0.12872833    1.8233395   421400 
  679000    1.2144561  -0.12690832  -0.12690832    1.6947715    1.1587031  -0.12690832    1.8216798   421400 
  680000    1.2148113  -0.12754908  -0.12754908    1.6946636    1.1583257  -0.12754908    1.8222127   421400 
  681000    1.2141532  -0.12768518  -0.12768518    1.6935404    1.1576923  -0.12768518    1.8212255   421400 
  682000    1.2151461  -0.12931332  -0.12931332    1.6934015    1.1524415  -0.12931332    1.8227148   421400 
[...]
23831000            0            0            0            0            0            0            0        0 
23832000            0            0            0            0            0            0            0        0 
23833000            0            0            0            0            0            0            0        0 
23834000            0            0            0            0            0            0            0        0 
23835000            0            0            0            0            0            0            0        0 
23836000            0            0            0            0            0            0            0        0 
23837000            0            0            0            0            0            0            0        0 
23838000            0            0            0            0            0            0            0        0 
23839000            0            0            0            0            0            0            0        0 
23840000            0            0            0            0            0            0            0        0 
23841000            0            0            0            0            0            0            0        0 
23842000            0            0            0            0            0            0            0        0 
23843000            0            0            0            0            0            0            0        0 
23844000            0            0            0            0            0            0            0        0 
23845000            0            0            0            0            0            0            0        0 
23846000            0            0            0            0            0            0            0        0 
23847000            0            0            0            0            0            0            0        0 
23848000            0            0            0            0            0            0            0        0 
23849000            0            0            0            0            0            0            0        0 
23850000            0            0            0            0            0            0            0        0 
23851000            0            0            0            0            0            0            0        0 
23852000            0            0            0            0            0            0            0        0 
23853000            0            0            0            0            0            0            0        0 
23854000            0            0            0            0            0            0            0        0 
23855000            0            0            0            0            0            0            0        0 
23856000            0            0            0            0            0            0            0        0 
23857000            0            0            0            0            0            0            0        0 
23858000            0            0            0            0            0            0            0        0 
23859000            0            0            0            0            0            0            0        0 
23860000            0            0            0            0            0            0            0        0 
23861000            0            0            0            0            0            0            0        0 
23862000            0            0            0            0            0            0            0        0 
23863000            0            0            0            0            0            0            0        0 
23864000            0            0            0            0            0            0            0        0 
23865000            0            0            0            0            0            0            0        0 
23866000            0            0            0            0            0            0            0        0 
23867000            0            0            0            0            0            0            0        0 
23868000            0            0            0            0            0            0            0        0 
23869000            0            0            0            0            0            0            0        0 
23870000            0            0            0            0            0            0            0        0 
23871000            0            0            0            0            0            0            0        0 
23872000            0            0            0            0            0            0            0        0 
23873000            0            0            0            0            0            0            0        0 
23874000            0            0            0            0            0            0            0        0 
23875000            0            0            0            0            0            0            0        0 
23876000            0            0            0            0            0            0            0        0 
23877000            0            0            0            0            0            0            0        0 
23878000            0            0            0            0            0            0            0        0 
23879000            0            0            0            0            0            0            0        0 
23880000            0            0            0            0            0            0            0        0 
23881000            0            0            0            0            0            0            0        0 
23882000            0            0            0            0            0            0            0        0 
23883000            0            0            0            0            0            0            0        0 
23884000            0            0            0            0            0            0            0        0 
23885000            0            0            0            0            0            0            0        0 
23886000            0            0            0            0            0            0            0        0 
23887000            0            0            0            0            0            0            0        0 
23888000            0            0            0            0            0            0            0        0 
23889000            0            0            0            0            0            0            0        0 
23890000            0            0            0            0            0            0            0        0 
23891000            0            0            0            0            0            0            0        0 
23892000            0            0            0            0            0            0            0        0 
23893000            0            0            0            0            0            0            0        0 
23894000            0            0            0            0            0            0            0        0 
23895000            0            0            0            0            0            0            0        0 
23896000            0            0            0            0            0            0            0        0 
23897000            0            0            0            0            0            0            0        0 
23898000            0            0            0            0            0            0            0        0 
23899000            0            0            0            0            0            0            0        0 
23900000            0            0            0            0            0            0            0        0 
23901000            0            0            0            0            0            0            0        0 
23902000            0            0            0            0            0            0            0        0 
23903000            0            0            0            0            0            0            0        0 
23904000            0            0            0            0            0            0            0        0 
23905000            0            0            0            0            0            0            0        0 
23906000            0            0            0            0            0            0            0        0 
23907000            0            0            0            0            0            0            0        0 
23908000            0            0            0            0            0            0            0        0 
23909000            0            0            0            0            0            0            0        0 
23910000            0            0            0            0            0            0            0        0 
23911000            0            0            0            0            0            0            0        0 
23912000            0            0            0            0            0            0            0        0 
23913000            0            0            0            0            0            0            0        0 
23914000            0            0            0            0            0            0            0        0 
23915000            0            0            0            0            0            0            0        0 
23916000            0            0            0            0            0            0            0        0 
23917000            0            0            0            0            0            0            0        0 
23918000            0            0            0            0            0            0            0        0 
23919000            0            0            0            0            0            0            0        0 
23920000            0            0            0            0            0            0            0        0 
23921000            0            0            0            0            0            0            0        0 
23922000            0            0            0            0            0            0            0        0 
23923000            0            0            0            0            0            0            0        0 
23924000            0            0            0            0            0            0            0        0 
23925000            0            0            0            0            0            0            0        0 
23926000            0            0            0            0            0            0            0        0 
23927000            0            0            0            0            0            0            0        0 
23928000            0            0            0            0            0            0            0        0 
23929000            0            0            0            0            0            0            0        0 
23930000            0            0            0            0            0            0            0        0 
23931000            0            0            0            0            0            0            0        0 
23932000            0            0            0            0            0            0            0        0 
23933000            0            0            0            0            0            0            0        0 
23934000            0            0            0            0            0            0            0        0 
23935000            0            0            0            0            0            0            0        0 
23936000            0            0            0            0            0            0            0        0 
23937000            0            0            0            0            0            0            0        0 
23938000            0            0            0            0            0            0            0        0 
23939000            0            0            0            0            0            0            0        0 
23940000            0            0            0            0            0            0            0        0 
23941000            0            0            0            0            0            0            0        0 
23942000            0            0            0            0            0            0            0        0 
23943000            0            0            0            0            0            0            0        0 
23944000            0            0            0            0            0            0            0        0 
23945000            0            0            0            0            0            0            0        0 
23946000            0            0            0            0            0            0            0        0 
23947000            0            0            0            0            0            0            0        0 
23948000            0            0            0            0            0            0            0        0 
23949000            0            0            0            0            0            0            0        0 
23950000            0            0            0            0            0            0            0        0 
23951000            0            0            0            0            0            0            0        0 
23952000            0            0            0            0            0            0            0        0 
23953000            0            0            0            0            0            0            0        0 
23954000            0            0            0            0            0            0            0        0 
23955000            0            0            0            0            0            0            0        0 
23956000            0            0            0            0            0            0            0        0 
23957000            0            0            0            0            0            0            0        0 
23958000            0            0            0            0            0            0            0        0 
23959000            0            0            0            0            0            0            0        0 
23960000            0            0            0            0            0            0            0        0 
23961000            0            0            0            0            0            0            0        0 
23962000            0            0            0            0            0            0            0        0 
23963000            0            0            0            0            0            0            0        0 
23964000            0            0            0            0            0            0            0        0 
23965000            0            0            0            0            0            0            0        0 
23966000            0            0            0            0            0            0            0        0 
23967000            0            0            0            0            0            0            0        0 
23968000            0            0            0            0            0            0            0        0 
23969000            0            0            0            0            0            0            0        0 
23970000            0            0            0            0            0            0            0        0 
23971000            0            0            0            0            0            0            0        0 
23972000            0            0            0            0            0            0            0        0 
23973000            0            0            0            0            0            0            0        0 
23974000            0            0            0            0            0            0            0        0 
23975000            0            0            0            0            0            0            0        0 
23976000            0            0            0            0            0            0            0        0 
23977000            0            0            0            0            0            0            0        0 
23978000            0            0            0            0            0            0            0        0 
23979000            0            0            0            0            0            0            0        0 
23980000            0            0            0            0            0            0            0        0 
23981000            0            0            0            0            0            0            0        0 
23982000            0            0            0            0            0            0            0        0 
23983000            0            0            0            0            0            0            0        0 
23984000            0            0            0            0            0            0            0        0 
23985000            0            0            0            0            0            0            0        0 
23986000            0            0            0            0            0            0            0        0 
23987000            0            0            0            0            0            0            0        0 
23988000            0            0            0            0            0            0            0        0 
23989000            0            0            0            0            0            0            0        0 
23990000            0            0            0            0            0            0            0        0 
23991000            0            0            0            0            0            0            0        0 
23992000            0            0            0            0            0            0            0        0 
23993000            0            0            0            0            0            0            0        0 
23994000            0            0            0            0            0            0            0        0 
23995000            0            0            0            0            0            0            0        0 
23996000            0            0            0            0            0            0            0        0 
23997000            0            0            0            0            0            0            0        0 
23998000            0            0            0            0            0            0            0        0 
23999000            0            0            0            0            0            0            0        0 
24000000            0            0            0            0            0            0            0        0 
Loop time of 5629.3 on 192 procs for 20000000 steps with 0 atoms

Performance: 1534827.558 tau/day, 3552.842 timesteps/s
80.4% CPU use with 192 MPI tasks x 1 OpenMP threads

MPI task timing breakdown:
Section |  min time  |  avg time  |  max time  |%varavg|  %CPU | %total
-----------------------------------------------------------------------
Pair    | 762.19     | 891.39     | 1020.9     | 190.8 |  86.3 | 15.83
Bond    | 12.412     | 12.87      | 13.478     |   5.4 |  84.5 |  0.23
Neigh   | 748.93     | 854.03     | 931.95     | 147.5 |  89.9 | 15.17
Comm    | 1203.5     | 1859.9     | 2046.5     | 528.5 |  82.3 | 33.04
Output  | 1090.4     | 1094.3     | 1094.4     |   0.9 |  64.9 | 19.44
Modify  | 449.09     | 579.56     | 1166.3     | 875.1 |  82.8 | 10.30
Other   |            | 337.2      |            |       |       |  5.99

Nlocal:         0.00000 ave           0 max           0 min
Histogram: 192 0 0 0 0 0 0 0 0 0
Nghost:         0.00000 ave           0 max           0 min
Histogram: 192 0 0 0 0 0 0 0 0 0
Neighs:         0.00000 ave           0 max           0 min
Histogram: 192 0 0 0 0 0 0 0 0 0

Total # of neighbors = 0
Neighbor list builds = 1863619
Dangerous builds = 1244290
Total wall time: 2:17:43
