LAMMPS (29 Oct 2020)
  using 1 OpenMP thread(s) per MPI task
#Read the equilibrated lj fluid and add nanocubes

units           lj
atom_style      full
#atom_modify     map array first cubes
dimension       3
boundary        p p f
pair_style      lj/cut/opt 2.5

variable        sigma           equal 1.0
variable        epsilon         equal 1.0
read_restart	restart.dat.10000000
Reading restart file ...
  restart file = 29 Oct 2020, LAMMPS = 29 Oct 2020
WARNING: Restart file used different # of processors: 64 vs. 128 (src/read_restart.cpp:697)
  restoring atom style full from restart
  orthogonal box = (0.0000000 0.0000000 0.0000000) to (80.000000 80.000000 160.00000)
  4 by 4 by 8 MPI processor grid
  restoring pair style lj/cut/opt from restart
  507356 atoms
Finding 1-2 1-3 1-4 neighbors ...
  special bond factors lj:    0.0      0.0      0.0     
  special bond factors coul:  0.0      0.0      0.0     
     0 = max # of 1-2 neighbors
     0 = max # of 1-3 neighbors
     0 = max # of 1-4 neighbors
     1 = max # of special neighbors
  special bonds CPU = 9.200 seconds
  read_restart CPU = 9.827 seconds

group		solvent type 1
307331 atoms in group solvent
group 		hull  type 2
78050 atoms in group hull
group 		dummy type 3
121975 atoms in group dummy

neighbor      0.4 bin
neigh_modify  exclude molecule/intra cubes

pair_modify   shift yes

pair_coeff    1 1 1.0 1.0 #solvent
pair_coeff    2 2 1.0 1.0 1.12 #np
pair_coeff    3 3 0.0 0.0 0.0 #dummy
pair_coeff    2 3 0.0 0.0 0.0 #np dummy
pair_coeff    1 2 ${sol} 1.0  #np solvent
pair_coeff    1 2 0.85 1.0  
pair_coeff    1 3 0.0 0.0 0.0 #dummy solvent


comm_modify   mode multi cutoff/multi 1 2.5 cutoff/multi 2 2.5 cutoff/multi 3 6.95

reset_timestep 	0

balance 	1.05 shift z 10 1.05
Balancing ...
Unused restart file global fix info:
  fix style: STORE, fix ID: msd_COMPUTE_STORE
Unused restart file peratom fix info:
  fix style: STORE, fix ID: bin1_COMPUTE_STORE
  fix style: STORE, fix ID: bin3_COMPUTE_STORE
Neighbor list info ...
  update every 1 steps, delay 10 steps, check yes
  max neighbors/atom: 2000, page size: 100000
  master list distance cutoff = 2.9
  ghost atom cutoff = 6.95
  binsize = 1.45, bins = 56 56 111
  1 neighbor lists, perpetual/occasional/extra = 1 0 0
  (1) pair lj/cut/opt, perpetual
      attributes: half, newton on
      pair build: half/bin/newton
      stencil: half/bin/3d/newton
      bin: standard
 rebalancing time: 0.010 seconds
  iteration count = 4
  initial/final maximal load/proc = 6775.0000 5434.0000
  initial/final imbalance factor  = 1.7092535 1.3709348
  x cuts: 0.0000000 0.25 0.5 0.75 1.0000000
  y cuts: 0.0000000 0.25 0.5 0.75 1.0000000
  z cuts: 0.0000000 0.1015625 0.1796875 0.2734375 0.359375 0.453125 0.515625 0.6171875 1.0000000

####################### WALLS ###########################

variable       epsilonWall equal 2*${epsilon}
variable       epsilonWall equal 2*1
variable       repulsive   equal   0.7147*${sigma}
variable       repulsive   equal   0.7147*1
variable       full	   equal   3*${sigma}
variable       full	   equal   3*1
region         lowWall block EDGE EDGE EDGE EDGE EDGE 2

fix            topWall all wall/lj93 zhi EDGE 	       ${epsilonWall} ${sigma} ${repulsive} units box
fix            topWall all wall/lj93 zhi EDGE 	       2 ${sigma} ${repulsive} units box
fix            topWall all wall/lj93 zhi EDGE 	       2 1 ${repulsive} units box
fix            topWall all wall/lj93 zhi EDGE 	       2 1 0.7147 units box
fix            lowSol solvent wall/lj93 zlo EDGE                ${epsilonWall} ${sigma} ${full} units box
fix            lowSol solvent wall/lj93 zlo EDGE                2 ${sigma} ${full} units box
fix            lowSol solvent wall/lj93 zlo EDGE                2 1 ${full} units box
fix            lowSol solvent wall/lj93 zlo EDGE                2 1 3 units box
fix 	       lowCub cubes wall/lj93 zlo EDGE                ${epsilonWall} ${sigma} ${repulsive} units box
fix 	       lowCub cubes wall/lj93 zlo EDGE                2 ${sigma} ${repulsive} units box
fix 	       lowCub cubes wall/lj93 zlo EDGE                2 1 ${repulsive} units box
fix 	       lowCub cubes wall/lj93 zlo EDGE                2 1 0.7147 units box


###################### COMPUTES ##########################

compute        bin1 solvent chunk/atom bin/1d z lower 1.0 units box
compute        bin3 solvent chunk/atom bin/3d x lower 5.0 y lower 5.0 z lower 5.0 units box

compute 	pe solvent 	   pe/atom
compute 	pe2 all 	   pe/atom

######################  FIXES ############################


fix             peclet solvent ave/chunk 10 10 10000 bin1 density/number norm                  none ave one file density.profile

fix              temp solvent ave/chunk 10 10 10000 bin1 temp norm                  none ave one file temp.profile

fix 		 dens solvent ave/chunk 10 10 500000 bin3 density/number norm 		 none ave one file dens3.profile

fix		 temp2 solvent ave/chunk 10 10 500000 bin3 temp norm none ave one file temp3.profile

fix 		pe solvent ave/chunk 1 1 500000 bin3 c_pe norm none ave one file pe3.profile



################### INTEGRATION

fix             1 cubes rigid/nve/small molecule
  create bodies CPU = 0.015 seconds
  175 rigid bodies with 200025 atoms
  6.9282032 = max distance from body owner to body atom

fix             2 solvent nve



## Thermostat
region          regthermo block EDGE EDGE EDGE EDGE 0 15
group           thermo dynamic solvent region regthermo every 1000
dynamic group thermo defined
fix             3 thermo langevin ${temp} ${temp} 10 156453
fix             3 thermo langevin 1.0 ${temp} 10 156453
fix             3 thermo langevin 1.0 1.0 10 156453

## Evaporation
region		regevap block EDGE EDGE EDGE EDGE 140 EDGE
fix 		4 solvent evaporate ${evap} 1 regevap 156415
fix 		4 solvent evaporate 85 1 regevap 156415


#### Load balancing

fix             bal all balance 1000 1.05 shift z 10 1.05

############### Diagnostics and computes ###################

compute        	com cubes          rigid/local   1 mol x y z
compute        	quat cubes         rigid/local   1 mol quatw quati quatj quatk

compute 	cc2 cubes 	   chunk/atom 	 molecule
compute 	msd cubes 	   msd/chunk 	 cc2

fix 		msd all ave/time  1 1 10000 c_msd[*] file dump.msd ave one mode vector

dump            1 all custom 500000 dump.lammpstrj id mol type x y z vx vy vz c_pe2
dump		sol  solvent custom 500000 dump.soltrj id x y z vx vy vz c_pe
dump		cubetrj cubes custom 500000 cubes.lammpstrj id mol type x y z vx vy vz
dump            com cubes local 500000 dump.*.xyz c_com[*]
dump	        xyz hull xyz 500000 cubes.xyz
#dump            quat cubes      local 100000 dump.*.quat c_quat[*]
dump		order cubes 	local 100000 dump.*.order c_com[*] c_quat[*]
#dump		mol cubes molfile 10000 mol.xyz xyz


dump            2 all image 100000 image.*.png type type zoom 1.5 size 1280 720
dump_modify     2 pad 8
dump		image cubes image 100000 image_cubes.*.png type type zoom 1.5 size 1280 720
dump_modify	image pad 8
dump            3 all movie 5000 movie.avi type type zoom 1.5 size 1280 720
dump		4 cubes movie 5000 movie_cubes.avi type type size 1280 720


thermo          1000
thermo_style    custom step temp epair evdwl etotal press pe ke atoms

restart         1000000 restart.dat
timestep        0.005
timer           full
New timer settings: style=full  mode=nosync  timeout=off

run 		${steps}
run 		30000000
Per MPI rank memory allocation (min/avg/max) = 22.29 | 26.65 | 37.71 Mbytes
Step Temp E_pair E_vdwl TotEng Press PotEng KinEng Atoms 
       0    1.0066474   -2.0802735   -2.0802735   -1.1645695  0.042294176   -2.0802735   0.91570401   507356 
    1000    1.0083423   -2.0814969   -2.0814969   -1.1642313  0.064479618   -2.0814969   0.91726564   507345 
    2000    1.0086034   -2.0824539   -2.0824539    -1.164929  0.079232705   -2.0824539   0.91752489   507333 
    3000    1.0069848   -2.0821252   -2.0821252   -1.1660511  0.075169407   -2.0821252   0.91607412   507321 
    4000    1.0065814   -2.0822839   -2.0822839   -1.1665552   0.07054434   -2.0822839   0.91572875   507309 
    5000    1.0073879    -2.081927    -2.081927   -1.1654446  0.065273222    -2.081927   0.91648236   507298 
    6000    1.0075425   -2.0812835   -2.0812835   -1.1646388  0.062404713   -2.0812835   0.91664467   507286 
    7000    1.0097995   -2.0835143   -2.0835143   -1.1647945  0.067394014   -2.0835143   0.91871982   507274 
    8000     1.009117   -2.0825155   -2.0825155   -1.1643949  0.074133916   -2.0825155   0.91812058   507262 
    9000    1.0075003   -2.0810303   -2.0810303   -1.1643608  0.075377379   -2.0810303   0.91666951   507251 
   10000    1.0070852   -2.0811055   -2.0811055    -1.164792  0.062474334   -2.0811055   0.91631351   507239 
   11000    1.0047524    -2.079126    -2.079126   -1.1649133  0.076604985    -2.079126   0.91421265   507227 
   12000    1.0067993   -2.0812342   -2.0812342   -1.1651375  0.076604363   -2.0812342   0.91609671   507215 
   13000    1.0080483   -2.0824771   -2.0824771    -1.165224  0.070485428   -2.0824771    0.9172531   507204 
   14000    1.0066643   -2.0808482   -2.0808482   -1.1648328  0.069311465   -2.0808482   0.91601544   507192 
   15000    1.0071968   -2.0807686   -2.0807686   -1.1642468  0.065767145   -2.0807686   0.91652171   507180 
   16000    1.0070812   -2.0796257   -2.0796257   -1.1631875  0.064266935   -2.0796257    0.9164382   507168 
   17000     1.010628   -2.0815642   -2.0815642   -1.1618767  0.064150601   -2.0815642   0.91968753   507156 
   18000    1.0098533   -2.0813699   -2.0813699   -1.1623675  0.075136645   -2.0813699   0.91900245   507145 
   19000    1.0076406   -2.0799058   -2.0799058   -1.1628953  0.074477178   -2.0799058   0.91701047   507133 
   20000    1.0107582   -2.0823462   -2.0823462   -1.1624767  0.068410324   -2.0823462    0.9198695   507121 
   21000    1.0097748   -2.0810259   -2.0810259   -1.1620297  0.072450801   -2.0810259   0.91899622   507109 
   22000    1.0090701    -2.080206    -2.080206   -1.1618313  0.077735833    -2.080206   0.91837478   507098 
   23000    1.0076739   -2.0796234   -2.0796234   -1.1624976  0.063266955   -2.0796234   0.91712579   507086 
   24000    1.0081439    -2.080575    -2.080575   -1.1629998  0.070533086    -2.080575   0.91757529   507074 
   25000    1.0093313   -2.0818763   -2.0818763   -1.1631985  0.071260003   -2.0818763   0.91867778   507062 
   26000    1.0067233   -2.0799045   -2.0799045   -1.1635806   0.05795329   -2.0799045   0.91632383   507051 
   27000    1.0077504   -2.0808684   -2.0808684    -1.163588  0.063312412   -2.0808684   0.91728045   507039 
   28000    1.0045782   -2.0779429   -2.0779429   -1.1635282   0.06300328   -2.0779429   0.91441472   507027 
   29000    1.0070741   -2.0802486   -2.0802486   -1.1635403  0.065357378   -2.0802486   0.91670827   507015 
   30000    1.0060414   -2.0789687   -2.0789687   -1.1631806  0.070002317   -2.0789687   0.91578811   507004 
   31000    1.0077162   -2.0810543   -2.0810543   -1.1637199  0.066510913   -2.0810543   0.91733438   506992 
   32000    1.0064306   -2.0789093   -2.0789093   -1.1627236  0.065519359   -2.0789093   0.91618579   506980 
   33000    1.0052022   -2.0784886   -2.0784886   -1.1633995    0.0713198   -2.0784886   0.91508914   506968 
   34000     1.004996   -2.0782462   -2.0782462   -1.1633231  0.073632217   -2.0782462   0.91492309   506956 
   35000    1.0055832   -2.0788153   -2.0788153   -1.1633378  0.063390696   -2.0788153   0.91547752   506945 
   36000    1.0075576   -2.0805653   -2.0805653   -1.1632686  0.060941241   -2.0805653   0.91729669   506933 
   37000    1.0074963   -2.0813192   -2.0813192   -1.1640566  0.062243004   -2.0813192   0.91726262   506921 
   38000    1.0054556   -2.0791567   -2.0791567   -1.1637304  0.065026705   -2.0791567   0.91542635   506909 
   39000    1.0062571    -2.079831    -2.079831   -1.1636549  0.070715442    -2.079831   0.91617603   506898 
   40000    1.0066936   -2.0802798   -2.0802798   -1.1636848  0.072697062   -2.0802798   0.91659507   506886 
   41000    1.0065449    -2.079574    -2.079574   -1.1630926  0.073550207    -2.079574   0.91648138   506874 
   42000    1.0064434   -2.0790871   -2.0790871   -1.1626764  0.076770776   -2.0790871   0.91641072   506862 
   43000    1.0064141   -2.0793128   -2.0793128   -1.1629089  0.068271394   -2.0793128   0.91640391   506851 
   44000     1.005451    -2.078607    -2.078607   -1.1630584   0.06988589    -2.078607   0.91554865   506839 
   45000     1.005214   -2.0791055   -2.0791055    -1.163751  0.063080425   -2.0791055    0.9153545   506827 
   46000     1.004682   -2.0792097   -2.0792097    -1.164318  0.063888733   -2.0792097   0.91489171   506815 
   47000    1.0049054   -2.0796918   -2.0796918   -1.1645768  0.074803676   -2.0796918   0.91511497   506804 
   48000    1.0055881   -2.0794482   -2.0794482   -1.1636899  0.071557779   -2.0794482   0.91575838   506792 
   49000    1.0055188   -2.0789773   -2.0789773   -1.1632604  0.070122041   -2.0789773   0.91571697   506780 
   50000    1.0066538   -2.0800436   -2.0800436   -1.1632713  0.074862746   -2.0800436   0.91677233   506768 
   51000     1.007776   -2.0797789   -2.0797789   -1.1619629   0.07091732   -2.0797789   0.91781605   506756 
   52000    1.0069277   -2.0794747   -2.0794747   -1.1624113  0.075747214   -2.0794747   0.91706338   506745 
   53000    1.0073367   -2.0800034   -2.0800034   -1.1625458  0.072775906   -2.0800034   0.91745756   506733 
   54000    1.0065359    -2.080419    -2.080419   -1.1636691  0.071563615    -2.080419   0.91674992   506721 
   55000    1.0049201   -2.0795773   -2.0795773   -1.1642773  0.060779244   -2.0795773   0.91529998   506709 
   56000    1.0046071   -2.0782104   -2.0782104   -1.1631757  0.067478466   -2.0782104   0.91503469   506698 
   57000    1.0070418   -2.0807974   -2.0807974   -1.1635233   0.06765786   -2.0807974   0.91727407   506686 
   58000    1.0048314   -2.0789027   -2.0789027   -1.1636203  0.059123062   -2.0789027   0.91528243   506674 
   59000    1.0070026   -2.0799598   -2.0799598   -1.1626779  0.063601196   -2.0799598   0.91728181   506662 
   60000    1.0052545   -2.0778723   -2.0778723    -1.162163  0.062108252   -2.0778723   0.91570936   506651 
   61000    1.0059072   -2.0792348   -2.0792348   -1.1629092  0.075856603   -2.0792348   0.91632559   506639 
   62000     1.003613   -2.0771655   -2.0771655   -1.1629081  0.070445281   -2.0771655   0.91425734   506627 
   63000    1.0045965   -2.0792387   -2.0792387   -1.1640637  0.059260759   -2.0792387   0.91517498   506615 
   64000    1.0028851   -2.0778737   -2.0778737   -1.1642379  0.073328142   -2.0778737    0.9136358   506604 
   65000    1.0011974   -2.0768184   -2.0768184   -1.1646985  0.074465291   -2.0768184   0.91211988   506592 
   66000     1.003835   -2.0790125   -2.0790125    -1.164468  0.057602258   -2.0790125   0.91454449   506580 
   67000    1.0037963   -2.0791002   -2.0791002   -1.1645694  0.076243897   -2.0791002   0.91453085   506568 
   68000    1.0058888   -2.0816502   -2.0816502   -1.1651912  0.060699905   -2.0816502   0.91645895   506556 
   69000    1.0049903   -2.0804693   -2.0804693   -1.1648091  0.070890419   -2.0804693   0.91566026   506545 
   70000    1.0060036   -2.0810918   -2.0810918   -1.1644866  0.060791609   -2.0810918   0.91660517   506533 
   71000    1.0036643   -2.0791446   -2.0791446   -1.1646492  0.073096286   -2.0791446   0.91449541   506521 
   72000    1.0032664   -2.0786029   -2.0786029   -1.1644484  0.064383808   -2.0786029   0.91415456   506509 
   73000    1.0054395    -2.081522    -2.081522   -1.1653675  0.064687551    -2.081522   0.91615452   506498 
   74000      1.00409   -2.0802066   -2.0802066   -1.1652601  0.077489676   -2.0802066   0.91494654   506486 
   75000    1.0062146   -2.0819209   -2.0819209   -1.1650167  0.060054879   -2.0819209   0.91690424   506474 
   76000    1.0070359   -2.0828226   -2.0828226   -1.1651482  0.070519757   -2.0828226   0.91767442   506462 
   77000    1.0068488   -2.0827925   -2.0827925   -1.1652687  0.077884193   -2.0827925   0.91752387   506451 
   78000    1.0054826   -2.0814811   -2.0814811   -1.1651805  0.077645094   -2.0814811   0.91630055   506439 
   79000    1.0040635   -2.0808207   -2.0808207   -1.1657916   0.06976701   -2.0808207   0.91502903   506427 
   80000    1.0049888   -2.0812723   -2.0812723   -1.1653784  0.077458048   -2.0812723    0.9158939   506415 
   81000    1.0045404   -2.0817144   -2.0817144   -1.1662093  0.065424127   -2.0817144   0.91550516   506404 
   82000    1.0048523   -2.0820203   -2.0820203   -1.1662092  0.075361432   -2.0820203   0.91581111   506392 
   83000    1.0053399   -2.0813501   -2.0813501   -1.1650729  0.060249437   -2.0813501   0.91627726   506380 
   84000    1.0066881   -2.0816735   -2.0816735   -1.1641458  0.071827898   -2.0816735   0.91752772   506368 
   85000    1.0073037   -2.0826074   -2.0826074   -1.1644968  0.077300798   -2.0826074   0.91811054   506356 
   86000    1.0080196   -2.0831946   -2.0831946   -1.1644116  0.074080229   -2.0831946   0.91878304   506345 
   87000    1.0048612   -2.0805045   -2.0805045   -1.1645785  0.068611532   -2.0805045   0.91592599   506333 
   88000    1.0053827   -2.0817265   -2.0817265   -1.1653034  0.067954925   -2.0817265   0.91642303   506321 
   89000    1.0055874   -2.0820979   -2.0820979   -1.1654666   0.06496667   -2.0820979   0.91663131   506309 
   90000    1.0017552   -2.0790202   -2.0790202   -1.1658622  0.074735518   -2.0790202   0.91315797   506298 
   91000    1.0051151    -2.081758    -2.081758   -1.1655156   0.06941295    -2.081758   0.91624241   506286 
   92000    1.0025311   -2.0800027   -2.0800027   -1.1660941  0.061122736   -2.0800027   0.91390858   506274 
   93000    1.0018322   -2.0790935   -2.0790935   -1.1658003   0.06362117   -2.0790935   0.91329314   506262 
   94000    1.0030808   -2.0804131   -2.0804131    -1.165962  0.057249592   -2.0804131   0.91445119   506251 
   95000    1.0024319   -2.0804005   -2.0804005   -1.1665192  0.066154638   -2.0804005   0.91388134   506239 
   96000    1.0034504   -2.0819892   -2.0819892   -1.1671577  0.060650799   -2.0819892   0.91483153   506227 
   97000    1.0025703   -2.0797403   -2.0797403   -1.1656895  0.066555938   -2.0797403   0.91405082   506215 
   98000    1.0031841   -2.0809038   -2.0809038   -1.1662735   0.06748306   -2.0809038   0.91463035   506204 
   99000    1.0034381   -2.0813576   -2.0813576    -1.166474  0.074205758   -2.0813576   0.91488354   506192 
  100000    1.0021881   -2.0806289   -2.0806289   -1.1668634  0.057313112   -2.0806289   0.91376553   506180 
  101000    1.0034161   -2.0813072   -2.0813072   -1.1664003   0.07304146   -2.0813072    0.9149069   506168 
  102000    1.0020672   -2.0802424   -2.0802424   -1.1665437   0.07408265   -2.0802424   0.91369867   506156 
  103000    1.0052324   -2.0823373   -2.0823373   -1.1657326  0.064760486   -2.0823373   0.91660468   506145 
  104000    1.0047252   -2.0821264   -2.0821264   -1.1659624  0.068042603   -2.0821264   0.91616391   506133 
  105000     1.006052   -2.0833299   -2.0833299   -1.1659345  0.059517087   -2.0833299   0.91739549   506121 
  106000     1.004019   -2.0819259   -2.0819259   -1.1663626  0.064359565   -2.0819259   0.91556333   506109 
  107000    1.0057043   -2.0822975   -2.0822975   -1.1651774  0.065678462   -2.0822975    0.9171201   506098 
  108000    1.0051395   -2.0831337   -2.0831337   -1.1665069  0.065778114   -2.0831337   0.91662675   506086 
  109000    1.0044389   -2.0835113   -2.0835113   -1.1675016  0.065785636   -2.0835113   0.91600962   506074 
  110000    1.0030765    -2.082789    -2.082789   -1.1680001  0.063077009    -2.082789   0.91478887   506062 
  111000    1.0046919   -2.0837487   -2.0837487   -1.1674668  0.062052437   -2.0837487   0.91628195   506051 
  112000    1.0050632   -2.0839552   -2.0839552   -1.1673128  0.065360668   -2.0839552   0.91664236   506039 
  113000    1.0040649   -2.0830579   -2.0830579   -1.1673043  0.059460152   -2.0830579   0.91575358   506027 
  114000    1.0042726   -2.0831591   -2.0831591   -1.1671944  0.069896852   -2.0831591   0.91596472   506015 
  115000    1.0037822    -2.083213    -2.083213   -1.1676757  0.064194916    -2.083213   0.91553733   506004 
  116000    1.0032807   -2.0828597   -2.0828597   -1.1677581  0.061768419   -2.0828597   0.91510166   505992 
  117000    1.0036086   -2.0827657   -2.0827657   -1.1673433  0.070830156   -2.0827657   0.91542243   505980 
  118000    1.0036706   -2.0827371   -2.0827371   -1.1672364  0.069510566   -2.0827371   0.91550069   505968 
  119000    1.0028216   -2.0817173   -2.0817173   -1.1669693  0.055219011   -2.0817173   0.91474797   505956 
  120000    1.0009036   -2.0807925   -2.0807925   -1.1677742  0.078369247   -2.0807925   0.91301827   505945 
  121000    1.0042736   -2.0840347   -2.0840347   -1.1679206   0.07118906   -2.0840347    0.9161141   505933 
  122000    1.0035229   -2.0829749   -2.0829749   -1.1675238  0.063234621   -2.0829749   0.91545103   505921 
  123000    1.0021873   -2.0828043   -2.0828043   -1.1685501  0.069494721   -2.0828043   0.91425427   505909 
  124000    1.0029502   -2.0829454   -2.0829454   -1.1679753  0.064340309   -2.0829454   0.91497017   505898 
  125000    1.0006404   -2.0801814   -2.0801814   -1.1672968  0.079156945   -2.0801814   0.91288459   505886 
  126000    1.0012165   -2.0809529   -2.0809529   -1.1675209  0.063411137   -2.0809529   0.91343191   505874 
  127000    1.0005606   -2.0813729   -2.0813729   -1.1685177  0.064599143   -2.0813729   0.91285519   505862 
  128000    1.0035259   -2.0833325   -2.0833325    -1.167752  0.053206029   -2.0833325   0.91558043   505851 
  129000    1.0034895   -2.0832873   -2.0832873   -1.1677184  0.066667201   -2.0832873   0.91556893   505839 
  130000    1.0042643   -2.0834962   -2.0834962   -1.1671986  0.066184391   -2.0834962   0.91629762   505827 
  131000    1.0030514   -2.0826119   -2.0826119   -1.1673992  0.078822685   -2.0826119   0.91521268   505815 
  132000    1.0025807    -2.083877    -2.083877   -1.1690739  0.058068095    -2.083877    0.9148031   505804 
  133000    1.0023076    -2.083243    -2.083243   -1.1686674  0.068888889    -2.083243   0.91457557   505792 
  134000    1.0032227     -2.08392     -2.08392   -1.1684877  0.062414599     -2.08392   0.91543227   505780 
  135000    1.0046951   -2.0837643   -2.0837643   -1.1669667  0.067312625   -2.0837643   0.91679756   505768 
  136000    1.0032341   -2.0828027   -2.0828027   -1.1673166  0.075252569   -2.0828027   0.91548611   505756 
  137000    1.0045696   -2.0842207   -2.0842207   -1.1674959  0.060271857   -2.0842207    0.9167248   505745 
  138000    1.0019006   -2.0822697   -2.0822697   -1.1679589  0.071306799   -2.0822697   0.91431084   505733 
  139000    1.0009874   -2.0816936   -2.0816936   -1.1681945  0.066309753   -2.0816936   0.91349916   505721 
  140000    1.0026423   -2.0837149   -2.0837149   -1.1686838  0.061208839   -2.0837149   0.91503111   505709 
  141000    1.0008516   -2.0824451   -2.0824451   -1.1690283  0.061585543   -2.0824451   0.91341678   505698 
  142000    1.0029794   -2.0839768   -2.0839768   -1.1685964  0.068151483   -2.0839768   0.91538037   505686 
  143000    1.0020855   -2.0830811   -2.0830811   -1.1684948  0.069254578   -2.0830811   0.91458631   505674 
  144000    1.0026212   -2.0836869   -2.0836869     -1.16859  0.066605868   -2.0836869   0.91509689   505662 
  145000    1.0030283   -2.0839568   -2.0839568   -1.1684684  0.068935805   -2.0839568   0.91548837   505651 
  146000    1.0021324    -2.082563    -2.082563   -1.1678706   0.06838725    -2.082563   0.91469236   505639 
  147000    1.0012683   -2.0827458   -2.0827458   -1.1688204   0.07029105   -2.0827458   0.91392538   505627 
  148000    1.0020959   -2.0833931   -2.0833931   -1.1686906  0.059702924   -2.0833931   0.91470251   505615 
  149000   0.99897054   -2.0816026   -2.0816026   -1.1697331  0.064934738   -2.0816026   0.91186953   505604 
  150000     1.001317   -2.0844884   -2.0844884   -1.1704553  0.066809274   -2.0844884   0.91403305   505592 
  151000    1.0001824   -2.0838359   -2.0838359   -1.1708168  0.057199143   -2.0838359   0.91301903   505580 
  152000   0.99710374   -2.0813008   -2.0813008   -1.1710705  0.063043436   -2.0813008   0.91023031   505568 
  153000   0.99795623   -2.0812426   -2.0812426   -1.1702125  0.073592331   -2.0812426   0.91103015   505556 
  154000   0.99951123   -2.0832457   -2.0832457   -1.1707762  0.079925797   -2.0832457   0.91246956   505545 
  155000    1.0021543   -2.0845821   -2.0845821    -1.169678  0.070618832   -2.0845821   0.91490416   505533 
  156000    1.0029819   -2.0856735   -2.0856735   -1.1699921   0.07709214   -2.0856735   0.91568143   505521 
  157000    1.0018703   -2.0854705   -2.0854705   -1.1707821  0.059857775   -2.0854705   0.91468834   505509 
  158000     1.003651   -2.0866898   -2.0866898   -1.1703557  0.075644931   -2.0866898   0.91633405   505498 
  159000    1.0020716   -2.0851504   -2.0851504   -1.1702367  0.080234959   -2.0851504   0.91491369   505486 
  160000    1.0008143   -2.0851394   -2.0851394   -1.1713519  0.080331033   -2.0851394   0.91378749   505474 
  161000    1.0005678   -2.0852957   -2.0852957   -1.1717117   0.06719687   -2.0852957   0.91358409   505462 
  162000    1.0006653   -2.0854702   -2.0854702   -1.1717772  0.063599694   -2.0854702   0.91369297   505451 
  163000    1.0012262   -2.0854983   -2.0854983   -1.1712714  0.068097128   -2.0854983   0.91422684   505439 
  164000    1.0007345   -2.0851234   -2.0851234   -1.1713238  0.072125486   -2.0851234   0.91379962   505427 
  165000   0.99947532     -2.08321     -2.08321   -1.1705385  0.076225416     -2.08321   0.91267147   505415 
  166000   0.99990017   -2.0845629   -2.0845629   -1.1714836  0.069095184   -2.0845629   0.91307929   505404 
  167000    1.0002661   -2.0848346   -2.0848346   -1.1713995    0.0689277   -2.0848346   0.91343509   505392 
  168000    1.0009663   -2.0851183   -2.0851183    -1.171022  0.067985099   -2.0851183    0.9140963   505380 
  169000    1.0016973   -2.0854039   -2.0854039   -1.1706184  0.074606293   -2.0854039    0.9147855   505368 
  170000   0.99917537   -2.0844808   -2.0844808   -1.1719767  0.073531737   -2.0844808   0.91250409   505356 
  171000    1.0016806   -2.0858229   -2.0858229    -1.171011  0.059660621   -2.0858229   0.91481189   505345 
  172000    1.0017855    -2.086316    -2.086316   -1.1713866   0.06556064    -2.086316   0.91492943   505333 
  173000    1.0004761   -2.0849713   -2.0849713    -1.171216   0.06030197   -2.0849713   0.91375528   505321 
  174000    1.0003291   -2.0840166   -2.0840166   -1.1703739  0.073576546   -2.0840166   0.91364268   505309 
  175000    1.0007846   -2.0843666   -2.0843666   -1.1702879  0.065538467   -2.0843666   0.91407867   505298 
  176000    1.0018276   -2.0849342   -2.0849342   -1.1698811  0.062636748   -2.0849342   0.91505302   505286 
  177000    1.0002836   -2.0838724   -2.0838724    -1.170208  0.072109762   -2.0838724   0.91366446   505274 
  178000    1.0027481   -2.0853467   -2.0853467   -1.1694094  0.060961304   -2.0853467   0.91593727   505262 
  179000    1.0011318   -2.0843068   -2.0843068   -1.1698259  0.063765476   -2.0843068   0.91448086   505251 
  180000    1.0009217   -2.0846994   -2.0846994   -1.1703888   0.06836106   -2.0846994   0.91431063   505239 
  181000    1.0012715   -2.0839205   -2.0839205   -1.1692686  0.060385482   -2.0839205   0.91465189   505227 
  182000    1.0015076   -2.0841601   -2.0841601   -1.1692708  0.069156359   -2.0841601   0.91488929   505215 
  183000     1.000272   -2.0835287   -2.0835287   -1.1697483  0.062334467   -2.0835287   0.91378041   505204 
  184000    1.0010305   -2.0850233   -2.0850233   -1.1705282  0.059013702   -2.0850233   0.91449507   505192 
  185000    1.0009321   -2.0844772   -2.0844772   -1.1700504  0.066427809   -2.0844772   0.91442687   505180 
  186000    1.0003489   -2.0841307   -2.0841307   -1.1702149  0.057840398   -2.0841307   0.91391578   505168 
  187000     1.000663   -2.0836598   -2.0836598   -1.1694353  0.059686191   -2.0836598   0.91422447   505156 
  188000   0.99911325   -2.0820563   -2.0820563   -1.1692278  0.067175436   -2.0820563   0.91282849   505145 
  189000   0.99821385   -2.0807007   -2.0807007   -1.1686723   0.06143644   -2.0807007   0.91202843   505133 
  190000    1.0011762   -2.0829949   -2.0829949   -1.1682382  0.064929682   -2.0829949    0.9147567   505121 
  191000    1.0009324   -2.0827888   -2.0827888   -1.1682331  0.074010613   -2.0827888    0.9145557   505109 
  192000    1.0008196   -2.0830276   -2.0830276    -1.168555   0.07057218   -2.0830276   0.91447254   505098 
  193000    1.0016428   -2.0835939   -2.0835939   -1.1683474  0.064612289   -2.0835939   0.91524649   505086 
  194000   0.99963391   -2.0824348   -2.0824348   -1.1690023  0.069650459   -2.0824348   0.91343257   505074 
  195000   0.99974672    -2.082376    -2.082376   -1.1688186  0.071254326    -2.082376   0.91355735   505062 
  196000   0.99900739   -2.0821552   -2.0821552   -1.1692536  0.064551988   -2.0821552   0.91290165   505051 
  197000   0.99858184   -2.0814284   -2.0814284    -1.168894  0.063297732   -2.0814284   0.91253446   505039 
  198000   0.99930993   -2.0831706   -2.0831706   -1.1699491  0.064452204   -2.0831706   0.91322151   505027 
  199000   0.99724432   -2.0824956   -2.0824956   -1.1711401  0.069306049   -2.0824956    0.9113555   505015 
  200000   0.99905949   -2.0836365   -2.0836365   -1.1706023  0.074186638   -2.0836365   0.91303423   505004 
  201000   0.99704821    -2.082736    -2.082736   -1.1715182  0.055841152    -2.082736   0.91121778   504992 
  202000   0.99686815   -2.0836085   -2.0836085   -1.1725336  0.071767972   -2.0836085   0.91107487   504980 
  203000   0.99709241   -2.0832545   -2.0832545    -1.171953  0.069376149   -2.0832545   0.91130149   504968 
  204000   0.99855755   -2.0835806   -2.0835806   -1.1709183  0.067721119   -2.0835806   0.91266225   504956 
  205000   0.99814152   -2.0823422   -2.0823422   -1.1700403   0.07029282   -2.0823422   0.91230188   504945 
  206000   0.99898117   -2.0836177   -2.0836177   -1.1705267  0.060286054   -2.0836177   0.91309103   504933 
  207000   0.99968769   -2.0837009   -2.0837009   -1.1699424  0.064649358   -2.0837009   0.91375852   504921 
  208000   0.99712143   -2.0821329   -2.0821329   -1.1706984  0.072651439   -2.0821329    0.9114345   504909 
  209000   0.99863064   -2.0839323   -2.0839323   -1.1710984  0.074137282   -2.0839323   0.91283391   504898 
  210000   0.99820659   -2.0824928   -2.0824928   -1.1700249  0.067851882   -2.0824928   0.91246798   504886 
  211000   0.99790138   -2.0830662   -2.0830662   -1.1708556  0.080418154   -2.0830662   0.91221066   504874 
  212000   0.99717449   -2.0825812   -2.0825812   -1.1710133  0.070086416   -2.0825812   0.91156785   504862 
  213000   0.99858665   -2.0839771   -2.0839771   -1.1710984  0.063587486   -2.0839771   0.91287868   504851 
  214000   0.99949354   -2.0843871   -2.0843871   -1.1706577  0.070616003   -2.0843871   0.91372945   504839 
  215000   0.99840308   -2.0833068   -2.0833068   -1.1705526  0.079735228   -2.0833068   0.91275425   504827 
  216000   0.99790373   -2.0836992   -2.0836992   -1.1713797  0.069157101   -2.0836992   0.91231943   504815 
  217000   0.99998485   -2.0846981   -2.0846981   -1.1704561  0.067620401   -2.0846981   0.91424198   504804 
  218000   0.99935781   -2.0841982   -2.0841982   -1.1705078   0.07212801   -2.0841982   0.91369042   504792 
  219000   0.99702006   -2.0821239   -2.0821239   -1.1705491  0.074493042   -2.0821239   0.91157474   504780 
  220000   0.99672644   -2.0819174   -2.0819174   -1.1705895  0.068602857   -2.0819174   0.91132795   504768 
  221000   0.99994658    -2.085117    -2.085117   -1.1708231  0.062141824    -2.085117   0.91429393   504756 
  222000   0.99683813   -2.0821232   -2.0821232   -1.1706516  0.068580255   -2.0821232    0.9114716   504745 
  223000    0.9990013    -2.083976    -2.083976   -1.1705048  0.063993362    -2.083976   0.91347124   504733 
  224000   0.99740972    -2.082746    -2.082746   -1.1707084  0.057168522    -2.082746   0.91203761   504721 
  225000   0.99849197   -2.0841769   -2.0841769    -1.171128  0.054641843   -2.0841769   0.91304894   504709 
  226000   0.99793031   -2.0835446   -2.0835446   -1.1709893  0.063433761   -2.0835446   0.91255523   504698 
  227000   0.99725538   -2.0835172   -2.0835172   -1.1715575  0.069582167   -2.0835172   0.91195972   504686 
  228000    0.9995584   -2.0846085   -2.0846085    -1.170521  0.083180676   -2.0846085   0.91408749   504674 
  229000    1.0003289   -2.0844292   -2.0844292   -1.1696154  0.054521982   -2.0844292   0.91481382   504662 
  230000   0.99920069   -2.0836795   -2.0836795   -1.1698774  0.075851138   -2.0836795   0.91380202   504651 
  231000    0.9998627   -2.0848883   -2.0848883   -1.1704592   0.06743945   -2.0848883    0.9144292   504639 
  232000   0.99897081   -2.0843773   -2.0843773   -1.1707421  0.071440394   -2.0843773   0.91363524   504627 
  233000   0.99725268   -2.0837012   -2.0837012   -1.1716156  0.065131303   -2.0837012   0.91208557   504615 
  234000   0.99772937   -2.0836482   -2.0836482   -1.1711067  0.066320074   -2.0836482   0.91254143   504604 
  235000   0.99739826   -2.0845171   -2.0845171   -1.1722568  0.062854474   -2.0845171   0.91226029   504592 
  236000   0.99694362   -2.0830901   -2.0830901   -1.1712239    0.0767805   -2.0830901   0.91186615   504580 
  237000   0.99625048   -2.0829543   -2.0829543   -1.1717005  0.071502548   -2.0829543   0.91125383   504568 
  238000   0.99397078   -2.0820259   -2.0820259   -1.1728357  0.071495122   -2.0820259   0.90919025   504556 
  239000   0.99735083   -2.0853732   -2.0853732   -1.1730713   0.07276781   -2.0853732   0.91230189   504545 
  240000   0.99549807   -2.0830011   -2.0830011   -1.1723723  0.066678972   -2.0830011   0.91062878   504533 
  241000    0.9957071   -2.0831551   -2.0831551   -1.1723134  0.057331244   -2.0831551   0.91084165   504521 
  242000   0.99776833   -2.0838796   -2.0838796   -1.1711307  0.065717671   -2.0838796   0.91274891   504509 
  243000   0.99612562   -2.0834529   -2.0834529   -1.1721869  0.067788706   -2.0834529   0.91126605   504498 
  244000   0.99723111   -2.0839756   -2.0839756   -1.1716765  0.068614677   -2.0839756   0.91229905   504486 
  245000    0.9952888   -2.0818593   -2.0818593   -1.1713155  0.068229952   -2.0818593   0.91054383   504474 
  246000   0.99831848   -2.0834535   -2.0834535   -1.1701162  0.063209108   -2.0834535   0.91333727   504462 
  247000   0.99663975    -2.082351    -2.082351   -1.1705297  0.061840974    -2.082351   0.91182132   504451 
  248000    0.9972808   -2.0823951   -2.0823951   -1.1699656  0.077106227   -2.0823951   0.91242952   504439 
  249000   0.99817965   -2.0827434   -2.0827434   -1.1694698  0.059182656   -2.0827434   0.91327362   504427 
  250000   0.99730689   -2.0835001   -2.0835001   -1.1710033  0.070124125   -2.0835001   0.91249681   504415 
  251000    0.9984731   -2.0846156   -2.0846156   -1.1710319  0.064937949   -2.0846156   0.91358377   504404 
  252000   0.99822601   -2.0847835   -2.0847835   -1.1714041  0.065155694   -2.0847835   0.91337941   504392 
  253000   0.99802728   -2.0844132   -2.0844132   -1.1711939  0.059651717   -2.0844132    0.9132193   504380 
  254000   0.99708769   -2.0830493   -2.0830493    -1.170668   0.06549092   -2.0830493   0.91238126   504368 
  255000   0.99789675   -2.0840171   -2.0840171   -1.1708738  0.058991516   -2.0840171   0.91314331   504356 
  256000    0.9970097   -2.0834254   -2.0834254   -1.1710739  0.066684819   -2.0834254   0.91235149   504345 
  257000   0.99741347   -2.0841571   -2.0841571   -1.1714144  0.074193743   -2.0841571    0.9127427   504333 
  258000   0.99603608   -2.0825545   -2.0825545   -1.1710506  0.073536368   -2.0825545   0.91150393   504321 
  259000   0.99731473   -2.0836777   -2.0836777    -1.170982   0.05621052   -2.0836777   0.91269577   504309 
  260000   0.99649361   -2.0840562   -2.0840562    -1.172092   0.05932692   -2.0840562   0.91196422   504298 
  261000   0.99663173   -2.0848871   -2.0848871   -1.1727747   0.06230258   -2.0848871   0.91211232   504286 
  262000   0.99634902    -2.084444    -2.084444   -1.1725687   0.06928189    -2.084444   0.91187529   504274 
  263000   0.99760634   -2.0854811   -2.0854811   -1.1724334   0.06847706   -2.0854811   0.91304774   504262 
  264000    0.9982449   -2.0851527   -2.0851527   -1.1715006  0.066862091   -2.0851527    0.9136521   504251 
  265000     0.997248   -2.0836702   -2.0836702   -1.1709088  0.062290454   -2.0836702    0.9127614   504239 
  266000   0.99526188   -2.0826886   -2.0826886   -1.1717233  0.064525493   -2.0826886   0.91096522   504227 
  267000   0.99604356   -2.0838393   -2.0838393   -1.1721369  0.062217738   -2.0838393   0.91170239   504215 
  268000   0.99527089   -2.0829717   -2.0829717   -1.1719566  0.068809868   -2.0829717   0.91101503   504204 
  269000   0.99493042   -2.0824986   -2.0824986   -1.1717735  0.068497895   -2.0824986   0.91072506   504192 
  270000   0.99509986    -2.083057    -2.083057   -1.1721552  0.068364934    -2.083057   0.91090183   504180 
  271000   0.99532362   -2.0826445   -2.0826445   -1.1715161  0.070164419   -2.0826445   0.91112835   504168 
  272000    0.9962152   -2.0828541   -2.0828541   -1.1708878  0.069144046   -2.0828541   0.91196622   504156 
  273000   0.99623407   -2.0844131   -2.0844131   -1.1724097  0.056423178   -2.0844131   0.91200339   504145 
  274000   0.99493966   -2.0830089   -2.0830089   -1.1721688  0.067582623   -2.0830089    0.9108401   504133 
  275000   0.99658852   -2.0850411   -2.0850411   -1.1726698  0.066215805   -2.0850411    0.9123713   504121 
  276000   0.99441276   -2.0830212   -2.0830212   -1.1726202  0.073999799   -2.0830212   0.91040107   504109 
  277000   0.99442881    -2.083456    -2.083456   -1.1730204  0.070588458    -2.083456   0.91043564   504098 
  278000   0.99570862   -2.0845171   -2.0845171   -1.1728881  0.063663248   -2.0845171   0.91162905   504086 
  279000   0.99386277   -2.0830298   -2.0830298    -1.173069  0.069434217   -2.0830298   0.90996073   504074 
  280000   0.99392129   -2.0835705   -2.0835705   -1.1735346  0.052854749   -2.0835705   0.91003597   504062 
  281000   0.99517262   -2.0849898   -2.0849898   -1.1737883  0.072049669   -2.0849898   0.91120158   504051 
  282000   0.99605261   -2.0857735   -2.0857735   -1.1737445  0.065772922   -2.0857735   0.91202903   504039 
  283000    0.9960842   -2.0865554   -2.0865554   -1.1744757  0.078043429   -2.0865554   0.91207967   504027 
  284000   0.99329544   -2.0850053   -2.0850053   -1.1754576  0.065614067   -2.0850053   0.90954776   504015 
  285000   0.99294346   -2.0836714   -2.0836714   -1.1744261  0.066705524   -2.0836714    0.9092453   504004 
  286000   0.99527894   -2.0856522   -2.0856522   -1.1742466  0.055363386   -2.0856522   0.91140561   503992 
  287000   0.99386561   -2.0838081   -2.0838081    -1.173675  0.055039169   -2.0838081   0.91013305   503980 
  288000   0.99163086   -2.0825098   -2.0825098   -1.1744016  0.063528142   -2.0825098    0.9081082   503968 
  289000   0.99177623   -2.0828286   -2.0828286   -1.1745657  0.070146535   -2.0828286   0.90826295   503956 
  290000   0.99434811   -2.0840428   -2.0840428   -1.1734047  0.062239503   -2.0840428   0.91063815   503945 
  291000   0.99547508   -2.0850604   -2.0850604   -1.1733685  0.065296917   -2.0850604   0.91169195   503933 
  292000   0.99413316   -2.0840862   -2.0840862   -1.1736016  0.064432261   -2.0840862   0.91048465   503921 
  293000   0.99501411   -2.0845312   -2.0845312   -1.1732181  0.072501777   -2.0845312   0.91131318   503909 
  294000   0.99554159   -2.0851471   -2.0851471   -1.1733309  0.067515637   -2.0851471   0.91181619   503898 
  295000   0.99496517   -2.0848758   -2.0848758   -1.1735659  0.060566884   -2.0848758   0.91130995   503886 
  296000   0.99426213   -2.0840738   -2.0840738   -1.1733861  0.062715308   -2.0840738   0.91068771   503874 
  297000    0.9922489   -2.0828135   -2.0828135   -1.1739481  0.067728821   -2.0828135   0.90886535   503862 
  298000   0.99254399   -2.0818479   -2.0818479   -1.1726924  0.070117984   -2.0818479   0.90915549   503851 
  299000   0.99143309   -2.0826758   -2.0826758   -1.1745163  0.070389729   -2.0826758   0.90815955   503839 
  300000   0.99274521   -2.0835995   -2.0835995   -1.1742163  0.060561308   -2.0835995   0.90938312   503827 
  301000   0.99518213   -2.0841988   -2.0841988   -1.1725617  0.061010159   -2.0841988   0.91163712   503815 
  302000   0.99491472   -2.0841194   -2.0841194   -1.1727073  0.053575296   -2.0841194   0.91141206   503804 
  303000   0.99434687   -2.0842742   -2.0842742   -1.1733607  0.072654145   -2.0842742   0.91091357   503792 
  304000   0.99590529   -2.0850187   -2.0850187   -1.1726557  0.062074184   -2.0850187   0.91236296   503780 
  305000   0.99543093   -2.0836165   -2.0836165   -1.1716664  0.076476528   -2.0836165   0.91195011   503768 
  306000   0.99467558    -2.082649    -2.082649   -1.1713692  0.064484881    -2.082649   0.91127981   503756 
  307000    0.9963517   -2.0843558   -2.0843558   -1.1715205  0.062501814   -2.0843558   0.91283534   503745 
  308000   0.99599496   -2.0848275   -2.0848275   -1.1722973  0.061897283   -2.0848275   0.91253023   503733 
  309000   0.99708654   -2.0859127   -2.0859127   -1.1723606  0.074620183   -2.0859127    0.9135521   503721 
  310000   0.99649376   -2.0852301   -2.0852301   -1.1721994  0.068735322   -2.0852301   0.91303074   503709 
  311000   0.99579292   -2.0837469   -2.0837469   -1.1713383  0.064720442   -2.0837469   0.91240852   503698 
  312000   0.99507646   -2.0831688   -2.0831688    -1.171395  0.069910493   -2.0831688   0.91177378   503686 
  313000   0.99498526   -2.0834122   -2.0834122   -1.1717003  0.065076902   -2.0834122   0.91171193   503674 
  314000    0.9950024   -2.0837075   -2.0837075   -1.1719582  0.062307409   -2.0837075   0.91174936   503662 
  315000   0.99399437   -2.0831193   -2.0831193   -1.1722737  0.064234839   -2.0831193   0.91084557   503651 
  316000   0.99268627   -2.0830107   -2.0830107   -1.1733421  0.061314897   -2.0830107   0.90966857   503639 
  317000   0.99346673   -2.0836048   -2.0836048   -1.1731994  0.065830401   -2.0836048   0.91040545   503627 
  318000   0.99208357   -2.0825905   -2.0825905   -1.1734309  0.065558898   -2.0825905   0.90915959   503615 
  319000   0.99310762    -2.081882    -2.081882   -1.1717641  0.055599931    -2.081882   0.91011793   503604 
  320000    0.9933536   -2.0817101   -2.0817101    -1.171345  0.061978687   -2.0817101   0.91036504   503592 
  321000   0.99277264   -2.0802848   -2.0802848   -1.1704305  0.067529333   -2.0802848    0.9098543   503580 
  322000   0.99477775   -2.0819538   -2.0819538   -1.1702401  0.070924726   -2.0819538   0.91171367   503568 
  323000   0.99588305   -2.0823869   -2.0823869   -1.1696385  0.065901261   -2.0823869   0.91274843   503556 
  324000   0.99504674   -2.0829576   -2.0829576   -1.1709558  0.071648591   -2.0829576   0.91200185   503545 
  325000   0.99324274   -2.0820799   -2.0820799   -1.1717098  0.060237433   -2.0820799    0.9103701   503533 
  326000   0.99505714   -2.0823642   -2.0823642   -1.1703094  0.060387644   -2.0823642   0.91205485   503521 
  327000   0.99348305   -2.0828436   -2.0828436   -1.1722099  0.064157631   -2.0828436   0.91063377   503509 
  328000   0.99197194   -2.0819525   -2.0819525    -1.172684   0.06197997   -2.0819525   0.90926853   503498 
  329000   0.99268895   -2.0822226   -2.0822226   -1.1722751  0.075636884   -2.0822226   0.90994746   503486 
  330000   0.99109577   -2.0808812   -2.0808812   -1.1723725  0.069988315   -2.0808812   0.90850872   503474 
  331000   0.99360895    -2.083388    -2.083388   -1.1725538  0.056072873    -2.083388   0.91083419   503462 
  332000   0.99301267   -2.0824404   -2.0824404    -1.172133  0.065287738   -2.0824404   0.91030748   503451 
  333000   0.99361992   -2.0823283   -2.0823283   -1.1714424  0.066741096   -2.0823283   0.91088585   503439 
  334000    0.9934402   -2.0834721   -2.0834721   -1.1727293  0.068083585   -2.0834721   0.91074281   503427 
  335000   0.99501114   -2.0849086   -2.0849086   -1.1727039  0.065462326   -2.0849086   0.91220472   503415 
  336000   0.99409845   -2.0837337   -2.0837337   -1.1723458  0.065835312   -2.0837337    0.9113879   503404 
  337000   0.99376471   -2.0834577   -2.0834577   -1.1723541  0.073114492   -2.0834577   0.91110365   503392 
  338000   0.99283814   -2.0824442   -2.0824442   -1.1721683  0.063128744   -2.0824442   0.91027585   503380 
  339000   0.99424538   -2.0835968   -2.0835968    -1.172009  0.063870767   -2.0835968    0.9115878   503368 
  340000   0.99376723   -2.0828453   -2.0828453   -1.1716741  0.067849404   -2.0828453   0.91117112   503356 
  341000    0.9947906   -2.0847456   -2.0847456   -1.1726162  0.064128413   -2.0847456   0.91212937   503345 
  342000    0.9948879   -2.0847263   -2.0847263    -1.172486  0.062566277   -2.0847263   0.91224033   503333 
  343000   0.99281005   -2.0836332   -2.0836332   -1.1732764  0.062729629   -2.0836332    0.9103568   503321 
  344000   0.99200003   -2.0831472   -2.0831472   -1.1735115  0.068298802   -2.0831472   0.90963574   503309 
  345000   0.99361629   -2.0845706   -2.0845706   -1.1734329  0.060399125   -2.0845706   0.91113772   503298 
  346000   0.99266211   -2.0848637   -2.0848637   -1.1745793   0.06506969   -2.0848637   0.91028445   503286 
  347000   0.99045567   -2.0823649   -2.0823649   -1.1740821    0.0689313   -2.0823649   0.90828277   503274 
  348000   0.99111384     -2.08265     -2.08265    -1.173742  0.066560699     -2.08265     0.908908   503262 
  349000   0.99171448   -2.0838234   -2.0838234   -1.1743447  0.064600035   -2.0838234   0.90947871   503251 
  350000   0.99150164    -2.083194    -2.083194   -1.1738888  0.070946418    -2.083194   0.90930519   503239 
  351000    0.9906123   -2.0837792   -2.0837792    -1.175268     0.057745   -2.0837792   0.90851125   503227 
  352000   0.99118239   -2.0836762   -2.0836762   -1.1746205  0.077409586   -2.0836762   0.90905576   503215 
  353000   0.99147401   -2.0836636   -2.0836636   -1.1743206  0.059885366   -2.0836636    0.9093431   503204 
  354000   0.99050369   -2.0831628   -2.0831628    -1.174688  0.059700719   -2.0831628   0.90847482   503192 
  355000   0.99247059   -2.0838346   -2.0838346   -1.1735341  0.051463716   -2.0838346   0.91030055   503180 
  356000    0.9926707   -2.0851936   -2.0851936   -1.1746878  0.063032434   -2.0851936    0.9105058   503168 
  357000   0.99251193   -2.0847429   -2.0847429   -1.1743611  0.074554693   -2.0847429   0.91038188   503156 
  358000   0.99349509   -2.0854674   -2.0854674   -1.1741638   0.06582974   -2.0854674   0.91130361   503145 
  359000   0.99376742   -2.0853927   -2.0853927   -1.1738175  0.064797744   -2.0853927   0.91157515   503133 
  360000   0.99058928   -2.0838205   -2.0838205   -1.1751389  0.073887058   -2.0838205   0.90868154   503121 
  361000   0.99346989   -2.0866151   -2.0866151   -1.1752694  0.063566329   -2.0866151    0.9113457   503109 
  362000   0.99369332   -2.0854665   -2.0854665   -1.1738959  0.061478771   -2.0854665   0.91157059   503098 
  363000   0.99407682   -2.0855638   -2.0855638   -1.1736197  0.066919962   -2.0855638   0.91194415   503086 
  364000   0.99467389   -2.0863517   -2.0863517   -1.1738381  0.066060305   -2.0863517   0.91251365   503074 
  365000   0.99264305   -2.0850481   -2.0850481   -1.1743758  0.076418538   -2.0850481   0.91067228   503062 
  366000   0.99419967   -2.0864583   -2.0864583    -1.174338   0.05287308   -2.0864583   0.91212031   503051 
  367000    0.9929064   -2.0860124   -2.0860124   -1.1750569  0.077727324   -2.0860124   0.91095554   503039 
  368000   0.99194092   -2.0840635   -2.0840635    -1.173972  0.069630847   -2.0840635   0.91009145   503027 
  369000   0.99324288    -2.086179    -2.086179   -1.1748713  0.055664431    -2.086179   0.91130772   503015 
  370000   0.99148877   -2.0839318   -2.0839318   -1.1742136  0.059981272   -2.0839318   0.90971821   503004 
  371000   0.99206887   -2.0842997   -2.0842997   -1.1740275   0.06345562   -2.0842997   0.91027218   502992 
  372000   0.99244346   -2.0848694   -2.0848694   -1.1742318  0.074237022   -2.0848694   0.91063761   502980 
  373000   0.99170929    -2.084289    -2.084289   -1.1743033  0.062304749    -2.084289   0.90998567   502968 
  374000   0.99106339   -2.0837075   -2.0837075   -1.1742929  0.075877945   -2.0837075   0.90941469   502956 
  375000   0.99301989   -2.0857015   -2.0857015   -1.1744715   0.06849859   -2.0857015   0.91122993   502945 
  376000   0.99321181   -2.0856553   -2.0856553   -1.1742275   0.05937494   -2.0856553   0.91142779   502933 
  377000   0.98899804    -2.082352    -2.082352   -1.1747693  0.051586647    -2.082352   0.90758265   502921 
  378000   0.98990662   -2.0832429   -2.0832429   -1.1748048  0.073315563   -2.0832429   0.90843812   502909 
  379000   0.98903409   -2.0831426   -2.0831426   -1.1754854  0.064471239   -2.0831426   0.90765724   502898 
  380000   0.99107604   -2.0836813   -2.0836813   -1.1741284  0.063286626   -2.0836813   0.90955289   502886 
  381000   0.99111953   -2.0852193   -2.0852193   -1.1756048  0.059007601   -2.0852193    0.9096145   502874 
  382000   0.98965012   -2.0832585   -2.0832585   -1.1749709  0.065351301   -2.0832585   0.90828761   502862 
  383000   0.98986788   -2.0818374   -2.0818374   -1.1733301  0.062040511   -2.0818374   0.90850734   502851 
  384000   0.99084295   -2.0834851   -2.0834851   -1.1740612  0.059507903   -2.0834851   0.90942397   502839 
  385000   0.99027234   -2.0840981   -2.0840981   -1.1751761  0.070128625   -2.0840981   0.90892194   502827 
  386000   0.99239591   -2.0849792   -2.0849792   -1.1740864  0.066804699   -2.0849792    0.9108928   502815 
  387000   0.99065844   -2.0843675   -2.0843675   -1.1750496  0.059138878   -2.0843675   0.90931791   502804 
  388000   0.98998604   -2.0830904   -2.0830904   -1.1743679  0.057340261   -2.0830904   0.90872241   502792 
  389000   0.99017562   -2.0838304   -2.0838304   -1.1749123   0.05833161   -2.0838304   0.90891812   502780 
  390000   0.99032229   -2.0847349   -2.0847349   -1.1756604  0.060269857   -2.0847349   0.90907445   502768 
  391000   0.99062293   -2.0849719   -2.0849719   -1.1755998   0.06137143   -2.0849719   0.90937213   502756 
  392000    0.9891616   -2.0839874   -2.0839874   -1.1759368  0.070113254   -2.0839874   0.90805053   502745 
  393000   0.98893471   -2.0838186   -2.0838186   -1.1759547  0.057192681   -2.0838186   0.90786391   502733 
  394000   0.98960679   -2.0838065   -2.0838065   -1.1753039  0.070026932   -2.0838065   0.90850258   502721 
  395000   0.99143682   -2.0852163   -2.0852163    -1.175012  0.064322124   -2.0852163   0.91020436   502709 
  396000    0.9894093   -2.0828192   -2.0828192   -1.1744563  0.077821371   -2.0828192   0.90836283   502698 
  397000   0.98927004   -2.0845907   -2.0845907    -1.176334  0.056934638   -2.0845907   0.90825666   502686 
  398000   0.98998607   -2.0855635   -2.0855635   -1.1766277  0.069221314   -2.0855635   0.90893575   502674 
  399000   0.99171288   -2.0861227   -2.0861227   -1.1755798  0.061911609   -2.0861227   0.91054292   502662 
  400000   0.98935329   -2.0856194   -2.0856194    -1.177223  0.061301662   -2.0856194   0.90839634   502651 
  401000    0.9903918   -2.0862038   -2.0862038   -1.1768322  0.062049184   -2.0862038   0.90937159   502639 
  402000   0.99060574   -2.0854991   -2.0854991   -1.1759093  0.067701129   -2.0854991   0.90958974   502627 
  403000    0.9892646   -2.0852479   -2.0852479    -1.176868  0.062906453   -2.0852479   0.90837997   502615 
  404000   0.98981771   -2.0853949   -2.0853949   -1.1764871  0.063495698   -2.0853949   0.90890775   502604 
  405000   0.98952196   -2.0845262   -2.0845262   -1.1758683   0.06791098   -2.0845262   0.90865787   502592 
  406000   0.99067087   -2.0863607   -2.0863607   -1.1766261  0.064808505   -2.0863607   0.90973461   502580 
  407000   0.99080422   -2.0864254   -2.0864254   -1.1765466  0.064453834   -2.0864254   0.90987879   502568 
  408000   0.98990164   -2.0864139   -2.0864139   -1.1773423  0.065874328   -2.0864139   0.90907163   502556 
  409000   0.99044154   -2.0855813   -2.0855813    -1.175994  0.069502688   -2.0855813   0.90958736   502545 
  410000   0.98955835   -2.0857598   -2.0857598   -1.1769619  0.067830648   -2.0857598   0.90879797   502533 
  411000   0.98885974   -2.0849091   -2.0849091   -1.1767311  0.058633279   -2.0849091   0.90817806   502521 
  412000   0.98926202   -2.0846515   -2.0846515   -1.1760823  0.066353958   -2.0846515   0.90856922   502509 
  413000   0.98916686   -2.0846082   -2.0846082   -1.1761065  0.069134028   -2.0846082    0.9085017   502498 
  414000   0.99027726   -2.0861182   -2.0861182   -1.1765749   0.07552748   -2.0861182   0.90954328   502486 
  415000   0.98897315   -2.0844146   -2.0844146   -1.1760475  0.068537706   -2.0844146   0.90836718   502474 
  416000   0.99069303   -2.0852446   -2.0852446   -1.1752759  0.064809595   -2.0852446   0.90996861   502462 
  417000   0.99037978   -2.0852937   -2.0852937   -1.1755929  0.059060875   -2.0852937    0.9097008   502451 
  418000   0.98997619   -2.0839929   -2.0839929   -1.1746411  0.056613534   -2.0839929   0.90935181   502439 
  419000   0.98986809   -2.0851949   -2.0851949   -1.1759207  0.056004375   -2.0851949   0.90927422   502427 
  420000   0.98959101   -2.0848912   -2.0848912   -1.1758498  0.069304302   -2.0848912   0.90904142   502415 
  421000   0.98780955   -2.0843301   -2.0843301   -1.1769053  0.061718477   -2.0843301   0.90742483   502404 
  422000   0.98933202   -2.0849048   -2.0849048   -1.1760597   0.06919766   -2.0849048   0.90884511   502392 
  423000    0.9893966   -2.0849886   -2.0849886   -1.1760624  0.052899781   -2.0849886   0.90892615   502380 
  424000   0.98848574   -2.0841934   -2.0841934   -1.1760823  0.071460082   -2.0841934   0.90811107   502368 
  425000   0.98746986   -2.0842084   -2.0842084    -1.177009  0.059392593   -2.0842084   0.90719945   502356 
  426000   0.98803091   -2.0841969   -2.0841969   -1.1764621   0.06589758   -2.0841969   0.90773478   502345 
  427000   0.98908158   -2.0847511   -2.0847511   -1.1760293  0.059042497   -2.0847511   0.90872176   502333 
  428000   0.98855573   -2.0835681   -2.0835681   -1.1753077  0.061190195   -2.0835681   0.90826034   502321 
  429000   0.98895275    -2.084014    -2.084014   -1.1753671  0.064592129    -2.084014   0.90864682   502309 
  430000   0.99116238   -2.0851881   -2.0851881   -1.1744912  0.058526899   -2.0851881   0.91069696   502298 
  431000    0.9879921    -2.083032    -2.083032   -1.1752263  0.068343458    -2.083032   0.90780574   502286 
  432000   0.98886787   -2.0836795   -2.0836795   -1.1750473  0.060591366   -2.0836795   0.90863214   502274 
  433000   0.99000972   -2.0830595   -2.0830595   -1.1733565  0.067973922   -2.0830595   0.90970307   502262 
  434000   0.98935802   -2.0832859   -2.0832859   -1.1741618  0.067715989   -2.0832859   0.90912415   502251 
  435000   0.98838972   -2.0823956   -2.0823956   -1.1741395  0.067754675   -2.0823956   0.90825608   502239 
  436000   0.98771439   -2.0805861   -2.0805861   -1.1729289  0.062337843   -2.0805861   0.90765719   502227 
  437000   0.98916426   -2.0822725   -2.0822725   -1.1732612  0.075008531   -2.0822725   0.90901125   502215 
  438000   0.98974319   -2.0842023   -2.0842023   -1.1746391  0.063008883   -2.0842023    0.9095632   502204 
  439000   0.98805178    -2.082959    -2.082959   -1.1749285  0.062475444    -2.082959   0.90803051   502192 
  440000   0.98769866   -2.0814856   -2.0814856   -1.1737579  0.074859529   -2.0814856   0.90772768   502180 
  441000   0.98931001   -2.0821354   -2.0821354   -1.1729051  0.066795281   -2.0821354   0.90923029   502168 
  442000   0.98766598   -2.0812668   -2.0812668   -1.1735258  0.065289858   -2.0812668   0.90774103   502156 
  443000   0.98882494   -2.0824304   -2.0824304   -1.1736043  0.067751295   -2.0824304    0.9088261   502145 
  444000   0.98935899   -2.0832052   -2.0832052   -1.1738665  0.060367466   -2.0832052   0.90933868   502133 
  445000   0.98776215   -2.0825838   -2.0825838   -1.1746911  0.056627502   -2.0825838    0.9078927   502121 
  446000   0.98865976   -2.0829361   -2.0829361   -1.1741966  0.067194796   -2.0829361   0.90873944   502109 
  447000   0.98671245    -2.082835    -2.082835   -1.1758656  0.067994378    -2.082835   0.90696941   502098 
  448000   0.98513318   -2.0818634   -2.0818634    -1.176324  0.051187158   -2.0818634   0.90553942   502086 
  449000   0.98709223   -2.0831704   -2.0831704   -1.1758085  0.053383886   -2.0831704   0.90736187   502074 
  450000   0.98631088   -2.0837415   -2.0837415   -1.1770761  0.054622106   -2.0837415   0.90666531   502062 
  451000   0.98954859   -2.0853932   -2.0853932   -1.1757317  0.060916075   -2.0853932    0.9096615   502051 
  452000   0.98728075   -2.0838778   -2.0838778   -1.1762794    0.0614672   -2.0838778   0.90759843   502039 
  453000   0.98835809   -2.0848442   -2.0848442   -1.1762336  0.059495805   -2.0848442   0.90861055   502027 
  454000   0.98912933   -2.0848809   -2.0848809   -1.1755396  0.064050527   -2.0848809   0.90934129   502015 
  455000   0.98814048   -2.0845599   -2.0845599   -1.1761078  0.075805514   -2.0845599   0.90845211   502004 
  456000   0.98867423   -2.0856448   -2.0856448   -1.1766803  0.056575726   -2.0856448   0.90896454   501992 
  457000   0.98901686   -2.0866553   -2.0866553    -1.177354   0.06783513   -2.0866553   0.90930129   501980 
  458000   0.98785809   -2.0857024   -2.0857024   -1.1774447  0.059428822   -2.0857024   0.90825763   501968 
  459000   0.98833309    -2.086193    -2.086193   -1.1774769  0.051433892    -2.086193   0.90871608   501956 
  460000   0.98678742   -2.0856836   -2.0856836   -1.1783688  0.066544168   -2.0856836    0.9073148   501945 
  461000   0.98542072   -2.0850735   -2.0850735   -1.1789936   0.05953623   -2.0850735   0.90607984   501933 
  462000   0.98621008   -2.0863219   -2.0863219   -1.1794945  0.061973735   -2.0863219   0.90682732   501921 
  463000   0.98512715   -2.0863466   -2.0863466   -1.1804933  0.056716942   -2.0863466   0.90585322   501909 
  464000    0.9858641   -2.0872049   -2.0872049   -1.1806542  0.063532132   -2.0872049   0.90655073   501898 
  465000   0.98624868   -2.0872504   -2.0872504   -1.1803243  0.058880955   -2.0872504   0.90692606   501886 
  466000    0.9863101   -2.0875537   -2.0875537   -1.1805495  0.064391135   -2.0875537   0.90700423   501874 
  467000   0.98451208   -2.0861557   -2.0861557   -1.1807833  0.062183702   -2.0861557   0.90537243   501862 
  468000   0.98324626   -2.0853979   -2.0853979   -1.1811697  0.066545969   -2.0853979   0.90422817   501851 
  469000   0.98674083   -2.0870206   -2.0870206    -1.179557  0.075969179   -2.0870206    0.9074636   501839 
  470000   0.98716822   -2.0895593   -2.0895593   -1.1816809  0.060757165   -2.0895593   0.90787837   501827 
  471000   0.98642873   -2.0873256   -2.0873256   -1.1801056  0.069210983   -2.0873256   0.90721997   501815 
  472000   0.98875649    -2.089446    -2.089446   -1.1800653  0.065026048    -2.089446   0.90938074   501804 
  473000   0.98863254   -2.0887759   -2.0887759   -1.1794874  0.055512263   -2.0887759   0.90928849   501792 
  474000   0.98832055   -2.0886383   -2.0886383    -1.179615   0.07258261   -2.0886383   0.90902328   501780 
  475000   0.98951132   -2.0900286   -2.0900286   -1.1798883  0.077685373   -2.0900286   0.91014027   501768 
  476000   0.98864679   -2.0893614   -2.0893614   -1.1799946  0.069234611   -2.0893614   0.90936684   501756 
  477000   0.98576396   -2.0877189   -2.0877189   -1.1809838  0.073603526   -2.0877189   0.90673506   501745 
  478000    0.9846846   -2.0871498   -2.0871498   -1.1813859  0.065241677   -2.0871498    0.9057639   501733 
  479000   0.98584395    -2.087706    -2.087706    -1.180854  0.067359345    -2.087706   0.90685201   501721 
  480000   0.98565751   -2.0873278   -2.0873278   -1.1806256  0.055107175   -2.0873278    0.9067022   501709 
  481000   0.98628988    -2.088962    -2.088962   -1.1816582  0.067632554    -2.088962   0.90730381   501698 
  482000   0.98307219   -2.0847654   -2.0847654      -1.1804   0.07266533   -2.0847654   0.90436543   501686 
  483000   0.98494115   -2.0871924   -2.0871924    -1.181086  0.048578386   -2.0871924   0.90610643   501674 
  484000   0.98566353   -2.0877968   -2.0877968   -1.1810041  0.056651732   -2.0877968   0.90679268   501662 
  485000   0.98669636   -2.0876313   -2.0876313   -1.1798686  0.056435569   -2.0876313   0.90776277   501651 
  486000   0.98697086   -2.0873581   -2.0873581    -1.179321  0.056950688   -2.0873581   0.90803703   501639 
  487000   0.98784801   -2.0867084   -2.0867084   -1.1778426  0.072910762   -2.0867084   0.90886578   501627 
  488000   0.98838079   -2.0860643   -2.0860643   -1.1766866  0.075248595   -2.0860643   0.90937772   501615 
  489000   0.98722541   -2.0858022   -2.0858022   -1.1774676  0.069013109   -2.0858022    0.9083346   501604 
  490000   0.98647086   -2.0858108   -2.0858108   -1.1781488  0.063419238   -2.0858108   0.90766207   501592 
  491000   0.98654383   -2.0859778   -2.0859778   -1.1782269  0.060805856   -2.0859778   0.90775092   501580 
  492000   0.98580337   -2.0855297   -2.0855297   -1.1784384  0.065905011   -2.0855297    0.9070913   501568 
  493000   0.98602723    -2.085793    -2.085793    -1.178474  0.065641878    -2.085793     0.907319   501556 
  494000   0.98450673   -2.0856162   -2.0856162   -1.1796765  0.054802627   -2.0856162   0.90593974   501545 
  495000   0.98388187   -2.0841208   -2.0841208   -1.1787344  0.064856839   -2.0841208    0.9053864   501533 
  496000   0.98501909   -2.0854035   -2.0854035   -1.1789489  0.051117703   -2.0854035   0.90645458   501521 
  497000   0.98381221   -2.0843677   -2.0843677   -1.1790021  0.063403366   -2.0843677   0.90536563   501509 
  498000   0.98693172   -2.0857075   -2.0857075   -1.1774512  0.060767887   -2.0857075   0.90825632   501498 
  499000   0.98394328   -2.0830208   -2.0830208   -1.1774931  0.076522825   -2.0830208   0.90552778   501486 
  500000   0.98454898   -2.0848523   -2.0848523   -1.1787454  0.065428413   -2.0848523   0.90610688   501474 
  501000   0.98375207   -2.0856729   -2.0856729   -1.1802778  0.073841191   -2.0856729   0.90539514   501462 
  502000   0.98683068   -2.0877329   -2.0877329   -1.1794845  0.057141128   -2.0877329   0.90824845   501451 
  503000   0.98406711   -2.0859026   -2.0859026    -1.180176  0.064902891   -2.0859026   0.90572662   501439 
  504000    0.9850119   -2.0853163   -2.0853163   -1.1786984  0.058080479   -2.0853163    0.9066179   501427 
  505000   0.98492548   -2.0849416   -2.0849416   -1.1783815  0.064690536   -2.0849416   0.90656005   501415 
  506000   0.98260412   -2.0824632   -2.0824632     -1.17802   0.07313726   -2.0824632   0.90444323   501404 
  507000   0.98511293   -2.0844434   -2.0844434   -1.1776692  0.065441455   -2.0844434   0.90677418   501392 
  508000   0.98614999   -2.0842682   -2.0842682   -1.1765177  0.062619159   -2.0842682   0.90775049   501380 
  509000   0.98611009   -2.0843911   -2.0843911   -1.1766556   0.06487789   -2.0843911   0.90773549   501368 
  510000   0.98590653   -2.0850159   -2.0850159    -1.177446  0.060803696   -2.0850159   0.90756983   501356 
  511000    0.9856741   -2.0846578   -2.0846578    -1.177282  0.068576156   -2.0846578   0.90737578   501345 
  512000   0.98579643   -2.0847019   -2.0847019   -1.1771918  0.079062075   -2.0847019   0.90751012   501333 
  513000   0.98776108   -2.0861898   -2.0861898   -1.1768493  0.063052283   -2.0861898   0.90934051   501321 
  514000   0.98632883   -2.0853825   -2.0853825   -1.1773388  0.063235693   -2.0853825    0.9080437   501309 
  515000    0.9866437   -2.0859553   -2.0859553   -1.1776018  0.065770244   -2.0859553   0.90835352   501298 
  516000   0.98544038   -2.0853679   -2.0853679   -1.1781005  0.067326672   -2.0853679    0.9072674   501286 
  517000   0.98618199   -2.0849836   -2.0849836   -1.1770117  0.067569685   -2.0849836   0.90797191   501274 
  518000   0.98616667   -2.0862118   -2.0862118   -1.1782323  0.063979988   -2.0862118   0.90797954   501262 
  519000   0.98447619   -2.0855897   -2.0855897   -1.1791467  0.063349673   -2.0855897   0.90644298   501251 
  520000   0.98554318   -2.0866795   -2.0866795   -1.1792324  0.049007404   -2.0866795   0.90744712   501239 
  521000   0.98294232   -2.0844374   -2.0844374   -1.1793633  0.055238539   -2.0844374   0.90507403   501227 
  522000   0.98425016   -2.0858226   -2.0858226   -1.1795227  0.067065257   -2.0858226   0.90629996   501215 
  523000   0.98400088   -2.0857151   -2.0857151   -1.1796248  0.069608049   -2.0857151   0.90609031   501204 
  524000   0.98424946   -2.0854326   -2.0854326   -1.1790917  0.067343812   -2.0854326   0.90634091   501192 
  525000    0.9855381   -2.0869516   -2.0869516   -1.1794023  0.061961537   -2.0869516   0.90754927   501180 
  526000   0.98600135   -2.0878838   -2.0878838   -1.1798862  0.076018572   -2.0878838    0.9079976   501168 
  527000   0.98529482   -2.0870721   -2.0870721   -1.1797034  0.060806574   -2.0870721    0.9073687   501156 
  528000    0.9854861   -2.0865997   -2.0865997   -1.1790349  0.062443216   -2.0865997   0.90756477   501145 
  529000   0.98439144   -2.0855813   -2.0855813   -1.1790029  0.056972801   -2.0855813   0.90657837   501133 
  530000   0.98519433   -2.0872672   -2.0872672   -1.1799277  0.068586168   -2.0872672   0.90733952   501121 
  531000   0.98489336   -2.0868218   -2.0868218   -1.1797377  0.059372315   -2.0868218   0.90708406   501109 
  532000   0.98323698   -2.0852945   -2.0852945   -1.1797161  0.065070063   -2.0852945   0.90557841   501098 
  533000   0.98389069   -2.0859605   -2.0859605   -1.1797583  0.065890556   -2.0859605   0.90620219   501086 
  534000   0.98276717   -2.0842626   -2.0842626   -1.1790735  0.072379901   -2.0842626   0.90518906   501074 
  535000   0.98291871   -2.0850644   -2.0850644   -1.1797141   0.06395217   -2.0850644   0.90535032   501062 
  536000   0.98285628    -2.085019    -2.085019   -1.1797063  0.057364822    -2.085019   0.90531269   501051 
  537000   0.98458731    -2.087094    -2.087094   -1.1801651   0.06061644    -2.087094   0.90692887   501039 
  538000   0.98508219   -2.0856573   -2.0856573   -1.1782509  0.058966715   -2.0856573   0.90740645   501027 
  539000    0.9835878   -2.0850198   -2.0850198   -1.1789682  0.064981094   -2.0850198    0.9060516   501015 
  540000   0.98214754   -2.0847044   -2.0847044   -1.1799597  0.064788421   -2.0847044   0.90474474   501004 
  541000   0.98176496   -2.0844264   -2.0844264   -1.1800124  0.078491557   -2.0844264   0.90441397   500992 
  542000   0.98156235   -2.0852396   -2.0852396   -1.1809906  0.052159982   -2.0852396   0.90424898   500980 
  543000   0.98257268   -2.0864155   -2.0864155    -1.181214  0.054797273   -2.0864155   0.90520142   500968 
  544000   0.98146428   -2.0856807   -2.0856807   -1.1814787  0.057016561   -2.0856807   0.90420196   500956 
  545000    0.9803802   -2.0842158   -2.0842158   -1.1809927  0.052813001   -2.0842158   0.90322305   500945 
  546000   0.98144523   -2.0847161   -2.0847161   -1.1804902  0.060930755   -2.0847161   0.90422592   500933 
  547000   0.98083017   -2.0841652   -2.0841652   -1.1804843  0.063188689   -2.0841652    0.9036809   500921 
  548000   0.98518458   -2.0875444   -2.0875444   -1.1798298  0.050639775   -2.0875444   0.90771455   500909 
  549000   0.98205496   -2.0857991   -2.0857991   -1.1809482  0.070868003   -2.0857991    0.9048509   500898 
  550000     0.983716    -2.087055    -2.087055   -1.1806519  0.054911972    -2.087055   0.90640307   500886 
  551000   0.98383975   -2.0876715   -2.0876715   -1.1811327  0.063457286   -2.0876715   0.90653881   500874 
  552000   0.98436143   -2.0883789   -2.0883789   -1.1813377  0.059483507   -2.0883789   0.90704123   500862 
  553000   0.98376731   -2.0881997   -2.0881997    -1.181686  0.066650543   -2.0881997    0.9065137   500851 
  554000    0.9842148   -2.0894837   -2.0894837    -1.182536  0.070834544   -2.0894837   0.90694777   500839 
  555000    0.9837659   -2.0893285   -2.0893285   -1.1827727  0.052978648   -2.0893285   0.90655584   500827 
  556000   0.98343898   -2.0890422   -2.0890422   -1.1827659  0.058031183   -2.0890422   0.90627629   500815 
  557000   0.98356972   -2.0886028   -2.0886028   -1.1821861   0.06823867   -2.0886028   0.90641667   500804 
  558000   0.98454761   -2.0896269   -2.0896269   -1.1822873  0.066409134   -2.0896269    0.9073396   500792 
  559000   0.98264043   -2.0887625   -2.0887625   -1.1831588  0.064804382   -2.0887625   0.90560368   500780 
  560000   0.98324845   -2.0883123   -2.0883123   -1.1821265  0.064289631   -2.0883123   0.90618575   500768 
  561000   0.98316365   -2.0887797   -2.0887797   -1.1826504  0.058409875   -2.0887797   0.90612931   500756 
  562000   0.98287648   -2.0888658   -2.0888658   -1.1829812  0.056237033   -2.0888658   0.90588454   500745 
  563000   0.98311128   -2.0892075   -2.0892075   -1.1830849  0.055756875   -2.0892075   0.90612266   500733 
  564000   0.98193324   -2.0876467   -2.0876467   -1.1825881  0.066981105   -2.0876467   0.90505856   500721 
  565000   0.98196056    -2.088521    -2.088521   -1.1834155  0.068655179    -2.088521   0.90510543   500709 
  566000   0.98198123   -2.0878643   -2.0878643   -1.1827199  0.050600539   -2.0878643   0.90514437   500698 
  567000   0.98417008   -2.0897452   -2.0897452   -1.1825615  0.065241161   -2.0897452   0.90718369   500686 
  568000   0.98131646   -2.0877658   -2.0877658   -1.1831908  0.058637745   -2.0877658   0.90457498   500674 
  569000   0.98090074    -2.087163    -2.087163   -1.1829496  0.066890506    -2.087163   0.90421344   500662 
  570000   0.98269268    -2.087954    -2.087954   -1.1820688  0.060069979    -2.087954   0.90588519   500651 
  571000   0.98132278   -2.0873289   -2.0873289   -1.1826849  0.068560325   -2.0873289   0.90464404   500639 
  572000   0.98096154   -2.0871212   -2.0871212   -1.1827885  0.062502263   -2.0871212   0.90433271   500627 
  573000   0.98179745   -2.0874499   -2.0874499   -1.1823249  0.058582625   -2.0874499   0.90512501   500615 
  574000   0.98153786   -2.0880778   -2.0880778   -1.1831722  0.065496634   -2.0880778   0.90490558   500604 
  575000   0.98091682   -2.0875456   -2.0875456   -1.1831909  0.062303364   -2.0875456   0.90435471   500592 
  576000   0.98093581   -2.0875511   -2.0875511   -1.1831572  0.074733143   -2.0875511   0.90439389   500580 
  577000   0.98064114   -2.0873755   -2.0873755   -1.1832316  0.063992575   -2.0873755   0.90414389   500568 
  578000   0.98171395   -2.0880347   -2.0880347     -1.18288  0.052976815   -2.0880347   0.90515471   500556 
  579000   0.97946035   -2.0858051   -2.0858051   -1.1827084  0.062050407   -2.0858051    0.9030967   500545 
  580000   0.98100264   -2.0861883   -2.0861883   -1.1816479  0.065185256   -2.0861883   0.90454043   500533 
  581000   0.98058994   -2.0864766   -2.0864766    -1.182295  0.070415972   -2.0864766   0.90418158   500521 
  582000   0.98087486   -2.0870523   -2.0870523   -1.1825864  0.066007026   -2.0870523   0.90446598   500509 
  583000   0.98083917   -2.0879076   -2.0879076   -1.1834547  0.062501211   -2.0879076   0.90445295   500498 
  584000   0.98009048   -2.0872203   -2.0872203   -1.1834361  0.062307524   -2.0872203   0.90378424   500486 
  585000   0.98115183   -2.0881907   -2.0881907   -1.1834061  0.058285327   -2.0881907   0.90478465   500474 
  586000     0.980114   -2.0871406   -2.0871406   -1.1832913  0.059968238   -2.0871406   0.90384927   500462 
  587000    0.9793197   -2.0859062   -2.0859062   -1.1827696  0.053428337   -2.0859062   0.90313663   500451 
  588000   0.97905934   -2.0858473   -2.0858473   -1.1829291  0.064057521   -2.0858473   0.90291817   500439 
  589000   0.98078192   -2.0871247   -2.0871247   -1.1825962  0.067165867   -2.0871247   0.90452847   500427 
  590000   0.97966533   -2.0873193   -2.0873193    -1.183799  0.058305639   -2.0873193   0.90352036   500415 
  591000   0.98105474   -2.0880624   -2.0880624   -1.1832407  0.066753589   -2.0880624   0.90482167   500404 
  592000   0.97921715   -2.0868728   -2.0868728   -1.1837243  0.056283343   -2.0868728   0.90314853   500392 
  593000    0.9791195   -2.0865773   -2.0865773   -1.1834971  0.059415935   -2.0865773   0.90308012   500380 
  594000   0.98128656   -2.0879352   -2.0879352   -1.1828346  0.066443624   -2.0879352   0.90510059   500368 
  595000    0.9790016   -2.0860889   -2.0860889   -1.1830742  0.063804541   -2.0860889   0.90301469   500356 
  596000   0.97965916   -2.0878946   -2.0878946   -1.1842535  0.068050602   -2.0878946   0.90364108   500345 
  597000   0.97871652   -2.0876187   -2.0876187   -1.1848254  0.059296229   -2.0876187   0.90279324   500333 
  598000   0.97943119   -2.0874633   -2.0874633   -1.1839891   0.05850742   -2.0874633   0.90347414   500321 
  599000    0.9816406   -2.0883921   -2.0883921   -1.1828582  0.055904865   -2.0883921   0.90553392   500309 
  600000   0.98105559   -2.0889887   -2.0889887   -1.1839745  0.067263036   -2.0889887   0.90501417   500298 
  601000   0.98044292   -2.0892947   -2.0892947   -1.1848241   0.05768708   -2.0892947   0.90447068   500286 
  602000    0.9820432    -2.090509    -2.090509   -1.1845403   0.05398551    -2.090509   0.90596868   500274 
  603000   0.98253846   -2.0899501   -2.0899501   -1.1835028  0.067007834   -2.0899501   0.90644732   500262 
  604000   0.98066391   -2.0891753   -2.0891753   -1.1844375   0.05687606   -2.0891753   0.90473784   500251 
  605000   0.97892274   -2.0876658   -2.0876658   -1.1845126  0.066744172   -2.0876658   0.90315314   500239 
  606000   0.97962779   -2.0882558   -2.0882558   -1.1844305  0.065097791   -2.0882558    0.9038253   500227 
  607000   0.98147821   -2.0896086   -2.0896086   -1.1840543  0.063146784   -2.0896086   0.90555426   500215 
  608000   0.98081865   -2.0889088   -2.0889088   -1.1839432  0.063446664   -2.0889088   0.90496562   500204 
  609000    0.9821889   -2.0895925   -2.0895925   -1.1833409  0.058830504   -2.0895925   0.90625164   500192 
  610000   0.98212379   -2.0892341   -2.0892341   -1.1830207  0.069748251   -2.0892341    0.9062133   500180 
  611000   0.98047802   -2.0867399   -2.0867399   -1.1820234  0.070653547   -2.0867399   0.90471645   500168 
  612000   0.98190009   -2.0876482   -2.0876482   -1.1815978  0.062860874   -2.0876482   0.90605037   500156 
  613000   0.98135294   -2.0886343   -2.0886343   -1.1830689  0.073756738   -2.0886343    0.9055654   500145 
  614000   0.98171734   -2.0885752   -2.0885752   -1.1826518  0.052693179   -2.0885752    0.9059234   500133 
  615000   0.98027355   -2.0867904   -2.0867904   -1.1821776  0.067742892   -2.0867904   0.90461278   500121 
  616000   0.98029716   -2.0879925   -2.0879925   -1.1833362   0.05557381   -2.0879925   0.90465627   500109 
  617000   0.97776898   -2.0854171   -2.0854171   -1.1830741   0.06851806   -2.0854171   0.90234302   500098 
  618000   0.97760984    -2.085089    -2.085089   -1.1828712  0.052974593    -2.085089   0.90221781   500086 
  619000   0.97823847    -2.085977    -2.085977   -1.1831574  0.053711846    -2.085977   0.90281962   500074 
  620000   0.97697937   -2.0841867   -2.0841867   -1.1825075  0.064925852   -2.0841867   0.90167923   500062 
  621000   0.97772947   -2.0850083   -2.0850083    -1.182617   0.06102451   -2.0850083   0.90239137   500051 
  622000   0.97620084   -2.0841598   -2.0841598   -1.1831576   0.05810794   -2.0841598   0.90100215   500039 
  623000   0.97778112   -2.0844953   -2.0844953   -1.1820129  0.071278092   -2.0844953   0.90248235   500027 
  624000   0.97725188   -2.0844073   -2.0844073   -1.1823917  0.059596478   -2.0844073   0.90201552   500015 
  625000   0.97771753    -2.084056    -2.084056   -1.1815908  0.063217434    -2.084056   0.90246517   500004 
  626000   0.97891307   -2.0851231   -2.0851231   -1.1815327  0.061430989   -2.0851231   0.90359038   499992 
  627000   0.97748857    -2.084765    -2.084765   -1.1824679  0.059053639    -2.084765   0.90229714   499980 
  628000   0.97794147   -2.0850336   -2.0850336   -1.1822968  0.061670206   -2.0850336   0.90273687   499968 
  629000   0.97797199   -2.0845914   -2.0845914   -1.1818047  0.068377668   -2.0845914   0.90278671   499956 
  630000   0.97954314    -2.086823    -2.086823    -1.182566  0.056479558    -2.086823   0.90425696   499945 
  631000   0.97645878    -2.084645    -2.084645   -1.1832137  0.060903211    -2.084645   0.90143131   499933 
  632000   0.97794363   -2.0860225   -2.0860225   -1.1831987  0.059241287   -2.0860225   0.90282374   499921 
  633000   0.97767789   -2.0863603   -2.0863603   -1.1837603  0.053070371   -2.0863603   0.90260007   499909 
  634000   0.97861964   -2.0858234   -2.0858234    -1.182334  0.055911461   -2.0858234   0.90348938   499898 
  635000    0.9771439   -2.0843319   -2.0843319   -1.1821833  0.056362684   -2.0843319    0.9021486   499886 
  636000   0.97796485   -2.0862485   -2.0862485   -1.1833203  0.063479853   -2.0862485   0.90292821   499874 
  637000   0.97973356    -2.087675    -2.087675   -1.1830921  0.056196258    -2.087675   0.90458293   499862 
  638000   0.97942077   -2.0866894   -2.0866894   -1.1823753  0.059259902   -2.0866894   0.90431403   499851 
  639000   0.97919767   -2.0875895   -2.0875895   -1.1834598  0.052994041   -2.0875895   0.90412974   499839 
  640000   0.97773081   -2.0861627   -2.0861627   -1.1833657  0.065184999   -2.0861627   0.90279701   499827 
  641000   0.97763103   -2.0858078   -2.0858078   -1.1830813  0.063607829   -2.0858078   0.90272656   499815 
  642000   0.98031103   -2.0883045   -2.0883045   -1.1830833   0.05962903   -2.0883045   0.90522114   499804 
  643000   0.97649766   -2.0860507   -2.0860507   -1.1843292   0.06623737   -2.0860507   0.90172151   499792 
  644000   0.97861114   -2.0876279   -2.0876279    -1.183933  0.061103897   -2.0876279   0.90369485   499780 
  645000   0.97849459   -2.0877832   -2.0877832   -1.1841743  0.065837378   -2.0877832   0.90360892   499768 
  646000   0.97923599   -2.0883102   -2.0883102   -1.1839949  0.057693565   -2.0883102    0.9043153   499756 
  647000   0.97785111   -2.0874867   -2.0874867   -1.1844305  0.059827275   -2.0874867   0.90305625   499745 
  648000   0.97725046   -2.0883841   -2.0883841   -1.1858609  0.065558765   -2.0883841   0.90252321   499733 
  649000   0.97893471   -2.0899952   -2.0899952   -1.1858948  0.066062533   -2.0899952   0.90410038   499721 
  650000   0.97800882   -2.0890473   -2.0890473   -1.1857803  0.051807785   -2.0890473   0.90326697   499709 
  651000   0.97673787   -2.0873812   -2.0873812   -1.1852682  0.066644055   -2.0873812     0.902113   499698 
  652000   0.97775823    -2.088823    -2.088823   -1.1857459  0.055561377    -2.088823   0.90307709   499686 
  653000   0.97808629    -2.089608    -2.089608   -1.1862063  0.064493847    -2.089608   0.90340178   499674 
  654000   0.97756146   -2.0891296   -2.0891296   -1.1861909  0.063483562   -2.0891296   0.90293872   499662 
  655000   0.97751166   -2.0890093   -2.0890093   -1.1860967  0.064033856   -2.0890093    0.9029126   499651 
  656000   0.97753346   -2.0888662   -2.0888662   -1.1859118  0.055002256   -2.0888662   0.90295442   499639 
  657000    0.9752733   -2.0863726   -2.0863726   -1.1854843  0.065099914   -2.0863726   0.90088833   499627 
[...]
16507000   0.35734294   -1.2130946   -1.2130946  -0.68645318  0.027331751   -1.2130946    0.5266414   313156 
16508000   0.35687084   -1.2123582   -1.2123582  -0.68639413  0.029906024   -1.2123582    0.5259641   313145 
16509000   0.35648392   -1.2115191   -1.2115191  -0.68610513  0.037230098   -1.2115191     0.525414   313133 
16510000   0.35750945   -1.2124698   -1.2124698  -0.68552412  0.036351555   -1.2124698   0.52694569   313121 
16511000   0.35825613    -1.212604    -1.212604  -0.68453752  0.032204849    -1.212604   0.52806648   313109 
16512000   0.35889426   -1.2139356   -1.2139356  -0.68490988  0.026750774   -1.2139356   0.52902567   313098 
16513000   0.35742946    -1.212243    -1.212243  -0.68535635  0.032289149    -1.212243   0.52688669   313086 
16514000   0.35968332   -1.2159646   -1.2159646  -0.68573522  0.029851115   -1.2159646   0.53022941   313074 
16515000   0.35754745   -1.2128138   -1.2128138  -0.68571275  0.032893108   -1.2128138   0.52710103   313062 
16516000   0.35763822   -1.2126467   -1.2126467   -0.6853933  0.039734876   -1.2126467   0.52725335   313051 
16517000   0.35809523   -1.2137886   -1.2137886  -0.68584124  0.036630747   -1.2137886   0.52794735   313039 
16518000   0.35772678   -1.2130639   -1.2130639  -0.68563952  0.034706782   -1.2130639   0.52742436   313027 
16519000   0.35732083    -1.212184    -1.212184  -0.68533794  0.031938212    -1.212184   0.52684603   313015 
16520000   0.35732631   -1.2123472   -1.2123472  -0.68547458  0.035913138   -1.2123472   0.52687262   313004 
16521000   0.35769637   -1.2128313   -1.2128313  -0.68539278  0.026568281   -1.2128313    0.5274385   312992 
16522000   0.35753428   -1.2123306   -1.2123306  -0.68511086  0.028460294   -1.2123306    0.5272197   312980 
16523000   0.35734669    -1.211957    -1.211957  -0.68499369  0.022887066    -1.211957   0.52696328   312968 
16524000   0.35706161   -1.2111138   -1.2111138  -0.68455069  0.035214558   -1.2111138   0.52656307   312956 
16525000   0.35747254   -1.2112961   -1.2112961  -0.68410845  0.027890513   -1.2112961   0.52718761   312945 
16526000   0.35639936   -1.2100814   -1.2100814  -0.68445634  0.023000715   -1.2100814   0.52562507   312933 
16527000   0.35668312   -1.2102678   -1.2102678  -0.68420407  0.025626439   -1.2102678   0.52606374   312921 
16528000    0.3572967   -1.2099912   -1.2099912  -0.68300232  0.026646067   -1.2099912   0.52698891   312909 
16529000   0.35712345    -1.209743    -1.209743  -0.68299112  0.021564206    -1.209743    0.5267519   312898 
16530000   0.35580245   -1.2082654   -1.2082654   -0.6834418  0.030932855   -1.2082654   0.52482357   312886 
16531000   0.35718877   -1.2104451   -1.2104451  -0.68355644  0.035818889   -1.2104451   0.52688865   312874 
16532000   0.35731015   -1.2120662   -1.2120662  -0.68497831  0.035042823   -1.2120662   0.52708792   312862 
16533000   0.35864806   -1.2135274   -1.2135274  -0.68444721  0.025361007   -1.2135274   0.52908015   312851 
16534000   0.35551739    -1.209319    -1.209319  -0.68483715  0.029536582    -1.209319   0.52448188   312839 
16535000     0.356861   -1.2111557   -1.2111557  -0.68467139   0.02708536   -1.2111557   0.52648426   312827 
16536000    0.3567976   -1.2108409   -1.2108409  -0.68443001  0.029377514   -1.2108409   0.52641091   312815 
16537000   0.35661906   -1.2107375   -1.2107375  -0.68457151  0.026185564   -1.2107375   0.52616599   312804 
16538000   0.35574736   -1.2086816   -1.2086816   -0.6837816  0.028127258   -1.2086816   0.52490001   312792 
16539000   0.35595578   -1.2082351   -1.2082351  -0.68300744  0.033504525   -1.2082351   0.52522767   312780 
16540000   0.35597405   -1.2094476   -1.2094476  -0.68417278  0.026487339   -1.2094476   0.52527479   312768 
16541000   0.35742375   -1.2117864   -1.2117864  -0.68435221  0.026367085   -1.2117864   0.52743419   312756 
16542000   0.35767031   -1.2113535   -1.2113535  -0.68353686  0.028724612   -1.2113535    0.5278166   312745 
16543000   0.35644811   -1.2106906   -1.2106906  -0.68465745  0.035104033   -1.2106906   0.52603317   312733 
16544000   0.35697636   -1.2114139   -1.2114139   -0.6845809   0.02610162   -1.2114139   0.52683296   312721 
16545000   0.35551349   -1.2095415   -1.2095415  -0.68484737  0.024633079   -1.2095415   0.52469417   312709 
16546000    0.3559312   -1.2105189   -1.2105189  -0.68518976  0.029506267   -1.2105189   0.52532912   312698 
16547000   0.35638427    -1.211091    -1.211091  -0.68507304  0.037703002    -1.211091   0.52601801   312686 
16548000   0.35454118    -1.207929    -1.207929  -0.68461131  0.021526897    -1.207929   0.52331772   312674 
16549000   0.35538864    -1.208236    -1.208236  -0.68364724  0.028694684    -1.208236   0.52458874   312662 
16550000   0.35620306   -1.2090286   -1.2090286  -0.68321918  0.026286892   -1.2090286    0.5258094   312651 
16551000   0.35576607   -1.2085177   -1.2085177  -0.68333316  0.027828374   -1.2085177    0.5251845   312639 
16552000    0.3556167   -1.2095407   -1.2095407  -0.68455656  0.028077321   -1.2095407   0.52498414   312627 
16553000    0.3553952   -1.2080929   -1.2080929  -0.68341562  0.032786531   -1.2080929    0.5246773   312615 
16554000    0.3555544   -1.2077946   -1.2077946  -0.68286384  0.033211465   -1.2077946    0.5249308   312604 
16555000   0.35581232   -1.2087304   -1.2087304  -0.68339863  0.036006407   -1.2087304   0.52533175   312592 
16556000   0.35513901   -1.2080955   -1.2080955  -0.68373773   0.03466876   -1.2080955   0.52435779   312580 
16557000   0.35664197   -1.2094199   -1.2094199   -0.6828228  0.030270253   -1.2094199   0.52659709   312568 
16558000   0.35540241   -1.2074902   -1.2074902  -0.68270319  0.034074549   -1.2074902   0.52478699   312556 
16559000    0.3567192   -1.2096413   -1.2096413  -0.68289136  0.016557607   -1.2096413   0.52674989   312545 
16560000   0.35608455   -1.2088006   -1.2088006  -0.68296768  0.034465042   -1.2088006   0.52583292   312533 
16561000   0.35536135   -1.2075041   -1.2075041  -0.68271901  0.032922287   -1.2075041   0.52478511   312521 
16562000   0.35516391   -1.2066095   -1.2066095  -0.68209582  0.030074549   -1.2066095   0.52451368   312509 
16563000   0.35566372   -1.2077446   -1.2077446  -0.68247432  0.027831624   -1.2077446   0.52527031   312498 
16564000   0.35510189   -1.2071541   -1.2071541  -0.68269343  0.031577387   -1.2071541   0.52446069   312486 
16565000   0.35494419   -1.2066996   -1.2066996  -0.68245169  0.030909234   -1.2066996   0.52424792   312474 
16566000   0.35622495   -1.2078915   -1.2078915  -0.68173167  0.028145885   -1.2078915   0.52615979   312462 
16567000   0.35692176   -1.2089569   -1.2089569  -0.68174933  0.032554051   -1.2089569   0.52720756   312451 
16568000   0.35531892   -1.2063002   -1.2063002  -0.68144007  0.032965686   -1.2063002   0.52486017   312439 
16569000   0.35707751   -1.2088634   -1.2088634  -0.68138529   0.02669785   -1.2088634   0.52747813   312427 
16570000   0.35593221   -1.2081379   -1.2081379  -0.68233142  0.027701472   -1.2081379   0.52580648   312415 
16571000    0.3553793   -1.2082062   -1.2082062  -0.68319803  0.029541158   -1.2082062   0.52500817   312404 
16572000    0.3549306   -1.2071392   -1.2071392  -0.68277374  0.029206194   -1.2071392   0.52436544   312392 
16573000   0.35431661   -1.2066993   -1.2066993  -0.68322088  0.032733488   -1.2066993   0.52347846   312380 
16574000   0.35513067    -1.206952    -1.206952  -0.68225066  0.034406987    -1.206952   0.52470133   312368 
16575000   0.35435526   -1.2054255   -1.2054255  -0.68184972  0.028311377   -1.2054255   0.52357579   312356 
16576000   0.35528478   -1.2056039   -1.2056039  -0.68063619  0.041294979   -1.2056039   0.52496769   312345 
16577000   0.35459405   -1.2045677   -1.2045677  -0.68060048   0.03384387   -1.2045677   0.52396719   312333 
16578000    0.3546771   -1.2048364   -1.2048364  -0.68072636  0.029760249   -1.2048364   0.52411005   312321 
16579000   0.35427568   -1.2054897   -1.2054897  -0.68195271  0.034964461   -1.2054897   0.52353699   312309 
16580000   0.35461408   -1.2059966   -1.2059966  -0.68194107  0.019369209   -1.2059966   0.52405552   312298 
16581000   0.35513057   -1.2085069   -1.2085069   -0.6836679  0.036275094   -1.2085069   0.52483896   312286 
16582000   0.35424799   -1.2074541   -1.2074541  -0.68389938  0.033978558   -1.2074541   0.52355474   312274 
16583000    0.3554588   -1.2084993   -1.2084993   -0.6831349  0.034039658   -1.2084993   0.52536443   312262 
16584000   0.35450453   -1.2069181   -1.2069181  -0.68294561  0.030302157   -1.2069181   0.52397249   312251 
16585000   0.35396443   -1.2057909   -1.2057909  -0.68259664  0.032586759   -1.2057909    0.5231943   312239 
16586000   0.35512078   -1.2066682   -1.2066682  -0.68174453  0.026733144   -1.2066682   0.52492366   312227 
16587000   0.35468102   -1.2062434   -1.2062434  -0.68194962  0.033429638   -1.2062434   0.52429378   312215 
16588000   0.35356768   -1.2052104   -1.2052104   -0.6825439  0.033818228   -1.2052104   0.52266645   312204 
16589000   0.35431279   -1.2054156   -1.2054156  -0.68162753  0.036073615   -1.2054156   0.52378805   312192 
16590000   0.35396664   -1.2052763   -1.2052763  -0.68197982  0.030724176   -1.2052763   0.52329644   312180 
16591000   0.35312456   -1.2044908   -1.2044908  -0.68241919   0.03232661   -1.2044908    0.5220716   312168 
16592000    0.3550791    -1.207324    -1.207324  -0.68234257   0.03909645    -1.207324   0.52498145   312156 
16593000   0.35448238   -1.2057702   -1.2057702  -0.68165256  0.032993683   -1.2057702   0.52411766   312145 
16594000    0.3547033   -1.2075481   -1.2075481  -0.68308364  0.032868742   -1.2075481   0.52446446   312133 
16595000   0.35283331   -1.2043573   -1.2043573  -0.68263776  0.023049304   -1.2043573   0.52171955   312121 
16596000   0.35310101   -1.2045732   -1.2045732  -0.68243773  0.028916893   -1.2045732   0.52213547   312109 
16597000   0.35460902   -1.2054035   -1.2054035  -0.68101966  0.027077054   -1.2054035   0.52438386   312098 
16598000   0.35461802   -1.2053105   -1.2053105  -0.68089321  0.028868102   -1.2053105   0.52441733   312086 
16599000   0.35459007   -1.2053323   -1.2053323  -0.68093611  0.045294681   -1.2053323   0.52439617   312074 
16600000    0.3534064    -1.204731    -1.204731   -0.6820652  0.032182173    -1.204731   0.52266576   312062 
16601000   0.35383081   -1.2055005   -1.2055005  -0.68218862   0.03035467   -1.2055005   0.52331189   312051 
16602000   0.35556765   -1.2070222   -1.2070222  -0.68112137  0.033407622   -1.2070222   0.52590086   312039 
16603000   0.35286858   -1.2041199   -1.2041199  -0.68219103  0.032552204   -1.2041199    0.5219289   312027 
16604000   0.35357068   -1.2049595   -1.2049595  -0.68197199  0.032639888   -1.2049595   0.52298749   312015 
16605000    0.3528921   -1.2040688   -1.2040688  -0.68206662  0.032325894   -1.2040688   0.52200216   312004 
16606000   0.35348125   -1.2048091   -1.2048091   -0.6819154  0.024031077   -1.2048091   0.52289375   311992 
16607000   0.35367177   -1.2042641   -1.2042641   -0.6810684  0.033078358   -1.2042641    0.5231957   311980 
16608000   0.35363945   -1.2048124   -1.2048124  -0.68164441  0.040832255   -1.2048124   0.52316802   311968 
16609000   0.35366657   -1.2050925   -1.2050925  -0.68186424  0.027551465   -1.2050925   0.52322826   311956 
16610000   0.35365426   -1.2042094   -1.2042094  -0.68098091  0.027272857   -1.2042094    0.5232285   311945 
16611000   0.35277555   -1.2034298   -1.2034298  -0.68148129  0.025284593   -1.2034298   0.52194853   311933 
16612000   0.35318373    -1.202676    -1.202676  -0.68010344  0.035022727    -1.202676   0.52257257   311921 
16613000   0.35325968   -1.2017639   -1.2017639   -0.6790589  0.031933495   -1.2017639   0.52270504   311909 
16614000   0.35370682   -1.2023767   -1.2023767  -0.67899161  0.037893442   -1.2023767   0.52338512   311898 
16615000   0.35357321   -1.2026744   -1.2026744  -0.67946688   0.03445589   -1.2026744   0.52320755   311886 
16616000   0.35406919   -1.2035663   -1.2035663  -0.67960463  0.026993344   -1.2035663   0.52396164   311874 
16617000   0.35350118   -1.2021391   -1.2021391  -0.67899787  0.039986295   -1.2021391   0.52314121   311862 
16618000   0.35370169   -1.2031703   -1.2031703  -0.67971389  0.032469991   -1.2031703    0.5234564   311851 
16619000   0.35399887   -1.2032103   -1.2032103  -0.67929394  0.028654368   -1.2032103   0.52391638   311839 
16620000   0.35461112   -1.2046723   -1.2046723   -0.6798296  0.030996121   -1.2046723    0.5248427   311827 
16621000   0.35371717   -1.2030918   -1.2030918  -0.67955202  0.035094175   -1.2030918   0.52353975   311815 
16622000   0.35405932   -1.2035591   -1.2035591  -0.67949441  0.027803366   -1.2035591   0.52406466   311804 
16623000   0.35577547    -1.206753    -1.206753  -0.68012791  0.035875296    -1.206753   0.52662511   311792 
16624000   0.35379523   -1.2035786   -1.2035786  -0.67986448  0.030718782   -1.2035786   0.52371407   311780 
16625000     0.353639   -1.2039125   -1.2039125  -0.68040955  0.036296934   -1.2039125   0.52350296   311768 
16626000   0.35454023   -1.2039946   -1.2039946  -0.67913736   0.02774828   -1.2039946   0.52485729   311756 
16627000   0.35364835   -1.2018969   -1.2018969  -0.67834145  0.040298865   -1.2018969   0.52355543   311745 
16628000   0.35270975    -1.200918    -1.200918  -0.67873203  0.032624508    -1.200918   0.52218599   311733 
16629000   0.35219218   -1.1996279   -1.1996279  -0.67818808  0.035957873   -1.1996279    0.5214398   311721 
16630000   0.35410248   -1.2029419   -1.2029419  -0.67865364  0.025350005   -1.2029419   0.52428829   311709 
16631000   0.35347051   -1.2020413   -1.2020413  -0.67867023  0.023193694   -1.2020413   0.52337105   311698 
16632000   0.35229072   -1.2012283   -1.2012283  -0.67958401  0.031304298   -1.2012283   0.52164426   311686 
16633000   0.35344814   -1.2028536   -1.2028536  -0.67947539   0.03534401   -1.2028536   0.52337822   311674 
16634000   0.35224917   -1.2009724   -1.2009724  -0.67934954  0.027596773   -1.2009724    0.5216229   311662 
16635000   0.35420395   -1.2028267   -1.2028267  -0.67829061   0.02219377   -1.2028267   0.52453612   311651 
16636000   0.35409736   -1.2027619   -1.2027619  -0.67836339   0.03112611   -1.2027619   0.52439846   311639 
16637000     0.353185   -1.2016356   -1.2016356  -0.67856813   0.03179525   -1.2016356   0.52306746   311627 
16638000   0.35350061   -1.2021644   -1.2021644  -0.67860938  0.036513795   -1.2021644   0.52355504   311615 
16639000   0.35335175   -1.2008489   -1.2008489  -0.67749588  0.027951527   -1.2008489   0.52335304   311604 
16640000   0.35463697   -1.2018578   -1.2018578  -0.67658098  0.025089134   -1.2018578   0.52527681   311592 
16641000   0.35334038   -1.2004471   -1.2004471  -0.67707061  0.031255154   -1.2004471   0.52337651   311580 
16642000    0.3528918   -1.2001633   -1.2001633  -0.67743113  0.023648114   -1.2001633   0.52273219   311568 
16643000   0.35301291   -1.1999462   -1.1999462   -0.6770145  0.031586975   -1.1999462   0.52293173   311556 
16644000   0.35363586   -1.2006054   -1.2006054  -0.67673238  0.021432588   -1.2006054   0.52387303   311545 
16645000   0.35404238   -1.2005869   -1.2005869  -0.67609147  0.024964509   -1.2005869   0.52449545   311533 
16646000   0.35350534   -1.1992795   -1.1992795  -0.67555946  0.036283499   -1.1992795   0.52372002   311521 
16647000   0.35272879   -1.1989762   -1.1989762  -0.67638654  0.026386994   -1.1989762   0.52258968   311509 
16648000   0.35337029   -1.1990267   -1.1990267  -0.67546813  0.034742128   -1.1990267    0.5235586   311498 
16649000   0.35231643   -1.1972064   -1.1972064  -0.67518908  0.025410992   -1.1972064    0.5220173   311486 
16650000   0.35443838   -1.2009255   -1.2009255  -0.67574397  0.037164771   -1.2009255   0.52518156   311474 
16651000   0.35230477    -1.198098    -1.198098  -0.67605777  0.040300057    -1.198098   0.52204024   311462 
16652000    0.3526345   -1.1994985   -1.1994985  -0.67695126   0.03103093   -1.1994985   0.52254728   311451 
16653000   0.35298067   -1.1985261   -1.1985261  -0.67544572  0.030614499   -1.1985261    0.5230804   311439 
16654000   0.35350075   -1.1988654   -1.1988654  -0.67499408  0.028589497   -1.1988654    0.5238713   311427 
16655000   0.35306553   -1.1981912   -1.1981912  -0.67494471  0.017483858   -1.1981912   0.52324649   311415 
16656000   0.35293006   -1.1963221   -1.1963221  -0.67325788  0.041201637   -1.1963221    0.5230642   311404 
16657000   0.35340037   -1.1971658   -1.1971658   -0.6733844  0.027466813   -1.1971658    0.5237814   311392 
16658000   0.35315488   -1.1966791   -1.1966791  -0.67324137  0.037780699   -1.1966791   0.52343774   311380 
16659000   0.35272716   -1.1955107   -1.1955107  -0.67268675  0.028678887   -1.1955107   0.52282393   311368 
16660000   0.35494358   -1.1973535   -1.1973535  -0.67122403  0.020578486   -1.1973535   0.52612945   311356 
16661000   0.35302636   -1.1957317   -1.1957317  -0.67242567   0.02399772   -1.1957317   0.52330606   311345 
16662000   0.35224924   -1.1945664   -1.1945664  -0.67239217  0.029959827   -1.1945664   0.52217424   311333 
16663000     0.352156   -1.1948609   -1.1948609  -0.67280475  0.031907611   -1.1948609   0.52205613   311321 
16664000   0.35262967   -1.1954378   -1.1954378  -0.67265931    0.0322574   -1.1954378   0.52277848   311309 
16665000   0.35290327   -1.1956475   -1.1956475   -0.6724449  0.032272414   -1.1956475   0.52320258   311298 
16666000   0.35391575   -1.1969903   -1.1969903  -0.67226641  0.037166467   -1.1969903   0.52472388   311286 
16667000   0.35260621   -1.1966783   -1.1966783  -0.67387587   0.02748802   -1.1966783   0.52280248   311274 
16668000    0.3511643   -1.1947027   -1.1947027  -0.67401804  0.025087984   -1.1947027   0.52068466   311262 
16669000   0.35200322   -1.1963388   -1.1963388  -0.67439183  0.020584726   -1.1963388     0.521947   311251 
16670000   0.35248008   -1.1976585   -1.1976585  -0.67498424  0.025263298   -1.1976585   0.52267424   311239 
16671000   0.35156829   -1.1965014   -1.1965014  -0.67515908  0.037815721   -1.1965014   0.52134229   311227 
16672000    0.3523106   -1.1973947   -1.1973947  -0.67493149  0.034164522   -1.1973947   0.52246322   311215 
16673000   0.35190874   -1.1973077   -1.1973077  -0.67542197  0.036935623   -1.1973077   0.52188571   311204 
16674000   0.35255954   -1.1971953   -1.1971953  -0.67432432  0.028390536   -1.1971953   0.52287102   311192 
16675000   0.35237461   -1.1964048   -1.1964048   -0.6737879    0.0262824   -1.1964048   0.52261691   311180 
16676000   0.35268637   -1.1971612   -1.1971612  -0.67406169  0.020892592   -1.1971612   0.52309946   311168 
16677000   0.35249942   -1.1964929   -1.1964929  -0.67365058  0.040876625   -1.1964929   0.52284235   311156 
16678000   0.35117797   -1.1939323   -1.1939323  -0.67303157  0.019463937   -1.1939323   0.52090073   311145 
16679000   0.35128927   -1.1948401   -1.1948401  -0.67375418  0.032085537   -1.1948401   0.52108592   311133 
16680000   0.35172811   -1.1945093   -1.1945093  -0.67275229  0.029477072   -1.1945093   0.52175699   311121 
16681000   0.35071973   -1.1945003   -1.1945003  -0.67421911  0.021702229   -1.1945003   0.52028122   311109 
16682000   0.35040141    -1.194285    -1.194285  -0.67445761  0.025580943    -1.194285   0.51982738   311098 
16683000   0.35034403   -1.1935112   -1.1935112  -0.67374892  0.029264332   -1.1935112   0.51976231   311086 
16684000     0.351184   -1.1949221   -1.1949221  -0.67389351  0.034654437   -1.1949221   0.52102857   311074 
16685000   0.35056957   -1.1940802   -1.1940802  -0.67394317  0.030247981   -1.1940802   0.52013705   311062 
16686000   0.35043523    -1.195515    -1.195515  -0.67555885  0.029275914    -1.195515   0.51995611   311051 
16687000   0.35133443   -1.1964462   -1.1964462  -0.67513584  0.035622488   -1.1964462    0.521